Membrane in water
40155
    1TCq1    O1    1   2.840   4.542  10.437 -0.4376 -0.2137 -0.3489
    1TCq1    C1    2   2.710   4.531  10.482  0.3568 -0.6514  0.9023
    1TCq1    O2    3   2.638   4.430  10.473  0.2348  0.5712  0.5368
    1TCq1    C2    4   2.676   4.638  10.577 -0.5410 -0.2791 -0.4636
    1TCq1    C3    5   2.741   0.041  10.569 -0.5661  0.8225  0.3236
    1TCq1    C4    6   2.696   0.136  10.645  0.6986 -0.2698 -0.6187
    1TCq1    C5    7   2.606   0.114  10.751 -0.2132 -0.1497 -0.5566
    1TCq1    C6    8   2.558   4.713  10.770 -0.5459 -0.0174  0.0467
    1TCq1    C7    9   2.587   4.613  10.680  0.0307  0.1215  0.7527
    1TCq1    C8   10   2.465   4.687  10.881 -0.2464 -0.5465 -0.2103
    1TCq1    O4   11   2.442   0.053  10.964  0.1844 -0.0795  0.1051
    1TCq1    C9   12   2.740   0.271  10.614 -0.1287  0.1121 -0.2413
    1TCq1    O5   13   2.689   0.368  10.679  0.2113  0.1818 -0.2693
    1TCq1    O6   14   2.803   0.278  10.509 -0.7843 -0.1143 -0.1331
    1TCq1    H1   15   2.891   4.620  10.467 -1.7706 -0.4116  2.4248
    1TCq1    H2   16   2.797   0.063  10.479 -3.8553  1.1126 -1.6609
    1TCq1    H3   17   2.566   0.198  10.807 -3.2010 -1.6336 -0.4128
    1TCq1    H4   18   2.565   4.508  10.696  0.3188 -0.3381 -1.8936
    2MPD2     C   19   2.224   4.322  11.169 -0.0644  0.4255  0.1732
    2MPD2    C1   20   2.221   4.462  11.185 -0.0637  0.4389 -0.1264
    2MPD2    C2   21   2.296   4.538  11.093  0.5160  0.4745  0.6575
    2MPD2    C3   22   2.351   4.482  10.981  0.1914 -0.7434 -0.6972
    2MPD2    C4   23   2.346   4.343  10.966  0.4441  0.0084 -0.3243
    2MPD2    C5   24   2.287   4.266  11.061  0.3022  0.2762  0.6621
    2MPD2     H   25   2.298   4.646  11.105 -0.3117  0.1522  3.6073
    2MPD2    H1   26   2.391   4.294  10.881  0.4306  0.1501 -0.4148
    2MPD2    H2   27   2.180   4.258  11.244 -0.3838 -0.3972 -0.7104
    2MPD2    H3   28   2.283   4.158  11.064  0.2139  0.2718  0.3726
    2MPD2     N   29   2.430   4.555  10.880 -0.2645 -0.0468 -0.2385
    2MPD2    H5   30   2.462   4.505  10.797  1.5402 -1.2576  1.2008
    2MPD2    N1   31   2.162   4.524  11.297  0.7485 -0.1224  0.8940
    2MPD2    H7   32   2.161   4.625  11.289 -1.1433 -0.0467  2.1748
    3TCq1    O1   33   2.954   0.779  11.016  0.4607 -0.1616  0.3976
    3TCq1    C1   34   2.836   0.841  11.054 -0.0376  0.1780  0.6210
    3TCq1    O2   35   2.763   0.807  11.147  0.5046  0.7052  0.0887
    3TCq1    C2   36   2.775   0.892  10.928  0.7517 -0.1884  0.1515
    3TCq1    C3   37   2.846   0.981  10.855  0.0952 -0.1139  0.3995
    3TCq1    C4   38   2.774   1.045  10.754 -0.7618 -0.3465  0.2694
    3TCq1    C5   39   2.644   1.019  10.733  0.0735  0.0627 -0.0607
    3TCq1    C6   40   2.576   0.926  10.815 -0.0291 -0.1437  0.0630
    3TCq1    C7   41   2.641   0.862  10.918  0.8594 -0.4954 -0.3079
    3TCq1    C8   42   2.429   0.923  10.815 -0.1103 -0.9703  0.5650
    3TCq1    O4   43   2.382   0.827  10.865  0.0145  0.1493 -0.2883
    3TCq1    C9   44   2.847   1.119  10.667 -0.2459 -0.0730 -0.1866
    3TCq1    O5   45   2.963   1.155  10.699 -0.2924  0.2769  0.4361
    3TCq1    O6   46   2.793   1.153  10.558  0.5513 -0.4001  0.2113
    3TCq1    H1   47   2.986   0.796  10.925 -0.6485  0.2696  0.0913
    3TCq1    H2   48   2.945   1.011  10.887 -0.3381  0.0964  1.5486
    3TCq1    H3   49   2.594   1.086  10.663  1.3635 -1.3940 -2.3758
    3TCq1    H4   50   2.576   0.810  10.987  1.5331 -2.4556 -1.1725
    4MPD2     C   51   1.955   1.077  10.800  0.2340  0.1936  0.2662
    4MPD2    C1   52   2.040   1.190  10.811 -0.3825 -0.2729  0.3703
    4MPD2    C2   53   2.176   1.180  10.803 -0.0848  0.6035  0.7911
    4MPD2    C3   54   2.225   1.046  10.804  0.0442  0.2153 -0.3868
    4MPD2    C4   55   2.143   0.941  10.778 -0.1090 -0.3432 -0.2701
    4MPD2    C5   56   2.008   0.954  10.781  0.1499  0.0697 -0.2243
    4MPD2     H   57   2.244   1.264  10.811  0.0887  0.6594 -1.4688
    4MPD2    H1   58   2.190   0.847  10.750  0.0819  0.3272 -2.1814
    4MPD2    H2   59   1.847   1.074  10.805  0.2254 -1.0021 -0.5434
    4MPD2    H3   60   1.949   0.869  10.750  0.7080 -0.1947 -0.5472
    4MPD2     N   61   2.362   1.039  10.797  0.1032 -0.3591 -0.6132
    4MPD2    H5   62   2.416   1.119  10.766  0.4026 -0.6696 -0.8889
    4MPD2    N1   63   1.990   1.325  10.840  0.1259 -0.3024  0.0202
    4MPD2    H7   64   2.062   1.397  10.838 -1.7433  1.6154  2.6166
    5TCq1    O1   65   1.329   2.939  10.419  0.1035  0.5447 -0.1328
    5TCq1    C1   66   1.216   2.881  10.373  0.7155  0.3695  0.6091
    5TCq1    O2   67   1.109   2.912  10.414 -0.5106 -0.0850  0.2703
    5TCq1    C2   68   1.254   2.751  10.326  0.5970 -0.0808 -0.2219
    5TCq1    C3   69   1.167   2.680  10.256 -0.3456 -1.0028  0.1472
    5TCq1    C4   70   1.186   2.545  10.230 -0.2159 -0.5331  0.2543
    5TCq1    C5   71   1.293   2.480  10.287 -0.3941  0.2648 -0.6896
    5TCq1    C6   72   1.385   2.555  10.356  0.1245 -0.1054 -0.1580
    5TCq1    C7   73   1.373   2.694  10.368  1.1421  0.6747  0.3839
    5TCq1    C8   74   1.510   2.499  10.408 -1.0594 -0.3281  0.4346
    5TCq1    O4   75   1.603   2.571  10.436  0.4584 -0.1876 -0.1485
    5TCq1    C9   76   1.099   2.467  10.145 -0.0054  0.0632 -0.0078
    5TCq1    O5   77   0.998   2.530  10.099 -0.3921  0.1914  0.1538
    5TCq1    O6   78   1.111   2.338  10.153  0.1166  0.7223 -0.1871
    5TCq1    H1   79   1.400   2.932  10.352  2.2765 -1.1119  2.3372
    5TCq1    H2   80   1.081   2.726  10.209  1.6368  1.5757 -0.9783
    5TCq1    H3   81   1.308   2.376  10.258 -3.5558 -0.6265  0.9110
    5TCq1    H4   82   1.455   2.741  10.420  2.6399  0.0549 -1.4370
    6MPD2     C   83   1.582   2.138  10.468 -1.3598  0.4558  0.2331
    6MPD2    C1   84   1.612   2.278  10.450 -0.1301  0.0113 -0.0007
    6MPD2    C2   85   1.744   2.320  10.486 -0.2077  0.5957 -0.5665
    6MPD2    C3   86   1.844   2.229  10.521  0.3780  0.1915  1.0250
    6MPD2    C4   87   1.799   2.103  10.544  0.0955  0.3722  0.0525
    6MPD2    C5   88   1.681   2.056  10.516  0.1180  0.6798  0.4635
    6MPD2     H   89   1.760   2.428  10.485 -0.3930  0.6486  0.9666
    6MPD2    H1   90   1.866   2.037  10.598  0.5761 -1.2473 -2.5077
    6MPD2    H2   91   1.484   2.094  10.453 -1.2905  0.0186  1.0551
    6MPD2    H3   92   1.672   1.950  10.538  4.2360  0.0710 -0.7455
    6MPD2     N   93   1.977   2.267  10.560  0.0624 -0.1393  0.3314
    6MPD2    H5   94   2.003   2.363  10.576  0.7635 -0.3054  0.1996
    6MPD2    N1   95   1.503   2.362  10.425 -0.0039  0.3318 -0.4035
    6MPD2    H7   96   1.410   2.324  10.409 -0.5049  2.6505 -2.8792
    7TCq1    O1   97   0.033   2.825  13.562 -0.5523 -0.4535  0.0954
    7TCq1    C1   98   4.709   2.857  13.436  0.3326 -0.1037 -0.5977
    7TCq1    O2   99   0.013   2.964  13.381 -0.4656  0.1314 -0.3472
    7TCq1    C2  100   4.600   2.771  13.397  0.3630  0.1901 -0.6189
    7TCq1    C3  101   4.492   2.819  13.326 -0.3418  0.9136 -0.1360
    7TCq1    C4  102   4.408   2.720  13.277 -0.2053 -0.3174  0.0509
    7TCq1    C5  103   4.435   2.586  13.292 -0.0423  0.2417 -1.2962
    7TCq1    C6  104   4.543   2.546  13.366  0.0475 -0.4971 -0.4959
    7TCq1    C7  105   4.627   2.634  13.425  0.3137  0.4214  0.3997
    7TCq1    C8  106   4.579   2.401  13.379 -0.1859 -0.1449 -0.5359
    7TCq1    O4  107   4.693   2.367  13.392  0.5054 -0.2831  0.1297
    7TCq1    C9  108   4.281   2.752  13.219 -0.3460 -0.3577  0.7529
    7TCq1    O5  109   4.217   2.658  13.159 -0.0668  0.2929 -0.0795
    7TCq1    O6  110   4.244   2.871  13.235  0.3539  0.2396  0.0369
    7TCq1    H1  111   4.717   2.743  13.600  1.5103 -0.9253  1.2213
    7TCq1    H2  112   4.474   2.925  13.313 -0.5125  0.5685 -2.6313
    7TCq1    H3  113   4.364   2.512  13.258 -0.2969 -0.2212  0.2563
    7TCq1    H4  114   0.001   2.594  13.453  0.7975 -1.3182 -3.8516
    8MPD2     C  115   4.426   1.922  13.460  0.6255 -0.4658 -0.3660
    8MPD2    C1  116   4.554   1.963  13.435  0.2112 -0.4227  0.6027
    8MPD2    C2  117   4.570   2.094  13.399  0.3932  0.0117  0.1557
    8MPD2    C3  118   4.465   2.185  13.412  0.2078  0.0531 -0.2917
    8MPD2    C4  119   4.335   2.140  13.441  0.0959  0.5378 -0.5214
    8MPD2    C5  120   4.317   2.010  13.470 -0.0644 -0.4612 -0.4361
    8MPD2     H  121   4.665   2.134  13.367 -0.2740  0.5566 -1.1868
    8MPD2    H1  122   4.252   2.207  13.461 -0.0193  0.2290  0.0270
    8MPD2    H2  123   4.411   1.817  13.484  1.4339 -0.2365  1.1263
    8MPD2    H3  124   4.219   1.968  13.488 -0.5578  2.2697  3.3389
    8MPD2     N  125   4.467   2.323  13.398 -0.0773 -0.5695 -0.2625
    8MPD2    H5  126   4.379   2.373  13.394  0.6381  0.7485  0.1686
    8MPD2    N1  127   4.647   1.861  13.412  0.8454  0.0860 -0.0664
    8MPD2    H7  128   4.609   1.768  13.429 -2.1996  0.8982 -2.3075
    9TCq1    O1  129   2.654   2.363  11.483 -0.1242 -0.1115  0.6864
    9TCq1    C1  130   2.569   2.299  11.564 -0.2517 -0.2696 -0.1129
    9TCq1    O2  131   2.498   2.344  11.654 -0.3932 -0.4351 -0.0552
    9TCq1    C2  132   2.576   2.166  11.527  0.6472 -0.6581  0.7339
    9TCq1    C3  133   2.701   2.111  11.525  0.3887  0.1657 -0.3261
    9TCq1    C4  134   2.708   1.984  11.479  0.1214 -0.2316 -0.0651
    9TCq1    C5  135   2.597   1.913  11.438  0.0311  0.6937  0.2897
    9TCq1    C6  136   2.476   1.977  11.440 -0.0042 -0.7809 -0.6390
    9TCq1    C7  137   2.464   2.105  11.484 -0.2180  0.1162 -0.4867
    9TCq1    C8  138   2.351   1.902  11.414 -0.0736 -0.0640 -0.4077
    9TCq1    O4  139   2.249   1.966  11.395 -0.4836 -0.3867  0.0199
    9TCq1    C9  140   2.835   1.923  11.465 -0.0185  0.8641  0.5023
    9TCq1    O5  141   2.833   1.810  11.403  0.0448  0.1466 -0.4284
    9TCq1    O6  142   2.938   1.986  11.502  0.9398  0.3392 -0.4178
    9TCq1    H1  143   2.690   2.302  11.414  1.1567  0.3861  0.9261
    9TCq1    H2  144   2.790   2.155  11.567  0.5370 -2.0055  1.5812
    9TCq1    H3  145   2.609   1.817  11.388 -2.1902 -0.0305  1.1118
    9TCq1    H4  146   2.367   2.151  11.504  0.2779  0.6903  0.6339
   10MPD2     C  147   2.124   1.713  11.407 -0.0688 -0.4102 -0.7285
   10MPD2    C1  148   2.253   1.679  11.433  0.7106 -0.5309 -0.5658
   10MPD2    C2  149   2.295   1.550  11.456  0.3902  0.2646  1.1729
   10MPD2    C3  150   2.194   1.454  11.454 -0.1004 -0.4882  0.0471
   10MPD2    C4  151   2.065   1.494  11.443 -0.4432  0.0024  0.3702
   10MPD2    C5  152   2.028   1.620  11.410  0.5064 -0.2603 -0.7691
   10MPD2     H  153   2.399   1.527  11.476 -0.0195 -0.9551  1.9407
   10MPD2    H1  154   2.000   1.408  11.448 -1.9115  1.0244 -1.0237
   10MPD2    H2  155   2.082   1.812  11.392 -1.6363 -0.6580  2.0112
   10MPD2    H3  156   1.923   1.645  11.404  0.8755  0.9005 -2.5454
   10MPD2     N  157   2.222   1.315  11.487 -0.1995 -0.1702  0.1566
   10MPD2    H5  158   2.145   1.251  11.499  0.9513 -1.4466  0.7143
   10MPD2    N1  159   2.362   1.771  11.448  0.5965  0.1071  0.9323
   10MPD2    H7  160   2.448   1.748  11.497 -0.5161 -1.8513  1.9495
   11TCq1    O1  161   4.086   0.771  13.793  0.2673 -0.2665  0.1943
   11TCq1    C1  162   4.020   0.656  13.815 -0.1325  0.3595  0.2911
   11TCq1    O2  163   3.971   0.584  13.735 -0.4462 -0.6682  0.0105
   11TCq1    C2  164   3.947   0.683  13.943  0.2980 -0.2260  0.1344
   11TCq1    C3  165   3.991   0.775  14.033 -0.0624  0.6114 -0.2800
   11TCq1    C4  166   3.916   0.811  14.141  0.0342 -0.1723 -0.4147
   11TCq1    C5  167   3.786   0.770  14.144 -0.6087  0.5580 -0.5573
   11TCq1    C6  168   3.742   0.675  14.054 -0.0140 -0.2131  0.0665
   11TCq1    C7  169   3.823   0.628  13.951 -0.3060  1.0802  0.6241
   11TCq1    C8  170   3.603   0.625  14.046 -0.7676  0.5297  0.0684
   11TCq1    O4  171   3.562   0.570  13.949  0.2368  0.6137  0.6526
   11TCq1    C9  172   3.951   0.897  14.253 -0.2422  1.0214  0.4116
   11TCq1    O5  173   4.069   0.941  14.247 -0.7631 -0.4073 -0.4756
   11TCq1    O6  174   3.864   0.917  14.342  0.0957  0.2205  0.4899
   11TCq1    H1  175   4.091   0.826  13.874  0.2874  1.0913 -0.7328
   11TCq1    H2  176   4.097   0.796  14.036  0.3172 -1.8202  3.0295
   11TCq1    H3  177   3.723   0.815  14.220  0.2083 -1.1164  1.1304
   11TCq1    H4  178   3.801   0.549  13.880  1.3299  0.3454  0.9344
   12MPD2     C  179   3.349   0.708  14.291 -0.4037  0.0130 -0.2929
   12MPD2    C1  180   3.398   0.634  14.190  0.4532  0.1464 -0.3853
   12MPD2    C2  181   3.317   0.543  14.116 -0.2835  0.4218  0.4169
   12MPD2    C3  182   3.179   0.532  14.148  0.5065  0.3054  0.0738
   12MPD2    C4  183   3.134   0.609  14.256 -0.9852  0.3934  0.2310
   12MPD2    C5  184   3.213   0.703  14.324  0.4665 -0.4897 -0.2585
   12MPD2     H  185   3.363   0.480  14.041 -0.6752 -0.4732  0.9236
   12MPD2    H1  186   3.035   0.596  14.299 -0.8776  0.7764  0.5997
   12MPD2    H2  187   3.415   0.779  14.338  0.0168 -0.1723 -0.6090
   12MPD2    H3  188   3.163   0.772  14.392 -1.3273 -1.0697 -0.9795
   12MPD2     N  189   3.086   0.441  14.088  0.3628 -0.1262 -0.6573
   12MPD2    H5  190   2.989   0.448  14.118  1.6478 -0.1381  3.4714
   12MPD2    N1  191   3.539   0.656  14.160 -0.1532  0.4408  0.8298
   12MPD2    H7  192   3.589   0.710  14.230  1.9618 -0.3029 -0.1237
   13TCq1    O1  193   2.598   1.160  10.379  0.8502 -0.0438 -0.7343
   13TCq1    C1  194   2.566   1.083  10.271  0.1536  0.0698 -0.0844
   13TCq1    O2  195   2.454   1.094  10.215  0.2208 -0.2227  0.2071
   13TCq1    C2  196   2.612   0.959  10.324  0.3626  0.7294  0.2577
   13TCq1    C3  197   2.746   0.950  10.361  0.4411 -0.3472  0.3823
   13TCq1    C4  198   2.777   0.837  10.434 -0.3023 -0.2654  0.1346
   13TCq1    C5  199   2.683   0.745  10.473  0.1780 -0.3102  1.1641
   13TCq1    C6  200   2.555   0.763  10.433  0.0842 -0.0477 -0.3278
   13TCq1    C7  201   2.512   0.866  10.353 -0.2276 -0.3096  0.0566
   13TCq1    C8  202   2.453   0.679  10.491 -0.5305 -0.5655 -0.3060
   13TCq1    O4  203   2.491   0.639  10.599  0.4131  0.8397 -0.6353
   13TCq1    C9  204   2.911   0.828  10.479 -0.3035  0.4940  0.0207
   13TCq1    O5  205   2.996   0.920  10.481 -0.3972  0.1372  0.5285
   13TCq1    O6  206   2.944   0.710  10.505 -0.5034 -0.3953  0.2085
   13TCq1    H1  207   2.671   1.118  10.430  0.8429  1.5680  0.6100
   13TCq1    H2  208   2.815   1.024  10.323  0.0444  0.5827  1.4752
   13TCq1    H3  209   2.715   0.657  10.527 -0.3174 -1.3798 -0.2716
   13TCq1    H4  210   2.410   0.880  10.318 -0.7097  0.3874  1.7444
   14MPD2     C  211   2.119   0.569  10.374  0.1418  0.5838  0.3742
   14MPD2    C1  212   2.220   0.608  10.472  0.1493 -0.4577  0.9889
   14MPD2    C2  213   2.193   0.583  10.608  0.1142 -0.1636 -0.0481
   14MPD2    C3  214   2.071   0.531  10.640 -0.2842 -0.2568  0.6246
   14MPD2    C4  215   1.978   0.495  10.543 -0.1559 -0.1225 -0.0076
   14MPD2    C5  216   2.001   0.530  10.413  0.2010 -0.5766  0.0460
   14MPD2     H  217   2.264   0.615  10.683  0.6011  2.8387 -1.7793
   14MPD2    H1  218   1.874   0.475  10.567 -1.1917  1.8570 -2.8913
   14MPD2    H2  219   2.146   0.586  10.271 -0.8810 -3.0903 -0.4803
   14MPD2    H3  220   1.925   0.496  10.344  0.5185  0.8714 -1.0164
   14MPD2     N  221   2.043   0.508  10.772 -0.1616 -0.1220 -0.3743
   14MPD2    H5  222   2.118   0.539  10.832 -1.7414  0.8255  1.0956
   14MPD2    N1  223   2.336   0.663  10.416  0.0885 -0.3394 -0.0372
   14MPD2    H7  224   2.333   0.697  10.321  1.4976 -1.0514 -0.3427
   15TCq1    O1  225   3.448   3.594   1.741  0.3210 -0.4231  0.1824
   15TCq1    C1  226   3.526   3.592   1.631 -0.1674  0.2322 -0.1204
   15TCq1    O2  227   3.488   3.566   1.520 -0.2810  0.0253 -0.5088
   15TCq1    C2  228   3.671   3.624   1.670 -0.6973 -0.6860  0.0617
   15TCq1    C3  229   3.698   3.715   1.763 -0.7687  0.2341  0.5311
   15TCq1    C4  230   3.827   3.750   1.788 -0.5251 -0.0497  0.1845
   15TCq1    C5  231   3.932   3.694   1.719 -0.0568 -0.0903 -0.2450
   15TCq1    C6  232   3.900   3.602   1.614 -0.0052 -0.7541 -0.1217
   15TCq1    C7  233   3.767   3.580   1.588 -0.1815 -0.5402  1.0197
   15TCq1    C8  234   4.006   3.546   1.531 -0.1041  0.9577 -0.4654
   15TCq1    O4  235   4.123   3.546   1.574  0.2199 -0.0418 -0.2433
   15TCq1    C9  236   3.859   3.819   1.915 -0.1137 -0.4049 -0.0988
   15TCq1    O5  237   3.966   3.808   1.979  0.1621 -0.1523 -0.3611
   15TCq1    O6  238   3.758   3.864   1.972 -0.0171  0.2295  0.5296
   15TCq1    H1  239   3.499   3.600   1.825 -1.2549 -1.5871  1.2231
   15TCq1    H2  240   3.620   3.754   1.826 -0.2564  0.3995  1.0659
   15TCq1    H3  241   4.032   3.718   1.755 -0.7855  2.5237 -0.0204
   15TCq1    H4  242   3.739   3.506   1.514 -1.3426 -0.3015  1.2157
   16MPD2     C  243   3.965   3.417   1.191  0.0344 -0.1410  0.3797
   16MPD2    C1  244   4.028   3.445   1.310 -0.1831 -0.3054 -0.8344
   16MPD2    C2  245   4.155   3.393   1.326  0.3023 -0.1210 -0.4143
   16MPD2    C3  246   4.224   3.321   1.231 -0.2125 -0.4333 -0.1657
   16MPD2    C4  247   4.165   3.302   1.112  0.3693 -0.7579  0.1162
   16MPD2    C5  248   4.032   3.353   1.094  0.1685  0.6842 -0.1890
   16MPD2     H  249   4.211   3.416   1.416 -0.7735 -1.4798  0.6144
   16MPD2    H1  250   4.212   3.251   1.028 -0.4630 -0.7341 -0.3710
   16MPD2    H2  251   3.862   3.447   1.173 -0.5320 -1.2237  1.8387
   16MPD2    H3  252   3.984   3.325   1.001 -0.4711 -0.2580  0.4259
   16MPD2     N  253   4.356   3.283   1.259  0.0293 -0.2538 -0.6629
   16MPD2    H5  254   4.402   3.326   1.338  0.5490  0.0256 -1.1195
   16MPD2    N1  255   3.959   3.509   1.408 -0.2725 -0.3869 -0.2231
   16MPD2    H7  256   3.859   3.523   1.392 -0.1205  0.7205 -0.1746
   17TCq1    O1  257   3.145   0.507  10.767 -0.0752 -0.2846 -0.3796
   17TCq1    C1  258   3.159   0.374  10.760 -0.2462 -0.5394  0.2920
   17TCq1    O2  259   3.258   0.319  10.707 -0.2555 -0.2398  0.0198
   17TCq1    C2  260   3.065   0.309  10.848  0.1948 -0.1383  0.5652
   17TCq1    C3  261   3.001   0.375  10.949  0.3013  0.8448  0.0711
   17TCq1    C4  262   2.915   0.308  11.025  0.8318 -0.4698 -0.0086
   17TCq1    C5  263   2.905   0.170  11.018 -0.5113 -0.7824  1.1492
   17TCq1    C6  264   2.971   0.109  10.911 -0.1270  0.4414 -0.8359
   17TCq1    C7  265   3.048   0.176  10.824  0.1395  0.8400  0.3298
   17TCq1    C8  266   2.931   4.691  10.886 -0.2922 -0.2022 -0.1422
   17TCq1    O4  267   2.834   4.641  10.944 -0.4150 -0.1328 -0.0443
   17TCq1    C9  268   2.848   0.383  11.127 -0.1992 -0.7921  0.8799
   17TCq1    O5  269   2.758   0.323  11.190  0.0638  0.4229  0.1651
   17TCq1    O6  270   2.866   0.507  11.139 -0.3686 -0.4035 -0.2190
   17TCq1    H1  271   3.048   0.524  10.768 -0.4663 -2.6218  1.2889
   17TCq1    H2  272   3.035   0.474  10.979 -0.4464  0.9612  0.5341
   17TCq1    H3  273   2.864   0.112  11.100 -2.1370 -0.7059  0.3785
   17TCq1    H4  274   3.093   0.131  10.736  0.7639 -0.5853  1.3800
   18MPD2     C  275   2.879   4.426  10.749 -0.9533  0.3964 -0.5127
   18MPD2    C1  276   2.991   4.508  10.726  0.7146  0.6020  0.2467
   18MPD2    C2  277   3.089   4.460  10.644  0.1208  0.3538  0.4015
   18MPD2    C3  278   3.093   4.330  10.601 -0.0884  0.1704  0.3177
   18MPD2    C4  279   2.981   4.252  10.630  0.5183 -0.0918 -1.2021
   18MPD2    C5  280   2.875   4.301  10.702  0.1578  0.3567  0.0815
   18MPD2     H  281   3.168   4.525  10.608 -0.4342  0.8923  0.1505
   18MPD2    H1  282   2.971   4.148  10.602  0.4902 -0.0411 -1.3807
   18MPD2    H2  283   2.793   4.461  10.804 -0.0984  2.4225 -0.4485
   18MPD2    H3  284   2.793   4.233  10.725  0.7242  0.3626  2.0773
   18MPD2     N  285   3.186   4.282  10.514 -0.1709  0.1106  0.0791
   18MPD2    H5  286   3.155   4.197  10.468  4.2797 -1.1602 -0.5224
   18MPD2    N1  287   3.008   4.633  10.788 -0.5158 -0.0621  0.0951
   18MPD2    H7  288   3.090   4.689  10.765 -2.0115  1.8210 -0.6894
   19TMC2    C1  289   4.150   0.335  13.510  0.2476 -0.1305  0.2030
   19TMC2    C2  290   4.104   0.383  13.386  0.4452 -0.1616  0.3219
   19TMC2    C3  291   4.006   0.311  13.322  0.1006  0.7567  0.0295
   19TMC2    C4  292   4.100   0.220  13.565  0.5618  0.0656 -0.4337
   19TMC2    C5  293   4.009   0.147  13.492 -0.2716 -0.4707  0.2753
   19TMC2    C6  294   3.958   0.196  13.375  0.8630  0.9503  0.4850
   19TMC2     C  295   4.225   0.431  13.594  0.5804 -0.0345 -0.0527
   19TMC2     O  296   4.253   0.539  13.550 -0.0391  0.3834 -0.1243
   19TMC2     H  297   4.134   0.480  13.349  2.7926 -1.0827 -0.1634
   19TMC2    H1  298   4.149   0.170  13.648  1.9260  1.4732 -0.3903
   19TMC2    H2  299   3.894   0.134  13.313  0.5382  0.2792  1.4833
   19TMC2    C7  300   3.952   0.023  13.557  0.6466 -0.4934  0.9121
   19TMC2    C8  301   3.927   0.372  13.222 -0.1628  0.0496 -0.2352
   19TMC2    O1  302   3.905   4.657  13.486  0.2199 -0.6439  0.1375
   19TMC2    O2  303   3.811   0.401  13.253  0.2517 -0.4291  0.5067
   19TMC2    O5  304   4.014   0.440  13.151 -0.7026  0.4157  0.1954
   19TMC2    H5  305   4.097   0.390  13.171 -2.1340 -1.9599  0.1380
   20MPD2     C  306   4.332   0.591  13.828 -0.1813 -0.3964  0.1959
   20MPD2    C1  307   4.302   0.454  13.828  0.2104 -0.1026 -0.2468
   20MPD2    C2  308   4.310   0.383  13.949  0.1939  0.0716 -0.2040
   20MPD2    C3  309   4.342   0.452  14.067 -0.5022 -0.4024  0.0418
   20MPD2    C4  310   4.355   0.582  14.055 -0.0950  0.0412  0.4077
   20MPD2    C5  311   4.352   0.655  13.945 -0.1651 -0.3091  0.4210
   20MPD2     H  312   4.274   0.280  13.951 -0.6459  0.3231 -2.1355
   20MPD2    H1  313   4.386   0.644  14.138  3.2717  0.4053 -1.1170
   20MPD2    H2  314   4.339   0.657  13.743  0.0712 -2.2652 -1.2309
   20MPD2    H3  315   4.382   0.759  13.949  2.2864 -0.9349 -1.3636
   20MPD2     N  316   4.331   0.390  14.199 -0.2392 -0.3052 -0.5560
   20MPD2    H5  317   4.317   0.454  14.276 -0.7756 -2.1671  0.8949
   20MPD2    N1  318   4.251   0.380  13.720  0.1730 -0.1422  0.1397
   20MPD2    H7  319   4.264   0.279  13.725 -1.0304 -0.1823  2.2915
   21MPD2     C  320   1.792   0.923  14.458 -0.3474 -0.9347 -0.1030
   21MPD2    C1  321   1.828   0.788  14.448 -0.0774  0.4846  0.1333
   21MPD2    C2  322   1.739   0.693  14.499  0.3490 -0.1753  0.2830
   21MPD2    C3  323   1.631   0.728  14.579  0.2867 -0.2910  0.5616
   21MPD2    C4  324   1.594   0.858  14.588 -0.2146  0.0793  0.0504
   21MPD2    C5  325   1.672   0.954  14.522 -0.7524 -0.4565  0.1219
   21MPD2     H  326   1.773   0.590  14.502 -1.7356 -0.9196 -0.9674
   21MPD2    H1  327   1.497   0.892  14.623 -0.9592 -0.3850 -1.5489
   21MPD2    H2  328   1.861   0.996  14.418  2.2743 -2.9558  0.6973
   21MPD2    H3  329   1.630   1.055  14.523 -2.4421 -1.1523  0.4930
   21MPD2     N  330   1.565   0.631  14.655 -0.1350  0.3751 -0.1724
   21MPD2    H5  331   1.477   0.650  14.702 -0.6070  3.0553 -2.2122
   21MPD2    N1  332   1.933   0.739  14.374  0.1288  0.4670  0.7267
   21MPD2    H7  333   1.942   0.638  14.379 -3.6436  0.0592 -1.1505
   22TCq2    C1  334   1.621   0.509  14.702  0.9438 -1.2096  0.5623
   22TCq2    O2  335   1.731   0.463  14.679  0.1925 -0.0145  0.0632
   22TCq2    C2  336   1.533   0.451  14.794  0.3599  0.5399  0.7381
   22TCq2    C3  337   1.585   0.375  14.896 -0.3398 -0.3985 -0.7247
   22TCq2    C4  338   1.496   0.337  15.000  0.2232  1.2877 -0.2887
   22TCq2    C5  339   1.369   0.359  14.993 -0.2479 -0.2400  0.2592
   22TCq2    C6  340   1.321   0.428  14.885 -0.4527 -0.5354 -0.5598
   22TCq2    C7  341   1.403   0.474  14.783  0.7399  0.6401 -0.5244
   22TCq2    C8  342   1.170   0.437  14.876 -0.5426  0.3655  0.0579
   22TCq2    O4  343   1.107   0.351  14.938  0.3277  0.0010 -0.1621
   22TCq2    C9  344   1.540   0.252  15.106  0.3320 -0.7712  0.3060
   22TCq2    O5  345   1.658   0.211  15.098 -0.0110 -0.2353 -0.0036
   22TCq2    O6  346   1.449   0.204  15.180  0.1663  0.1490 -0.3161
   22TCq2    H2  347   1.689   0.347  14.896 -0.2030  0.1032 -0.8547
   22TCq2    H3  348   1.306   0.333  15.077 -0.2808  0.4839  0.4568
   22TCq2    H4  349   1.358   0.526  14.700  0.2593 -0.5583 -1.0241
   23MPD2     C  350   3.523   1.680  14.937  0.4977 -0.9988 -0.2257
   23MPD2    C1  351   3.416   1.605  14.976 -0.2701  0.1338  0.4108
   23MPD2    C2  352   3.303   1.612  14.899 -0.1171  0.2953 -0.4735
   23MPD2    C3  353   3.283   1.700  14.789  0.1637 -0.5364 -0.8475
   23MPD2    C4  354   3.391   1.778  14.751  0.2115 -0.1587 -0.7411
   23MPD2    C5  355   3.511   1.759  14.822  0.2838 -0.2573  0.4968
   23MPD2     H  356   3.229   1.537  14.925  0.8658  0.3068  2.3509
   23MPD2    H1  357   3.385   1.844  14.665  1.4662 -0.1374 -0.8050
   23MPD2    H2  358   3.613   1.694  14.995  0.0371  3.4785 -0.5902
   23MPD2    H3  359   3.596   1.824  14.802  0.5217 -0.9895 -0.8623
   23MPD2     N  360   3.167   1.710  14.710  0.2931 -0.5912  0.1784
   23MPD2    H5  361   3.171   1.784  14.641  0.0581 -0.4292  0.3391
   23MPD2    N1  362   3.411   1.532  15.096 -0.4831 -0.1804 -0.2341
   23MPD2    H7  363   3.320   1.491  15.115 -0.4004  0.2832  1.1538
   24TCq2    C1  364   3.047   1.639  14.728 -0.0672 -0.1015 -0.2402
   24TCq2    O2  365   3.014   1.559  14.813  0.1134 -0.3064 -0.6173
   24TCq2    C2  366   2.934   1.673  14.636 -0.3727  0.7301  0.5645
   24TCq2    C3  367   2.961   1.743  14.519 -1.0101 -0.3288 -0.0497
   24TCq2    C4  368   2.858   1.744  14.434 -0.2829 -1.1485  0.0130
   24TCq2    C5  369   2.739   1.673  14.440 -0.6420 -0.5707 -0.2933
   24TCq2    C6  370   2.723   1.596  14.555  0.2466 -0.4126 -0.6478
   24TCq2    C7  371   2.821   1.595  14.653  0.6894  0.0046 -0.5427
   24TCq2    C8  372   2.608   1.510  14.585 -1.0914 -0.0918  0.5380
   24TCq2    O4  373   2.617   1.426  14.675  0.6432 -0.5924  0.0285
   24TCq2    C9  374   2.880   1.816  14.310  0.2945  0.5641  0.1705
   24TCq2    O5  375   2.989   1.873  14.300  0.7209 -0.4251 -0.4538
   24TCq2    O6  376   2.807   1.794  14.209  0.5821  0.0955  0.0507
   24TCq2    H2  377   3.046   1.808  14.501 -1.7488  0.1972 -1.5879
   24TCq2    H3  378   2.667   1.683  14.360 -0.5223 -0.4223 -0.3824
   24TCq2    H4  379   2.802   1.537  14.743 -1.9914  0.4738 -0.8151
   25TMC2    C1  380   1.818   4.169  11.521  0.4058 -0.8229  0.1710
   25TMC2    C2  381   1.946   4.130  11.514 -0.0201  0.1719 -0.3611
   25TMC2    C3  382   2.018   4.128  11.633  0.6757  0.3790 -1.1942
   25TMC2    C4  383   1.760   4.190  11.640 -0.4906 -0.3044  0.0822
   25TMC2    C5  384   1.830   4.188  11.752  0.6307  0.4782 -0.2749
   25TMC2    C6  385   1.962   4.156  11.750 -0.6408 -0.0441  0.3295
   25TMC2     C  386   1.726   4.151  11.406  0.1733  0.0580  0.3566
   25TMC2     O  387   1.622   4.221  11.408 -0.0531  0.5150  0.0282
   25TMC2     H  388   1.987   4.103  11.418  0.2554  0.7194 -0.3980
   25TMC2    H1  389   1.655   4.213  11.645 -0.3821  0.1496  0.2870
   25TMC2    H2  390   2.024   4.141  11.837 -0.7171 -1.1169  0.2093
   25TMC2    C7  391   1.758   4.140  11.879 -1.0792 -0.3589  0.2089
   25TMC2    C8  392   2.155   4.072  11.630 -0.0188 -0.8332  0.4267
   25TMC2    O1  393   1.822   4.070  11.956 -0.0160 -0.0476 -0.1538
   25TMC2    O2  394   2.214   4.034  11.729  0.1550  0.0453  0.2666
   25TMC2    O5  395   2.219   4.152  11.543 -0.2848  0.0963  0.8582
   25TMC2    H5  396   2.162   4.218  11.499  0.8794  0.6201  0.1400
   26MPD2     C  397   1.514   3.890  11.022  0.5416  0.3992  0.4656
   26MPD2    C1  398   1.590   3.804  11.096 -0.0818 -0.0929 -0.0295
   26MPD2    C2  399   1.668   3.858  11.197 -0.0447 -0.5355  0.1436
   26MPD2    C3  400   1.678   3.993  11.227 -0.3323 -0.0791  0.0066
   26MPD2    C4  401   1.590   4.070  11.153  0.4918  0.2395  0.3107
   26MPD2    C5  402   1.507   4.025  11.061 -0.1787  0.0869  0.8772
   26MPD2     H  403   1.724   3.784  11.253 -2.1022  0.3382  3.3629
   26MPD2    H1  404   1.587   4.174  11.184 -0.0906  0.3203 -0.0118
   26MPD2    H2  405   1.457   3.853  10.938 -0.1677  2.3603  0.0734
   26MPD2    H3  406   1.456   4.092  10.993 -0.4254 -1.3732 -0.3859
   26MPD2     N  407   1.762   4.042  11.327 -0.2392  0.5970  0.2657
   26MPD2    H5  408   1.829   3.971  11.352 -1.3818 -1.0800 -1.4133
   26MPD2    N1  409   1.573   3.662  11.059  0.1297  0.8095 -0.6995
   26MPD2    H7  410   1.517   3.634  10.979 -1.0061  0.9288  0.0538
   27TMC2    C1  411   0.739   0.980  12.054  0.2529 -0.5411  0.0439
   27TMC2    C2  412   0.657   1.071  12.008 -0.1862 -0.0330 -0.0194
   27TMC2    C3  413   0.697   1.202  12.011  0.5539 -0.4358 -0.3993
   27TMC2    C4  414   0.858   1.011  12.108  0.1365  0.3256  0.3097
   27TMC2    C5  415   0.901   1.137  12.121 -0.2525  0.0468  0.1599
   27TMC2    C6  416   0.823   1.237  12.056  0.4289  0.3580  0.1589
   27TMC2     C  417   0.682   0.863  12.113  0.1916 -0.2231 -1.0368
   27TMC2     O  418   0.710   0.749  12.068 -0.0564 -0.1241  0.0854
   27TMC2     H  419   0.557   1.045  11.974 -0.4301  1.1826 -0.2487
   27TMC2    H1  420   0.914   0.929  12.154 -0.4622  0.8519  1.9710
   27TMC2    H2  421   0.859   1.338  12.075  2.4992 -0.1786 -0.8764
   27TMC2    C7  422   0.974   1.161  12.248 -0.1908 -0.2740  0.0532
   27TMC2    C8  423   0.653   1.287  11.900  0.3020 -0.2764  0.3189
   27TMC2    O1  424   1.021   1.062  12.303 -0.5048 -0.1500 -0.2829
   27TMC2    O2  425   0.696   1.258  11.787  0.2479 -0.1540  0.4281
   27TMC2    O5  426   0.668   1.410  11.964 -0.2769  0.3744  0.0291
   27TMC2    H5  427   0.632   1.421  12.054 -2.6026 -1.0260 -0.7401
   28MPD2     C  428   0.418   0.682  12.523 -0.4625  0.1516 -0.5241
   28MPD2    C1  429   0.418   0.821  12.533 -0.1506 -0.0182  0.3309
   28MPD2    C2  430   0.486   0.889  12.435 -0.3345 -0.5568 -0.2506
   28MPD2    C3  431   0.546   0.822  12.323  0.6145  0.6577  0.3584
   28MPD2    C4  432   0.535   0.689  12.315  0.0903 -0.2637  0.2747
   28MPD2    C5  433   0.481   0.620  12.415  0.2222  0.4995 -0.0656
   28MPD2     H  434   0.481   0.998  12.434  3.4397 -0.4010 -3.0645
   28MPD2    H1  435   0.580   0.629  12.237 -2.4705 -0.6316 -0.8991
   28MPD2    H2  436   0.372   0.630  12.606  0.9317 -2.3514 -1.3348
   28MPD2    H3  437   0.471   0.513  12.411  0.5059  0.4932 -0.5400
   28MPD2     N  438   0.620   0.904  12.233 -0.1398 -0.0375  0.0257
   28MPD2    H5  439   0.607   1.004  12.243 -1.4700 -0.1904 -0.2417
   28MPD2    N1  440   0.351   0.880  12.641  0.3777 -0.1372 -0.3129
   28MPD2    H7  441   0.306   0.819  12.708 -1.0562  1.3269  0.0664
   29MPD2     C  442   0.080   3.603  14.076  0.0786 -0.2618  0.3971
   29MPD2    C1  443   0.204   3.561  14.126  0.5579 -0.3635  0.4459
   29MPD2    C2  444   0.271   3.641  14.210 -0.0576  0.3710  0.0064
   29MPD2    C3  445   0.225   3.763  14.252 -0.2662 -0.2278 -0.2430
   29MPD2    C4  446   0.105   3.804  14.207 -0.5365 -0.3195 -0.4057
   29MPD2    C5  447   0.032   3.726  14.122  0.3717 -0.1760  0.5326
   29MPD2     H  448   0.369   3.607  14.242  0.1956  0.3577 -0.7863
   29MPD2    H1  449   0.055   3.893  14.243  3.3378  1.3096  0.9149
   29MPD2    H2  450   0.014   3.550  14.008 -0.2379  0.5004  0.1069
   29MPD2    H3  451   4.657   3.760  14.091  1.2592  2.5476  0.7912
   29MPD2     N  452   0.301   3.859  14.331 -0.3256 -0.0379  0.3147
   29MPD2    H5  453   0.250   3.944  14.353 -0.9477 -0.0281 -1.1870
   29MPD2    N1  454   0.271   3.445  14.079  0.2574 -0.3362  0.1926
   29MPD2    H7  455   0.361   3.424  14.121 -0.9220 -0.8198  2.5349
   30TCq2    C1  456   0.439   3.857  14.348  0.6052  0.1894  0.5259
   30TCq2    O2  457   0.517   3.778  14.302 -0.0900  0.5038 -0.4955
   30TCq2    C2  458   0.500   3.982  14.405  0.1411 -0.3731 -0.9090
   30TCq2    C3  459   0.440   4.038  14.518 -0.6184  0.1451  0.1196
   30TCq2    C4  460   0.487   4.162  14.562 -0.3711  0.2139 -0.6784
   30TCq2    C5  461   0.589   4.225  14.498 -0.1662  0.3865  0.1291
   30TCq2    C6  462   0.640   4.166  14.379 -0.7026 -0.2994  0.5508
   30TCq2    C7  463   0.592   4.046  14.326 -0.1493 -0.1317 -0.3610
   30TCq2    C8  464   0.720   4.251  14.292 -0.6086 -0.2263 -0.2826
   30TCq2    O4  465   0.732   4.223  14.174 -0.4102 -0.1779  0.0594
   30TCq2    C9  466   0.421   4.233  14.665  0.5995 -0.1049  0.5332
   30TCq2    O5  467   0.300   4.225  14.669 -1.0141  0.1035 -0.3831
   30TCq2    O6  468   0.479   4.321  14.727 -0.8155 -0.5753  0.2845
   30TCq2    H2  469   0.353   3.989  14.560 -1.2437 -0.8732 -2.4005
   30TCq2    H3  470   0.616   4.320  14.542  0.1689  0.2538  0.2083
   30TCq2    H4  471   0.627   4.011  14.229  2.5199  1.4556  0.0297
   31MPD2     C  472   3.554   2.649  14.856  0.0259  0.2394 -0.0075
   31MPD2    C1  473   3.422   2.653  14.815  0.4823 -0.4270  0.4965
   31MPD2    C2  474   3.327   2.574  14.883 -0.3631  0.5604  0.4117
   31MPD2    C3  475   3.368   2.495  14.983  0.0829  0.8481  0.7697
   31MPD2    C4  476   3.497   2.494  15.018  0.1713 -0.1914 -0.2678
   31MPD2    C5  477   3.591   2.567  14.959 -0.2573  0.4799  0.1728
   31MPD2     H  478   3.225   2.574  14.844 -0.6334  1.3764  1.1166
   31MPD2    H1  479   3.535   2.419  15.087  0.3526 -1.4115 -1.7065
   31MPD2    H2  480   3.627   2.714  14.809 -0.5320  1.3545  0.6610
   31MPD2    H3  481   3.697   2.566  14.981  0.0448 -1.7205 -1.3536
   31MPD2     N  482   3.278   2.405  15.058  0.4943  0.7099 -0.0882
   31MPD2    H5  483   3.321   2.341  15.123  1.3547  0.2906 -1.0669
   31MPD2    N1  484   3.389   2.733  14.701 -0.1308  0.1997  0.4119
   31MPD2    H7  485   3.461   2.793  14.663  0.2651  0.0708  0.9609
   32TCq2    C1  486   3.143   2.401  15.049  0.0873 -0.0404 -0.3701
   32TCq2    O2  487   3.065   2.457  14.976 -0.3248 -0.4650  0.2277
   32TCq2    C2  488   3.082   2.281  15.107 -0.0325  0.8143  0.3029
   32TCq2    C3  489   2.949   2.257  15.077  0.2664 -0.1356 -0.0635
   32TCq2    C4  490   2.884   2.169  15.151 -0.1782  0.3655  0.1776
   32TCq2    C5  491   2.947   2.092  15.248  0.0745 -0.0925 -0.1558
   32TCq2    C6  492   3.075   2.129  15.281  0.1661  0.8086  0.6942
   32TCq2    C7  493   3.136   2.233  15.224  0.7581 -0.2006  0.3841
   32TCq2    C8  494   3.133   2.065  15.397 -0.4262  0.1299 -0.2869
   32TCq2    O4  495   3.097   1.952  15.422 -0.1639  0.2524 -0.0309
   32TCq2    C9  496   2.752   2.122  15.122  0.2072  0.0048 -0.4913
   32TCq2    O5  497   2.708   2.046  15.208 -0.3563 -0.4692 -0.2668
   32TCq2    O6  498   2.683   2.195  15.048 -0.1717 -0.0233  0.2415
   32TCq2    H2  499   2.892   2.288  14.990 -0.0611 -1.5339 -0.3448
   32TCq2    H3  500   2.892   2.024  15.313 -0.7568  0.1692 -0.5893
   32TCq2    H4  501   3.233   2.274  15.251  1.5136 -2.6450  1.3911
   33MPD2     C  502   2.887   4.165   9.982 -0.6074 -0.2178 -0.3072
   33MPD2    C1  503   2.998   4.239   9.960  0.8521 -0.4606 -0.0273
   33MPD2    C2  504   2.990   4.344   9.867  0.0207 -0.7170 -0.7692
   33MPD2    C3  505   2.871   4.354   9.786 -0.6755 -0.1508  0.1051
   33MPD2    C4  506   2.769   4.268   9.807  0.2968 -0.0250  0.5247
   33MPD2    C5  507   2.773   4.177   9.908 -0.1578 -0.1757 -0.6745
   33MPD2     H  508   3.075   4.410   9.858 -0.2861  0.0482  1.7480
   33MPD2    H1  509   2.675   4.272   9.754  1.5635 -0.2426 -1.7067
   33MPD2    H2  510   2.886   4.092  10.062 -2.0759 -0.3194 -0.4261
   33MPD2    H3  511   2.678   4.129   9.928  0.7885 -0.9807  1.9617
   33MPD2     N  512   2.851   4.453   9.700 -0.6601  0.2396 -0.1509
   33MPD2    H5  513   2.757   4.445   9.665 -2.0593  2.1550  3.0837
   33MPD2    N1  514   3.116   4.216  10.040  0.2600  0.5093 -0.1624
   33MPD2    H7  515   3.115   4.143  10.111  1.7355 -0.2611 -0.9350
   34TCq2    C1  516   2.939   4.545   9.647  0.6252 -0.0889  0.1561
   34TCq2    O2  517   3.050   4.570   9.689  0.2435 -0.0678  0.4367
   34TCq2    C2  518   2.887   4.639   9.544  0.2540 -0.3091  0.1502
   34TCq2    C3  519   2.770   4.607   9.474 -0.8927 -0.7540 -0.0333
   34TCq2    C4  520   2.695   4.712   9.428 -0.0302 -0.0457  0.2690
   34TCq2    C5  521   2.735   0.118   9.446 -0.8413 -0.3896  0.3550
   34TCq2    C6  522   2.854   0.142   9.502 -0.4135 -1.2980  0.5535
   34TCq2    C7  523   2.931   0.043   9.553 -0.0421 -0.6144 -0.1416
   34TCq2    C8  524   2.921   0.274   9.490 -0.2338  0.2029  0.0320
   34TCq2    O4  525   3.023   0.303   9.559 -0.5985 -0.4589  0.3959
   34TCq2    C9  526   2.564   4.691   9.385 -0.0742 -0.2124 -0.1616
   34TCq2    O5  527   2.522   4.576   9.401  0.7899 -0.2502  0.2835
   34TCq2    O6  528   2.498   0.063   9.334 -0.2517  0.4253  0.1676
   34TCq2    H2  529   2.723   4.510   9.479  0.4025 -1.3750 -0.0396
   34TCq2    H3  530   2.658   0.192   9.430 -0.5484 -0.2583 -0.4208
   34TCq2    H4  531   3.031   0.061   9.590 -0.3149  1.5718 -0.4490
   35MPD2     C  532   4.513   1.763  12.094 -0.0378  0.1517 -0.1352
   35MPD2    C1  533   4.469   1.633  12.109  1.1571 -0.2113  0.1578
   35MPD2    C2  534   4.385   1.572  12.018 -0.6279  0.3442 -0.3654
   35MPD2    C3  535   4.344   1.647  11.908  0.6941 -0.0372  0.0317
   35MPD2    C4  536   4.389   1.776  11.897  0.1515  0.1342  0.3160
   35MPD2    C5  537   4.468   1.834  11.988 -0.1658  0.0779 -0.1913
   35MPD2     H  538   4.358   1.468  12.032  1.5753 -0.3988 -1.7091
   35MPD2    H1  539   4.357   1.836  11.812 -0.4621  3.2328  2.7347
   35MPD2    H2  540   4.590   1.805  12.158  1.1340 -2.4223  0.1099
   35MPD2    H3  541   4.507   1.934  11.971  4.1239 -1.8148 -1.5340
   35MPD2     N  542   4.253   1.593  11.818  0.0317  1.0119 -0.7568
   35MPD2    H5  543   4.233   1.494  11.828 -3.4558  1.6128 -1.9180
   35MPD2    N1  544   4.515   1.570  12.225 -0.5273  0.1062  0.2548
   35MPD2    H7  545   4.552   1.632  12.297 -0.4815  1.3490 -0.8469
   36TCq2    C1  546   4.200   1.656  11.708 -0.3695 -0.8854  0.4510
   36TCq2    O2  547   4.211   1.770  11.665 -0.2238 -0.0006  0.3262
   36TCq2    C2  548   4.104   1.566  11.644 -0.0546  0.4940 -0.4301
   36TCq2    C3  549   4.075   1.609  11.520 -0.3586  0.6475  0.1168
   36TCq2    C4  550   3.985   1.536  11.446 -0.3852 -0.5130  0.1132
   36TCq2    C5  551   3.917   1.436  11.504 -0.0550  0.7599 -0.3668
   36TCq2    C6  552   3.952   1.398  11.630 -0.0679  0.1815 -0.0481
   36TCq2    C7  553   4.045   1.464  11.710  0.0586 -0.0802  0.0490
   36TCq2    C8  554   3.891   1.275  11.686  0.0811 -0.8653  0.3923
   36TCq2    O4  555   3.793   1.238  11.627  0.5616 -0.2162 -0.3632
   36TCq2    C9  556   3.964   1.561  11.304 -0.2752 -0.1968  0.3867
   36TCq2    O5  557   4.032   1.652  11.252  0.8753 -0.0113 -0.6059
   36TCq2    O6  558   3.906   1.467  11.244 -0.7276 -0.0917  0.0578
   36TCq2    H2  559   4.127   1.691  11.471  1.7043 -0.0387  1.1326
   36TCq2    H3  560   3.844   1.375  11.452  0.8777  0.8352 -1.7937
   36TCq2    H4  561   4.062   1.444  11.815 -1.1304 -1.3761 -0.0076
   37TMC2    C1  562   1.713   1.919  11.954 -0.0086 -0.5309 -0.1066
   37TMC2    C2  563   1.681   2.000  11.849 -0.5261 -0.0282  0.1840
   37TMC2    C3  564   1.783   2.068  11.797  0.3100 -0.1286 -0.1351
   37TMC2    C4  565   1.832   1.911  12.015  0.3844  0.0919  0.1403
   37TMC2    C5  566   1.929   1.996  11.963 -0.1602  0.7977  0.0132
   37TMC2    C6  567   1.908   2.074  11.855  0.1804  0.2326  0.4358
   37TMC2     C  568   1.607   1.838  12.012 -0.7025  0.1597 -0.2993
   37TMC2     O  569   1.496   1.875  11.982 -0.1433 -0.5823 -0.3344
   37TMC2     H  570   1.586   2.006  11.797  0.6043 -1.3650 -2.0811
   37TMC2    H1  571   1.853   1.862  12.109  0.9185  0.4961  0.2283
   37TMC2    H2  572   1.978   2.143  11.810  1.3585  0.3236  2.4457
   37TMC2    C7  573   2.064   1.978  12.019 -0.1557 -0.7454  0.3090
   37TMC2    C8  574   1.772   2.096  11.658 -0.4671 -0.0612  1.5035
   37TMC2    O1  575   2.072   1.927  12.130  0.5461  0.2602 -0.6097
   37TMC2    O2  576   1.666   2.139  11.615  0.9112 -0.0460  0.5111
   37TMC2    O5  577   1.869   2.035  11.586 -0.0144 -0.1171 -0.1041
   37TMC2    H5  578   1.931   1.985  11.644  1.5945  0.1655 -1.5794
   38MPD2     C  579   1.426   1.522  12.366  0.5080  0.9299 -1.2140
   38MPD2    C1  580   1.563   1.505  12.361  0.0069  0.2474 -0.1144
   38MPD2    C2  581   1.631   1.575  12.264  0.2250  0.4482  0.4696
   38MPD2    C3  582   1.568   1.656  12.169  0.2958 -0.0839  0.3792
   38MPD2    C4  583   1.428   1.662  12.173  0.1580 -0.2920 -0.0472
   38MPD2    C5  584   1.355   1.588  12.266  0.4761  0.7553  0.7033
   38MPD2     H  585   1.738   1.568  12.252  0.0812 -2.8168  1.1769
   38MPD2    H1  586   1.368   1.724  12.108  0.0316 -1.6403 -1.2074
   38MPD2    H2  587   1.362   1.480  12.443  1.4192 -0.2185 -1.0796
   38MPD2    H3  588   1.248   1.600  12.278  0.8537  2.4725  2.5659
   38MPD2     N  589   1.651   1.737  12.090 -0.6403 -0.3220  0.6627
   38MPD2    H5  590   1.751   1.723  12.098 -0.4767 -0.8819 -2.4096
   38MPD2    N1  591   1.633   1.438  12.466 -0.8099  0.8838 -0.8858
   38MPD2    H7  592   1.733   1.455  12.473 -0.9068  0.6209  1.1022
   39MPD2     C  593   0.102   2.996   1.626  0.0149  0.1054 -0.3154
   39MPD2    C1  594   0.038   3.122   1.627  0.7464  0.2438  0.0658
   39MPD2    C2  595   4.623   3.119   1.620  0.7114  0.1351 -0.3731
   39MPD2    C3  596   4.555   3.004   1.608 -0.8465  0.0799  0.5118
   39MPD2    C4  597   4.612   2.885   1.614  0.2313  0.2466  0.2920
   39MPD2    C5  598   0.028   2.882   1.626 -0.5823 -0.2678 -0.7316
   39MPD2     H  599   4.572   3.212   1.640  0.6692 -0.1179  0.6708
   39MPD2    H1  600   4.556   2.794   1.631 -0.1208  0.7310  1.6470
   39MPD2    H2  601   0.208   2.978   1.634 -0.0900  0.1948  1.1989
   39MPD2    H3  602   0.069   2.783   1.640  1.2754  0.5247 -0.6553
   39MPD2     N  603   4.415   2.993   1.590  0.1846  0.9478 -0.1273
   39MPD2    H5  604   4.384   2.898   1.608  0.6567  0.9078  0.4586
   39MPD2    N1  605   0.117   3.230   1.657  0.2756 -0.9536  0.1872
   39MPD2    H7  606   0.218   3.217   1.655  0.4091  0.1574 -0.4422
   40TCq2    C1  607   0.077   3.362   1.682 -0.6629 -0.3302  0.6582
   40TCq2    O2  608   4.687   3.409   1.680  0.6642 -0.0694 -0.3765
   40TCq2    C2  609   0.178   3.458   1.723  0.2596 -0.3662  0.2314
   40TCq2    C3  610   0.300   3.414   1.767  0.4781 -0.3057 -0.2042
   40TCq2    C4  611   0.406   3.497   1.781 -0.5638  0.4932  0.4206
   40TCq2    C5  612   0.393   3.628   1.754  0.1251  0.3771 -0.0683
   40TCq2    C6  613   0.270   3.670   1.710 -0.2885 -0.4020 -0.0060
   40TCq2    C7  614   0.162   3.595   1.699  0.0495  0.4322  0.3119
   40TCq2    C8  615   0.252   3.812   1.706  0.1167  0.4915 -0.4021
   40TCq2    O4  616   0.136   3.850   1.714 -0.0169  0.5017  0.1751
   40TCq2    C9  617   0.540   3.446   1.816  0.5518 -0.2768  0.2473
   40TCq2    O5  618   0.624   3.530   1.847  0.3418  0.2078  0.3824
   40TCq2    O6  619   0.544   3.320   1.822  0.2235  0.3122 -0.4617
   40TCq2    H2  620   0.313   3.308   1.779 -1.4510 -0.4882  0.1510
   40TCq2    H3  621   0.471   3.699   1.780 -1.7351  1.7864  1.7013
   40TCq2    H4  622   0.079   3.636   1.643  1.0368  1.0794 -0.6859
   41TMC2    C1  623   3.896   1.663  13.817  0.4587  0.5604  0.9329
   41TMC2    C2  624   4.026   1.683  13.857 -0.5720 -0.2511 -0.1653
   41TMC2    C3  625   4.110   1.708  13.756  0.3550  0.7749  0.5339
   41TMC2    C4  626   3.846   1.700  13.692  0.3817 -0.3143 -0.1752
   41TMC2    C5  627   3.937   1.745  13.603 -0.2398  0.3302 -0.5466
   41TMC2    C6  628   4.071   1.742  13.627 -0.6700 -0.1048  0.1763
   41TMC2     C  629   3.795   1.599  13.903  0.1703 -0.2691  0.1883
   41TMC2     O  630   3.685   1.571  13.860 -0.0737 -0.6468 -0.2520
   41TMC2     H  631   4.065   1.673  13.957  1.0331  0.6070 -0.7146
   41TMC2    H1  632   3.740   1.718  13.679  0.1263  0.1935  2.5366
   41TMC2    H2  633   4.144   1.755  13.548 -0.0111  0.7105  0.9121
   41TMC2    C7  634   3.891   1.783  13.471 -0.2243  0.0704 -0.0227
   41TMC2    C8  635   4.244   1.746  13.776  0.2859  0.3388 -0.6009
   41TMC2    O1  636   3.975   1.855  13.412  0.0865 -0.5969  0.0422
   41TMC2    O2  637   4.289   1.846  13.724 -0.4728  0.0812 -0.3956
   41TMC2    O5  638   4.291   1.675  13.884  0.7373 -0.2208 -0.2206
   41TMC2    H5  639   4.240   1.592  13.896 -0.1622  0.4404  0.5455
   42MPD2     C  640   3.656   1.465  14.129 -0.3720  0.0178  0.7745
   42MPD2    C1  641   3.769   1.544  14.143 -0.8364  0.2519  0.4748
   42MPD2    C2  642   3.828   1.563  14.263 -0.1483  0.5256 -0.0505
   42MPD2    C3  643   3.769   1.503  14.376 -0.7313 -0.5275 -0.1615
   42MPD2    C4  644   3.666   1.416  14.355 -0.3749  0.2493 -0.5337
   42MPD2    C5  645   3.609   1.395  14.235 -0.3829  0.4787 -0.5818
   42MPD2     H  646   3.909   1.634  14.273 -0.4837  0.3684  3.5655
   42MPD2    H1  647   3.612   1.375  14.440 -0.7733  1.3780 -0.2469
   42MPD2    H2  648   3.595   1.447  14.041 -0.0270  1.5520  0.2170
   42MPD2    H3  649   3.518   1.337  14.220  0.3247  0.0579 -3.1602
   42MPD2     N  650   3.816   1.522  14.507 -0.5346 -0.4539  0.4482
   42MPD2    H5  651   3.764   1.487  14.587  1.4639  0.1016  1.9973
   42MPD2    N1  652   3.827   1.609  14.035  0.3061  0.5761 -0.1751
   42MPD2    H7  653   3.914   1.655  14.058  0.6834 -0.0444 -0.3511
   43MPD2     C  654   0.747   4.380   1.034 -0.0120 -0.1579  0.0424
   43MPD2    C1  655   0.705   4.252   1.011  0.0424  0.4391 -0.0881
   43MPD2    C2  656   0.609   4.195   1.097 -0.0913  0.5235  0.4578
   43MPD2    C3  657   0.551   4.276   1.188  0.3409 -0.4159  0.2046
   43MPD2    C4  658   0.588   4.407   1.206 -0.6647  0.2674 -0.3212
   43MPD2    C5  659   0.694   4.457   1.129  0.7261 -0.1268 -0.0812
   43MPD2     H  660   0.577   4.092   1.084  2.0846  0.2330 -2.4418
   43MPD2    H1  661   0.534   4.471   1.275  1.1827  1.3293  0.1236
   43MPD2    H2  662   0.816   4.437   0.973 -0.6818  1.0135  0.3719
   43MPD2    H3  663   0.717   4.560   1.155  2.9884  0.1173 -3.0098
   43MPD2     N  664   0.443   4.234   1.260 -0.3864 -0.0932  0.3174
   43MPD2    H5  665   0.406   4.297   1.331  0.6767  0.1235  0.6767
   43MPD2    N1  666   0.759   4.174   0.901 -0.4735  0.5781 -0.0306
   43MPD2    H7  667   0.733   4.075   0.903  0.9088  0.2338  0.6457
   44TCq2    C1  668   0.054   4.368   1.535  0.5862  0.5176 -0.4854
   44TCq2    O2  669   0.136   4.459   1.537  0.4342  0.3813  0.6607
   44TCq2    C2  670   0.081   4.252   1.451 -0.3882  0.5764 -0.4420
   44TCq2    C3  671   0.008   4.138   1.463 -0.1323 -0.0958  0.1916
   44TCq2    C4  672   0.064   4.015   1.441  0.0450  0.0915  0.4927
   44TCq2    C5  673   0.193   3.996   1.392 -0.2001  0.0913 -0.5935
   44TCq2    C6  674   0.267   4.114   1.368  0.5664 -0.1624  0.1694
   44TCq2    C7  675   0.210   4.241   1.397 -0.5070 -0.0343  0.3151
   44TCq2    C8  676   0.384   4.108   1.274 -0.0009 -0.7991  0.4043
   44TCq2    O4  677   0.414   4.004   1.213  0.1274  0.2337  0.0554
   44TCq2    C9  678   4.700   3.897   1.440  0.4060  0.2184 -0.5295
   44TCq2    O5  679   0.013   3.789   1.380 -0.3345 -0.2158  0.0450
   44TCq2    O6  680   4.602   3.890   1.520  0.7922  0.1378  0.2486
   44TCq2    H2  681   4.624   4.142   1.479 -0.4129 -1.1542 -1.3891
   44TCq2    H3  682   0.234   3.901   1.361 -1.1399  0.7957 -3.9357
   44TCq2    H4  683   0.263   4.335   1.385 -1.2021  0.2753 -0.3280
   45TMC2    C1  684   1.082   1.859   9.630 -0.9875  0.4066 -0.3984
   45TMC2    C2  685   1.189   1.855   9.715  0.3319  0.3409 -0.4235
   45TMC2    C3  686   1.246   1.980   9.733 -0.5214  0.6753  0.5123
   45TMC2    C4  687   1.052   1.963   9.547  0.3250  0.1518  0.4609
   45TMC2    C5  688   1.111   2.079   9.570  0.3192  0.0035  0.1227
   45TMC2    C6  689   1.209   2.083   9.662 -0.1741 -0.3207  0.2773
   45TMC2     C  690   1.032   1.724   9.596 -0.4823  0.6034 -0.1606
   45TMC2     O  691   1.077   1.632   9.664  0.2877 -0.7522 -0.2529
   45TMC2     H  692   1.231   1.772   9.770  1.4099  0.7085 -0.6940
   45TMC2    H1  693   0.976   1.965   9.470  0.8384  2.0529  0.0158
   45TMC2    H2  694   1.257   2.179   9.675 -0.4226  0.1418 -2.2106
   45TMC2    C7  695   1.042   2.199   9.535 -1.0509 -0.0680 -0.6004
   45TMC2    C8  696   1.371   1.984   9.802 -0.5867  0.2527 -0.1220
   45TMC2    O1  697   0.996   2.218   9.422  0.4267  0.7024 -0.2433
   45TMC2    O2  698   1.449   1.894   9.777 -0.2061 -0.0220  0.6883
   45TMC2    O5  699   1.386   2.106   9.860 -0.0013  0.0024  0.5033
   45TMC2    H5  700   1.297   2.147   9.860 -0.4784 -1.0185 -1.2024
   46MPD2     C  701   0.887   1.480   9.526  0.0844 -0.1759 -0.6331
   46MPD2    C1  702   0.853   1.603   9.481  0.5348  0.3804  0.0315
   46MPD2    C2  703   0.745   1.603   9.391 -0.2928 -0.2463 -0.0093
   46MPD2    C3  704   0.683   1.490   9.348 -0.0855  0.6326  0.7907
   46MPD2    C4  705   0.717   1.367   9.398  0.3738  0.8761 -0.5684
   46MPD2    C5  706   0.822   1.365   9.486 -0.3716  0.1926 -0.1178
   46MPD2     H  707   0.710   1.702   9.362 -0.9349 -0.2689  0.6890
   46MPD2    H1  708   0.675   1.275   9.359  1.2564  0.1650  0.1500
   46MPD2    H2  709   0.974   1.449   9.584 -1.4946 -2.3453  0.5671
   46MPD2    H3  710   0.860   1.270   9.524 -1.2288  0.4325  1.3347
   46MPD2     N  711   0.564   1.506   9.275  0.5668  0.6725 -0.4568
   46MPD2    H5  712   0.539   1.603   9.258  0.1323  0.2459 -2.2996
   46MPD2    N1  713   0.921   1.726   9.520 -0.3217 -0.0748 -0.1886
   46MPD2    H7  714   0.895   1.807   9.466  1.0842  0.0372 -0.7010
   47TMC2    C1  715   4.495   2.526   9.485  0.7359 -0.2962  0.0722
   47TMC2    C2  716   4.550   2.467   9.372  0.0947 -0.2036  0.0031
   47TMC2    C3  717   4.558   2.546   9.258 -0.1906  0.0468 -0.0827
   47TMC2    C4  718   4.458   2.662   9.491 -0.5711 -0.5888  0.0274
   47TMC2    C5  719   4.467   2.740   9.375 -0.7547 -0.6923 -0.3298
   47TMC2    C6  720   4.526   2.684   9.261 -0.7591 -0.1458 -0.2493
   47TMC2     C  721   4.498   2.466   9.620  0.1701 -0.0043 -0.3726
   47TMC2     O  722   4.495   2.537   9.721 -0.1699 -0.7899  0.4654
   47TMC2     H  723   4.583   2.364   9.382  1.1237  0.2665  1.3240
   47TMC2    H1  724   4.418   2.694   9.586 -1.8073  2.9371 -1.6807
   47TMC2    H2  725   4.537   2.738   9.167 -1.9150 -0.6971 -0.7015
   47TMC2    C7  726   4.444   2.883   9.376 -0.6988  0.3276 -0.0452
   47TMC2    C8  727   4.610   2.477   9.145 -0.2999  0.2613 -0.1804
   47TMC2    O1  728   4.453   2.932   9.268 -0.6049 -0.2326  0.1451
   47TMC2    O2  729   4.559   2.369   9.120  0.2909  0.6475 -0.7479
   47TMC2    O5  730   0.015   2.500   9.138  0.0537 -0.7963 -0.6357
   47TMC2    H5  731   0.042   2.593   9.154 -1.6646 -0.1922 -1.2300
   48MPD2     C  732   4.494   2.267   9.830  0.0528 -0.8232  0.2563
   48MPD2    C1  733   4.436   2.255   9.711 -0.4925 -0.7618  0.0162
   48MPD2    C2  734   4.377   2.130   9.680 -0.1222 -0.2971  0.2419
   48MPD2    C3  735   4.366   2.026   9.767  0.6465 -0.2532 -0.3439
   48MPD2    C4  736   4.420   2.045   9.893 -0.7051  0.4319  0.6299
   48MPD2    C5  737   4.486   2.165   9.915  0.0318  0.4143 -1.0593
   48MPD2     H  738   4.342   2.122   9.578  2.3329 -1.4774 -0.5244
   48MPD2    H1  739   4.411   1.970   9.971  2.6174  0.0471  0.6452
   48MPD2    H2  740   4.556   2.350   9.860 -0.2381 -1.1159  1.6725
   48MPD2    H3  741   4.540   2.175  10.009  1.0370  0.2053 -1.6143
   48MPD2     N  742   4.296   1.908   9.728 -0.4924 -0.4717  0.1464
   48MPD2    H5  743   4.254   1.913   9.636  0.5263 -0.5422 -0.3256
   48MPD2    N1  744   4.457   2.338   9.604 -0.4212 -0.4303  0.6004
   48MPD2    H7  745   4.424   2.309   9.512 -0.6925  0.0338  0.5493
   49MPD2     C  746   2.367   4.260  10.075 -0.1742  0.6747  0.6704
   49MPD2    C1  747   2.263   4.233  10.148  0.2081  0.0622  0.8006
   49MPD2    C2  748   2.241   4.302  10.268  0.0340  0.1979  0.5604
   49MPD2    C3  749   2.324   4.416  10.293 -0.1568 -0.1929 -0.1079
   49MPD2    C4  750   2.442   4.428  10.220 -0.3852  0.0923  0.2490
   49MPD2    C5  751   2.452   4.363  10.108 -0.1932 -0.2338  0.2291
   49MPD2     H  752   2.149   4.290  10.323  0.3230 -1.8090  0.5843
   49MPD2    H1  753   2.511   4.509  10.242  0.5591 -0.8003  0.5788
   49MPD2    H2  754   2.377   4.224   9.973  0.3395  0.3318  0.8398
   49MPD2    H3  755   2.535   4.382  10.040 -1.2235  1.3322 -0.5980
   49MPD2     N  756   2.298   4.512  10.389  0.0931  0.1451 -0.2831
   49MPD2    H5  757   2.370   4.583  10.396 -0.2831  0.7723 -2.7913
   49MPD2    N1  758   2.182   4.117  10.127 -0.6067  0.2264  0.1011
   49MPD2    H7  759   2.104   4.101  10.191 -1.2157 -1.1671 -0.9989
   50TCq2    C1  760   2.197   4.025  10.029 -0.3108 -0.4064  0.8215
   50TCq2    O2  761   2.248   4.036   9.920 -0.0663  0.2090  0.1225
   50TCq2    C2  762   2.100   3.924  10.042 -0.5801  0.3825  0.6735
   50TCq2    C3  763   2.050   3.874   9.928  0.1985  0.3620 -0.1012
   50TCq2    C4  764   1.941   3.792   9.935 -0.4775 -0.0979  0.3414
   50TCq2    C5  765   1.872   3.760  10.051  0.0648  0.1748  0.4628
   50TCq2    C6  766   1.937   3.804  10.168  0.3591  0.3203 -0.2308
   50TCq2    C7  767   2.046   3.887  10.162 -0.1437  0.6734  0.1903
   50TCq2    C8  768   1.875   3.765  10.296 -0.6140 -0.1576 -0.7086
   50TCq2    O4  769   1.810   3.664  10.277  0.3474 -1.1157  0.5879
   50TCq2    C9  770   1.905   3.718   9.814  0.1124  0.6673  0.0251
   50TCq2    O5  771   1.955   3.754   9.704  0.2765 -0.1638  0.7967
   50TCq2    O6  772   1.822   3.626   9.822 -0.0674  0.6167 -0.1757
   50TCq2    H2  773   2.096   3.897   9.833  0.5918  2.2831  0.5552
   50TCq2    H3  774   1.786   3.694  10.055 -0.2145  0.4049 -1.5728
   50TCq2    H4  775   2.100   3.896  10.256  0.0952  0.6187  0.0588
   51MPD2     C  776   1.171   2.772   0.869 -0.0897 -0.4313 -0.2908
   51MPD2    C1  777   1.215   2.655   0.927 -0.1102 -0.0452 -0.3026
   51MPD2    C2  778   1.248   2.650   1.060 -0.9749  0.1098 -0.7157
   51MPD2    C3  779   1.231   2.767   1.138 -0.6984 -0.3175  0.7683
   51MPD2    C4  780   1.188   2.884   1.078  0.5023 -0.1362 -0.5531
   51MPD2    C5  781   1.156   2.887   0.942  0.4084 -0.3268  0.3551
   51MPD2     H  782   1.294   2.558   1.092 -0.5447  0.3759 -0.5729
   51MPD2    H1  783   1.167   2.967   1.144  0.4385  1.7387 -2.9016
   51MPD2    H2  784   1.121   2.763   0.774  0.4773  0.1975 -0.6471
   51MPD2    H3  785   1.124   2.980   0.896 -0.5008 -0.7583  0.1238
   51MPD2     N  786   1.262   2.782   1.274 -0.0370 -0.0538  0.8169
   51MPD2    H5  787   1.253   2.873   1.318  2.7777  1.1033 -1.0364
   51MPD2    N1  788   1.230   2.532   0.851  0.1857  0.0386 -0.1662
   51MPD2    H7  789   1.247   2.444   0.899 -0.7666  1.1354  2.1857
   52TCq2    C1  790   1.274   2.677   1.355  0.6602 -0.1866 -0.0427
   52TCq2    O2  791   1.301   2.566   1.322 -0.0697  0.1870  0.1604
   52TCq2    C2  792   1.286   2.713   1.493  0.5051  0.1886  0.0828
   52TCq2    C3  793   1.296   2.610   1.579 -0.3785  0.5604 -0.2974
   52TCq2    C4  794   1.309   2.630   1.712  0.3505 -0.1480 -1.0888
   52TCq2    C5  795   1.314   2.754   1.766 -0.4400 -0.6393 -0.6157
   52TCq2    C6  796   1.307   2.860   1.674 -0.0971  0.0664  0.2693
   52TCq2    C7  797   1.289   2.847   1.534  0.1076 -0.2337 -0.3934
   52TCq2    C8  798   1.364   2.990   1.711  0.0375  0.2152 -0.3678
   52TCq2    O4  799   1.435   3.044   1.627 -0.0362 -0.5548 -0.1733
   52TCq2    C9  800   1.314   2.520   1.801 -0.6435 -0.0834 -0.7036
   52TCq2    O5  801   1.374   2.545   1.910 -0.2614 -0.1177 -0.0213
   52TCq2    O6  802   1.289   2.402   1.752  0.3261  0.2596 -0.0561
   52TCq2    H2  803   1.291   2.508   1.543 -1.8524  0.9975 -1.3067
   52TCq2    H3  804   1.326   2.772   1.872 -0.9363 -1.1987 -0.4662
   52TCq2    H4  805   1.300   2.933   1.468 -0.7541 -0.8934 -1.3976
   53TMC2    C1  806   2.631   1.976  12.474  0.0751 -0.1967  0.0569
   53TMC2    C2  807   2.669   2.052  12.575 -0.7172 -0.5191  0.4403
   53TMC2    C3  808   2.608   2.046  12.696  0.2632 -0.5354 -0.1193
   53TMC2    C4  809   2.524   1.897  12.501  0.4911 -0.8022  0.1812
   53TMC2    C5  810   2.475   1.879  12.627  0.1378 -0.1711 -0.1403
   53TMC2    C6  811   2.530   1.940  12.731 -0.8004  0.3808  0.3676
   53TMC2     C  812   2.630   2.046  12.350  0.7176 -0.2004 -0.2598
   53TMC2     O  813   2.726   2.119  12.317 -0.4889  0.2777 -0.4403
   53TMC2     H  814   2.749   2.123  12.559 -0.6392 -0.7742 -0.3270
   53TMC2    H1  815   2.486   1.838  12.418  2.9238  2.3056 -3.1608
   53TMC2    H2  816   2.488   1.937  12.831  0.3875  1.5776  0.9097
   53TMC2    C7  817   2.327   1.857  12.622  0.9724 -0.4643  0.4506
   53TMC2    C8  818   2.665   2.133  12.794 -0.3045 -0.5228 -0.4951
   53TMC2    O1  819   2.273   1.871  12.512  0.1201  0.0997  0.5182
   53TMC2    O2  820   2.770   2.194  12.773  0.1300 -0.8046  0.1517
   53TMC2    O5  821   2.563   2.175  12.869  0.3001  0.3187  0.6410
   53TMC2    H5  822   2.477   2.150  12.828 -0.0404  1.9165  0.4043
   54MPD2     C  823   2.564   2.086  12.061 -0.1465 -0.1496 -0.2189
   54MPD2    C1  824   2.480   2.041  12.156 -0.4783 -0.1419 -0.3479
   54MPD2    C2  825   2.350   2.031  12.120  0.3141 -0.9560  0.3129
   54MPD2    C3  826   2.306   2.061  11.988 -0.1188 -0.4966  0.7312
   54MPD2    C4  827   2.396   2.117  11.899 -0.3205 -0.3979  0.0290
   54MPD2    C5  828   2.521   2.122  11.940 -0.3618 -0.5649  0.0057
   54MPD2     H  829   2.283   1.978  12.186  1.6116 -3.4714 -0.3593
   54MPD2    H1  830   2.367   2.144  11.798  2.1462  0.6726 -0.3876
   54MPD2    H2  831   2.667   2.110  12.083  0.3771 -1.2837 -1.4691
   54MPD2    H3  832   2.592   2.171  11.874 -0.4365 -1.9425 -1.0959
   54MPD2     N  833   2.169   2.037  11.943  0.6476 -0.0870 -0.1970
   54MPD2    H5  834   2.156   2.070  11.848  1.0022  0.6445  0.0146
   54MPD2    N1  835   2.516   2.023  12.291 -0.1926  0.4237  0.7120
   54MPD2    H7  836   2.446   1.990  12.356 -0.0654  0.7442  1.0080
   55MPD2     C  837   2.839   3.790   0.196 -0.6790 -0.3268 -0.1665
   55MPD2    C1  838   2.755   3.706   0.264  0.3231  0.2806  0.2116
   55MPD2    C2  839   2.625   3.746   0.281  0.9270  0.4464 -0.1077
   55MPD2    C3  840   2.578   3.868   0.252  0.5231  0.5645 -0.5087
   55MPD2    C4  841   2.670   3.950   0.188  0.1922  0.1753 -0.2909
   55MPD2    C5  842   2.795   3.913   0.164  0.4604 -0.3598 -0.0995
   55MPD2     H  843   2.558   3.678   0.333 -0.1369  0.4725 -1.4493
   55MPD2    H1  844   2.638   4.050   0.164  1.3793  0.5217 -0.4242
   55MPD2    H2  845   2.942   3.773   0.167 -0.2257 -0.7216  1.6352
   55MPD2    H3  846   2.857   3.978   0.102  2.0683 -1.3618  0.4736
   55MPD2     N  847   2.467   3.914   0.321  0.3880  0.1446  0.0915
   55MPD2    H5  848   2.411   3.860   0.387  1.7275 -0.9852  0.3140
   55MPD2    N1  849   2.806   3.577   0.305 -0.1705 -0.2171  0.6292
   55MPD2    H7  850   2.906   3.563   0.315  0.1834  1.4777 -0.5468
   56TCq2    C1  851   2.723   3.470   0.339 -0.1724 -0.0034  0.6251
   56TCq2    O2  852   2.608   3.454   0.311 -0.1040  0.5209  0.1149
   56TCq2    C2  853   2.803   3.353   0.376  0.3684  1.1386 -0.1262
   56TCq2    C3  854   2.936   3.353   0.349  0.4236  0.2028 -0.1128
   56TCq2    C4  855   3.007   3.240   0.381 -0.3736 -0.6115 -0.6605
   56TCq2    C5  856   2.946   3.129   0.432  0.5143 -0.3016  0.7692
   56TCq2    C6  857   2.815   3.133   0.456  0.2125 -0.3602  0.2797
   56TCq2    C7  858   2.738   3.241   0.427  0.0016 -0.1891  0.4487
   56TCq2    C8  859   2.767   3.027   0.540 -0.8704  0.8705  0.0400
   56TCq2    O4  860   2.835   2.923   0.565  0.5442 -0.4668  0.1694
   56TCq2    C9  861   3.151   3.236   0.337 -0.7058 -0.3521  0.4996
   56TCq2    O5  862   3.189   3.334   0.263 -0.5319  0.3690 -0.2731
   56TCq2    O6  863   3.220   3.139   0.368  0.3791 -0.4181 -0.2962
   56TCq2    H2  864   2.990   3.440   0.311 -0.9017 -0.0985 -2.6835
   56TCq2    H3  865   3.007   3.041   0.450  2.7249  1.2241  0.7497
   56TCq2    H4  866   2.630   3.247   0.432 -0.0321 -0.8808  0.5545
   57TMC2    C1  867   2.322   0.803  13.762 -0.3227 -0.4035  0.6935
   57TMC2    C2  868   2.437   0.791  13.837  0.1497 -1.0803  1.2172
   57TMC2    C3  869   2.533   0.702  13.788  0.1974  0.1294 -0.1130
   57TMC2    C4  870   2.297   0.726  13.653 -0.4756  0.1707 -0.3296
   57TMC2    C5  871   2.397   0.629  13.620  0.1338  0.9185 -0.0964
   57TMC2    C6  872   2.513   0.612  13.688  0.1287 -0.0803 -0.1920
   57TMC2     C  873   2.206   0.836  13.843 -0.5318 -0.2262 -0.4008
   57TMC2     O  874   2.221   0.912  13.937 -0.0146 -0.0552 -0.9892
   57TMC2     H  875   2.452   0.840  13.933  2.0315  0.8042 -0.0529
   57TMC2    H1  876   2.208   0.746  13.595 -0.8721  0.0282  0.2337
   57TMC2    H2  877   2.573   0.527  13.656 -0.5648 -0.8848  0.6224
   57TMC2    C7  878   2.342   0.517  13.545  0.2681  0.1392 -0.1536
   57TMC2    C8  879   2.654   0.693  13.879  0.0460 -0.0596 -0.5333
   57TMC2    O1  880   2.222   0.519  13.537  0.1356  0.9153  0.4501
   57TMC2    O2  881   2.648   0.686  14.003 -0.1562  0.1004 -0.5729
   57TMC2    O5  882   2.752   0.760  13.809  0.7728  0.1251  0.2383
   57TMC2    H5  883   2.719   0.775  13.718 -0.2348 -0.1831  0.5602
   58MPD2     C  884   1.752   0.642  14.007 -0.0444  0.6548  0.1712
   58MPD2    C1  885   1.808   0.763  14.034  0.0180 -0.3055  0.2948
   58MPD2    C2  886   1.933   0.790  13.982  0.1814 -0.6012 -0.0833
   58MPD2    C3  887   1.995   0.699  13.900  0.4815  0.4470  0.0743
   58MPD2    C4  888   1.935   0.580  13.872  0.4686 -1.2008  0.5934
   58MPD2    C5  889   1.817   0.554  13.932 -0.3140 -0.1922 -0.1097
   58MPD2     H  890   1.968   0.892  13.991 -3.7942  0.8076 -0.5827
   58MPD2    H1  891   1.986   0.508  13.810  1.3753  1.2029 -1.4677
   58MPD2    H2  892   1.662   0.608  14.057 -0.3379 -2.3720 -2.4985
   58MPD2    H3  893   1.785   0.450  13.927  1.0282 -0.6464  0.8593
   58MPD2     N  894   2.114   0.729  13.825  0.4167 -0.8851 -0.1416
   58MPD2    H5  895   2.135   0.669  13.746 -2.6966 -1.7484 -0.3036
   58MPD2    N1  896   1.730   0.871  14.089  0.0516 -0.2347  0.2364
   58MPD2    H7  897   1.776   0.962  14.088 -0.2399 -0.0877  0.2404
   59MPD2     C  898   4.552   0.546  13.347  0.0941  0.0128  0.2454
   59MPD2    C1  899   4.629   0.592  13.245  0.3441 -0.1365  0.0991
   59MPD2    C2  900   4.710   0.705  13.265 -0.8988  0.3123 -0.9369
   59MPD2    C3  901   4.722   0.763  13.387  0.0642  0.6641  0.6156
   59MPD2    C4  902   4.639   0.715  13.486 -0.1804 -0.3213  0.6123
   59MPD2    C5  903   4.553   0.607  13.467  0.0809 -0.3209 -0.1661
   59MPD2     H  904   0.052   0.729  13.181 -0.9588 -0.5763 -1.2324
   59MPD2    H1  905   4.641   0.756  13.587 -0.1445 -1.4044  1.0445
   59MPD2    H2  906   4.481   0.466  13.331  1.5815 -1.0052 -1.2933
   59MPD2    H3  907   4.489   0.569  13.546  2.5323  1.4169  2.6677
   59MPD2     N  908   0.091   0.865  13.411  0.6193 -0.3781  0.7720
   59MPD2    H5  909   0.094   0.905  13.503  2.2262 -0.1151  0.6137
   59MPD2    N1  910   4.646   0.521  13.121 -0.5208  0.3316 -0.0873
   59MPD2    H7  911   4.694   0.571  13.047  1.0540 -1.0152  0.0247
   60TCq2    C1  912   4.610   0.390  13.091  0.2290  0.7098 -0.1403
   60TCq2    O2  913   4.555   0.307  13.168  0.7563  0.9302  0.0753
   60TCq2    C2  914   4.645   0.347  12.952 -0.0984 -0.2938 -0.5210
   60TCq2    C3  915   4.628   0.209  12.921 -0.2042  0.2553  0.5507
   60TCq2    C4  916   4.688   0.151  12.812 -0.2408  0.7248 -0.4876
   60TCq2    C5  917   0.007   0.231  12.712  0.0871 -0.3423 -0.1585
   60TCq2    C6  918   0.010   0.359  12.738 -0.3288 -0.4507  0.3946
   60TCq2    C7  919   4.703   0.422  12.859 -0.0621  0.3708  0.2717
   60TCq2    C8  920   0.038   0.446  12.626  0.2644 -0.0684 -0.0602
   60TCq2    O4  921   0.103   0.388  12.535  0.2149 -0.1043  0.4682
   60TCq2    C9  922   4.691   0.009  12.796  0.0038 -0.6944  0.5451
   60TCq2    O5  923   4.653   4.665  12.896  0.1331 -0.1632 -0.1971
   60TCq2    O6  924   0.028   4.685  12.697 -0.0472 -0.1109 -0.7264
   60TCq2    H2  925   4.574   0.150  12.994 -0.4028  0.3569  0.4839
   60TCq2    H3  926   0.032   0.190  12.614  0.4094 -0.2598 -0.1083
   60TCq2    H4  927   0.024   0.518  12.887  2.7855 -0.3856 -1.5132
   61MPD2     C  928   4.239   1.863  14.615 -0.0597 -0.4434 -0.1692
   61MPD2    C1  929   4.308   1.956  14.691 -0.0590 -0.2756 -0.1121
   61MPD2    C2  930   4.391   2.049  14.623 -0.4485  0.1041  0.2537
   61MPD2    C3  931   4.399   2.043  14.487  0.2936 -0.3866  0.0007
   61MPD2    C4  932   4.324   1.951  14.412  0.2261 -0.4695 -0.6181
   61MPD2    C5  933   4.246   1.867  14.481  0.1098  0.0747 -0.0365
   61MPD2     H  934   4.423   2.132  14.685 -0.5358  0.1172  0.2812
   61MPD2    H1  935   4.317   1.935  14.305  0.8549  0.1978 -0.7548
   61MPD2    H2  936   4.170   1.795  14.663  0.2779 -0.2374  0.6219
   61MPD2    H3  937   4.188   1.796  14.423  2.9342 -0.4240 -2.2745
   61MPD2     N  938   4.459   2.150  14.414 -0.1933 -0.1225  0.0965
   61MPD2    H5  939   4.426   2.171  14.320 -1.5452  0.4872  0.7080
   61MPD2    N1  940   4.289   1.970  14.831  0.1530  0.1705  0.3728
   61MPD2    H7  941   4.340   2.047  14.875  0.8527 -0.7450  1.1708
   62TCq2    C1  942   4.222   1.883  14.919 -0.2127 -0.3766  0.4556
   62TCq2    O2  943   4.183   1.769  14.911 -0.5149 -0.3857 -0.1995
   62TCq2    C2  944   4.198   1.952  15.044  0.8537 -0.8629 -0.1263
   62TCq2    C3  945   4.140   1.873  15.145  0.0217  0.1538  0.5977
   62TCq2    C4  946   4.081   1.935  15.249 -0.1550 -0.1085 -0.8758
   62TCq2    C5  947   4.083   2.072  15.269 -0.5920 -0.0705  0.3487
   62TCq2    C6  948   4.134   2.146  15.167  0.2754 -0.1421 -0.1619
   62TCq2    C7  949   4.194   2.092  15.055  0.1584 -0.2448  0.3231
   62TCq2    C8  950   4.101   2.287  15.147  0.1994  0.5768 -0.0516
   62TCq2    O4  951   4.177   2.355  15.075 -0.1870 -0.4479  0.4464
   62TCq2    C9  952   4.034   1.862  15.365 -0.3783 -0.4999  0.8434
   62TCq2    O5  953   4.012   1.740  15.340  0.6541 -0.5659  0.5549
   62TCq2    O6  954   3.992   1.927  15.469  0.4432 -0.1184  0.5892
   62TCq2    H2  955   4.128   1.766  15.134  2.2949 -0.0042 -0.3962
   62TCq2    H3  956   4.041   2.116  15.359 -1.8778 -1.6390  0.5197
   62TCq2    H4  957   4.218   2.157  14.971  0.6539  0.4223  0.9728
   63TMC2    C1  958   3.614   2.345  10.006  0.0502  0.7506  0.3348
   63TMC2    C2  959   3.586   2.406  10.120  0.1560  0.4803 -0.4044
   63TMC2    C3  960   3.555   2.538  10.112 -0.1718 -0.5554  0.0300
   63TMC2    C4  961   3.625   2.407   9.886  0.2582  1.0135 -0.1250
   63TMC2    C5  962   3.600   2.542   9.881  0.6950  0.7357 -0.0906
   63TMC2    C6  963   3.556   2.606   9.998  0.2883  0.0300  0.3177
   63TMC2     C  964   3.609   2.198  10.004 -0.0878  1.0050  0.6942
   63TMC2     O  965   3.611   2.137   9.901 -0.0924  0.1354  0.4257
   63TMC2     H  966   3.589   2.357  10.216 -1.0048 -0.3162 -0.7837
   63TMC2    H1  967   3.641   2.342   9.801 -0.5910  0.3660  0.2018
   63TMC2    H2  968   3.526   2.710   9.992  0.3424 -0.0824 -1.9870
   63TMC2    C7  969   3.589   2.603   9.749 -0.2404 -0.0985 -0.4139
   63TMC2    C8  970   3.537   2.599  10.240  0.2980  0.0103  0.8117
   63TMC2    O1  971   3.493   2.675   9.725  1.0334  0.1189 -0.2692
   63TMC2    O2  972   3.571   2.539  10.344  0.4628  0.1072 -0.1381
   63TMC2    O5  973   3.469   2.721  10.231  0.0470 -0.6096 -0.3509
   63TMC2    H5  974   3.430   2.730  10.142  0.5528  0.7374 -0.4252
   64MPD2     C  975   3.503   1.781  10.262  0.1631 -0.0061 -0.5778
   64MPD2    C1  976   3.558   1.868  10.348  1.1902  0.2424  0.1151
   64MPD2    C2  977   3.599   1.989  10.302  0.3512 -0.1733  0.1931
   64MPD2    C3  978   3.589   2.016  10.168  0.1817 -0.0585 -0.1375
   64MPD2    C4  979   3.527   1.929  10.082 -0.8730  0.4739 -0.0890
   64MPD2    C5  980   3.477   1.816  10.134 -0.9143 -0.5363 -0.1099
   64MPD2     H  981   3.646   2.060  10.369 -0.5525 -1.5977  2.3511
   64MPD2    H1  982   3.520   1.948   9.976 -3.0780 -0.0452 -0.0304
   64MPD2    H2  983   3.459   1.686  10.289  0.7687 -0.5604 -1.5524
   64MPD2    H3  984   3.445   1.735  10.070 -0.6920 -0.5623 -0.1870
   64MPD2     N  985   3.635   2.143  10.128 -0.0163 -0.0890 -0.4746
   64MPD2    H5  986   3.654   2.203  10.207 -1.6871  0.4019 -0.4565
   64MPD2    N1  987   3.581   1.822  10.476  0.3878  0.2749 -0.2192
   64MPD2    H7  988   3.642   1.888  10.524 -2.3010  2.7382 -0.2229
   65MPD2     C  989   4.407   1.471  15.738  0.0712  0.2752 -0.0204
   65MPD2    C1  990   4.426   1.430  15.613 -0.2268  0.2211  0.5910
   65MPD2    C2  991   4.443   1.295  15.590 -1.1328  0.1690  0.2293
   65MPD2    C3  992   4.417   1.198  15.687  0.0376 -0.0626 -0.0070
   65MPD2    C4  993   4.363   1.248  15.806 -0.0249 -0.1368 -0.3777
   65MPD2    C5  994   4.374   1.382  15.837  0.2773 -0.3282 -0.2094
   65MPD2     H  995   4.463   1.271  15.486  0.1198 -1.7587  0.9204
   65MPD2    H1  996   4.328   1.185  15.888 -2.6311  3.2391  1.1141
   65MPD2    H2  997   4.405   1.574  15.772  1.2994  0.8439 -1.6930
   65MPD2    H3  998   4.336   1.415  15.933  3.8068  1.6258  0.5177
   65MPD2     N  999   4.423   1.054  15.674  0.0247 -0.1107 -0.6422
   65MPD2    H5 1000   4.382   1.002  15.751  1.7849 -0.4431  0.0797
   65MPD2    N1 1001   4.435   1.516  15.501  0.0143  0.5238  0.4094
   65MPD2    H7 1002   4.479   1.488  15.413 -0.5069  0.4219  0.1846
   66TCq2    C1 1003   4.400   1.651  15.504 -0.0633  0.4586 -0.1849
   66TCq2    O2 1004   4.314   1.690  15.582  0.4198  0.2621  0.2121
   66TCq2    C2 1005   4.471   1.739  15.408 -0.2853  0.0592 -0.2026
   66TCq2    C3 1006   4.570   1.696  15.330  0.7176 -0.2177 -0.1481
   66TCq2    C4 1007   4.636   1.795  15.266 -0.4714 -0.3141 -0.2892
   66TCq2    C5 1008   4.619   1.928  15.292  0.6527 -0.1056  0.2381
   66TCq2    C6 1009   4.519   1.967  15.381  0.0842  1.2030  0.2680
   66TCq2    C7 1010   4.437   1.870  15.437  0.3762 -1.3911  0.3707
   66TCq2    C8 1011   4.488   2.107  15.379  0.1235  0.1166 -0.0782
   66TCq2    O4 1012   4.529   2.170  15.278 -0.2778 -0.4924 -0.0775
   66TCq2    C9 1013   0.021   1.772  15.171 -0.3370 -0.3125  0.5015
   66TCq2    O5 1014   0.081   1.868  15.117  0.4901  0.2746 -0.2803
   66TCq2    O6 1015   0.057   1.654  15.167 -0.0646  0.7510  0.4120
   66TCq2    H2 1016   4.587   1.592  15.308 -0.9340 -0.3246 -0.8772
   66TCq2    H3 1017   4.686   2.002  15.249 -0.0587 -0.5130 -1.5642
   66TCq2    H4 1018   4.366   1.896  15.515  1.0214  0.6287  0.3005
   67MPD2     C 1019   0.474   1.526  14.052  0.7256 -0.0479 -0.3596
   67MPD2    C1 1020   0.367   1.559  14.128  0.0531 -0.2224  0.4092
   67MPD2    C2 1021   0.240   1.549  14.072  0.3029 -0.1026  0.1267
   67MPD2    C3 1022   0.224   1.511  13.938 -0.4368 -0.0490  0.6001
   67MPD2    C4 1023   0.334   1.471  13.865  0.3777  0.0506 -0.1208
   67MPD2    C5 1024   0.457   1.480  13.923  0.5620 -0.9969  0.3738
   67MPD2     H 1025   0.153   1.572  14.133 -0.1355  0.5374 -0.7372
   67MPD2    H1 1026   0.326   1.429  13.766 -0.2615  1.6561 -0.7559
   67MPD2    H2 1027   0.576   1.529  14.087  0.2983 -0.0596  0.8794
   67MPD2    H3 1028   0.541   1.455  13.859 -0.2661 -2.7131 -0.0300
   67MPD2     N 1029   0.099   1.486  13.878  0.6884  0.6276 -0.2458
   67MPD2    H5 1030   0.097   1.436  13.790  0.4084  2.0472 -1.0490
   67MPD2    N1 1031   0.373   1.604  14.262  0.1972 -0.1163  0.7253
   67MPD2    H7 1032   0.286   1.637  14.301 -0.0931  0.7765 -0.6695
   68TCq2    C1 1033   0.473   1.581  14.349 -0.0897 -0.2892 -0.4345
   68TCq2    O2 1034   0.582   1.537  14.319 -0.2870 -0.4501  0.9949
   68TCq2    C2 1035   0.452   1.615  14.490 -0.4087 -0.8206 -0.2061
   68TCq2    C3 1036   0.374   1.714  14.534  0.1809 -0.8724  0.6740
   68TCq2    C4 1037   0.367   1.738  14.673  0.5424 -0.2953 -0.6081
   68TCq2    C5 1038   0.437   1.659  14.762 -0.2480  0.3857  0.3855
   68TCq2    C6 1039   0.515   1.556  14.712 -0.2977  0.2503  0.2968
   68TCq2    C7 1040   0.519   1.530  14.579 -0.1194 -0.4786  0.1187
   68TCq2    C8 1041   0.532   1.440  14.795  0.5279  0.6826 -0.2094
   68TCq2    O4 1042   0.570   1.339  14.735  0.5612 -0.1874 -0.3200
   68TCq2    C9 1043   0.319   1.861  14.726  0.8611 -0.4562 -0.0466
   68TCq2    O5 1044   0.249   1.855  14.832 -0.0288  0.6587  0.4965
   68TCq2    O6 1045   0.342   1.968  14.666  0.2087 -0.5775  0.1718
   68TCq2    H2 1046   0.323   1.780  14.465 -2.9050 -1.6601  2.2195
   68TCq2    H3 1047   0.464   1.704  14.856  0.3274  1.9544 -0.5249
   68TCq2    H4 1048   0.581   1.451  14.538 -1.1149  0.4082 -3.1399
   69TMC2    C1 1049   1.414   2.509  12.263  0.2286  0.0284  0.4215
   69TMC2    C2 1050   1.277   2.486  12.235  0.4920  0.1252 -0.2421
   69TMC2    C3 1051   1.227   2.547  12.125  0.6752 -0.6220 -0.6041
   69TMC2    C4 1052   1.496   2.579  12.180 -0.4498 -0.5714  0.1333
   69TMC2    C5 1053   1.447   2.614  12.054 -0.1172  0.5187  0.1131
   69TMC2    C6 1054   1.309   2.605  12.032  0.4535  0.5541 -0.3410
   69TMC2     C 1055   1.475   2.440  12.375 -0.2692  0.0001 -0.8651
   69TMC2     O 1056   1.419   2.350  12.436 -0.4832 -0.3651 -0.3127
   69TMC2     H 1057   1.211   2.419  12.288  0.0243  1.4104  0.7926
   69TMC2    H1 1058   1.604   2.573  12.186 -0.3591  1.6709  0.7387
   69TMC2    H2 1059   1.263   2.631  11.937 -0.2010  0.6461 -0.0026
   69TMC2    C7 1060   1.542   2.681  11.958  0.1882  0.0474  0.2681
   69TMC2    C8 1061   1.110   2.498  12.057 -0.4067  0.8052  0.2956
   69TMC2    O1 1062   1.651   2.697  12.007 -0.6377 -0.7311  0.0713
   69TMC2    O2 1063   1.108   2.469  11.941  0.5359 -0.1481 -0.0060
   69TMC2    O5 1064   1.009   2.489  12.146  0.0938  0.0606 -0.1838
   69TMC2    H5 1065   1.024   2.525  12.236  2.9928 -1.7894  0.0996
   70MPD2     C 1066   1.813   2.486  12.501 -0.3388 -0.5635  0.1416
   70MPD2    C1 1067   1.684   2.441  12.513 -0.3841 -0.5478  0.4393
   70MPD2    C2 1068   1.654   2.344  12.609 -0.0965 -0.8794 -0.3017
   70MPD2    C3 1069   1.758   2.304  12.698  0.1437 -0.4371  0.3889
   70MPD2    C4 1070   1.882   2.358  12.691 -0.0540  0.4785  0.5393
   70MPD2    C5 1071   1.910   2.439  12.586 -0.2407 -0.4724  0.6203
   70MPD2     H 1072   1.551   2.313  12.622  0.0009 -1.0189  0.1563
   70MPD2    H1 1073   1.955   2.324  12.763  0.1977 -3.0308 -1.3903
   70MPD2    H2 1074   1.853   2.555  12.428  0.1102 -1.6380 -0.6373
   70MPD2    H3 1075   2.015   2.466  12.587 -0.7350  1.4377 -0.7035
   70MPD2     N 1076   1.739   2.215  12.807  0.1912 -0.2007  0.4517
   70MPD2    H5 1077   1.824   2.216  12.862  0.0062  1.4300  0.7286
   70MPD2    N1 1078   1.603   2.480  12.403 -0.0004 -0.1051  0.1765
   70MPD2    H7 1079   1.650   2.546  12.342 -0.5513  0.4371  0.3326
   71TMC2    C1 1080   4.585   1.498   1.979 -0.3662 -0.5596  0.3940
   71TMC2    C2 1081   4.660   1.381   1.962 -0.4250  0.6902 -0.3531
   71TMC2    C3 1082   4.592   1.258   1.980 -0.3063 -0.5089  0.1104
   71TMC2    C4 1083   4.451   1.490   2.003  0.0409 -0.3361 -0.4769
   71TMC2    C5 1084   4.385   1.367   2.006  0.1237 -0.1576 -1.0636
   71TMC2    C6 1085   4.461   1.251   2.009 -0.0142  0.6628  0.6972
   71TMC2     C 1086   4.636   1.612   1.899 -0.0513  0.4555 -0.1027
   71TMC2     O 1087   4.557   1.690   1.859 -0.2368  0.3088 -0.3032
   71TMC2     H 1088   0.043   1.387   1.942  0.2041 -0.4562  2.6286
   71TMC2    H1 1089   4.405   1.586   1.983 -0.1415 -0.3902 -0.3188
   71TMC2    H2 1090   4.398   1.165   1.991  0.9971 -0.0075  0.4045
   71TMC2    C7 1091   4.237   1.369   2.043 -0.2505  0.5047 -0.2181
   71TMC2    C8 1092   4.655   1.151   1.900 -0.4400 -0.2953 -1.0127
   71TMC2    O1 1093   4.181   1.278   2.104  0.5206 -0.0445  0.3302
   71TMC2    O2 1094   0.024   1.171   1.822  0.2444  0.6605 -0.4557
   71TMC2    O5 1095   4.615   1.029   1.939 -0.3498 -0.0265  0.0043
   71TMC2    H5 1096   4.563   1.041   2.021 -0.0218  3.0342 -0.2328
   72MPD2     C 1097   0.281   1.866   1.639  0.3329  0.6798 -0.0305
   72MPD2    C1 1098   0.143   1.859   1.623 -0.2851  0.0600 -0.5161
   72MPD2    C2 1099   0.064   1.797   1.717  0.0431 -0.2179  0.3473
   72MPD2    C3 1100   0.120   1.721   1.824  0.3127 -0.0328 -0.3914
   72MPD2    C4 1101   0.258   1.723   1.834  0.5796 -0.8346 -0.6541
   72MPD2    C5 1102   0.334   1.798   1.746 -0.4968  0.1972  0.4023
   72MPD2     H 1103   4.679   1.785   1.710 -0.0722  1.1574 -0.1971
   72MPD2    H1 1104   0.306   1.676   1.919 -0.8155 -1.4634 -0.2158
   72MPD2    H2 1105   0.342   1.922   1.569 -0.2522 -0.3713 -1.3694
   72MPD2    H3 1106   0.440   1.801   1.767 -0.5292 -0.8084  0.7118
   72MPD2     N 1107   0.049   1.629   1.904  0.1523  0.4817 -0.3936
   72MPD2    H5 1108   0.104   1.562   1.958  0.0528  1.5791  1.0666
   72MPD2    N1 1109   0.095   1.929   1.507  1.3952 -0.4300 -0.1217
   72MPD2    H7 1110   0.161   1.965   1.440  0.9331 -1.2274 -1.0111
   73TMC2    C1 1111   0.272   0.042  14.439  0.0752 -0.5688  0.4120
   73TMC2    C2 1112   0.402   0.025  14.430  0.0230  0.4542  0.6838
   73TMC2    C3 1113   0.475   0.109  14.509  0.2316  0.1916  0.1976
   73TMC2    C4 1114   0.218   0.145  14.518 -0.6860 -0.0174 -0.2917
   73TMC2    C5 1115   0.303   0.227  14.586 -0.9175 -0.2722  0.6753
   73TMC2    C6 1116   0.442   0.214  14.586 -0.1378 -0.1842 -0.1668
   73TMC2     C 1117   0.198   0.028  14.313  0.1378 -0.5714  0.0385
   73TMC2     O 1118   0.129   0.121  14.283  0.0034  0.4070 -0.4402
   73TMC2     H 1119   0.447   4.699  14.345 -0.1945 -2.6097  2.3144
   73TMC2    H1 1120   0.111   0.146  14.535 -0.6273  0.4921  0.0393
   73TMC2    H2 1121   0.508   0.290  14.626 -0.4359 -0.6292  1.1539
   73TMC2    C7 1122   0.255   0.358  14.555  0.5652 -0.2544 -0.3542
   73TMC2    C8 1123   0.610   0.094  14.487  0.7237 -0.3220 -1.1851
   73TMC2    O1 1124   0.323   0.442  14.610  0.2890 -0.4294 -0.4166
   73TMC2    O2 1125   0.672   0.189  14.445 -0.2772 -0.2465  0.0710
   73TMC2    O5 1126   0.651   0.028  14.591 -0.2004  0.2551  0.2550
   73TMC2    H5 1127   0.581   4.697  14.633 -0.6270  0.1479 -0.5942
   74MPD2     C 1128   0.089   4.568  13.849  0.5836 -0.0832  0.4417
   74MPD2    C1 1129   0.081   4.695  13.896 -0.1701  0.1509 -0.0164
   74MPD2    C2 1130   0.132   4.721  14.025  0.4924 -0.4753 -0.4619
   74MPD2    C3 1131   0.178   4.618  14.104  0.2221  0.3949  0.3674
   74MPD2    C4 1132   0.186   4.489  14.048 -0.0528  0.1052  0.2031
   74MPD2    C5 1133   0.139   4.466  13.924 -0.0886  1.1605  0.5566
   74MPD2     H 1134   0.139   0.099  14.066 -0.4204 -0.2772 -0.7971
   74MPD2    H1 1135   0.229   4.407  14.104 -1.0399 -0.6378 -0.1293
   74MPD2    H2 1136   0.041   4.554  13.752  2.9325  2.0516 -1.0478
   74MPD2    H3 1137   0.142   4.369  13.875  1.1192  1.1911  0.5676
   74MPD2     N 1138   0.223   4.634  14.238 -0.7918  0.3673 -0.2852
   74MPD2    H5 1139   0.277   4.554  14.269 -1.4110  0.0591  0.0039
   74MPD2    N1 1140   0.027   0.075  13.813 -0.1677 -0.2926 -0.2738
   74MPD2    H7 1141   0.022   0.066  13.712 -0.4742  0.2830 -0.3107
   75TCq2    C1 1142   4.702   1.521  13.931 -0.0068 -0.5675 -0.1483
   75TCq2    O2 1143   4.669   1.553  14.043  0.1472  1.1500  0.3673
   75TCq2    C2 1144   4.592   1.479  13.844 -0.1088  0.2695  0.3776
   75TCq2    C3 1145   4.526   1.369  13.891  0.2424 -0.1420  0.3389
   75TCq2    C4 1146   4.466   1.283  13.800 -0.6687  0.4901  0.6012
   75TCq2    C5 1147   4.467   1.312  13.667  0.2539 -0.3216  0.5085
   75TCq2    C6 1148   4.520   1.434  13.629  0.9772  0.4156 -0.2919
   75TCq2    C7 1149   4.586   1.519  13.717 -0.6797  0.3574  1.0725
   75TCq2    C8 1150   4.467   1.502  13.508 -0.6483  0.6153 -0.0366
   75TCq2    O4 1151   4.527   1.603  13.470 -0.0990 -0.3365  0.1233
   75TCq2    C9 1152   4.405   1.168  13.840  0.5706 -0.0957  0.8044
   75TCq2    O5 1153   4.416   1.146  13.965  0.1745  0.1401  0.4793
   75TCq2    O6 1154   4.329   1.114  13.759 -0.3989 -0.1169 -0.4800
   75TCq2    H2 1155   4.528   1.344  13.997  3.3677 -0.5379  0.1908
   75TCq2    H3 1156   4.416   1.250  13.594 -0.4172 -3.1342  3.3423
   75TCq2    H4 1157   4.636   1.606  13.675 -1.6744  0.8108  0.8232
   76MPD2     C 1158   2.540   2.531  12.076 -0.4779 -0.0959  0.2778
   76MPD2    C1 1159   2.595   2.587  11.966 -0.3792  0.1865 -0.2089
   76MPD2    C2 1160   2.732   2.576  11.950 -0.4904  0.1182 -0.0697
   76MPD2    C3 1161   2.807   2.521  12.050  0.0553 -0.7145 -0.1213
   76MPD2    C4 1162   2.754   2.464  12.156  0.7432  0.8087 -1.4065
   76MPD2    C5 1163   2.619   2.465  12.165  0.0074 -0.0980  0.2478
   76MPD2     H 1164   2.771   2.621  11.860  0.0439  1.5572  0.8767
   76MPD2    H1 1165   2.817   2.420  12.233 -0.9063 -1.9585 -1.6407
   76MPD2    H2 1166   2.433   2.512  12.082  0.3745 -3.8063  3.3004
   76MPD2    H3 1167   2.579   2.399  12.241 -0.6283 -1.8310 -1.5947
   76MPD2     N 1168   2.948   2.522  12.038  0.4953  0.2270  0.0660
   76MPD2    H5 1169   3.009   2.472  12.103 -2.0590  0.8064  2.9360
   76MPD2    N1 1170   2.514   2.642  11.865  0.9752 -0.0465  0.2199
   76MPD2    H7 1171   2.562   2.670  11.780  2.1259 -1.5129  0.3826
   77TCq2    C1 1172   3.025   2.598  11.948 -0.1192  0.5887 -0.0625
   77TCq2    O2 1173   2.995   2.691  11.877 -0.4310 -0.2023 -0.2963
   77TCq2    C2 1174   3.161   2.551  11.953  0.2409 -0.8032 -0.1894
   77TCq2    C3 1175   3.249   2.651  11.954  0.2523  0.5937  0.0957
   77TCq2    C4 1176   3.375   2.622  11.982 -0.5956  0.0105 -0.2608
   77TCq2    C5 1177   3.415   2.503  12.036 -0.0081 -0.0157  0.4387
   77TCq2    C6 1178   3.320   2.404  12.029 -0.2901 -0.0835 -1.0535
   77TCq2    C7 1179   3.187   2.422  11.986  0.0756  0.4449  0.1943
   77TCq2    C8 1180   3.372   2.268  12.027 -0.0088  0.2928  0.0412
   77TCq2    O4 1181   3.300   2.192  11.968  0.2832  0.3740 -0.4975
   77TCq2    C9 1182   3.476   2.729  11.976  0.3695 -0.0955  0.6026
   77TCq2    O5 1183   3.598   2.704  12.013  0.6372 -0.0348 -0.2814
   77TCq2    O6 1184   3.442   2.824  11.905 -0.0202  0.3464 -0.1717
   77TCq2    H2 1185   3.218   2.753  11.935  1.6307  0.5677 -2.2890
   77TCq2    H3 1186   3.517   2.490  12.068  0.3818  2.7456  0.3472
   77TCq2    H4 1187   3.109   2.348  11.997  0.6201 -0.1424  0.0807
   78MPD1     C 1188   4.035   0.658   2.326  0.2001 -0.8236  0.0171
   78MPD1    C1 1189   3.981   0.776   2.370 -0.0361  0.4955  0.0802
   78MPD1    C2 1190   3.939   0.868   2.276 -0.3513 -0.9092  0.4693
   78MPD1    C3 1191   3.965   0.850   2.138  0.1163 -0.1842  0.5366
   78MPD1    C4 1192   4.040   0.738   2.101 -0.3498  0.2391  0.5657
   78MPD1    C5 1193   4.071   0.640   2.196 -0.1363  0.6990  0.3165
   78MPD1     H 1194   3.884   0.953   2.314 -1.5977 -0.2234 -2.8437
   78MPD1    H1 1195   4.078   0.724   2.000 -1.9919  0.2022 -0.0547
   78MPD1    H2 1196   4.051   0.576   2.395 -1.6408 -2.6012 -1.6703
   78MPD1    H3 1197   4.128   0.555   2.159 -1.4359  0.0053 -0.0777
   78MPD1     N 1198   3.944   0.956   2.049  1.0345  0.7747 -0.2127
   78MPD1    H5 1199   3.989   0.942   1.960  0.5234  1.8912 -0.6557
   78MPD1    N1 1200   3.950   0.800   2.506 -0.4164 -0.3575  0.3147
   78MPD1    H6 1201   4.011   0.757   2.576 -0.0729  0.7053  0.6651
   78MPD1    H7 1202   3.935   0.899   2.525  0.1613 -0.3538  0.7608
   79TCq2    C1 1203   3.876   1.077   2.073  0.0987  0.3508  0.1817
   79TCq2    O2 1204   3.805   1.102   2.172  0.0375  0.0330 -1.0325
   79TCq2    C2 1205   3.850   1.157   1.959 -0.0613  0.4064  0.2735
   79TCq2    C3 1206   3.735   1.233   1.961  0.7943 -0.5573 -0.6756
   79TCq2    C4 1207   3.721   1.329   1.861  0.1088  0.5954  0.0294
   79TCq2    C5 1208   3.819   1.362   1.775  0.6830 -0.7298  0.2902
   79TCq2    C6 1209   3.938   1.294   1.787  0.2123  0.1907  0.5296
   79TCq2    C7 1210   3.957   1.195   1.877  0.8789 -0.2038 -0.0792
   79TCq2    C8 1211   4.054   1.342   1.711 -0.7356  0.0380 -0.0045
   79TCq2    O4 1212   4.162   1.295   1.741 -0.4044  0.0173  1.0750
   79TCq2    C9 1213   3.590   1.388   1.849 -0.6821  0.1657 -0.3860
   79TCq2    O5 1214   3.494   1.353   1.929 -0.0375  0.7141 -0.5639
   79TCq2    O6 1215   3.576   1.471   1.757  0.0046 -0.2750 -0.6101
   79TCq2    H2 1216   3.648   1.205   2.020  0.3177 -1.7671 -1.9249
   79TCq2    H3 1217   3.803   1.425   1.688  0.3045 -1.0535  0.1260
   79TCq2    H4 1218   4.050   1.139   1.887 -0.6387 -2.6879  0.2203
   80MPD2     C 1219   2.522   1.443  12.783  0.6590  0.6006  0.2401
   80MPD2    C1 1220   2.439   1.471  12.678 -0.0551  1.0598 -0.9156
   80MPD2    C2 1221   2.310   1.440  12.688  0.3730 -0.6321 -0.7901
   80MPD2    C3 1222   2.248   1.395  12.804  0.3761 -0.8588 -0.3630
   80MPD2    C4 1223   2.332   1.383  12.913 -1.1105  0.0775  0.1265
   80MPD2    C5 1224   2.465   1.401  12.895  0.1025 -0.4007 -0.1745
   80MPD2     H 1225   2.242   1.447  12.604 -0.5332  0.0388  0.0075
   80MPD2    H1 1226   2.288   1.343  13.004 -2.5474  0.1493 -0.5429
   80MPD2    H2 1227   2.630   1.452  12.783  0.6906  0.2158 -1.6867
   80MPD2    H3 1228   2.533   1.379  12.977  1.2928  0.0806 -1.0289
   80MPD2     N 1229   2.105   1.371  12.812 -0.1539 -0.7215 -0.4598
   80MPD2    H5 1230   2.075   1.332  12.901  0.1182 -1.3913 -0.6606
   80MPD2    N1 1231   2.484   1.521  12.556 -0.1120  0.1173  0.2030
   80MPD2    H7 1232   2.417   1.534  12.481 -0.4179  3.4026  1.0573
   81TCq2    C1 1233   2.616   1.544  12.527  0.3838  0.5222 -0.2921
   81TCq2    O2 1234   2.718   1.544  12.595  0.1561 -0.1258 -0.1430
   81TCq2    C2 1235   2.634   1.572  12.383  0.3986  0.8640  0.0992
   81TCq2    C3 1236   2.742   1.645  12.346 -0.3979 -0.3764  0.5240
   81TCq2    C4 1237   2.775   1.662  12.215 -0.5662 -0.3801 -0.6037
   81TCq2    C5 1238   2.701   1.601  12.120  0.4841 -0.3564 -0.5940
   81TCq2    C6 1239   2.594   1.523  12.157 -0.5450  0.5615  0.7611
   81TCq2    C7 1240   2.558   1.507  12.288  0.1266 -0.1226 -0.5184
   81TCq2    C8 1241   2.504   1.494  12.050  0.5101  0.1529 -0.4835
   81TCq2    O4 1242   2.498   1.583  11.966  0.5904  0.4989 -0.4817
   81TCq2    C9 1243   2.885   1.754  12.181  0.6757  0.4030  0.4323
   81TCq2    O5 1244   2.904   1.766  12.057 -0.0328 -0.1628 -0.0698
   81TCq2    O6 1245   2.972   1.788  12.270  0.0025 -0.1330 -0.1435
   81TCq2    H2 1246   2.801   1.698  12.420  0.0159  1.7861 -1.3515
   81TCq2    H3 1247   2.717   1.618  12.014  0.1813  0.0333 -0.5785
   81TCq2    H4 1248   2.477   1.442  12.319  0.5078  1.1757  3.2311
   82MPD2     C 1249   0.761   0.909  10.494 -0.1517  0.6952  0.4013
   82MPD2    C1 1250   0.646   0.831  10.511 -0.1298  0.2695 -0.4669
   82MPD2    C2 1251   0.634   0.755  10.627 -0.1594  0.0773  0.7216
   82MPD2    C3 1252   0.749   0.745  10.703  0.1166 -0.5383 -0.1508
   82MPD2    C4 1253   0.861   0.825  10.684 -0.3146  0.4322  0.0565
   82MPD2    C5 1254   0.870   0.902  10.570  0.3500 -0.6006 -0.3864
   82MPD2     H 1255   0.551   0.687  10.639 -1.7005  2.2401  2.1837
   82MPD2    H1 1256   0.951   0.814  10.744 -0.3835 -0.1976  0.0439
   82MPD2    H2 1257   0.783   0.965  10.404  0.5496  0.4985  0.4530
   82MPD2    H3 1258   0.956   0.966  10.551 -0.7686  1.7737  2.5735
   82MPD2     N 1259   0.748   0.671  10.823  0.5436 -0.2564 -0.0040
   82MPD2    H5 1260   0.838   0.680  10.870  0.8801 -0.6710 -0.5598
   82MPD2    N1 1261   0.544   0.848  10.416 -0.0474 -0.4727  0.2935
   82MPD2    H7 1262   0.562   0.923  10.350 -0.5316 -1.6951 -1.2201
   83TCq2    C1 1263   0.638   0.606  10.879  0.3768  0.1508  0.1485
   83TCq2    O2 1264   0.520   0.595  10.838 -0.5601 -0.0134 -0.8867
   83TCq2    C2 1265   0.674   0.538  11.002  0.1765 -0.5996  0.1510
   83TCq2    C3 1266   0.791   0.573  11.066  0.8951 -0.4478  0.5283
   83TCq2    C4 1267   0.832   0.492  11.173 -0.4548 -0.4042 -0.1490
   83TCq2    C5 1268   0.755   0.391  11.218 -0.2658  0.2947  0.1076
   83TCq2    C6 1269   0.641   0.358  11.151 -0.1568  0.9370 -1.1622
   83TCq2    C7 1270   0.593   0.437  11.048 -0.0001 -0.7417 -0.0584
   83TCq2    C8 1271   0.554   0.262  11.209  0.0553  0.2138 -0.1285
   83TCq2    O4 1272   0.567   0.250  11.329  0.1549 -0.1258 -0.2077
   83TCq2    C9 1273   0.974   0.517  11.205 -0.2365  0.5622  0.4419
   83TCq2    O5 1274   1.028   0.633  11.194 -0.1062  0.1048  0.0405
   83TCq2    O6 1275   1.041   0.413  11.231 -0.3863 -0.6150 -0.6319
   83TCq2    H2 1276   0.851   0.658  11.036 -1.1448  0.7826 -0.1100
   83TCq2    H3 1277   0.793   0.326  11.296  0.1621  0.7969  0.3201
   83TCq2    H4 1278   0.497   0.419  11.002 -0.4886 -1.0556  1.0967
   84TCq2    C1 1279   2.203   4.507  10.486 -0.1344  0.2551  0.0344
   84TCq2    O2 1280   2.140   4.409  10.518  0.9718  0.6868  0.4465
   84TCq2    C2 1281   2.206   4.615  10.577  0.5241 -0.5298 -0.3600
   84TCq2    C3 1282   2.275   0.007  10.557 -0.0090  0.2212 -0.6487
   84TCq2    C4 1283   2.264   0.110  10.640  0.1809  0.3843 -0.0585
   84TCq2    C5 1284   2.195   0.091  10.755 -0.2514 -0.1471 -0.2846
   84TCq2    C6 1285   2.128   4.693  10.775  0.0282 -0.9359 -0.0856
   84TCq2    C7 1286   2.143   4.583  10.695  0.0122 -0.4336  0.2889
   84TCq2    C8 1287   2.023   4.696  10.879  0.7966 -0.2801 -0.4761
   84TCq2    O4 1288   1.992   0.076  10.936  0.1713 -0.0227  0.0936
   84TCq2    C9 1289   2.320   0.236  10.604  0.2212  0.2941  0.1625
   84TCq2    O5 1290   2.387   0.249  10.497  0.2033 -0.0723  0.2219
   84TCq2    O6 1291   2.341   0.317  10.701 -0.4904 -0.2595 -0.2810
   84TCq2    H2 1292   2.319   0.028  10.460  2.6714  0.0182  0.5172
   84TCq2    H3 1293   2.172   0.174  10.821 -1.3478 -0.3344 -0.4225
   84TCq2    H4 1294   2.087   4.492  10.712 -1.9282  0.4265 -1.5525
   85MPD2     C 1295   1.744   2.414  16.403  0.0791  0.9036 -0.1274
   85MPD2    C1 1296   1.678   2.345  16.297 -0.0847 -0.0980 -0.8118
   85MPD2    C2 1297   1.630   2.414  16.181  1.2521 -0.7650  0.5135
   85MPD2    C3 1298   1.633   2.553  16.174 -0.0644  0.1088 -0.1048
   85MPD2    C4 1299   1.692   2.616  16.286  0.1633 -0.8441  0.3708
   85MPD2    C5 1300   1.747   2.554  16.393 -0.0341 -0.3259 -0.0959
   85MPD2     H 1301   1.587   2.355  16.101  1.5983 -2.6651  1.7374
   85MPD2    H1 1302   1.709   2.722  16.297  1.1694 -1.2986  3.0092
   85MPD2    H2 1303   1.789   2.366  16.489 -0.3234 -0.6511 -0.7782
   85MPD2    H3 1304   1.796   2.612  16.471 -2.8738  1.5861  0.2725
   85MPD2     N 1305   1.591   2.621  16.055 -0.2648  0.0191 -0.8350
   85MPD2    H5 1306   1.567   2.556  15.981 -0.1683 -0.5020 -0.4067
   85MPD2    N1 1307   1.673   2.203  16.302  0.3992  0.0148 -0.1614
   85MPD2    H7 1308   1.649   2.158  16.214 -1.5040  1.2841 -0.2837
   86TCq2    C1 1309   1.584   2.753  16.032 -0.0913  0.0729  0.4313
   86TCq2    O2 1310   1.613   2.848  16.106  0.0796 -0.6111 -0.0447
   86TCq2    C2 1311   1.558   2.785  15.893  0.0343 -0.7391 -0.3048
   86TCq2    C3 1312   1.474   2.706  15.825 -0.4238 -0.4007  0.8489
   86TCq2    C4 1313   1.476   2.714  15.689 -0.1988  0.0239 -0.2993
   86TCq2    C5 1314   1.545   2.806  15.619  0.0732 -1.0323 -0.2764
   86TCq2    C6 1315   1.622   2.888  15.692 -0.1959  0.2844  0.0226
   86TCq2    C7 1316   1.630   2.886  15.827  0.1009 -0.1287 -0.1942
   86TCq2    C8 1317   1.744   2.939  15.624  0.0717 -0.3135 -0.1275
   86TCq2    O4 1318   1.838   2.987  15.686  0.8272  0.1650 -0.6113
   86TCq2    C9 1319   1.415   2.606  15.623 -0.4412  0.3570  0.2123
   86TCq2    O5 1320   1.451   2.589  15.506  0.2099  0.1858 -0.9251
   86TCq2    O6 1321   1.363   2.513  15.689  0.3584 -0.3919  0.1879
   86TCq2    H2 1322   1.415   2.634  15.882 -3.2815  1.5217  0.2961
   86TCq2    H3 1323   1.536   2.805  15.511  1.2385  3.8075 -0.4151
   86TCq2    H4 1324   1.705   2.942  15.883  1.4481 -2.5944  0.5062
   87MPD2     C 1325   3.808   0.126   1.000 -0.6154 -0.2414 -0.3103
   87MPD2    C1 1326   3.918   0.211   1.027  0.6848 -0.3421  0.8809
   87MPD2    C2 1327   3.908   0.345   1.005  0.2327 -1.3213 -1.0320
   87MPD2    C3 1328   3.785   0.397   0.970 -0.0240 -0.1605 -0.2414
   87MPD2    C4 1329   3.673   0.316   0.948  0.1395  0.0689  0.5478
   87MPD2    C5 1330   3.690   0.176   0.960  0.1951 -0.0953  0.3572
   87MPD2     H 1331   3.986   0.417   1.025 -1.2258  0.3245 -1.2134
   87MPD2    H1 1332   3.571   0.349   0.927 -0.2610 -1.0028  0.7737
   87MPD2    H2 1333   3.822   0.019   0.997  1.6223  0.0968 -1.6509
   87MPD2    H3 1334   3.604   0.111   0.946  2.2970 -2.0616 -3.3789
   87MPD2     N 1335   3.761   0.540   0.965  0.2616 -0.0910  0.5964
   87MPD2    H5 1336   3.673   0.569   0.922  2.1258  3.1378 -1.0558
   87MPD2    N1 1337   4.043   0.150   1.064  0.3870 -0.0082 -0.6056
   87MPD2    H7 1338   4.049   0.049   1.071  0.2558 -0.0255 -0.7363
   88TCq2    C1 1339   4.164   0.213   1.071  0.3570  0.4585 -0.9328
   88TCq2    O2 1340   4.194   0.335   1.053 -0.4296 -0.0258  0.0523
   88TCq2    C2 1341   4.271   0.125   1.111 -0.0505 -0.6470 -0.1460
   88TCq2    C3 1342   4.234   4.716   1.133  0.4076 -1.1968  0.2789
   88TCq2    C4 1343   4.321   4.616   1.104  0.7304  0.2186 -0.4875
   88TCq2    C5 1344   4.453   4.635   1.060 -0.4213  0.1675  0.2277
   88TCq2    C6 1345   4.488   0.040   1.044  0.3672  0.5645 -0.0702
   88TCq2    C7 1346   4.404   0.148   1.074  0.7193  0.2888  0.4891
   88TCq2    C8 1347   4.613   0.065   0.982  0.1451 -0.1990 -0.6364
   88TCq2    O4 1348   4.663   0.173   1.008  0.0986 -0.4464  0.6827
   88TCq2    C9 1349   4.263   4.484   1.104 -0.0382 -0.0424 -0.3648
   88TCq2    O5 1350   4.313   4.402   1.026  0.1056  0.3824 -0.1348
   88TCq2    O6 1351   4.153   4.469   1.164 -0.1934  0.2704  0.2072
   88TCq2    H2 1352   4.141   4.686   1.180 -0.8188  3.6936  0.9509
   88TCq2    H3 1353   4.504   4.546   1.024  0.2252  0.2434  0.9612
   88TCq2    H4 1354   4.441   0.248   1.055 -0.2938  0.8064  1.2124
   89MPD2     C 1355   0.306   4.102   1.710  0.2262  0.7124  0.3089
   89MPD2    C1 1356   0.400   4.008   1.673 -1.0309  0.4343 -0.1000
   89MPD2    C2 1357   0.519   4.049   1.627 -0.2758  0.2237  0.1129
   89MPD2    C3 1358   0.549   4.185   1.628 -0.8091 -0.2809  0.4330
   89MPD2    C4 1359   0.455   4.279   1.662  0.0879 -0.3934  0.7559
   89MPD2    C5 1360   0.333   4.238   1.706  0.0639 -0.2562  0.4646
   89MPD2     H 1361   0.597   3.980   1.597 -0.7407 -0.3658  0.2731
   89MPD2    H1 1362   0.472   4.386   1.654 -2.1935 -0.0244  0.8305
   89MPD2    H2 1363   0.210   4.075   1.754  1.1985 -0.4818  1.6833
   89MPD2    H3 1364   0.261   4.312   1.738  0.5571  0.8292 -0.9259
   89MPD2     N 1365   0.677   4.229   1.584 -0.4965  0.2877  0.4271
   89MPD2    H5 1366   0.738   4.149   1.570  0.0907  0.7582  0.3006
   89MPD2    N1 1367   0.372   3.872   1.684  0.6245 -0.0732  0.7568
   89MPD2    H7 1368   0.445   3.804   1.665  1.4090  1.3878 -1.5165
   90TCq2    C1 1369   0.719   4.357   1.562  0.0261  1.1932 -0.3115
   90TCq2    O2 1370   0.676   4.468   1.594  0.2999 -0.1675  0.1686
   90TCq2    C2 1371   0.829   4.347   1.467 -1.1796  0.5187  0.1364
   90TCq2    C3 1372   0.842   4.244   1.386 -0.0560  0.2247 -0.2449
   90TCq2    C4 1373   0.938   4.259   1.288  0.3647  0.4140  0.2196
   90TCq2    C5 1374   1.008   4.372   1.270 -0.6388 -0.1539 -0.5132
   90TCq2    C6 1375   0.985   4.473   1.353  0.3939 -0.1290  0.3748
   90TCq2    C7 1376   0.896   4.464   1.459 -0.6670  0.1253  0.1110
   90TCq2    C8 1377   1.064   4.595   1.357  0.5260 -0.7320 -0.0062
   90TCq2    O4 1378   1.011   4.691   1.408  0.0355 -0.0800  0.5824
   90TCq2    C9 1379   0.963   4.138   1.204 -0.0174  0.8146  0.0296
   90TCq2    O5 1380   0.895   4.035   1.229  0.3018  0.3697  0.1038
   90TCq2    O6 1381   1.057   4.149   1.121  0.4838 -0.7199  0.0175
   90TCq2    H2 1382   0.781   4.155   1.392  0.0427  0.1109 -0.9108
   90TCq2    H3 1383   1.067   4.384   1.180  0.2222  0.7578  0.1754
   90TCq2    H4 1384   0.870   4.553   1.515 -1.4845  0.6088 -1.0193
   91TMC2    C1 1385   1.928   3.274  16.606 -0.1261 -0.7374  0.5013
   91TMC2    C2 1386   1.996   3.236  16.492  0.0825  0.3625 -0.1393
   91TMC2    C3 1387   1.938   3.258  16.373 -0.4204  0.6035 -0.0820
   91TMC2    C4 1388   1.797   3.322  16.585  0.1716 -0.1148  0.1740
   91TMC2    C5 1389   1.755   3.361  16.463 -0.7830  0.3082  1.3563
   91TMC2    C6 1390   1.824   3.333  16.352  0.2926 -0.4738 -0.5947
   91TMC2     C 1391   1.984   3.267  16.738 -0.3068 -0.0443 -0.2333
   91TMC2     O 1392   1.911   3.256  16.834  0.6446  0.2697 -0.1280
   91TMC2     H 1393   2.090   3.183  16.493  0.1379  0.5554  3.5984
   91TMC2    H1 1394   1.742   3.345  16.676  0.9953 -0.9099  0.8761
   91TMC2    H2 1395   1.809   3.362  16.249  1.1871  0.0916 -0.5698
   91TMC2    C7 1396   1.616   3.392  16.454 -0.6386  0.2928  0.2441
   91TMC2    C8 1397   2.007   3.211  16.255  0.1847  0.7071 -0.1520
   91TMC2    O1 1398   1.544   3.412  16.553  0.3079  0.6221 -0.2174
   91TMC2    O2 1399   1.954   3.167  16.153 -0.5856 -0.1953 -0.1195
   91TMC2    O5 1400   2.122   3.274  16.260  0.2634 -0.4295 -0.4294
   91TMC2    H5 1401   2.145   3.298  16.352  0.0738 -1.2239 -0.1693
   92MPD2     C 1402   2.172   3.158  16.951 -0.3097  0.0558  0.0184
   92MPD2    C1 1403   2.209   3.204  16.827 -0.3981 -0.0686  0.4081
   92MPD2    C2 1404   2.335   3.196  16.787 -0.2566  0.2130  0.2566
   92MPD2    C3 1405   2.425   3.134  16.870 -0.0964 -0.8839 -0.2966
   92MPD2    C4 1406   2.386   3.097  16.998  0.3828 -0.1951 -0.2916
   92MPD2    C5 1407   2.267   3.114  17.039  0.3948  0.2181  0.6217
   92MPD2     H 1408   2.359   3.232  16.687 -0.2397  0.1063  0.2219
   92MPD2    H1 1409   2.458   3.054  17.067  0.1257 -0.5902 -0.2680
   92MPD2    H2 1410   2.071   3.188  16.975  0.5058  1.8349  1.2615
   92MPD2    H3 1411   2.241   3.080  17.139 -1.8624 -1.1773 -0.4325
   92MPD2     N 1412   2.561   3.124  16.826  0.1547 -0.0612 -0.4299
   92MPD2    H5 1413   2.579   3.171  16.738  0.5312  1.0509  0.2496
   92MPD2    N1 1414   2.120   3.258  16.728  0.0870  0.6599  0.2122
   92MPD2    H7 1415   2.162   3.274  16.637 -0.4503  2.2479  0.2434
   93MPD2     C 1416   3.775   3.650  13.638 -0.2434 -0.3888 -1.1328
   93MPD2    C1 1417   3.731   3.708  13.760  0.3707 -0.2180  0.4271
   93MPD2    C2 1418   3.598   3.707  13.794 -1.1747 -0.2684  0.4222
   93MPD2    C3 1419   3.510   3.648  13.708  0.2918 -0.2889 -0.5376
   93MPD2    C4 1420   3.557   3.584  13.592 -0.2354  0.1949  0.2316
   93MPD2    C5 1421   3.686   3.593  13.554 -0.2970 -0.3875  0.1469
   93MPD2     H 1422   3.569   3.752  13.888  1.2270  0.4535  0.8107
   93MPD2    H1 1423   3.480   3.534  13.535 -1.1534  1.7524  0.1073
   93MPD2    H2 1424   3.880   3.650  13.610  0.4333 -1.7415  1.4479
   93MPD2    H3 1425   3.723   3.545  13.464 -0.0482 -1.3607  0.7706
   93MPD2     N 1426   3.369   3.644  13.730 -0.1972  0.2161  0.1656
   93MPD2    H5 1427   3.313   3.600  13.657  0.4371 -1.7508  0.8726
   93MPD2    N1 1428   3.819   3.777  13.844  0.1095 -0.0065  0.3559
   93MPD2    H7 1429   3.779   3.811  13.930 -0.6077 -1.0193  0.4340
   94TCq2    C1 1430   3.949   3.813  13.817 -0.2972 -0.0638 -0.5942
   94TCq2    O2 1431   4.023   3.780  13.724 -0.1463 -0.8143  0.1125
   94TCq2    C2 1432   4.009   3.903  13.918 -0.3461  0.1294  0.3406
   94TCq2    C3 1433   3.931   3.963  14.014  0.3864  0.0223  0.4925
   94TCq2    C4 1434   3.994   4.063  14.086  0.5421  0.0864 -0.0024
   94TCq2    C5 1435   4.128   4.087  14.071 -0.3423  0.1148 -0.7620
   94TCq2    C6 1436   4.203   4.021  13.984  0.5286  0.0592 -0.1826
   94TCq2    C7 1437   4.144   3.933  13.899 -0.1358  0.2513 -0.2490
   94TCq2    C8 1438   4.353   4.010  14.001 -0.5109 -0.0078  0.0476
   94TCq2    O4 1439   4.423   3.926  13.940 -0.1170 -1.1726 -0.3704
   94TCq2    C9 1440   3.923   4.123  14.193 -0.8606 -0.0168  0.5513
   94TCq2    O5 1441   3.993   4.173  14.280 -0.0011 -0.0094 -0.1324
   94TCq2    O6 1442   3.799   4.097  14.190  0.1762 -0.1873  0.5941
   94TCq2    H2 1443   3.828   3.936  14.032  0.0889  1.0815  0.3870
   94TCq2    H3 1444   4.174   4.160  14.137 -0.1412 -1.8094  1.2006
   94TCq2    H4 1445   4.200   3.877  13.825 -1.8516 -0.2871 -1.1326
   95TMC2    C1 1446   4.145   0.090  16.213  0.3626  0.1614 -0.0830
   95TMC2    C2 1447   4.227   4.706  16.203  0.8082 -0.2349  0.1424
   95TMC2    C3 1448   4.200   4.594  16.276  0.4960  0.1820 -0.5984
   95TMC2    C4 1449   4.033   0.089  16.295 -0.7939 -0.1733  0.1729
   95TMC2    C5 1450   4.008   4.696  16.367  0.1615  0.0488  1.0942
   95TMC2    C6 1451   4.090   4.590  16.361 -0.7615 -0.0161  0.0607
   95TMC2     C 1452   4.179   0.202  16.133 -1.0662 -0.1227 -0.0531
   95TMC2     O 1453   4.251   0.187  16.036  0.1734 -0.2908 -0.0767
   95TMC2     H 1454   4.308   4.705  16.131 -1.0348 -2.5572 -1.8990
   95TMC2    H1 1455   3.968   0.176  16.304 -1.6353 -0.7278 -0.6713
   95TMC2    H2 1456   4.052   4.497  16.403  2.9959 -0.2173  3.0314
   95TMC2    C7 1457   3.897   4.697  16.460 -0.6083  0.4570 -0.8013
   95TMC2    C8 1458   4.286   4.480  16.242 -0.0946  0.2574  0.6822
   95TMC2    O1 1459   3.897   4.616  16.553  0.0782 -0.1755 -0.0967
   95TMC2    O2 1460   4.379   4.483  16.163 -0.3209  0.9137 -0.1487
   95TMC2    O5 1461   4.281   4.399  16.348 -0.2031  0.1246 -0.2673
   95TMC2    H5 1462   4.200   4.394  16.404 -0.9112 -1.4619 -1.4080
   96MPD2     C 1463   4.159   0.723  16.054 -0.2805 -0.0123  0.5997
   96MPD2    C1 1464   4.204   0.623  15.968 -0.3192 -0.2130 -0.1142
   96MPD2    C2 1465   4.205   0.485  16.013  0.5220 -0.1654 -0.2645
   96MPD2    C3 1466   4.140   0.454  16.136 -0.5694 -0.4852 -0.1087
   96MPD2    C4 1467   4.102   0.559  16.218 -0.0492  0.4212  0.0231
   96MPD2    C5 1468   4.096   0.684  16.170  0.2427 -0.5746 -0.3703
   96MPD2     H 1469   4.231   0.397  15.955 -2.4622 -1.4106  0.3014
   96MPD2    H1 1470   4.065   0.532  16.316  0.7332  0.7640  0.4092
   96MPD2    H2 1471   4.143   0.822  16.013  1.3630 -1.0392 -2.5874
   96MPD2    H3 1472   4.060   0.763  16.235 -1.4599 -0.9614 -0.8413
   96MPD2     N 1473   4.131   0.323  16.191 -0.1830  0.2881  0.4247
   96MPD2    H5 1474   4.081   0.317  16.279 -1.9678  0.2504 -0.5975
   96MPD2    N1 1475   4.261   0.654  15.843 -0.1973  0.4383 -0.3100
   96MPD2    H7 1476   4.271   0.752  15.821 -0.6361  1.0949  2.3888
   97MPD2     C 1477   0.626   2.093   0.824  0.5595 -0.2956  0.6009
   97MPD2    C1 1478   0.713   2.201   0.840  0.1500 -0.0011 -0.0053
   97MPD2    C2 1479   0.754   2.266   0.722 -0.4672  0.2439  0.4137
   97MPD2    C3 1480   0.727   2.214   0.597 -0.4574 -0.2146  0.3263
   97MPD2    C4 1481   0.642   2.111   0.586 -0.2518  0.3746  0.3342
   97MPD2    C5 1482   0.595   2.047   0.701 -0.0905 -0.3227 -0.3701
   97MPD2     H 1483   0.820   2.352   0.722  0.2465 -0.3136 -0.2135
   97MPD2    H1 1484   0.608   2.077   0.489 -0.9076  0.0811  0.6737
   97MPD2    H2 1485   0.573   2.044   0.905 -0.1781 -0.0895  0.2477
   97MPD2    H3 1486   0.515   1.976   0.683 -0.6801  0.1394  0.4510
   97MPD2     N 1487   0.777   2.272   0.474 -0.0712 -0.7299 -0.1317
   97MPD2    H5 1488   0.764   2.208   0.397  0.2592  1.2842 -1.8379
   97MPD2    N1 1489   0.757   2.236   0.972 -0.0589  0.1612  0.5953
   97MPD2    H7 1490   0.700   2.192   1.044 -1.2467 -0.1467 -0.5275
   98TCq2    C1 1491   0.852   2.384   0.461  0.0990  0.3644  0.0485
   98TCq2    O2 1492   0.896   2.457   0.549 -0.2748  0.3514 -0.2254
   98TCq2    C2 1493   0.883   2.419   0.322  0.0292 -0.4159 -0.3792
   98TCq2    C3 1494   0.815   2.356   0.220  0.5710 -0.6102  0.8487
   98TCq2    C4 1495   0.818   2.411   0.100 -0.0860 -0.6331 -0.0255
   98TCq2    C5 1496   0.893   2.519   0.061  0.4774  0.5049  0.3559
   98TCq2    C6 1497   0.953   2.574   0.165  0.3640 -0.2014  0.3939
   98TCq2    C7 1498   0.955   2.528   0.294  0.1714 -0.1470  0.8327
   98TCq2    C8 1499   1.041   2.693   0.138  0.4630  0.0318 -0.9992
   98TCq2    O4 1500   1.121   2.723   0.223  0.3219 -0.3270 -0.4500
   98TCq2    C9 1501   0.742   2.347  17.687  0.1921 -0.0178  0.1953
   98TCq2    O5 1502   0.759   2.388  17.572  0.1765  0.0210 -0.0578
   98TCq2    O6 1503   0.674   2.250   0.028 -0.5560  0.2809  0.7174
   98TCq2    H2 1504   0.741   2.282   0.246  0.4062 -1.2029 -1.3713
   98TCq2    H3 1505   0.889   2.557  17.652  1.3526 -1.3687 -0.3901
   98TCq2    H4 1506   1.012   2.577   0.371 -1.8938 -2.4507  3.8537
   99MPD2     C 1507   4.520   4.619   1.893  0.1722 -0.2362  0.2803
   99MPD2    C1 1508   4.460   4.496   1.876 -0.0975 -0.7929  0.1859
   99MPD2    C2 1509   4.513   4.411   1.780  0.6140  0.0359  0.5764
   99MPD2    C3 1510   4.617   4.450   1.697 -0.1739  0.0446 -0.0135
   99MPD2    C4 1511   4.669   4.576   1.720 -0.1937 -0.6155  0.8824
   99MPD2    C5 1512   4.622   4.661   1.813  0.0709  0.2379 -0.2903
   99MPD2     H 1513   4.460   4.319   1.758 -1.0794  1.0478  0.4078
   99MPD2    H1 1514   0.035   4.620   1.675 -1.2117  0.4148 -0.1273
   99MPD2    H2 1515   4.478   4.695   1.958  1.2623 -0.1203  0.8435
   99MPD2    H3 1516   4.673   0.032   1.835 -1.9069  1.1113  0.6030
   99MPD2     N 1517   4.665   4.350   1.607  0.2775 -0.8190 -0.4623
   99MPD2    H5 1518   4.621   4.259   1.605 -0.7869 -0.3478  1.3979
   99MPD2    N1 1519   4.356   4.453   1.950  0.1708 -0.7743 -0.1043
   99MPD2    H7 1520   4.306   4.369   1.923  0.1758 -0.8607  0.1562
  100TCq2    C1 1521   4.285   4.530   2.042  0.3992  0.1566 -0.1284
  100TCq2    O2 1522   4.301   4.648   2.075 -0.6499  0.1004  0.4074
  100TCq2    C2 1523   4.164   4.458   2.086  0.1273 -1.4160  0.3946
  100TCq2    C3 1524   4.172   4.326   2.124  0.1760  0.4149  0.4427
  100TCq2    C4 1525   4.045   4.268   2.133  0.2952 -0.3137 -0.0934
  100TCq2    C5 1526   3.929   4.338   2.149 -0.5136  0.4488  0.0479
  100TCq2    C6 1527   3.932   4.471   2.131 -0.2792 -0.1496  0.2260
  100TCq2    C7 1528   4.043   4.531   2.081 -0.2860  0.2124  0.5786
  100TCq2    C8 1529   3.800   4.531   2.105  0.7794  0.9659 -0.2716
  100TCq2    O4 1530   3.764   4.627   2.176 -1.1163 -0.6879 -0.0174
  100TCq2    C9 1531   4.040   4.137   2.180  0.0706  0.3592  0.0546
  100TCq2    O5 1532   4.149   4.073   2.191  0.3124  0.2655  0.0164
  100TCq2    O6 1533   3.930   4.076   2.183 -0.2721  0.2866  0.5644
  100TCq2    H2 1534   4.266   4.275   2.135 -0.2506 -0.5486 -0.4413
  100TCq2    H3 1535   3.850   4.299   2.211  0.2872 -2.2411 -0.6207
  100TCq2    H4 1536   4.038   4.638   2.062 -3.1910  0.0647  0.5145
  101MPD2     C 1537   0.639   0.982  12.807 -0.2539  0.6212  0.1765
  101MPD2    C1 1538   0.639   1.109  12.854  0.1059  0.6521  0.4330
  101MPD2    C2 1539   0.610   1.133  12.986 -0.1913  0.2033 -0.4887
  101MPD2    C3 1540   0.599   1.025  13.075  0.7823 -0.0030 -0.2378
  101MPD2    C4 1541   0.599   0.898  13.023  0.1652 -0.6045 -0.9261
  101MPD2    C5 1542   0.609   0.879  12.890  0.6438 -0.2473 -0.2480
  101MPD2     H 1543   0.607   1.237  13.014  0.6985  0.0875  0.0404
  101MPD2    H1 1544   0.576   0.816  13.091 -0.7721  1.2914  1.0142
  101MPD2    H2 1545   0.664   0.968  12.702 -0.0412 -3.6350  0.7913
  101MPD2    H3 1546   0.602   0.775  12.861  1.1828 -0.4578  0.3842
  101MPD2     N 1547   0.577   1.044  13.215 -0.4966 -0.3136  0.5183
  101MPD2    H5 1548   0.543   0.965  13.269  0.5949 -0.4728  0.9886
  101MPD2    N1 1549   0.634   1.212  12.754  0.3895 -0.3016 -0.1913
  101MPD2    H7 1550   0.642   1.187  12.655 -0.9184 -2.7950  0.3188
  102TCq2    C1 1551   0.764   1.729  12.510  1.0128  0.0519 -0.2570
  102TCq2    O2 1552   0.836   1.767  12.605 -0.0807  0.4854  0.0365
  102TCq2    C2 1553   0.706   1.597  12.519  0.8310  0.7262 -0.3989
  102TCq2    C3 1554   0.675   1.536  12.403  0.4352 -0.5706  0.1179
  102TCq2    C4 1555   0.634   1.407  12.412  0.1001  0.0604 -0.5064
  102TCq2    C5 1556   0.609   1.352  12.531 -0.0126 -0.0930 -0.3238
  102TCq2    C6 1557   0.625   1.416  12.651 -0.1981  0.2578  0.1472
  102TCq2    C7 1558   0.677   1.544  12.645  0.2785 -0.6848  0.0267
  102TCq2    C8 1559   0.618   1.350  12.772 -0.2816  0.1141 -0.3747
  102TCq2    O4 1560   0.616   1.419  12.875 -0.1862 -0.0720  0.4738
  102TCq2    C9 1561   0.600   1.333  12.292  0.1820  0.7436  0.5187
  102TCq2    O5 1562   0.564   1.395  12.188  0.4208 -0.2785 -0.0259
  102TCq2    O6 1563   0.615   1.210  12.311  0.7389 -0.2326 -0.3344
  102TCq2    H2 1564   0.689   1.585  12.307 -1.0349  0.5519  0.4651
  102TCq2    H3 1565   0.561   1.255  12.524 -0.2506  0.1382 -1.8070
  102TCq2    H4 1566   0.704   1.599  12.734  1.5634 -0.0402 -0.7671
  103TMC2    C1 1567   3.860   1.920  12.571 -0.0646 -0.1093 -0.7797
  103TMC2    C2 1568   3.965   1.852  12.519 -0.4821 -0.1429  0.1371
  103TMC2    C3 1569   4.046   1.795  12.610 -0.0953  0.0953  0.5538
  103TMC2    C4 1570   3.829   1.932  12.705  0.5685  0.8241 -0.6338
  103TMC2    C5 1571   3.903   1.858  12.789 -0.4190 -0.2361  0.5342
  103TMC2    C6 1572   4.017   1.798  12.745 -0.0361 -0.1951  0.1793
  103TMC2     C 1573   3.764   1.984  12.479  0.6780 -0.1104  0.0402
  103TMC2     O 1574   3.687   2.069  12.522  0.4672 -0.0273 -0.1382
  103TMC2     H 1575   3.993   1.858  12.414  2.4673 -0.2642  0.9144
  103TMC2    H1 1576   3.743   1.990  12.738 -0.7671 -0.0719 -2.5695
  103TMC2    H2 1577   4.080   1.734  12.807 -0.2083  0.0219  0.5715
  103TMC2    C7 1578   3.878   1.853  12.929  0.1998 -0.8969  0.7904
  103TMC2    C8 1579   4.174   1.729  12.561 -0.1146 -0.4758 -0.1667
  103TMC2    O1 1580   3.971   1.822  13.003  0.2904  0.0157  0.7087
  103TMC2    O2 1581   4.200   1.705  12.439 -0.0596 -0.2271 -0.1434
  103TMC2    O5 1582   4.267   1.737  12.661  0.0170  0.1297 -0.0023
  103TMC2    H5 1583   4.245   1.801  12.732  0.6902 -0.6544  0.9190
  104MPD2     C 1584   3.653   1.859  12.154  0.2216 -0.6905  0.5958
  104MPD2    C1 1585   3.680   1.956  12.250  1.0051  0.1925 -0.6525
  104MPD2    C2 1586   3.610   2.081  12.241 -0.0702  0.3999  0.2353
  104MPD2    C3 1587   3.526   2.109  12.137 -0.1045 -0.5136  0.0291
  104MPD2    C4 1588   3.506   2.006  12.049 -0.0136  0.2793  0.2558
  104MPD2    C5 1589   3.563   1.882  12.060 -0.2553  1.0343  0.2689
  104MPD2     H 1590   3.628   2.157  12.316 -3.0547 -0.7255  2.0924
  104MPD2    H1 1591   3.435   2.024  11.969  0.3791  0.1071 -0.1316
  104MPD2    H2 1592   3.708   1.765  12.156  1.0522 -0.1936  1.2813
  104MPD2    H3 1593   3.547   1.808  11.983  1.5049  0.5648  0.3473
  104MPD2     N 1594   3.469   2.235  12.117 -0.1649 -0.1562  0.2906
  104MPD2    H5 1595   3.505   2.310  12.175  0.1204 -0.2563  0.2419
  104MPD2    N1 1596   3.763   1.920  12.357  0.0056  0.0547  0.2781
  104MPD2    H7 1597   3.812   1.831  12.345 -1.7608 -0.7961 -0.6782
  105MPD2     C 1598   1.000   0.527  17.579 -0.0470  0.3088 -0.0720
  105MPD2    C1 1599   0.869   0.573  17.570 -0.3997 -1.4120 -0.5941
  105MPD2    C2 1600   0.793   0.565  17.682 -0.0369 -0.6593 -0.0325
  105MPD2    C3 1601   0.827   0.475   0.097 -0.6527  0.0865  0.7200
  105MPD2    C4 1602   0.955   0.425   0.097 -0.4080  0.0266  0.2359
  105MPD2    C5 1603   1.037   0.456  17.686  0.4414  0.3896  0.1315
  105MPD2     H 1604   0.697   0.616  17.688  1.3307  1.8626  0.4093
  105MPD2    H1 1605   1.000   0.378   0.183  0.7561  1.8118  0.5977
  105MPD2    H2 1606   1.064   0.528  17.492 -1.1817 -4.0033 -0.9171
  105MPD2    H3 1607   1.134   0.408  17.682 -0.1407 -0.8006  0.4485
  105MPD2     N 1608   0.738   0.459   0.212 -0.1478  0.1780 -0.0279
  105MPD2    H5 1609   0.652   0.512   0.216 -0.1988  0.0329  0.7986
  105MPD2    N1 1610   0.823   0.643  17.453  0.1178  0.4255 -0.3030
  105MPD2    H7 1611   0.730   0.684  17.460 -0.0739  0.1384 -1.1658
  106TCq2    C1 1612   0.756   0.365   0.305  0.2664 -0.2401  0.5805
  106TCq2    O2 1613   0.839   0.274   0.323  0.0365  0.0766 -0.3444
  106TCq2    C2 1614   0.659   0.382   0.414  0.7249 -0.0281 -0.4295
  106TCq2    C3 1615   0.583   0.498   0.427 -0.2359  0.1153  0.4124
  106TCq2    C4 1616   0.467   0.491   0.502 -0.3225  0.2926 -0.7393
  106TCq2    C5 1617   0.425   0.375   0.560  0.1693 -0.7019 -0.1382
  106TCq2    C6 1618   0.505   0.265   0.551 -0.4089 -0.0742 -0.0235
  106TCq2    C7 1619   0.622   0.266   0.474 -0.3500  0.4680  1.1558
  106TCq2    C8 1620   0.447   0.126   0.575 -0.2902  0.2393  0.6709
  106TCq2    O4 1621   0.522   0.034   0.559 -0.3433  0.6468  0.5883
  106TCq2    C9 1622   0.387   0.611   0.515  0.2067  0.1461  0.4839
  106TCq2    O5 1623   0.412   0.709   0.442  0.2673  0.1463  0.2304
  106TCq2    O6 1624   0.326   0.620   0.623 -0.3205  0.6615 -0.0244
  106TCq2    H2 1625   0.620   0.586   0.375  0.5926 -0.1165  0.6072
  106TCq2    H3 1626   0.329   0.383   0.610  1.0642 -3.9487  2.1469
  106TCq2    H4 1627   0.682   0.177   0.462 -0.7976  0.2766  0.3652
  107TMC2    C1 1628   1.255   0.175  11.394 -0.5380  0.9864  0.2299
  107TMC2    C2 1629   1.273   0.275  11.301 -0.3943  0.0745  0.5347
  107TMC2    C3 1630   1.354   0.249  11.200 -0.9321 -0.5424 -0.2079
  107TMC2    C4 1631   1.327   0.060  11.382  0.1633 -0.5515  0.7002
  107TMC2    C5 1632   1.413   0.045  11.278  0.0133 -0.3756  0.2993
  107TMC2    C6 1633   1.426   0.137  11.179  0.1715 -0.7133  0.6067
  107TMC2     C 1634   1.171   0.195  11.505  0.5403 -0.0548  1.1415
  107TMC2     O 1635   1.175   0.111  11.593 -0.3557  0.3951  0.1682
  107TMC2     H 1636   1.243   0.378  11.315 -0.3347  0.2467 -0.5994
  107TMC2    H1 1637   1.320   4.695  11.445 -2.7275 -0.9987 -0.2121
  107TMC2    H2 1638   1.497   0.129  11.098 -0.6884  0.0499 -0.2204
  107TMC2    C7 1639   1.504   4.650  11.279  0.6182 -0.5329 -0.4291
  107TMC2    C8 1640   1.377   0.346  11.100 -0.3197  0.2390  1.0816
  107TMC2    O1 1641   1.467   4.552  11.347  0.2625 -0.5237  0.3076
  107TMC2    O2 1642   1.474   0.336  11.028 -0.5759  0.7562 -0.3042
  107TMC2    O5 1643   1.256   0.386  11.064 -0.2785 -0.8286 -1.0890
  107TMC2    H5 1644   1.190   0.375  11.135  1.5308 -0.9955  0.5864
  108MPD2     C 1645   0.983   0.499  11.582  0.2890  1.0740  0.7879
  108MPD2    C1 1646   1.039   0.379  11.609 -0.0470  0.4193 -0.1293
  108MPD2    C2 1647   1.039   0.337  11.742 -0.0724  0.2111 -0.4141
  108MPD2    C3 1648   0.995   0.421  11.845 -0.2321  0.0292 -0.0964
  108MPD2    C4 1649   0.960   0.551  11.812  0.3654 -0.3334  0.7724
  108MPD2    C5 1650   0.945   0.581  11.685 -0.1277  0.0568  0.4966
  108MPD2     H 1651   1.079   0.241  11.771  0.3452  0.2598 -0.8222
  108MPD2    H1 1652   0.905   0.616  11.878 -0.8452 -0.5385 -0.0359
  108MPD2    H2 1653   0.968   0.524  11.478  0.1108 -1.8668  0.0999
  108MPD2    H3 1654   0.909   0.679  11.656 -0.4929 -0.7867 -1.9034
  108MPD2     N 1655   0.987   0.392  11.979 -0.0177 -0.8549 -0.3934
  108MPD2    H5 1656   0.955   0.471  12.034  0.9616 -1.3684  0.8970
  108MPD2    N1 1657   1.103   0.315  11.500  0.2886 -0.5132 -0.2180
  108MPD2    H7 1658   1.121   0.364  11.413  2.8136 -0.8239  0.1173
  109MPD2     C 1659   0.327   1.191   1.981  0.2027 -0.1555  0.1127
  109MPD2    C1 1660   0.369   1.273   1.884 -0.7557  0.2731 -0.6035
  109MPD2    C2 1661   0.503   1.319   1.896 -0.3396  0.0625  0.4988
  109MPD2    C3 1662   0.583   1.282   2.001 -0.8603  0.2708  0.5935
  109MPD2    C4 1663   0.543   1.187   2.099 -0.2959  1.0219 -0.5304
  109MPD2    C5 1664   0.414   1.147   2.085 -0.5093 -0.0097 -0.1701
  109MPD2     H 1665   0.545   1.394   1.829 -2.3100 -0.9099 -1.8472
  109MPD2    H1 1666   0.600   1.145   2.180 -0.6346  1.2468 -0.1788
  109MPD2    H2 1667   0.224   1.156   1.979 -0.0338  0.5742 -0.2058
  109MPD2    H3 1668   0.384   1.067   2.151 -0.7053 -0.3021 -0.6161
  109MPD2     N 1669   0.706   1.350   2.010  0.5303 -0.0119  0.2562
  109MPD2    H5 1670   0.712   1.421   1.938  2.3255 -1.1440 -0.6881
  109MPD2    N1 1671   0.281   1.302   1.782  0.0504  0.2646 -0.1463
  109MPD2    H7 1672   0.192   1.254   1.788 -0.7393  2.0301  2.4149
  110TCq2    C1 1673   0.796   1.354   2.113  0.0888  0.0913 -0.6823
  110TCq2    O2 1674   0.793   1.290   2.216  0.3373 -0.4301 -0.0915
  110TCq2    C2 1675   0.891   1.462   2.082 -0.2797 -0.6197  1.4873
  110TCq2    C3 1676   0.941   1.526   2.188 -0.3106 -0.3354 -0.2777
  110TCq2    C4 1677   1.018   1.634   2.163 -0.0280 -0.5336  0.3731
  110TCq2    C5 1678   1.027   1.698   2.041  0.2634 -0.1290 -0.5293
  110TCq2    C6 1679   0.964   1.637   1.938 -0.3285  0.2761  0.1563
  110TCq2    C7 1680   0.894   1.524   1.959 -0.4311 -0.6324 -0.7187
  110TCq2    C8 1681   0.941   1.716   1.822  0.1289  0.0448 -0.5566
  110TCq2    O4 1682   1.036   1.783   1.785  0.8374 -0.2991  0.1200
  110TCq2    C9 1683   1.093   1.694   2.276 -0.1426 -0.2098  0.2440
  110TCq2    O5 1684   1.086   1.642   2.388  0.2902  0.2458 -0.0915
  110TCq2    O6 1685   1.145   1.807   2.265 -0.3984 -0.4461  0.3184
  110TCq2    H2 1686   0.926   1.479   2.285 -0.1597 -0.8089 -0.4845
  110TCq2    H3 1687   1.076   1.794   2.030 -1.6543  1.0199  0.8390
  110TCq2    H4 1688   0.844   1.484   1.872 -1.2501 -1.0634 -0.0513
  111TMC2    C1 1689   1.724   2.469  11.475 -0.0203 -0.1091 -0.3709
  111TMC2    C2 1690   1.836   2.434  11.403 -0.8273  0.3525  0.1552
  111TMC2    C3 1691   1.956   2.438  11.473  0.2042  0.8238 -0.4841
  111TMC2    C4 1692   1.720   2.484  11.610 -0.8983 -0.6892 -0.0430
  111TMC2    C5 1693   1.838   2.481  11.678  0.8281  0.0382 -0.1605
  111TMC2    C6 1694   1.958   2.472  11.611  0.6145  0.2888  0.1893
  111TMC2     C 1695   1.593   2.441  11.425 -0.4257 -0.4145  0.1901
  111TMC2     O 1696   1.568   2.444  11.306  0.1359  0.1377  0.5233
  111TMC2     H 1697   1.819   2.412  11.298 -1.1819  1.6419 -0.0672
  111TMC2    H1 1698   1.631   2.509  11.666 -0.9421  3.2682 -1.8600
  111TMC2    H2 1699   2.047   2.453  11.670 -1.9982 -1.4139  3.5755
  111TMC2    C7 1700   1.830   2.434  11.815 -0.7830 -0.6728 -0.0969
  111TMC2    C8 1701   2.049   2.331  11.448  0.7124  0.4373 -0.7694
  111TMC2    O1 1702   1.714   2.403  11.840  0.1084  0.2021 -0.1623
  111TMC2    O2 1703   2.090   2.270  11.545  0.5329 -0.1830 -0.3390
  111TMC2    O5 1704   2.018   2.278  11.322 -0.0106 -0.0727  0.3639
  111TMC2    H5 1705   1.998   2.352  11.261 -0.8907 -0.5034  0.1238
  112MPD2     C 1706   1.119   2.284  11.525  0.1057 -0.2415 -0.2657
  112MPD2    C1 1707   1.162   2.362  11.421 -0.1446  1.0102 -0.2311
  112MPD2    C2 1708   1.296   2.393  11.413  0.5581 -0.2366 -0.0096
  112MPD2    C3 1709   1.380   2.346  11.517  0.5787 -0.0997  0.7631
  112MPD2    C4 1710   1.333   2.260  11.616  0.3499  0.2825 -0.2343
  112MPD2    C5 1711   1.201   2.229  11.616  0.0469 -0.3378  0.0067
  112MPD2     H 1712   1.342   2.454  11.337 -1.8304  0.5142 -0.8577
  112MPD2    H1 1713   1.403   2.221  11.690 -0.2218 -0.1896  0.0565
  112MPD2    H2 1714   1.013   2.261  11.535 -0.6463  3.5723  0.4962
  112MPD2    H3 1715   1.167   2.167  11.698 -0.4182 -1.1829 -0.8162
  112MPD2     N 1716   1.520   2.364  11.516 -0.1337  0.0772 -0.0215
  112MPD2    H5 1717   1.569   2.326  11.596 -1.9689 -0.4497  0.8549
  112MPD2    N1 1718   1.077   2.409  11.317 -0.1325  0.3179 -0.0714
  112MPD2    H7 1719   1.128   2.459  11.246  0.9856  0.0285  0.5163
  113MPD2     C 1720   3.525   4.163   1.030  0.4914 -0.9042 -0.1432
  113MPD2    C1 1721   3.398   4.169   1.076  0.1564  0.2881 -0.0186
  113MPD2    C2 1722   3.297   4.105   1.006  0.5327 -0.0999 -0.1029
  113MPD2    C3 1723   3.327   4.038   0.886 -0.5784  1.2663 -0.2724
  113MPD2    C4 1724   3.452   4.033   0.839 -0.3793 -0.8462  0.0701
  113MPD2    C5 1725   3.554   4.090   0.919 -0.7275  0.1132 -0.8396
  113MPD2     H 1726   3.193   4.110   1.038  1.0663  0.0819  1.6338
  113MPD2    H1 1727   3.480   3.983   0.747  0.3986 -1.4805  0.6470
  113MPD2    H2 1728   3.612   4.200   1.084 -0.1164  1.6565 -0.9406
  113MPD2    H3 1729   3.655   4.091   0.881 -1.1634  1.6177 -1.9465
  113MPD2     N 1730   3.231   3.963   0.817  0.0896 -0.2625 -0.0831
  113MPD2    H5 1731   3.257   3.919   0.730  2.4177  0.8796  0.0316
  113MPD2    N1 1732   3.362   4.239   1.194  0.1463  0.5619 -0.3547
  113MPD2    H7 1733   3.263   4.237   1.214  0.0985  2.7985 -0.3669
  114TCq2    C1 1734   3.104   3.943   0.859  0.2338  0.4725 -0.0642
  114TCq2    O2 1735   3.032   3.981   0.953  0.0100  0.4694 -0.4584
  114TCq2    C2 1736   3.052   3.831   0.774 -0.3526  0.3276  0.7045
  114TCq2    C3 1737   3.065   3.851   0.639 -0.4520  0.2965 -0.3458
  114TCq2    C4 1738   3.077   3.743   0.561 -0.4143 -0.2376 -1.0139
  114TCq2    C5 1739   3.057   3.616   0.608 -0.2305 -0.7301  0.0725
  114TCq2    C6 1740   3.044   3.597   0.739  0.6402 -0.0890  0.3469
  114TCq2    C7 1741   3.045   3.707   0.829  0.3219  0.0466  0.4206
  114TCq2    C8 1742   3.003   3.469   0.792 -0.0539  0.1007  0.2963
  114TCq2    O4 1743   2.998   3.384   0.704 -0.7830 -0.2130  0.4466
  114TCq2    C9 1744   3.085   3.759   0.416  0.7297 -0.0129 -0.2457
  114TCq2    O5 1745   3.106   3.876   0.372  0.0163  0.1372 -0.4248
  114TCq2    O6 1746   3.101   3.653   0.351 -0.2677 -0.0696  0.2887
  114TCq2    H2 1747   3.070   3.950   0.596  0.3057  1.0756  1.5165
  114TCq2    H3 1748   3.041   3.531   0.541 -2.5526  1.0887 -1.6839
  114TCq2    H4 1749   3.019   3.708   0.934 -0.1204  0.1907  0.3102
  115TMC2    C1 1750   4.563   2.808   0.155  0.4104  0.1320  0.3291
  115TMC2    C2 1751   4.546   2.804   0.020 -0.2050 -0.3912  0.0676
  115TMC2    C3 1752   4.571   2.924  17.647 -0.3684  0.6699 -0.2419
  115TMC2    C4 1753   4.628   2.913   0.218 -0.1565 -0.5633 -0.3456
  115TMC2    C5 1754   4.670   3.017   0.142  0.3820 -0.0117  0.6303
  115TMC2    C6 1755   4.639   3.031   0.008 -0.1559 -0.0697 -0.4701
  115TMC2     C 1756   4.533   2.683   0.215 -0.5331  0.7787 -0.1478
  115TMC2     O 1757   4.438   2.618   0.166 -0.3785  0.3287  0.0849
  115TMC2     H 1758   4.492   2.723  17.664 -0.0839  0.3319 -1.2804
  115TMC2    H1 1759   4.639   2.921   0.326 -0.2630 -1.0575 -0.2948
  115TMC2    H2 1760   4.642   3.117  17.634  0.1334  1.0700  1.0146
  115TMC2    C7 1761   0.000   3.133   0.211  0.0070 -0.4756 -0.2831
  115TMC2    C8 1762   4.547   2.922  17.499  0.1879 -0.2067  0.1681
  115TMC2    O1 1763   4.711   3.148   0.331  0.0000 -0.2095 -0.0913
  115TMC2    O2 1764   4.501   2.827  17.439  0.2290 -0.8382  0.2120
  115TMC2    O5 1765   4.620   3.017  17.439 -0.0718 -0.1380 -0.3487
  115TMC2    H5 1766   4.676   3.070  17.500 -1.4972  1.4875 -0.4554
  116MPD2     C 1767   4.691   2.262   0.461  0.0776 -0.6753  0.0656
  116MPD2    C1 1768   4.621   2.275   0.342 -0.1900  0.7951  0.3173
  116MPD2    C2 1769   4.590   2.403   0.303 -0.0223 -0.2242  0.0813
  116MPD2    C3 1770   4.636   2.516   0.364  0.8278 -0.2613  0.0613
  116MPD2    C4 1771   4.712   2.505   0.480 -0.1307 -0.7712 -0.7215
  116MPD2    C5 1772   0.025   2.373   0.519 -0.3473 -0.5757 -0.2662
  116MPD2     H 1773   4.531   2.412   0.213  0.3601 -0.5654 -0.2028
  116MPD2    H1 1774   0.040   2.589   0.526  0.3703 -3.5622  3.8622
  116MPD2    H2 1775   0.002   2.166   0.499 -1.6933 -0.4096  2.3109
  116MPD2    H3 1776   0.085   2.353   0.607 -0.6242 -0.1129  0.0264
  116MPD2     N 1777   4.620   2.649   0.314 -0.1779 -0.0775  0.4524
  116MPD2    H5 1778   4.678   2.721   0.355 -0.1494 -1.4801  2.8486
  116MPD2    N1 1779   4.566   2.159   0.278 -0.9694  0.4281  0.1907
  116MPD2    H7 1780   4.601   2.069   0.310 -0.6271  0.3474 -0.4073
  117TMC2    C1 1781   3.458   4.082  13.668  0.6634 -0.1605 -0.0337
  117TMC2    C2 1782   3.479   4.003  13.565 -0.3680 -0.2648 -0.2014
  117TMC2    C3 1783   3.609   4.000  13.510  0.0032 -0.1740 -0.2988
  117TMC2    C4 1784   3.558   4.157  13.727  0.2588 -0.0750  0.5656
  117TMC2    C5 1785   3.684   4.149  13.681  0.6006 -0.1761  0.1071
  117TMC2    C6 1786   3.713   4.075  13.565 -0.2632  0.8462  0.3362
  117TMC2     C 1787   3.330   4.065  13.731  0.1684  0.1888 -0.1339
  117TMC2     O 1788   3.275   3.956  13.717 -0.1009 -0.2042  0.0650
  117TMC2     H 1789   3.394   3.952  13.522 -1.3721  1.3584 -0.1015
  117TMC2    H1 1790   3.528   4.228  13.803  0.1031 -0.5317  0.9262
  117TMC2    H2 1791   3.814   4.071  13.527 -0.9776 -0.0977 -1.4776
  117TMC2    C7 1792   3.772   4.265  13.692 -0.6515  0.2644 -0.3715
  117TMC2    C8 1793   3.623   3.910  13.399 -0.0517  0.3380 -0.7016
  117TMC2    O1 1794   3.814   4.308  13.586  0.0665  0.4694 -0.7694
  117TMC2    O2 1795   3.535   3.827  13.372  0.0259  0.1763 -0.1442
  117TMC2    O5 1796   3.726   3.949  13.322  0.1715 -0.1769 -0.3464
  117TMC2    H5 1797   3.781   4.016  13.367  1.1697 -0.1564 -1.5783
  118MPD2     C 1798   3.774   4.505  13.964  0.5836  0.2051 -0.6810
  118MPD2    C1 1799   3.783   4.464  13.833  0.2541 -0.3214 -0.3490
  118MPD2    C2 1800   3.836   4.554  13.742  1.0556 -0.5615  0.1622
  118MPD2    C3 1801   3.871   4.685  13.776 -0.2912 -0.3868 -0.0881
  118MPD2    C4 1802   3.863   0.003  13.906 -0.7518 -0.1250 -0.0422
  118MPD2    C5 1803   3.802   4.632  13.996 -0.2955 -0.5802 -0.0167
  118MPD2     H 1804   3.852   4.519  13.641 -0.2993 -0.5906 -0.0358
  118MPD2    H1 1805   3.906   0.095  13.944 -0.7514  0.0371 -0.4323
  118MPD2    H2 1806   3.739   4.437  14.041  0.2921  2.0030  0.7730
  118MPD2    H3 1807   3.788   4.662  14.099 -0.0517 -0.5460  0.0078
  118MPD2     N 1808   3.940   0.047  13.689 -0.4831  0.3454 -0.0022
  118MPD2    H5 1809   3.952   0.143  13.720 -0.4171  0.3529 -0.0503
  118MPD2    N1 1810   3.758   4.331  13.810 -0.6424 -0.2469  0.0283
  118MPD2    H7 1811   3.706   4.278  13.879  1.0221  0.3942  1.7628
  119MPD2     C 1812   1.987   1.267  14.410 -0.3525 -0.6876 -0.8991
  119MPD2    C1 1813   1.879   1.282  14.326  0.7053  0.6889 -0.6573
  119MPD2    C2 1814   1.894   1.263  14.192  0.1395  0.3519  0.4849
  119MPD2    C3 1815   2.020   1.227  14.144 -0.7417 -0.2284 -0.8594
  119MPD2    C4 1816   2.131   1.239  14.225  0.3501  0.4359 -0.1221
  119MPD2    C5 1817   2.112   1.254  14.354  0.1815 -0.7242  0.4291
  119MPD2     H 1818   1.814   1.279  14.120 -0.7479 -1.1739  1.1421
  119MPD2    H1 1819   2.234   1.235  14.192  0.0736  0.3430 -0.9897
  119MPD2    H2 1820   1.978   1.279  14.517  0.3126  0.6299 -0.9917
  119MPD2    H3 1821   2.199   1.240  14.417  0.7793  0.4234 -0.1386
  119MPD2     N 1822   2.044   1.182  14.010  0.4291 -0.0928 -0.2415
  119MPD2    H5 1823   2.142   1.181  13.985  0.7306  0.2490  0.9072
  119MPD2    N1 1824   1.756   1.297  14.391 -0.6603 -0.1088  0.1881
  119MPD2    H7 1825   1.749   1.315  14.490 -2.1540  0.8875 -0.0867
  120TCq2    C1 1826   1.941   1.140  13.932 -0.8467  0.6203  0.0073
  120TCq2    O2 1827   1.828   1.106  13.972  0.2024 -0.6455  0.0599
  120TCq2    C2 1828   1.975   1.117  13.794  0.0816 -0.2721  0.0003
  120TCq2    C3 1829   2.096   1.152  13.745  0.4167 -0.0255 -1.0398
  120TCq2    C4 1830   2.142   1.099  13.625  0.0445 -0.4816  0.2012
  120TCq2    C5 1831   2.052   1.029  13.550 -1.1932  0.4827 -0.3586
  120TCq2    C6 1832   1.930   0.993  13.602  0.1606  0.5716  0.4096
  120TCq2    C7 1833   1.891   1.038  13.722  0.4425 -0.1389 -0.0960
  120TCq2    C8 1834   1.854   0.893  13.523 -0.1746  0.0671  1.0344
  120TCq2    O4 1835   1.885   0.852  13.418  0.0497 -0.0675  0.6131
  120TCq2    C9 1836   2.269   1.125  13.566  0.1756  0.3802  0.3986
  120TCq2    O5 1837   2.291   1.093  13.449  0.3342  0.7362  0.2259
  120TCq2    O6 1838   2.349   1.189  13.637 -0.2625  0.0665 -0.1053
  120TCq2    H2 1839   2.173   1.216  13.786  2.3203 -2.7240 -0.4797
  120TCq2    H3 1840   2.092   0.982  13.461 -0.6284  1.1029 -0.4353
  120TCq2    H4 1841   1.801   0.999  13.769  0.0920  1.3081  0.4616
  121TMC2    C1 1842   3.103   2.279  13.949 -0.8979 -0.2078 -0.7658
  121TMC2    C2 1843   3.167   2.158  13.961 -0.4831  0.0703  0.3996
  121TMC2    C3 1844   3.105   2.053  14.017  0.3257 -0.1881  1.0706
  121TMC2    C4 1845   2.973   2.287  13.984  0.2026 -0.0536 -0.2270
  121TMC2    C5 1846   2.913   2.171  14.034  0.3247 -0.1242  0.0030
  121TMC2    C6 1847   2.976   2.050  14.045 -0.2460 -0.7016 -0.3456
  121TMC2     C 1848   3.176   2.385  13.887  0.1757  0.0226  0.4758
  121TMC2     O 1849   3.299   2.367  13.885 -0.0961 -0.1326 -0.3787
  121TMC2     H 1850   3.268   2.135  13.928 -0.8945 -2.4439  0.8498
  121TMC2    H1 1851   2.927   2.385  13.994 -0.0050 -0.2383  0.5946
  121TMC2    H2 1852   2.910   1.972  14.080 -0.0910 -0.5552  0.2775
  121TMC2    C7 1853   2.770   2.160  14.005  0.0417 -0.3291 -0.6517
  121TMC2    C8 1854   3.185   1.932  14.028 -0.1373  0.4869  1.1333
  121TMC2    O1 1855   2.733   2.047  13.975  0.1216 -0.3156  0.1839
  121TMC2    O2 1856   3.276   1.915  13.946 -0.1044 -0.0553  0.6171
  121TMC2    O5 1857   3.111   1.832  14.076  0.1839 -0.5667 -0.4495
  121TMC2    H5 1858   3.063   1.861  14.157  0.2897  1.1507 -1.0091
  122MPD2     C 1859   3.280   2.638  13.795  0.4086 -0.7455  0.0279
  122MPD2    C1 1860   3.158   2.592  13.760  0.4631 -0.1172 -0.7688
  122MPD2    C2 1861   3.083   2.664  13.666 -0.2584 -0.1748  0.1010
  122MPD2    C3 1862   3.132   2.777  13.608  0.5172  0.1456  0.5713
  122MPD2    C4 1863   3.261   2.820  13.642  0.3037 -0.9509  0.1750
  122MPD2    C5 1864   3.324   2.759  13.748  0.3519 -0.5272  0.1352
  122MPD2     H 1865   2.983   2.627  13.653 -1.3111  2.7109  0.0327
  122MPD2    H1 1866   3.286   2.922  13.616 -1.3726 -0.2833  1.1670
  122MPD2    H2 1867   3.343   2.592  13.872 -0.5236 -1.2081  0.5165
  122MPD2    H3 1868   3.423   2.798  13.771  0.7865 -1.0955 -0.7608
  122MPD2     N 1869   3.063   2.870  13.524 -0.2627  0.1265 -0.5011
  122MPD2    H5 1870   3.114   2.952  13.494  2.6438 -0.3823  3.1210
  122MPD2    N1 1871   3.102   2.474  13.812 -0.3087  0.5929 -0.5652
  122MPD2    H7 1872   3.003   2.459  13.793 -0.3867 -0.6053  0.7403
  123MPD2     C 1873   1.507   0.613  10.861 -0.3297 -0.0622  0.2563
  123MPD2    C1 1874   1.492   0.535  10.755  0.5475  0.3316  0.4584
  123MPD2    C2 1875   1.559   0.577  10.638 -0.3751  0.4224  0.2073
  123MPD2    C3 1876   1.633   0.688  10.630  0.1739  0.6880  0.6822
  123MPD2    C4 1877   1.647   0.763  10.744 -0.4932  0.0505 -0.3106
  123MPD2    C5 1878   1.594   0.716  10.858  0.0137  0.3725  0.6276
  123MPD2     H 1879   1.537   0.516  10.551  2.4867 -0.4766  0.1389
  123MPD2    H1 1880   1.720   0.843  10.752  2.6458 -2.7951 -0.6553
  123MPD2    H2 1881   1.464   0.584  10.956 -0.0129  0.9568  0.7075
  123MPD2    H3 1882   1.624   0.768  10.948 -1.1984 -1.4130  2.0400
  123MPD2     N 1883   1.700   0.713  10.510  0.0604 -0.0981 -0.0030
  123MPD2    H5 1884   1.676   0.646  10.437  0.1672  0.5538 -0.6266
  123MPD2    N1 1885   1.402   0.425  10.757 -0.5456  0.3220  0.1961
  123MPD2    H7 1886   1.348   0.418  10.842 -1.0288  0.3484 -0.1041
  124TCq2    C1 1887   1.775   0.819  10.483  0.3473  0.9972  0.6909
  124TCq2    O2 1888   1.818   0.907  10.555  0.3155  0.1058  0.2137
  124TCq2    C2 1889   1.810   0.818  10.342 -0.3176 -0.0039  0.5106
  124TCq2    C3 1890   1.925   0.887  10.308 -0.6096 -0.0945 -0.3871
  124TCq2    C4 1891   1.990   0.864  10.194 -0.3926 -0.3553  0.3318
  124TCq2    C5 1892   1.936   0.776  10.101 -0.2545  0.4958 -0.7982
  124TCq2    C6 1893   1.830   0.702  10.142 -0.2505 -0.2157  0.0870
  124TCq2    C7 1894   1.762   0.721  10.259 -0.7649  0.1140  0.7679
  124TCq2    C8 1895   1.795   0.587  10.063 -0.2782  0.1943  0.0287
  124TCq2    O4 1896   1.702   0.521  10.102  0.2540  0.2207 -0.4924
  124TCq2    C9 1897   2.106   0.942  10.160  0.2071 -0.7319 -0.0308
  124TCq2    O5 1898   2.129   1.050  10.218  0.1212 -0.5605 -0.4774
  124TCq2    O6 1899   2.183   0.896  10.070  0.0500  0.2506  0.3434
  124TCq2    H2 1900   1.980   0.944  10.382 -2.0718 -0.9567  1.3355
  124TCq2    H3 1901   1.985   0.761  10.005  0.9297 -2.1146  0.2013
  124TCq2    H4 1902   1.681   0.657  10.289  0.7850 -2.6729 -0.9784
  125TMC2    C1 1903   4.125   3.524   9.006  0.4582 -0.5967 -0.6417
  125TMC2    C2 1904   4.115   3.661   8.980 -0.2277 -0.0967 -0.5079
  125TMC2    C3 1905   4.164   3.752   9.069 -0.6390 -0.1563  0.3439
  125TMC2    C4 1906   4.178   3.468   9.122  0.5829  0.6101  0.1544
  125TMC2    C5 1907   4.222   3.567   9.211 -0.0294  0.8210 -0.1129
  125TMC2    C6 1908   4.212   3.705   9.191  0.4900  0.4485 -0.2837
  125TMC2     C 1909   4.045   3.442   8.919 -0.0621  0.5526  0.3177
  125TMC2     O 1910   3.952   3.493   8.860 -0.0894 -0.0682 -0.0273
  125TMC2     H 1911   4.082   3.696   8.882 -0.5850 -1.7717 -0.9886
  125TMC2    H1 1912   4.163   3.366   9.153 -0.3839 -0.1570 -2.9255
  125TMC2    H2 1913   4.235   3.770   9.274  0.7208 -0.7011  0.5561
  125TMC2    C7 1914   4.266   3.515   9.340 -0.7403  0.2212 -0.4994
  125TMC2    C8 1915   4.152   3.889   9.020  0.3667 -0.1647 -0.3309
  125TMC2    O1 1916   4.271   3.592   9.438 -0.1915  0.5143  0.0539
  125TMC2    O2 1917   4.066   3.902   8.929  0.3969 -0.1191 -1.0708
  125TMC2    O5 1918   4.177   3.981   9.114 -0.5627 -0.3432  0.8399
  125TMC2    H5 1919   4.265   3.967   9.156  0.2703 -2.6597 -1.6239
  126MPD1     C 1920   3.916   2.987   8.726  0.2133 -0.1475  0.1527
  126MPD1    C1 1921   4.022   2.970   8.809  0.2663 -0.4984 -0.6060
  126MPD1    C2 1922   4.081   3.074   8.867 -0.0950  0.1366 -0.5938
  126MPD1    C3 1923   4.027   3.201   8.852 -0.4884  0.3981  0.2718
  126MPD1    C4 1924   3.911   3.218   8.787 -0.2191  0.3572  0.4332
  126MPD1    C5 1925   3.855   3.109   8.726  0.7417  0.2544 -0.5277
  126MPD1     H 1926   4.178   3.066   8.915 -0.4145 -0.7804 -0.1162
  126MPD1    H1 1927   3.857   3.311   8.774  2.8403  1.9516 -0.9011
  126MPD1    H2 1928   3.864   2.908   8.673 -1.0421  0.3450  0.6559
  126MPD1    H3 1929   3.762   3.107   8.671  0.3012  1.1512  0.1822
  126MPD1     N 1930   4.086   3.307   8.923  0.0690 -0.0178 -0.3846
  126MPD1    H5 1931   4.172   3.282   8.972 -0.6937 -0.5106  0.7129
  126MPD1    N1 1932   4.098   2.857   8.802 -0.1590 -0.2601 -0.0252
  126MPD1    H6 1933   4.139   2.834   8.892 -1.5630 -0.5033  0.5557
  126MPD1    H7 1934   4.037   2.777   8.782  1.2093 -1.5319  0.8539
  127MPD2     C 1935   3.547   1.382   9.332  0.4090 -0.4389 -0.0679
  127MPD2    C1 1936   3.580   1.322   9.449 -0.4851  0.0618  0.2754
  127MPD2    C2 1937   3.700   1.356   9.503 -0.2013  0.1380  0.1123
  127MPD2    C3 1938   3.777   1.460   9.449 -0.0326  0.6120 -0.0540
  127MPD2    C4 1939   3.725   1.543   9.346 -0.2514 -0.1678 -0.5058
  127MPD2    C5 1940   3.614   1.499   9.290  0.1346  0.8326 -0.3852
  127MPD2     H 1941   3.746   1.313   9.591 -2.0280  1.5569  1.7408
  127MPD2    H1 1942   3.785   1.620   9.300  0.5554 -1.0423 -0.9231
  127MPD2    H2 1943   3.455   1.358   9.279  0.5233  1.7789 -1.2373
  127MPD2    H3 1944   3.585   1.557   9.203  0.5589  0.3991 -0.8152
  127MPD2     N 1945   3.910   1.475   9.499  0.0958  0.4493  0.3022
  127MPD2    H5 1946   3.943   1.398   9.557  1.2380 -0.1674 -1.1802
  127MPD2    N1 1947   3.480   1.243   9.515  0.8273  0.7502 -0.4788
  127MPD2    H7 1948   3.391   1.253   9.467  0.9303  1.3203 -0.5532
  128TCq2    C1 1949   3.494   1.170   9.630 -0.3730  0.1145  0.4315
  128TCq2    O2 1950   3.593   1.164   9.706  0.2111  0.2109  0.4605
  128TCq2    C2 1951   3.378   1.080   9.660  1.0965  0.1058  0.0709
  128TCq2    C3 1952   3.385   1.011   9.780 -0.2813 -0.1616 -0.0022
  128TCq2    C4 1953   3.297   0.914   9.807 -0.1453  0.2959  0.1856
  128TCq2    C5 1954   3.201   0.879   9.720 -0.2034  0.3335  1.1440
  128TCq2    C6 1955   3.205   0.936   9.597 -0.3632  0.2041  0.5637
  128TCq2    C7 1956   3.288   1.041   9.566  0.1388  0.0108 -0.6705
  128TCq2    C8 1957   3.107   0.895   9.498  0.2258 -0.0630 -0.2871
  128TCq2    O4 1958   3.069   0.989   9.426  0.3346 -0.4538 -0.1669
  128TCq2    C9 1959   3.298   0.839   9.929  0.0513  0.0569 -0.4043
  128TCq2    O5 1960   3.232   0.735   9.951 -0.3132  0.3757 -0.3977
  128TCq2    O6 1961   3.398   0.873  10.005  0.1096 -0.4142 -0.2977
  128TCq2    H2 1962   3.468   1.039   9.844  0.4385  0.6722 -1.3033
  128TCq2    H3 1963   3.130   0.800   9.743 -0.3372  0.0592 -0.2342
  128TCq2    H4 1964   3.280   1.069   9.462  1.3772  1.2106 -0.4487
  129MPD2     C 1965   0.839   1.813   1.070 -0.2037  0.5109 -0.3706
  129MPD2    C1 1966   0.970   1.837   1.128 -0.4499  0.0079  0.1490
  129MPD2    C2 1967   1.058   1.924   1.062  0.1276 -0.0738 -0.7011
  129MPD2    C3 1968   1.033   1.965   0.932  0.0912 -0.1217  0.6842
  129MPD2    C4 1969   0.914   1.930   0.873  0.7335 -0.3339 -0.8991
  129MPD2    C5 1970   0.819   1.856   0.944 -0.3164  0.6142  0.0015
  129MPD2     H 1971   1.156   1.941   1.103 -0.4921  0.1105  0.7087
  129MPD2    H1 1972   0.882   1.954   0.772 -0.3599  0.3438 -0.3978
  129MPD2    H2 1973   0.761   1.752   1.114 -1.3391  2.1198 -0.1689
  129MPD2    H3 1974   0.726   1.830   0.895 -0.8542  0.4782  1.0924
  129MPD2     N 1975   1.121   2.048   0.868  0.5941  0.0404 -0.4418
  129MPD2    H5 1976   1.185   2.097   0.930  0.6304  1.3821 -1.5562
  129MPD2    N1 1977   1.027   1.767   1.241 -0.2530 -0.0633 -0.0375
  129MPD2    H7 1978   1.114   1.803   1.278 -2.0756  4.4214 -0.1221
  130TCq2    C1 1979   0.960   1.669   1.309 -0.2483 -0.6390 -0.0629
  130TCq2    O2 1980   0.854   1.615   1.284  0.2433  0.0042 -0.3118
  130TCq2    C2 1981   1.040   1.612   1.421  0.3819  0.4124  0.2089
  130TCq2    C3 1982   1.178   1.605   1.410 -0.3391 -0.7281 -0.1200
  130TCq2    C4 1983   1.246   1.518   1.493 -0.0166  0.1615  0.9673
  130TCq2    C5 1984   1.173   1.426   1.568 -0.4565 -0.7075  0.4680
  130TCq2    C6 1985   1.041   1.444   1.581  0.1875 -0.0628  0.2752
  130TCq2    C7 1986   0.969   1.533   1.506 -0.1466 -0.3739  0.9182
  130TCq2    C8 1987   0.947   1.359   1.664 -0.4482  0.5315 -0.1597
  130TCq2    O4 1988   0.828   1.391   1.661  0.5276 -0.0736 -0.9466
  130TCq2    C9 1989   1.393   1.518   1.488  0.1396  0.1134 -0.2125
  130TCq2    O5 1990   1.454   1.461   1.584 -0.1360 -0.0036  0.7595
  130TCq2    O6 1991   1.437   1.593   1.395  0.3572  0.3640  0.1494
  130TCq2    H2 1992   1.230   1.654   1.328 -1.0658 -2.2981 -1.5132
  130TCq2    H3 1993   1.215   1.345   1.628 -0.2629 -0.1927  1.0206
  130TCq2    H4 1994   0.862   1.547   1.513  0.2185  2.2490  1.3270
  131MPD2     C 1995   1.083   0.078   9.937  0.3054  0.0162  0.3546
  131MPD2    C1 1996   1.180   0.165   9.980  0.3142  0.2385  0.4447
  131MPD2    C2 1997   1.190   0.171  10.121  0.1214 -0.1641 -0.3931
  131MPD2    C3 1998   1.120   0.093  10.204 -0.9469 -0.4126  0.3537
  131MPD2    C4 1999   1.017   0.016  10.152  0.4280  0.4501  0.0548
  131MPD2    C5 2000   1.007   4.718  10.019  0.1183  0.3804 -0.3002
  131MPD2     H 2001   1.255   0.248  10.162  1.2904 -1.5046  0.2965
  131MPD2    H1 2002   0.966   4.661  10.207  1.0136  1.1950  1.6367
  131MPD2    H2 2003   1.071   0.084   9.829  0.0824 -0.5338  0.3500
  131MPD2    H3 2004   0.923   4.656   9.989 -0.7113  1.3073  0.0979
  131MPD2     N 2005   1.157   0.100  10.342  0.1777 -0.5832 -0.0306
  131MPD2    H5 2006   1.242   0.154  10.358 -0.6481  0.7468 -0.1013
  131MPD2    N1 2007   1.249   0.247   9.881  0.0957  0.0293 -0.2577
  131MPD2    H7 2008   1.227   0.235   9.783  0.8057  2.7864 -0.7800
  132TCq2    C1 2009   1.655   0.666   9.747 -0.5499  0.1508  0.7283
  132TCq2    O2 2010   1.628   0.736   9.841 -0.2823 -0.1323  0.5576
  132TCq2    C2 2011   1.562   0.558   9.718 -0.2652  0.3666  0.5388
  132TCq2    C3 2012   1.547   0.518   9.587 -0.6044  0.1682  0.4797
  132TCq2    C4 2013   1.465   0.409   9.564  0.7783  0.5936 -0.2872
  132TCq2    C5 2014   1.396   0.350   9.668  0.5080  0.4510 -0.0290
  132TCq2    C6 2015   1.411   0.398   9.796 -0.1503  0.4517 -0.0074
  132TCq2    C7 2016   1.497   0.499   9.823  0.2615  0.4093 -0.1473
  132TCq2    C8 2017   1.345   0.340   9.909 -1.1070  0.6508  0.7011
  132TCq2    O4 2018   1.387   0.373  10.021 -0.1049  0.4270  0.0589
  132TCq2    C9 2019   1.452   0.359   9.433  0.7171 -0.2089 -0.5120
  132TCq2    O5 2020   1.403   0.243   9.413 -0.8305 -0.4763 -0.9095
  132TCq2    O6 2021   1.534   0.416   9.352  0.0975 -0.1490 -0.1570
  132TCq2    H2 2022   1.603   0.566   9.508  1.5543 -2.5771  0.3252
  132TCq2    H3 2023   1.337   0.261   9.648  1.6889 -0.1618 -0.8056
  132TCq2    H4 2024   1.493   0.543   9.922  1.7380  0.5415 -0.1528
  133MPD2     C 2025   0.137   2.254   8.943 -0.9950  0.0776 -0.5880
  133MPD2    C1 2026   0.232   2.200   9.027  0.4794 -0.1966 -0.1992
  133MPD2    C2 2027   0.253   2.065   9.030  0.3639  0.2944 -0.1507
  133MPD2    C3 2028   0.177   1.977   8.952 -0.4282 -0.3824  0.6019
  133MPD2    C4 2029   0.081   2.034   8.874  0.0239  0.1190  0.1007
  133MPD2    C5 2030   0.066   2.171   8.869 -0.0270 -0.0104  0.0355
  133MPD2     H 2031   0.322   2.014   9.096 -1.2576 -1.1041  0.4684
  133MPD2    H1 2032   0.008   1.970   8.824  1.8649 -2.2720  0.4691
  133MPD2    H2 2033   0.119   2.361   8.945 -2.2760 -0.1415 -0.5849
  133MPD2    H3 2034   4.699   2.197   8.815 -0.4277 -0.1222  0.6543
  133MPD2     N 2035   0.190   1.836   8.963 -0.2921 -0.6834 -0.3488
  133MPD2    H5 2036   0.117   1.783   8.917  0.3290 -2.9071  1.2469
  133MPD2    N1 2037   0.294   2.283   9.119  0.1638 -0.1764  0.0394
  133MPD2    H7 2038   0.287   2.384   9.108  0.2035 -0.1287  0.4353
  134TCq2    C1 2039   0.368   2.249   9.228 -0.5300  0.5020 -0.3779
  134TCq2    O2 2040   0.383   2.144   9.284 -0.2153 -1.0470  0.1874
  134TCq2    C2 2041   0.403   2.363   9.311 -0.5592 -0.5429  0.3020
  134TCq2    C3 2042   0.403   2.490   9.269  0.2587  0.6345  0.0432
  134TCq2    C4 2043   0.478   2.586   9.331  0.1365 -0.3665  0.8800
  134TCq2    C5 2044   0.538   2.571   9.455 -0.3459  0.0045 -0.1164
  134TCq2    C6 2045   0.528   2.447   9.507  0.0187 -0.1953  0.9975
  134TCq2    C7 2046   0.470   2.341   9.434  0.9659 -0.2447  0.1486
  134TCq2    C8 2047   0.552   2.432   9.651  0.6819 -0.6896  0.9888
  134TCq2    O4 2048   0.562   2.320   9.694  0.4258 -0.4624 -0.1076
  134TCq2    C9 2049   0.475   2.719   9.268 -0.2284  0.3992 -0.6671
  134TCq2    O5 2050   0.386   2.740   9.176 -0.5143  0.0459 -0.7841
  134TCq2    O6 2051   0.546   2.807   9.331  0.5116  0.3842  0.0910
  134TCq2    H2 2052   0.355   2.526   9.179 -0.5392  1.7636  0.9149
  134TCq2    H3 2053   0.603   2.646   9.497 -3.3442  2.5728 -0.0374
  134TCq2    H4 2054   0.447   2.248   9.483  1.5099 -1.8015 -2.5463
  135MPD2     C 2055   3.262   2.891   8.699  0.1695  0.5550  0.1007
  135MPD2    C1 2056   3.340   2.783   8.733  0.1854 -0.2193  0.5550
  135MPD2    C2 2057   3.446   2.816   8.817 -0.1889  0.4614  0.0857
  135MPD2    C3 2058   3.473   2.946   8.857 -1.0982  0.2835 -0.4080
  135MPD2    C4 2059   3.383   3.048   8.822 -1.2375 -0.0715 -0.4287
  135MPD2    C5 2060   3.277   3.015   8.751 -0.1149 -0.4117 -0.1704
  135MPD2     H 2061   3.518   2.743   8.853 -0.2524  0.1359 -0.4336
  135MPD2    H1 2062   3.378   3.145   8.870 -0.2110  0.1959 -0.8775
  135MPD2    H2 2063   3.169   2.871   8.647 -0.5527  2.3023  0.7226
  135MPD2    H3 2064   3.201   3.090   8.735 -0.7247 -1.2774 -1.2690
  135MPD2     N 2065   3.574   2.981   8.950  0.2273 -0.4966 -0.7655
  135MPD2    H5 2066   3.573   3.075   8.989 -0.8277 -1.2036  0.9014
  135MPD2    N1 2067   3.323   2.652   8.690  0.0209  0.5053 -0.2308
  135MPD2    H7 2068   3.381   2.586   8.741 -1.3290  0.8760  1.7709
  136TCq2    C1 2069   3.228   2.605   8.598  1.1457 -0.3752 -0.4273
  136TCq2    O2 2070   3.146   2.664   8.527 -0.5401  0.4790 -0.4010
  136TCq2    C2 2071   3.241   2.467   8.563  0.3953 -0.0674 -0.0790
  136TCq2    C3 2072   3.337   2.389   8.622 -0.7696 -0.1482 -0.4094
  136TCq2    C4 2073   3.339   2.256   8.612 -0.2687 -0.3868  0.6136
  136TCq2    C5 2074   3.247   2.193   8.538  0.0643  0.1982  0.9537
  136TCq2    C6 2075   3.138   2.263   8.497 -0.1647  0.1313  0.1951
  136TCq2    C7 2076   3.135   2.403   8.502 -0.0702  0.2908  0.5197
  136TCq2    C8 2077   3.015   2.211   8.439  0.0074  0.3704 -0.3411
  136TCq2    O4 2078   2.951   2.292   8.374 -0.1634  0.4074  0.0147
  136TCq2    C9 2079   3.459   2.180   8.651 -0.0331  0.5196  0.4566
  136TCq2    O5 2080   3.463   2.066   8.606 -0.4243 -0.1176 -0.1931
  136TCq2    O6 2081   3.562   2.243   8.670 -0.1289 -0.4216 -0.2910
  136TCq2    H2 2082   3.417   2.444   8.672  0.1599 -0.3786 -1.6380
  136TCq2    H3 2083   3.252   2.086   8.521 -3.0767  0.0513  0.8921
  136TCq2    H4 2084   3.042   2.455   8.484  0.3043  0.4579 -0.9089
  137MPD2     C 2085   3.205   1.749   9.863 -0.3280 -0.6780  0.6106
  137MPD2    C1 2086   3.175   1.634   9.803 -0.1346  0.1585 -0.0263
  137MPD2    C2 2087   3.181   1.636   9.661  0.8155  0.4385 -0.6666
  137MPD2    C3 2088   3.221   1.752   9.589 -0.3234 -0.1817  0.1065
  137MPD2    C4 2089   3.250   1.864   9.660 -0.0948  0.1194 -0.1975
  137MPD2    C5 2090   3.249   1.856   9.793 -0.3662  0.0870  0.1299
  137MPD2     H 2091   3.166   1.547   9.601  0.2002  0.6422 -0.8143
  137MPD2    H1 2092   3.304   1.949   9.618  1.6610 -1.3433 -0.8764
  137MPD2    H2 2093   3.205   1.756   9.971  2.2163 -0.1221  0.5745
  137MPD2    H3 2094   3.272   1.952   9.838  0.4037  0.1195 -0.3256
  137MPD2     N 2095   3.217   1.757   9.447  0.4251 -0.9120  0.5953
  137MPD2    H5 2096   3.186   1.673   9.398  0.7697 -1.1033  0.7100
  137MPD2    N1 2097   3.169   1.513   9.876 -0.3532 -0.3141  0.8142
  137MPD2    H7 2098   3.175   1.526   9.976 -1.9088  0.1375  0.8423
  138TCq2    C1 2099   3.130   1.388   9.828 -0.5395  0.3803  0.1409
  138TCq2    O2 2100   3.105   1.364   9.712  0.5889 -0.3672  0.8300
  138TCq2    C2 2101   3.115   1.282   9.925  0.6421  0.2135  0.0463
  138TCq2    C3 2102   3.191   1.282  10.038  0.3663  0.7665 -1.1264
  138TCq2    C4 2103   3.169   1.184  10.131 -0.2066  0.6453  0.1426
  138TCq2    C5 2104   3.087   1.077  10.100  0.1743 -0.3268 -0.6660
  138TCq2    C6 2105   3.019   1.074   9.979  0.3904  0.3265  0.4682
  138TCq2    C7 2106   3.044   1.172   9.885  0.3495  0.0451 -0.7138
  138TCq2    C8 2107   2.929   0.954   9.952  1.2402  0.2796 -0.6375
  138TCq2    O4 2108   2.920   0.870  10.042  0.0738 -0.0996  0.2887
  138TCq2    C9 2109   3.235   1.177  10.256 -0.2595  0.0635  0.5467
  138TCq2    O5 2110   3.173   1.122  10.347  0.8016 -0.0996 -0.0995
  138TCq2    O6 2111   3.322   1.263  10.282 -0.1161  0.2872  0.2770
  138TCq2    H2 2112   3.255   1.363  10.071 -1.8883  2.1273 -0.1176
  138TCq2    H3 2113   3.073   1.000  10.176 -2.2947  0.3313 -0.4524
  138TCq2    H4 2114   2.992   1.169   9.790 -1.3177  1.4491  0.1561
  139TMC2    C1 2115   3.680   0.536  13.607  0.0417 -0.1454  0.2300
  139TMC2    C2 2116   3.783   0.582  13.524  0.2985  0.0201  0.2291
  139TMC2    C3 2117   3.795   0.716  13.508 -0.0160 -0.5118 -0.0995
  139TMC2    C4 2118   3.588   0.619  13.659 -0.1428 -0.3513 -0.1069
  139TMC2    C5 2119   3.613   0.756  13.654 -0.2512 -0.0436  0.2439
  139TMC2    C6 2120   3.719   0.803  13.583  0.3412  0.6648  0.3241
  139TMC2     C 2121   3.656   0.394  13.612  0.2972 -0.1292 -0.1226
  139TMC2     O 2122   3.729   0.321  13.548  0.0331  0.6082 -0.1790
  139TMC2     H 2123   3.852   0.515  13.473  1.0214  1.1250 -0.2521
  139TMC2    H1 2124   3.500   0.582  13.709 -1.1155  0.4476 -1.2215
  139TMC2    H2 2125   3.740   0.909  13.573  0.0754  0.4262 -2.6831
  139TMC2    C7 2126   3.509   0.856  13.684 -0.0872  0.0093  1.2456
  139TMC2    C8 2127   3.902   0.764  13.427 -0.0304 -0.1737  0.9213
  139TMC2    O1 2128   3.514   0.971  13.636 -0.4538  0.2933  0.2139
  139TMC2    O2 2129   3.890   0.879  13.378 -0.1949 -0.6407  0.2615
  139TMC2    O5 2130   4.005   0.717  13.494 -0.5641 -0.4859  0.3614
  139TMC2    H5 2131   3.965   0.667  13.568  0.8002 -1.7378  0.2569
  140MPD2     C 2132   3.505   0.193  13.877 -0.1634  0.5418 -0.5534
  140MPD2    C1 2133   3.555   0.221  13.753 -0.6010 -1.4141  0.2641
  140MPD2    C2 2134   3.578   0.116  13.660 -0.4698  0.6292 -0.0718
  140MPD2    C3 2135   3.528   4.720  13.694 -0.0679 -0.3218  0.5399
  140MPD2    C4 2136   3.474   4.692  13.814  0.0859 -0.0014  0.9533
  140MPD2    C5 2137   3.469   0.066  13.910  0.0782 -0.1786 -0.6471
  140MPD2     H 2138   3.612   0.143  13.561 -0.6764 -2.1008 -0.8935
  140MPD2    H1 2139   3.443   4.594  13.847  2.4271 -0.4206  1.8906
  140MPD2    H2 2140   3.504   0.265  13.958  0.1842 -4.0356  3.5014
  140MPD2    H3 2141   3.422   0.053  14.007 -1.3781  0.5507 -1.2572
  140MPD2     N 2142   3.545   4.615  13.597  0.0405 -0.4804 -0.2172
  140MPD2    H5 2143   3.607   4.630  13.517  0.7682  1.0073  0.6387
  140MPD2    N1 2144   3.585   0.356  13.725 -0.0742  0.0958  0.0026
  140MPD2    H7 2145   3.554   0.425  13.793  2.3971  0.0239  1.1815
  141TCq2    C1 2146   3.914   1.606  14.540 -0.8726  0.2022 -0.4002
  141TCq2    O2 2147   3.988   1.679  14.470  0.1160  0.6579  0.1741
  141TCq2    C2 2148   3.903   1.641  14.684  0.4709 -0.3100 -0.3329
  141TCq2    C3 2149   3.894   1.544  14.782  0.2514 -0.5919  0.6249
  141TCq2    C4 2150   3.880   1.585  14.913  1.0093  0.7915 -0.0703
  141TCq2    C5 2151   3.871   1.721  14.943 -0.4203  0.5178  0.1138
  141TCq2    C6 2152   3.887   1.814  14.844 -0.0684  0.0190  0.6681
  141TCq2    C7 2153   3.904   1.778  14.714  0.5485  0.5375  0.2521
  141TCq2    C8 2154   3.856   1.948  14.879 -0.4651  0.5102 -0.2147
  141TCq2    O4 2155   3.771   1.976  14.966 -0.1292  0.7547 -0.6659
  141TCq2    C9 2156   3.881   1.488  15.019  0.3730  0.0443  2.1041
  141TCq2    O5 2157   3.894   1.535  15.135 -0.1848  0.3299 -0.1932
  141TCq2    O6 2158   3.921   1.372  14.990  0.1207  0.0131  0.2491
  141TCq2    H2 2159   3.870   1.441  14.761 -1.2782 -0.2314  0.5465
  141TCq2    H3 2160   3.852   1.752  15.045  0.0344  1.8421 -0.2007
  141TCq2    H4 2161   3.911   1.843  14.628  2.2225  0.9590  0.7154
  142MPD2     C 2162   1.243   4.321  10.533  0.6617 -0.4384 -0.0894
  142MPD2    C1 2163   1.214   4.253  10.412 -0.3501 -0.3138 -0.4823
  142MPD2    C2 2164   1.245   4.319  10.297 -0.5646 -0.0235  0.1011
  142MPD2    C3 2165   1.296   4.451  10.293 -0.4806 -0.3570  0.4353
  142MPD2    C4 2166   1.321   4.517  10.419 -0.0175  1.3015 -0.2428
  142MPD2    C5 2167   1.293   4.450  10.535  0.1453 -0.4012 -0.4335
  142MPD2     H 2168   1.237   4.263  10.205  3.6822 -0.3457 -0.1024
  142MPD2    H1 2169   1.378   4.609  10.421  0.4726  1.0342 -1.6408
  142MPD2    H2 2170   1.229   4.279  10.632  0.0442 -0.8207 -0.3403
  142MPD2    H3 2171   1.320   4.498  10.629 -1.5941 -2.2818  1.0438
  142MPD2     N 2172   1.325   4.522  10.174 -0.7315  0.6651  0.0163
  142MPD2    H5 2173   1.373   4.611  10.178  0.7027 -0.1552  1.0061
  142MPD2    N1 2174   1.153   4.124  10.421 -0.1531 -0.2776 -0.1533
  142MPD2    H7 2175   1.149   4.080  10.512 -1.5028  2.0287  0.9102
  143TCq2    C1 2176   1.281   4.495  10.047  0.4288  0.4451 -0.6941
  143TCq2    O2 2177   1.221   4.398  10.007  0.2213 -0.1195 -0.2519
  143TCq2    C2 2178   1.329   4.591   9.941 -0.3730  0.4533  0.8610
  143TCq2    C3 2179   1.271   4.587   9.816 -0.8801 -0.5365 -0.7409
  143TCq2    C4 2180   1.342   4.640   9.711  0.0233 -0.3980 -0.1052
  143TCq2    C5 2181   1.457   4.720   9.723 -0.8191 -0.0038  0.2676
  143TCq2    C6 2182   1.502   0.014   9.852  0.4739  0.4499 -0.1351
  143TCq2    C7 2183   1.439   4.674   9.962  0.4767 -0.6823  0.2485
  143TCq2    C8 2184   1.608   0.105   9.892  0.8625 -0.2569  0.5355
  143TCq2    O4 2185   1.600   0.153  10.006 -0.3524 -0.2147  0.4026
  143TCq2    C9 2186   1.281   4.618   9.584  0.3418  0.2073 -0.1964
  143TCq2    O5 2187   1.328   4.699   9.495 -0.4664 -0.1163  0.3097
  143TCq2    O6 2188   1.185   4.539   9.563  0.8124  0.7939  0.1670
  143TCq2    H2 2189   1.176   4.537   9.807 -1.0318 -0.3356 -0.2476
  143TCq2    H3 2190   1.491   0.051   9.635 -1.9255 -0.5444 -0.4821
  143TCq2    H4 2191   1.488   4.680  10.059  2.7833  0.3292 -0.9729
  144MPD2     C 2192   3.713   3.304   0.673  0.7944  0.0528 -0.2040
  144MPD2    C1 2193   3.814   3.370   0.607  0.0581  0.0486 -0.2041
  144MPD2    C2 2194   3.895   3.459   0.675 -0.7538 -0.5168  0.3981
  144MPD2    C3 2195   3.865   3.506   0.804 -0.7261  0.4050  0.0583
  144MPD2    C4 2196   3.752   3.453   0.867 -0.6476  0.0256 -0.5638
  144MPD2    C5 2197   3.687   3.347   0.804 -0.2883  0.5122  0.2046
  144MPD2     H 2198   3.971   3.498   0.609  0.8668 -0.5824  2.2154
  144MPD2    H1 2199   3.715   3.467   0.968 -0.9956  2.8442 -1.0788
  144MPD2    H2 2200   3.661   3.218   0.631  0.3050  0.5678 -0.6398
  144MPD2    H3 2201   3.610   3.300   0.864 -0.3965  0.7691  0.2671
  144MPD2     N 2202   3.951   3.592   0.880  0.1836  0.0469  0.6892
  144MPD2    H5 2203   3.912   3.619   0.969  1.7078  1.5812  0.8945
  144MPD2    N1 2204   3.862   3.328   0.485 -0.0754  0.0536 -0.5206
  144MPD2    H7 2205   3.953   3.366   0.460 -0.7059  1.6723 -0.3158
  145TCq2    C1 2206   4.083   3.624   0.847  0.0171 -0.7640 -0.2428
  145TCq2    O2 2207   4.157   3.600   0.752  0.1311 -0.1828 -0.8182
  145TCq2    C2 2208   4.154   3.663   0.972  0.0096 -0.4603 -0.2352
  145TCq2    C3 2209   4.296   3.643   0.978 -0.5568 -0.8764  0.4039
  145TCq2    C4 2210   4.372   3.694   1.083  0.2472  0.2874 -0.0123
  145TCq2    C5 2211   4.302   3.740   1.188  0.0581 -0.8306  1.0157
  145TCq2    C6 2212   4.165   3.768   1.180  0.3509 -0.1966 -0.1416
  145TCq2    C7 2213   4.090   3.733   1.075  0.0479 -0.1501 -0.0162
  145TCq2    C8 2214   4.109   3.856   1.286 -0.1676  0.4449  0.2575
  145TCq2    O4 2215   4.199   3.905   1.355  0.2726 -1.2182  0.1795
  145TCq2    C9 2216   4.515   3.677   1.087 -0.0371  0.4675  0.2582
  145TCq2    O5 2217   4.567   3.675   1.202  0.0075  0.5180  0.4144
  145TCq2    O6 2218   4.569   3.648   0.980 -0.5755  0.4719 -0.1722
  145TCq2    H2 2219   4.337   3.608   0.884 -0.1720  0.6167  0.0170
  145TCq2    H3 2220   4.358   3.777   1.273  1.0890 -0.7039  0.2808
  145TCq2    H4 2221   3.984   3.755   1.067 -0.3164 -1.7013  0.4633
  146TMC2    C1 2222   0.375   2.773  12.901 -0.6991 -0.3518 -0.0507
  146TMC2    C2 2223   0.286   2.829  12.809 -0.0408 -0.1496  0.5676
  146TMC2    C3 2224   0.206   2.751  12.720 -0.1430 -0.1493 -0.0175
  146TMC2    C4 2225   0.398   2.639  12.890  0.7151  0.6268 -0.1938
  146TMC2    C5 2226   0.322   2.563  12.802 -0.2584 -0.0530  0.0933
  146TMC2    C6 2227   0.223   2.612  12.722  1.3426 -0.6810  0.1066
  146TMC2     C 2228   0.417   2.850  13.018 -0.9411 -0.9241 -0.2534
  146TMC2     O 2229   0.421   2.976  13.012 -0.4885  0.1910 -0.0745
  146TMC2     H 2230   0.261   2.934  12.811  1.0887  0.0922  2.1001
  146TMC2    H1 2231   0.472   2.577  12.940 -1.8638 -0.7780  1.9004
  146TMC2    H2 2232   0.170   2.542  12.658  1.3098  0.7597 -1.4698
  146TMC2    C7 2233   0.371   2.437  12.754  0.2115  0.4419  0.1861
  146TMC2    C8 2234   0.127   2.827  12.621 -0.4045  0.9659  0.3897
  146TMC2    O1 2235   0.296   2.340  12.738  0.6448  0.3869  0.3343
  146TMC2    O2 2236   0.114   2.949  12.616  0.2573 -0.1728 -0.0352
  146TMC2    O5 2237   0.115   2.739  12.519  0.0773  0.3558 -0.0417
  146TMC2    H5 2238   0.181   2.668  12.519  0.3119  0.5737  0.4589
  147MPD2     C 2239   0.765   2.141  12.611 -0.1815 -0.2638 -0.3236
  147MPD2    C1 2240   0.806   2.278  12.618 -0.5009  0.1919 -0.0662
  147MPD2    C2 2241   0.717   2.376  12.653 -0.3395  0.2812 -0.2726
  147MPD2    C3 2242   0.585   2.342  12.684 -0.7935  0.0062  0.5463
  147MPD2    C4 2243   0.546   2.211  12.659 -0.1032  0.4200  0.4709
  147MPD2    C5 2244   0.633   2.113  12.621 -0.5682  0.3958 -0.1678
  147MPD2     H 2245   0.757   2.473  12.677 -0.2073  0.4298 -1.0730
  147MPD2    H1 2246   0.447   2.183  12.693 -0.2577 -0.9913 -1.1924
  147MPD2    H2 2247   0.826   2.056  12.583  0.0568 -0.2010  0.0025
  147MPD2    H3 2248   0.603   2.009  12.624  1.3910 -0.2069 -1.6698
  147MPD2     N 2249   0.505   2.445  12.736  0.6388 -0.3229  0.0749
  147MPD2    H5 2250   0.549   2.536  12.745 -0.1704 -0.0772  1.5311
  147MPD2    N1 2251   0.946   2.307  12.623  0.3214 -0.2756  0.0512
  147MPD2    H7 2252   1.005   2.224  12.625  1.7570  0.7182 -2.0852
  148MPD2     C 2253   1.207   0.730  10.774  0.0734 -0.1625  0.3549
  148MPD2    C1 2254   1.193   0.696  10.642 -0.5695  0.3475 -0.2254
  148MPD2    C2 2255   1.111   0.591  10.610 -0.0496 -0.1942 -0.0014
  148MPD2    C3 2256   1.039   0.517  10.698 -0.9264 -0.4256  0.6471
  148MPD2    C4 2257   1.053   0.555  10.828 -0.3746 -0.2897 -0.1391
  148MPD2    C5 2258   1.138   0.658  10.862 -0.8052  0.7346 -0.1852
  148MPD2     H 2259   1.104   0.573  10.503 -1.1671  3.1809 -0.4942
  148MPD2    H1 2260   1.010   0.508  10.916  1.4533  0.0876  0.9397
  148MPD2    H2 2261   1.256   0.822  10.804 -0.2199 -0.0162  0.3888
  148MPD2    H3 2262   1.141   0.689  10.966 -0.9675  0.1597 -0.0130
  148MPD2     N 2263   0.937   0.428  10.660 -0.1409  0.2122  0.9095
  148MPD2    H5 2264   0.873   0.390  10.729 -0.9375 -0.8362 -0.4162
  148MPD2    N1 2265   1.263   0.752  10.536  0.4683  0.0169 -0.0069
  148MPD2    H7 2266   1.240   0.701  10.452  1.8769 -0.2418 -0.2350
  149TCq2    C1 2267   1.343   0.869  10.519 -0.4731  0.0114  0.1258
  149TCq2    O2 2268   1.371   0.959  10.602  0.2294  0.1979  0.0557
  149TCq2    C2 2269   1.393   0.876  10.384 -0.1222  0.0096  0.4960
  149TCq2    C3 2270   1.491   0.970  10.360  0.2448 -0.6289  0.4507
  149TCq2    C4 2271   1.523   0.995  10.229  0.4565  0.0286  0.0640
  149TCq2    C5 2272   1.449   0.940  10.125 -0.1243 -0.2497 -0.5330
  149TCq2    C6 2273   1.366   0.831  10.155 -0.5329  0.3469  0.0401
  149TCq2    C7 2274   1.331   0.801  10.286  0.4353 -0.5811  0.5025
  149TCq2    C8 2275   1.278   0.768  10.056 -0.4117  0.2278 -0.0532
  149TCq2    O4 2276   1.183   0.705  10.098 -0.4898 -0.4321 -0.9704
  149TCq2    C9 2277   1.597   1.117  10.203 -0.1703 -0.2560 -0.4930
  149TCq2    O5 2278   1.644   1.168  10.305 -0.5157 -0.1077  0.0099
  149TCq2    O6 2279   1.582   1.177  10.090 -0.6312 -0.6406  0.3145
  149TCq2    H2 2280   1.532   1.019  10.447  0.7503 -1.7160  0.8210
  149TCq2    H3 2281   1.472   0.970  10.024  0.4850  1.4067  0.1020
  149TCq2    H4 2282   1.260   0.723  10.309  0.3922 -0.8516 -0.5759
  150MPD2     C 2283   2.655   0.715  12.012 -0.6409 -0.7462 -0.4652
  150MPD2    C1 2284   2.636   0.842  11.959 -0.3696 -0.6956 -0.3892
  150MPD2    C2 2285   2.711   0.945  12.015 -0.6188  0.0245 -0.2432
  150MPD2    C3 2286   2.808   0.923  12.113  0.7530  0.7253  0.1285
  150MPD2    C4 2287   2.827   0.795  12.160 -0.5217  0.8666 -0.0656
  150MPD2    C5 2288   2.751   0.693  12.108  0.1717 -0.0539  0.6033
  150MPD2     H 2289   2.697   1.047  11.981 -0.8736  1.2232  3.4994
  150MPD2    H1 2290   2.900   0.760  12.232 -0.3148  0.5903 -0.4104
  150MPD2    H2 2291   2.594   0.630  11.983  1.3003 -2.0907 -0.6314
  150MPD2    H3 2292   2.750   0.601  12.164 -0.3059 -0.6785 -0.4473
  150MPD2     N 2293   2.887   1.033  12.159  0.2464  0.8504 -0.5486
  150MPD2    H5 2294   2.872   1.119  12.107 -2.8305  1.4207  1.3013
  150MPD2    N1 2295   2.545   0.857  11.849 -0.2677  0.1578 -0.6766
  150MPD2    H7 2296   2.503   0.775  11.807  0.9988 -0.1903 -1.2801
  151TCq2    C1 2297   2.979   1.026  12.256  0.0223 -0.0500  0.2659
  151TCq2    O2 2298   2.983   0.942  12.346 -0.2617 -0.1374 -0.0611
  151TCq2    C2 2299   3.058   1.151  12.265 -0.4179 -0.2138 -0.0832
  151TCq2    C3 2300   3.038   1.257  12.179 -0.5234  0.1672 -0.4831
  151TCq2    C4 2301   3.101   1.375  12.188 -0.6198 -0.1626  0.3400
  151TCq2    C5 2302   3.200   1.393  12.286  0.6344  0.1267  0.2271
  151TCq2    C6 2303   3.228   1.288  12.367  0.5099 -0.0120  0.0318
  151TCq2    C7 2304   3.157   1.173  12.365  0.2890 -0.4044 -0.3173
  151TCq2    C8 2305   3.360   1.293  12.428 -0.2032 -0.7265  0.6055
  151TCq2    O4 2306   3.431   1.386  12.393  0.1742  0.1350  0.5606
  151TCq2    C9 2307   3.085   1.478  12.084  0.2056 -0.4965  0.3123
  151TCq2    O5 2308   2.999   1.466  11.999 -0.7121  0.0609  0.0252
  151TCq2    O6 2309   3.149   1.578  12.107 -0.7023  0.1634  0.0354
  151TCq2    H2 2310   2.971   1.253  12.094 -0.5012  2.0666 -0.6003
  151TCq2    H3 2311   3.252   1.488  12.299  1.0676 -0.1419  0.4509
  151TCq2    H4 2312   3.184   1.091  12.431  0.2516  0.8944  1.3054
  152MPD2     C 2313   2.620   0.363  12.302 -0.0002 -0.7536 -0.5881
  152MPD2    C1 2314   2.591   0.492  12.335  0.3111 -0.1124  0.0871
  152MPD2    C2 2315   2.488   0.555  12.262  0.1530  0.5887  0.0414
  152MPD2    C3 2316   2.429   0.501  12.154 -0.2865 -0.2839  0.0222
  152MPD2    C4 2317   2.471   0.374  12.122 -0.0812 -0.4557  0.6473
  152MPD2    C5 2318   2.551   0.301  12.207 -0.8956  0.0701  0.0289
  152MPD2     H 2319   2.455   0.658  12.278  0.2619  0.7518 -0.7682
  152MPD2    H1 2320   2.445   0.329  12.027 -0.0446 -0.9698  0.8817
  152MPD2    H2 2321   2.691   0.310  12.365 -0.8911 -0.6996  0.4547
  152MPD2    H3 2322   2.568   0.197  12.181  0.7311  0.5625 -0.8703
  152MPD2     N 2323   2.330   0.570  12.081  0.0615  0.2452 -0.1508
  152MPD2    H5 2324   2.314   0.665  12.110 -0.2619 -0.3129  1.4752
  152MPD2    N1 2325   2.672   0.551  12.433 -0.3021 -0.6388  0.2265
  152MPD2    H7 2326   2.737   0.492  12.485 -0.5578 -1.8788 -0.8654
  153TCq2    C1 2327   2.664   0.680  12.476  0.2071 -0.1403  0.0272
  153TCq2    O2 2328   2.595   0.769  12.433 -0.3237 -0.2976 -0.1189
  153TCq2    C2 2329   2.752   0.714  12.582 -0.7061  0.4323 -0.4654
  153TCq2    C3 2330   2.808   0.615  12.655  0.3946  0.7464 -0.0073
  153TCq2    C4 2331   2.898   0.647  12.751 -0.1140  0.7162  0.4814
  153TCq2    C5 2332   2.924   0.777  12.791 -0.5836  0.0515 -0.0397
  153TCq2    C6 2333   2.862   0.875  12.711  0.4502 -0.1553 -0.4803
  153TCq2    C7 2334   2.771   0.840  12.615 -0.3098 -0.6248  0.1230
  153TCq2    C8 2335   2.902   1.014  12.706 -0.1612 -0.1387  0.3064
  153TCq2    O4 2336   2.829   1.100  12.654 -0.0226  0.6154  0.1017
  153TCq2    C9 2337   2.979   0.546  12.812 -0.2022  0.0986 -0.2268
  153TCq2    O5 2338   2.972   0.433  12.763  0.2933 -0.1588 -0.6398
  153TCq2    O6 2339   3.062   0.574  12.904 -0.7566 -0.6565 -0.0818
  153TCq2    H2 2340   2.779   0.512  12.638 -0.4807  0.8659  0.7367
  153TCq2    H3 2341   2.998   0.803  12.866  0.7148 -3.3222 -0.1285
  153TCq2    H4 2342   2.740   0.912  12.540 -1.3067  0.9392  2.0313
  154MPD2     C 2343   3.617   4.489   0.099  0.3439 -0.2305  0.1034
  154MPD2    C1 2344   3.644   4.520   0.234  0.1425 -0.6553 -0.6625
  154MPD2    C2 2345   3.557   4.606   0.304 -0.1829  0.6276 -0.2797
  154MPD2    C3 2346   3.440   4.654   0.235 -0.0711 -0.1179 -0.4332
  154MPD2    C4 2347   3.416   4.613   0.101  0.0988 -0.3749 -0.2129
  154MPD2    C5 2348   3.500   4.523   0.035  0.3240 -0.2066  0.4430
  154MPD2     H 2349   3.568   4.643   0.406  1.6573 -1.5954  0.3256
  154MPD2    H1 2350   3.324   4.645   0.053  0.3103  0.6444  0.0777
  154MPD2    H2 2351   3.684   4.438   0.031 -2.2279 -0.7663 -2.0159
  154MPD2    H3 2352   3.478   4.486  17.628  2.1824 -1.2812  0.4387
  154MPD2     N 2353   3.346   0.005   0.306 -0.7044 -0.3193  0.0982
  154MPD2    H5 2354   3.368   0.011   0.405  1.0118  1.0329 -0.3627
  154MPD2    N1 2355   3.770   4.469   0.270 -0.0540  0.2365 -0.1237
  154MPD2    H7 2356   3.829   4.414   0.209  2.1258  2.1512  0.2543
  155TCq2    C1 2357   3.800   4.471   0.405  0.7418  0.0249  0.1391
  155TCq2    O2 2358   3.726   4.489   0.501  0.7154  0.0308 -0.0270
  155TCq2    C2 2359   3.933   4.431   0.428 -0.0728 -0.4015 -0.5992
  155TCq2    C3 2360   3.979   4.374   0.540 -0.0892  0.0176  0.2871
  155TCq2    C4 2361   4.110   4.345   0.555 -0.0465 -0.2401  0.2962
  155TCq2    C5 2362   4.203   4.358   0.462  0.2516  0.9755  0.1493
  155TCq2    C6 2363   4.162   4.413   0.344  0.1005 -0.1201  0.0050
  155TCq2    C7 2364   4.026   4.451   0.326  0.1775 -0.3448 -0.1162
  155TCq2    C8 2365   4.257   4.487   0.258  0.5523 -0.1954  0.2582
  155TCq2    O4 2366   4.371   4.502   0.309 -0.6577 -0.2301  0.3072
  155TCq2    C9 2367   4.155   4.297   0.687  0.2474  0.6149 -0.1061
  155TCq2    O5 2368   4.275   4.298   0.708  0.2884  0.1723 -0.3651
  155TCq2    O6 2369   4.073   4.262   0.775  0.5229 -0.3349  0.0198
  155TCq2    H2 2370   3.916   4.365   0.628  0.2488  0.6269  0.5911
  155TCq2    H3 2371   4.307   4.331   0.478  0.2724  1.6221  1.0927
  155TCq2    H4 2372   3.992   4.506   0.239  0.7321 -0.3873 -0.3552
  156MPD2     C 2373   2.801   2.912  11.054 -0.8856  0.2473 -0.3195
  156MPD2    C1 2374   2.668   2.940  11.052  0.3319  0.1716 -0.4790
  156MPD2    C2 2375   2.615   3.029  11.142  0.5639  0.2292  0.2175
  156MPD2    C3 2376   2.692   3.099  11.231  0.6701  0.8078  0.5449
  156MPD2    C4 2377   2.822   3.065  11.253 -1.3281 -0.1627 -0.3990
  156MPD2    C5 2378   2.872   2.971  11.155  0.3471  0.2241  0.1910
  156MPD2     H 2379   2.508   3.045  11.151  0.5486  0.9643 -1.1222
  156MPD2    H1 2380   2.889   3.123  11.315 -0.2444 -1.1798 -0.6379
  156MPD2    H2 2381   2.857   2.851  10.984  1.8304 -0.3972  2.3766
  156MPD2    H3 2382   2.979   2.962  11.142  0.4273  0.8377  0.4087
  156MPD2     N 2383   2.620   3.187  11.313 -0.6453  0.4631  0.1704
  156MPD2    H5 2384   2.521   3.199  11.297  0.0389  3.4666 -1.7284
  156MPD2    N1 2385   2.595   2.872  10.963  0.2842  0.2373  0.1169
  156MPD2    H7 2386   2.653   2.816  10.901 -1.0097  0.6771 -1.4882
  157TCq2    C1 2387   2.453   2.866  10.959 -0.1959 -0.4169  0.4909
  157TCq2    O2 2388   2.361   2.923  11.018  0.2092 -0.1988 -0.0959
  157TCq2    C2 2389   2.397   2.789  10.842 -0.4323  0.6744  0.8671
  157TCq2    C3 2390   2.481   2.738  10.750 -0.6785 -0.0818 -0.2486
  157TCq2    C4 2391   2.449   2.743  10.619  0.6639  0.7010  0.4038
  157TCq2    C5 2392   2.329   2.776  10.568  0.2959 -0.0991  0.5033
  157TCq2    C6 2393   2.235   2.809  10.664 -0.2666  0.1416  0.0932
  157TCq2    C7 2394   2.271   2.819  10.800 -0.4515  0.6410  0.3131
  157TCq2    C8 2395   2.151   2.904  10.605 -0.5123 -0.8161 -0.1741
  157TCq2    O4 2396   2.195   2.988  10.536  0.1519 -0.7649 -0.2881
  157TCq2    C9 2397   2.553   2.704  10.519 -0.2962 -0.4149  0.2850
  157TCq2    O5 2398   2.641   2.625  10.560 -0.3872  0.4896 -0.4939
  157TCq2    O6 2399   2.526   2.725  10.399 -0.6132  0.2905 -0.1497
  157TCq2    H2 2400   2.573   2.690  10.780 -1.7938 -0.2352  2.8373
  157TCq2    H3 2401   2.305   2.779  10.463 -1.8716 -1.6529  0.9524
  157TCq2    H4 2402   2.203   2.867  10.869 -1.0481 -0.5588  0.5629
  158TMC2    C1 2403   3.790   2.024  13.867  0.3942 -0.5215  0.5219
  158TMC2    C2 2404   3.897   2.076  13.804 -0.0495 -0.7608  0.0096
  158TMC2    C3 2405   3.895   2.115  13.676 -0.6568  0.7332  0.3652
  158TMC2    C4 2406   3.671   2.032  13.803 -0.2280  0.3303  0.6636
  158TMC2    C5 2407   3.676   2.045  13.671 -0.4308  0.2221  0.1016
  158TMC2    C6 2408   3.784   2.093  13.603 -0.0049 -0.4348 -0.3473
  158TMC2     C 2409   3.802   2.002  14.012  0.3794  0.6975  0.6437
  158TMC2     O 2410   3.901   2.050  14.064  0.2004  0.1128  0.4130
  158TMC2     H 2411   3.993   2.081  13.854 -0.8467 -0.7347  1.5520
  158TMC2    H1 2412   3.572   2.026  13.847 -0.4542 -1.4804 -0.0920
  158TMC2    H2 2413   3.779   2.120  13.498 -1.4426 -2.7363 -0.8698
  158TMC2    C7 2414   3.557   2.054  13.593  0.3016  0.1605 -0.3254
  158TMC2    C8 2415   3.991   2.205  13.617  0.4154 -0.4988  0.5258
  158TMC2    O1 2416   3.544   2.151  13.517 -0.1312 -0.1306 -0.1417
  158TMC2    O2 2417   3.975   2.239  13.498  0.1789 -0.0333  0.2445
  158TMC2    O5 2418   4.109   2.222  13.683  0.5413  0.0580 -0.4731
  158TMC2    H5 2419   4.115   2.174  13.768  2.1714 -1.4984 -1.4387
  159MPD2     C 2420   3.612   1.849  14.459 -0.6322 -0.3629 -0.3571
  159MPD2    C1 2421   3.542   1.784  14.363  0.0651 -0.1034 -0.1032
  159MPD2    C2 2422   3.564   1.822  14.230  0.4794  0.4933 -0.3682
  159MPD2    C3 2423   3.668   1.911  14.200 -0.3514 -0.4557 -0.4692
  159MPD2    C4 2424   3.735   1.972  14.304 -0.4518 -0.5692  0.4818
  159MPD2    C5 2425   3.709   1.941  14.432 -0.1457 -0.1299 -0.4862
  159MPD2     H 2426   3.505   1.778  14.151  0.0496  3.0303 -1.4930
  159MPD2    H1 2427   3.818   2.041  14.288 -0.6806 -0.4695 -0.2788
  159MPD2    H2 2428   3.588   1.837  14.564 -1.9621  1.8773 -0.4029
  159MPD2    H3 2429   3.746   1.993  14.519  1.4893 -1.3589 -0.4403
  159MPD2     N 2430   3.694   1.933  14.066 -0.2357 -0.3493  0.9886
  159MPD2    H5 2431   3.634   1.891  13.995 -1.5695  0.1081  1.8480
  159MPD2    N1 2432   3.454   1.681  14.395 -0.3220  0.0695  0.1560
  159MPD2    H7 2433   3.443   1.655  14.492  3.5163  2.2877  1.2075
  160TMC2    C1 2434   2.395   3.525   1.219 -0.7699 -0.5542  0.5169
  160TMC2    C2 2435   2.390   3.388   1.223 -0.5858 -0.3681 -0.4608
  160TMC2    C3 2436   2.483   3.320   1.144  0.2115 -0.0243 -0.0843
  160TMC2    C4 2437   2.484   3.585   1.137 -0.3757  0.6441 -1.0796
  160TMC2    C5 2438   2.568   3.515   1.055 -0.2329  0.0404 -0.3709
  160TMC2    C6 2439   2.571   3.379   1.055  0.3455  0.1639  0.7953
  160TMC2     C 2440   2.319   3.598   1.317  0.3536  0.2614 -0.3688
  160TMC2     O 2441   2.235   3.532   1.377  0.4968 -0.6019  0.6494
  160TMC2     H 2442   2.329   3.338   1.296  1.0198  1.3230  2.0443
  160TMC2    H1 2443   2.486   3.693   1.133 -0.6475  0.7045  0.4230
  160TMC2    H2 2444   2.645   3.322   1.000 -0.2619  1.0811 -0.9784
  160TMC2    C7 2445   2.629   3.572   0.939  0.0209  0.0840 -0.0941
  160TMC2    C8 2446   2.528   3.186   1.186  0.0437 -0.3740 -0.8743
  160TMC2    O1 2447   2.655   3.489   0.852 -0.2884 -0.4924 -0.5477
  160TMC2    O2 2448   2.547   3.084   1.122 -0.5497  0.0776 -0.1957
  160TMC2    O5 2449   2.504   3.193   1.326 -0.4885  0.0227  0.6153
  160TMC2    H5 2450   2.510   3.285   1.359  0.1980  0.7322 -1.4694
  161MPD2     C 2451   2.214   3.778   1.522  1.2779 -0.0123  0.6081
  161MPD2    C1 2452   2.291   3.819   1.412 -0.4774  0.6728  0.6264
  161MPD2    C2 2453   2.303   3.953   1.389 -0.2474  0.5578 -0.0118
  161MPD2    C3 2454   2.233   4.039   1.476 -0.5481  0.1999 -0.0459
  161MPD2    C4 2455   2.171   3.994   1.592  1.1473  0.1819  0.7472
  161MPD2    C5 2456   2.169   3.863   1.618  0.2948  0.3004 -0.3687
  161MPD2     H 2457   2.341   3.990   1.294 -0.2605 -2.8448 -1.3334
  161MPD2    H1 2458   2.137   4.063   1.668 -0.9700  0.2012 -0.2014
  161MPD2    H2 2459   2.203   3.672   1.545  1.1429 -0.1016  0.1452
  161MPD2    H3 2460   2.115   3.826   1.704  1.1836  3.1100  1.4079
  161MPD2     N 2461   2.236   4.179   1.451  0.7200  0.0452 -0.5080
  161MPD2    H5 2462   2.188   4.239   1.517 -0.6259 -1.4386 -0.1421
  161MPD2    N1 2463   2.351   3.731   1.323  1.0613 -0.5050 -0.7521
  161MPD2    H7 2464   2.416   3.765   1.253  1.6856 -1.6037 -0.7151
  162TMC2    C1 2465   0.316   1.284   0.733  0.0207 -0.1566 -0.8694
  162TMC2    C2 2466   0.277   1.360   0.627  0.1458  0.5320  0.0061
  162TMC2    C3 2467   0.160   1.430   0.640  0.2397 -0.6649 -0.2361
  162TMC2    C4 2468   0.235   1.265   0.840  0.3825  0.4120  0.5298
  162TMC2    C5 2469   0.130   1.353   0.860 -0.2312  0.0945 -0.4757
  162TMC2    C6 2470   0.083   1.426   0.753 -0.7404 -1.1780  0.1732
  162TMC2     C 2471   0.450   1.230   0.723  0.0334 -0.2435 -0.6290
  162TMC2     O 2472   0.518   1.292   0.644  0.1095 -0.1053  0.2168
  162TMC2     H 2473   0.328   1.375   0.532 -0.3326  0.2901 -0.2851
  162TMC2    H1 2474   0.252   1.201   0.926  0.2417  2.1817  1.8712
  162TMC2    H2 2475   4.719   1.490   0.764  1.1720  1.4248 -0.0693
  162TMC2    C7 2476   0.040   1.346   0.974 -0.0866 -0.9157  0.3240
  162TMC2    C8 2477   0.143   1.565   0.583 -0.0204 -0.1571  0.2358
  162TMC2    O1 2478   4.643   1.373   0.951  0.0107 -0.0165 -0.1119
  162TMC2    O2 2479   0.109   1.664   0.654 -0.2509 -0.3423 -0.9261
  162TMC2    O5 2480   0.205   1.569   0.465  0.3038  0.2253 -0.0900
  162TMC2    H5 2481   0.216   1.479   0.426 -0.3495  0.2236 -0.2592
  163MPD2     C 2482   0.896   1.070   0.905 -0.7073  1.1254  0.2509
  163MPD2    C1 2483   0.869   1.111   0.784 -0.1831  0.3500 -0.7702
  163MPD2    C2 2484   0.731   1.135   0.755  0.2274  0.1399 -0.2132
  163MPD2    C3 2485   0.631   1.121   0.848  0.6431 -0.1528 -0.3527
  163MPD2    C4 2486   0.669   1.082   0.976  0.6013  0.1160  0.5985
  163MPD2    C5 2487   0.804   1.050   0.999 -0.1589 -0.3393 -0.5322
  163MPD2     H 2488   0.691   1.159   0.657  0.2146  0.9803  0.0030
  163MPD2    H1 2489   0.594   1.069   1.053 -2.0499  1.0104 -1.8131
  163MPD2    H2 2490   0.999   1.054   0.936 -0.5483  2.2968  0.3567
  163MPD2    H3 2491   0.843   1.027   1.097 -1.0682 -0.9322 -0.3160
  163MPD2     N 2492   0.494   1.145   0.822  0.8061  0.1015  0.2369
  163MPD2    H5 2493   0.431   1.106   0.891 -1.5205  2.1357 -0.7290
  163MPD2    N1 2494   0.965   1.109   0.678 -0.2879 -0.0430 -0.7959
  163MPD2    H7 2495   1.059   1.086   0.709  0.8668  0.5918 -3.7950
  164TCq2    C1 2496   1.864   1.349  10.879 -0.0020 -0.4395 -0.6718
  164TCq2    O2 2497   1.762   1.284  10.868 -0.3319  0.6511  0.4541
  164TCq2    C2 2498   1.855   1.477  10.946 -0.4257  0.4524  0.1455
  164TCq2    C3 2499   1.972   1.541  10.983  0.4748  0.0719 -0.0845
  164TCq2    C4 2500   1.959   1.666  11.026  0.5931  0.1420  0.3474
  164TCq2    C5 2501   1.839   1.728  11.049  0.5209 -0.0404 -0.2149
  164TCq2    C6 2502   1.729   1.654  11.021 -0.4804  0.4283  0.5006
  164TCq2    C7 2503   1.732   1.539  10.956 -0.0239 -0.5577 -0.0213
  164TCq2    C8 2504   1.602   1.727  11.021 -0.0956  0.2013  0.0963
  164TCq2    O4 2505   1.513   1.697  10.940 -0.9344  0.9391  0.3202
  164TCq2    C9 2506   2.082   1.734  11.057  0.2202 -0.4392 -0.0155
  164TCq2    O5 2507   2.057   1.854  11.099  0.0941 -0.2306 -0.4609
  164TCq2    O6 2508   2.193   1.697  11.009 -0.5221 -0.4450 -0.5868
  164TCq2    H2 2509   2.067   1.489  10.983  0.3658 -0.1330 -0.9656
  164TCq2    H3 2510   1.826   1.828  11.090 -0.6908  0.1216 -0.9772
  164TCq2    H4 2511   1.639   1.490  10.930 -0.4746  1.0784 -1.4211
  165MPD2     C 2512   1.317   3.189   2.005  0.1584  0.4189  0.9854
  165MPD2    C1 2513   1.386   3.143   1.892 -0.4420 -0.4220  0.7290
  165MPD2    C2 2514   1.498   3.219   1.842  0.1788 -0.0660  0.0764
  165MPD2    C3 2515   1.533   3.335   1.907  0.0095 -0.6639  0.2349
  165MPD2    C4 2516   1.463   3.376   2.020  0.3071 -0.2298  0.2815
  165MPD2    C5 2517   1.363   3.297   2.076  0.8950 -0.4070  0.4561
  165MPD2     H 2518   1.546   3.186   1.751  0.3308  0.4303 -0.0202
  165MPD2    H1 2519   1.478   3.468   2.075  1.0534  0.3930 -0.9523
  165MPD2    H2 2520   1.222   3.144   2.028 -0.6657  0.1252 -2.9391
  165MPD2    H3 2521   1.307   3.331   2.163  1.1337 -2.3594  1.3502
  165MPD2     N 2522   1.644   3.415   1.877  0.0287 -0.1967  0.5255
  165MPD2    H5 2523   1.667   3.488   1.943  0.1287 -1.5975  2.0175
  165MPD2    N1 2524   1.320   3.034   1.828  0.5650  0.0495 -0.2920
  165MPD2    H7 2525   1.245   2.982   1.872  0.7732 -0.1950 -0.2206
  166TCq2    C1 2526   1.738   3.393   1.782 -0.1675  0.4646  0.7105
  166TCq2    O2 2527   1.747   3.304   1.700  0.0643  0.0530 -0.8733
  166TCq2    C2 2528   1.855   3.482   1.801 -0.1114 -0.2763 -0.0305
  166TCq2    C3 2529   1.843   3.593   1.882 -0.0873  0.5062 -0.0077
  166TCq2    C4 2530   1.957   3.672   1.891 -0.2331  0.3225  0.0795
  166TCq2    C5 2531   2.077   3.627   1.846  0.3240  0.0314 -0.8104
  166TCq2    C6 2532   2.083   3.511   1.773  0.3913  0.9910  0.4792
  166TCq2    C7 2533   1.973   3.443   1.740 -0.1240  0.2596  0.3981
  166TCq2    C8 2534   2.205   3.440   1.751  0.2254 -0.2031 -0.5353
  166TCq2    O4 2535   2.305   3.514   1.759 -0.0468 -0.2337 -0.1075
  166TCq2    C9 2536   1.942   3.793   1.969  0.1941 -0.5108 -0.4717
  166TCq2    O5 2537   2.043   3.865   1.973  0.0415  0.3782 -0.1410
  166TCq2    O6 2538   1.845   3.788   2.052  0.4105  0.0632  0.0075
  166TCq2    H2 2539   1.747   3.629   1.918 -0.4341  0.5680 -0.9956
  166TCq2    H3 2540   2.168   3.681   1.868 -0.8592  0.7788  2.2193
  166TCq2    H4 2541   1.980   3.359   1.673  0.7165 -0.8264  1.8399
  167TMC2    C1 2542   0.968   1.112  12.975  0.2067 -0.4566 -0.2670
  167TMC2    C2 2543   0.907   1.125  13.094 -0.8511  1.0164 -0.4352
  167TMC2    C3 2544   0.920   1.016  13.182  0.3767  0.2589 -0.0528
  167TMC2    C4 2545   1.019   1.001  12.919 -0.5630 -0.4022 -0.2004
  167TMC2    C5 2546   1.020   0.891  12.999  0.0277  0.1520 -0.0292
  167TMC2    C6 2547   0.976   0.899  13.134  0.3342  0.2308  0.3800
  167TMC2     C 2548   0.982   1.229  12.894 -0.0840  0.8646  0.3710
  167TMC2     O 2549   0.988   1.337  12.950  0.2826 -0.0127  0.2318
  167TMC2     H 2550   0.861   1.217  13.129 -1.2959  1.4266 -2.1228
  167TMC2    H1 2551   1.086   0.994  12.834  1.0574  0.8120  0.9721
  167TMC2    H2 2552   0.983   0.812  13.199 -2.6371 -0.1672  0.1639
  167TMC2    C7 2553   1.068   0.757  12.949  0.0623 -1.0567  0.0663
  167TMC2    C8 2554   0.915   1.024  13.328 -0.5622 -0.1478 -0.2116
  167TMC2    O1 2555   1.076   0.671  13.035  0.4965 -0.8218  0.7974
  167TMC2    O2 2556   0.900   0.920  13.390  0.1402  0.0413 -0.0517
  167TMC2    O5 2557   0.962   1.131  13.381  0.3371  0.3722  0.4387
  167TMC2    H5 2558   0.981   1.197  13.310 -1.0473 -2.1012 -2.1882
  168MPD2     C 2559   1.034   1.421  12.678  0.1130 -0.1628  0.4952
  168MPD2    C1 2560   1.004   1.290  12.651  0.1278  0.0109  0.6709
  168MPD2    C2 2561   1.004   1.245  12.521 -0.3384 -0.3088 -0.2983
  168MPD2    C3 2562   1.017   1.334  12.417  0.8653 -0.3047 -0.1728
  168MPD2    C4 2563   1.031   1.464  12.445 -0.2092  0.1334  0.0129
  168MPD2    C5 2564   1.044   1.509  12.575  0.6811 -0.3520  0.6849
  168MPD2     H 2565   0.976   1.142  12.503  0.8786 -0.7193  0.1999
  168MPD2    H1 2566   1.047   1.540  12.370 -0.8755 -0.4052 -0.6747
  168MPD2    H2 2567   1.061   1.456  12.777  2.4398 -2.7519  0.7951
  168MPD2    H3 2568   1.079   1.611  12.591  3.3404 -1.1773  0.1532
  168MPD2     N 2569   0.987   1.296  12.281  0.2970  0.0336  0.1344
  168MPD2    H5 2570   0.979   1.372  12.214  1.9538  0.2292  0.1624
  168MPD2    N1 2571   0.982   1.197  12.759  0.8400  0.1030 -0.2526
  168MPD2    H7 2572   0.966   1.100  12.736 -1.4085  1.1016 -2.9419
  169MPD1     C 2573   2.823   0.113   9.049 -0.0909  0.0311  0.5356
  169MPD1    C1 2574   2.898   0.005   9.096  0.1325  0.0107 -0.4116
  169MPD1    C2 2575   3.035   0.010   9.091  0.2313 -0.0607 -0.0011
  169MPD1    C3 2576   3.101   0.125   9.050 -0.2573 -0.4640  0.9441
  169MPD1    C4 2577   3.033   0.235   9.009  0.1368 -0.3624  0.1766
  169MPD1    C5 2578   2.893   0.223   9.008 -0.3131  0.4592 -0.2772
  169MPD1     H 2579   3.096   4.645   9.112  1.7995  1.3405  1.3111
  169MPD1    H1 2580   3.075   0.327   8.969  0.0022 -0.7785 -0.9287
  169MPD1    H2 2581   2.715   0.114   9.041 -0.0925  3.0916  0.9066
  169MPD1    H3 2582   2.832   0.306   8.977  2.8610  3.0677  0.4363
  169MPD1     N 2583   3.243   0.125   9.054  0.0823  0.1977  0.1586
  169MPD1    H5 2584   3.291   0.042   9.087  0.9033  0.3087 -0.7604
  169MPD1    N1 2585   2.837   4.603   9.128  0.0583 -0.9855  0.0091
  169MPD1    H6 2586   2.747   4.605   9.175  0.3013 -3.7553  0.5989
  169MPD1    H7 2587   2.898   4.550   9.190  0.8906 -1.8991 -1.5686
  170MPD1     C 2588   1.545   3.325  13.038  0.0513  0.9768  0.6108
  170MPD1    C1 2589   1.512   3.460  13.035  0.0965 -0.2266 -0.0636
  170MPD1    C2 2590   1.584   3.544  13.116 -0.7084  0.0822 -0.0631
  170MPD1    C3 2591   1.671   3.499  13.208  0.0809  0.3515 -0.2707
  170MPD1    C4 2592   1.695   3.366  13.221 -0.4739  0.3614  0.6335
  170MPD1    C5 2593   1.628   3.276  13.139 -0.2698  0.3833  0.3512
  170MPD1     H 2594   1.575   3.652  13.107  1.4255  0.3288  0.8343
  170MPD1    H1 2595   1.766   3.327  13.292  0.5889  1.2425  0.0464
  170MPD1    H2 2596   1.498   3.261  12.965  1.3961 -0.1794  0.7752
  170MPD1    H3 2597   1.642   3.169  13.143 -0.5759  0.3382  0.2534
  170MPD1     N 2598   1.735   3.594  13.287 -0.2473  0.2846  0.5931
  170MPD1    H5 2599   1.742   3.688  13.249 -1.1518 -0.0431 -0.3753
  170MPD1    N1 2600   1.431   3.509  12.936 -0.0878 -0.9957  0.2843
  170MPD1    H6 2601   1.358   3.446  12.903  0.5378 -1.5190 -0.0920
  170MPD1    H7 2602   1.379   3.592  12.962  0.6336 -0.8320  1.2143
  171MPD1     C 2603   0.059   0.204  15.293  0.8453  0.4209 -0.0422
  171MPD1    C1 2604   0.020   0.082  15.255 -0.1452  0.1448 -0.2840
  171MPD1    C2 2605   0.038   4.705  15.348  0.2976  0.3692 -0.6502
  171MPD1    C3 2606   0.084   0.005  15.476 -0.6240 -0.9680  0.2551
  171MPD1    C4 2607   0.118   0.134  15.514 -0.0916 -1.3778 -0.1356
  171MPD1    C5 2608   0.115   0.227  15.415 -0.2354 -0.3933  0.0881
  171MPD1     H 2609   0.017   4.601  15.325  1.3665 -0.2384  1.0887
  171MPD1    H1 2610   0.160   0.154  15.612 -1.2617  1.0256 -0.1133
  171MPD1    H2 2611   0.056   0.289  15.226 -0.8954  0.9654  0.7135
  171MPD1    H3 2612   0.156   0.326  15.430  1.3449 -0.8396 -1.3331
  171MPD1     N 2613   0.126   4.636  15.572  0.3851 -0.0254 -0.3344
  171MPD1    H5 2614   0.204   4.664  15.630 -1.0833  2.2012  0.5755
  171MPD1    N1 2615   4.702   0.053  15.125 -0.2025  0.1177  0.2383
  171MPD1    H6 2616   4.660   0.139  15.090  0.4699 -1.0563 -3.4719
  171MPD1    H7 2617   4.629   4.705  15.123  1.9167 -2.0669  0.3743
  172MPD1     C 2618   0.226   3.406   0.693  0.8767 -0.6410  0.3279
  172MPD1    C1 2619   0.115   3.379   0.617  0.1233 -0.0059  0.0345
  172MPD1    C2 2620   0.031   3.484   0.577 -0.3018 -0.0356 -0.2582
  172MPD1    C3 2621   0.066   3.610   0.603 -0.4445  0.5208 -0.1296
  172MPD1    C4 2622   0.172   3.638   0.685 -0.0676  0.5239  0.5492
  172MPD1    C5 2623   0.255   3.532   0.729  0.1009 -0.2901 -0.0832
  172MPD1     H 2624   4.661   3.454   0.529 -1.7616  0.9532  1.9326
  172MPD1    H1 2625   0.194   3.740   0.713 -2.4012  1.5962 -1.4515
  172MPD1    H2 2626   0.289   3.330   0.738  0.1172 -2.1764 -1.1545
  172MPD1    H3 2627   0.343   3.560   0.786  0.0943 -0.9006  0.2204
  172MPD1     N 2628   4.712   3.718   0.562  0.2847 -0.2960 -0.2353
  172MPD1    H5 2629   0.034   3.808   0.571 -0.5802 -0.1117  2.1070
  172MPD1    N1 2630   0.076   3.246   0.590 -0.3798  0.8051 -0.7713
  172MPD1    H6 2631   0.013   3.230   0.511 -0.2177 -1.4271 -0.4678
  172MPD1    H7 2632   0.155   3.184   0.571  0.8275  1.9694  0.4439
  173MPD1     C 2633   1.381   4.620  14.253  0.7988 -0.3035  0.4145
  173MPD1    C1 2634   1.246   4.600  14.241  0.0183  0.8928 -0.0564
  173MPD1    C2 2635   1.202   4.475  14.245 -0.5571  0.6996 -0.0841
  173MPD1    C3 2636   1.293   4.373  14.252 -0.2099 -0.4126 -0.3707
  173MPD1    C4 2637   1.425   4.391  14.270 -0.2873  0.1421 -0.5880
  173MPD1    C5 2638   1.469   4.519  14.273  0.0315  0.5767  0.6628
  173MPD1     H 2639   1.097   4.463  14.218 -0.4105 -0.5644 -0.0584
  173MPD1    H1 2640   1.502   4.319  14.293 -0.6842 -0.1185 -0.0599
  173MPD1    H2 2641   1.419   4.721  14.256 -1.4617  0.4970  1.3904
  173MPD1    H3 2642   1.573   4.541  14.292  0.1818 -1.1381  1.9027
  173MPD1     N 2643   1.242   4.245  14.245 -0.0018 -0.5793 -0.0227
  173MPD1    H5 2644   1.141   4.245  14.234  0.1592 -2.3122 -1.5499
  173MPD1    N1 2645   1.173   4.700  14.169 -0.6879 -0.5956  0.3762
  173MPD1    H6 2646   1.220   0.068  14.163  0.3049 -1.0060  1.9949
  173MPD1    H7 2647   1.072   4.694  14.184 -1.0968  3.3388 -0.7633
  174MPD1     C 2648   1.634   3.333  14.173 -0.0732 -0.0621  0.0200
  174MPD1    C1 2649   1.585   3.352  14.296  0.4095 -0.3712 -0.6243
  174MPD1    C2 2650   1.487   3.446  14.308 -0.1452 -0.0470  0.4846
  174MPD1    C3 2651   1.447   3.528  14.210  0.3147 -0.5312 -0.4390
  174MPD1    C4 2652   1.505   3.508  14.090  0.2117  0.5192 -0.2249
  174MPD1    C5 2653   1.594   3.409  14.070 -0.3142  0.4785 -0.2953
  174MPD1     H 2654   1.449   3.463  14.408  0.1207 -3.1312  1.0993
  174MPD1    H1 2655   1.478   3.576  14.010  1.2172  0.9674 -0.1836
  174MPD1    H2 2656   1.717   3.264  14.164  0.1618  0.6612 -3.4361
  174MPD1    H3 2657   1.624   3.384  13.969 -2.9185  2.1410 -1.4725
  174MPD1     N 2658   1.350   3.630  14.221 -0.4013  0.3472 -0.8986
  174MPD1    H5 2659   1.333   3.681  14.135  0.1510  0.3175 -1.0285
  174MPD1    N1 2660   1.623   3.267  14.396  0.2481  0.7552  0.6486
  174MPD1    H6 2661   1.704   3.210  14.373  0.5049  0.4724  2.2131
  174MPD1    H7 2662   1.642   3.325  14.477 -1.7419 -1.6576  2.8590
  175MPD1     C 2663   0.311   3.511  15.916  0.2512 -0.0518 -0.8370
  175MPD1    C1 2664   0.261   3.620  15.853  0.4028 -0.2195 -0.2248
  175MPD1    C2 2665   0.141   3.671  15.898 -0.8543 -0.3531  0.1762
  175MPD1    C3 2666   0.080   3.618  16.009  1.0266  0.1567 -0.3197
  175MPD1    C4 2667   0.136   3.517  16.082 -0.4707  0.0492 -0.0215
  175MPD1    C5 2668   0.248   3.457  16.028  0.6336  0.1033 -0.0863
  175MPD1     H 2669   0.100   3.753  15.842  0.2501  0.2804  0.2972
  175MPD1    H1 2670   0.091   3.474  16.171  0.9899 -0.0484  0.6603
  175MPD1    H2 2671   0.406   3.465  15.892  0.9648  0.5608  0.8172
  175MPD1    H3 2672   0.294   3.373  16.077 -2.4565 -1.3202  0.3863
  175MPD1     N 2673   4.675   3.667  16.048 -0.1908  0.2549  0.6216
  175MPD1    H5 2674   4.660   3.661  16.148  1.7850  1.5680  1.0123
  175MPD1    N1 2675   0.332   3.664  15.734 -0.4786 -0.0008 -0.5366
  175MPD1    H6 2676   0.418   3.615  15.707 -1.2859 -0.1520 -2.7908
  175MPD1    H7 2677   0.316   3.756  15.694 -2.4245  0.0518  0.3598
  176MPD1     C 2678   1.076   1.376  17.185 -0.0539  0.2169 -0.0745
  176MPD1    C1 2679   0.994   1.446  17.264  0.1122  0.0129  0.2849
  176MPD1    C2 2680   0.897   1.530  17.205  0.1577 -0.1766  0.0077
  176MPD1    C3 2681   0.891   1.557  17.069  0.6563 -0.1354  0.7271
  176MPD1    C4 2682   0.980   1.484  16.989  0.1112 -0.9585  0.2781
  176MPD1    C5 2683   1.062   1.394  17.051 -0.2907 -0.0207 -0.0330
  176MPD1     H 2684   0.830   1.583  17.272 -1.5156 -2.6957  0.3216
  176MPD1    H1 2685   0.972   1.484  16.881  0.6965  0.7086  0.2423
  176MPD1    H2 2686   1.145   1.300  17.219 -0.7256 -0.1088  0.5640
  176MPD1    H3 2687   1.147   1.352  16.998  1.3975  1.9933  1.0938
  176MPD1     N 2688   0.796   1.653  17.025  0.4967 -0.1251 -0.4591
  176MPD1    H5 2689   0.737   1.688  17.100 -1.5343 -2.0590 -1.1629
  176MPD1    N1 2690   0.984   1.417  17.402  0.5406 -0.4161 -0.2914
  176MPD1    H6 2691   0.934   1.480  17.463  1.7217 -1.6222  1.9451
  176MPD1    H7 2692   1.070   1.385  17.446  1.3085  1.3320 -0.5211
  177MPD1     C 2693   0.010   1.066   9.839 -0.5122  0.1447  0.2180
  177MPD1    C1 2694   0.053   1.194   9.849  0.6394 -0.6668  0.4320
  177MPD1    C2 2695   4.681   1.292   9.819  0.1236 -0.9396  0.2667
  177MPD1    C3 2696   4.558   1.256   9.770  0.2572  0.1608  0.1217
  177MPD1    C4 2697   4.517   1.128   9.750  0.4550  0.2770 -0.2994
  177MPD1    C5 2698   4.604   1.037   9.793  0.5366 -0.0970 -0.9713
  177MPD1     H 2699   4.696   1.396   9.845  1.2065 -1.8246  3.1370
  177MPD1    H1 2700   4.416   1.096   9.725  0.5023  1.2465 -1.7003
  177MPD1    H2 2701   0.074   0.987   9.876  0.2443  0.8410  0.4002
  177MPD1    H3 2702   4.580   0.932   9.780  0.7509 -0.4097  1.2176
  177MPD1     N 2703   4.464   1.356   9.748 -0.1383  0.0347 -0.5072
  177MPD1    H5 2704   4.491   1.450   9.776 -3.7485  0.9629 -0.1478
  177MPD1    N1 2705   0.173   1.223   9.915 -0.3199  0.5415  0.5376
  177MPD1    H6 2706   0.213   1.297   9.858 -0.1547 -0.3200 -0.4624
  177MPD1    H7 2707   0.245   1.153   9.903  1.2153  1.8137  2.2300
  178MPD1     C 2708   0.649   3.144  17.080  0.2367 -0.5821  0.2864
  178MPD1    C1 2709   0.735   3.108  17.187  0.7900 -0.5414 -0.2300
  178MPD1    C2 2710   0.848   3.033  17.155  0.0102  0.0088 -0.0209
  178MPD1    C3 2711   0.874   2.970  17.033 -0.3616 -0.2712  0.7002
  178MPD1    C4 2712   0.798   3.022  16.932 -0.2836  0.4962  0.1241
  178MPD1    C5 2713   0.690   3.103  16.955  0.0826  0.0162  0.5332
  178MPD1     H 2714   0.922   3.017  17.233  0.4227  1.4427 -0.1248
  178MPD1    H1 2715   0.832   2.985  16.836  2.1801  1.2709  0.6859
  178MPD1    H2 2716   0.572   3.219  17.096  0.4165  0.0928 -1.9350
  178MPD1    H3 2717   0.637   3.144  16.870 -0.7851 -1.1852  0.5002
  178MPD1     N 2718   0.981   2.881  17.002  0.5031 -0.3932  0.4273
  178MPD1    H5 2719   0.990   2.857  16.904 -0.1600 -0.9907  0.5151
  178MPD1    N1 2720   0.717   3.166  17.311  0.3315  0.3185  0.0929
  178MPD1    H6 2721   0.619   3.191  17.321 -0.0010 -0.2270 -1.8394
  178MPD1    H7 2722   0.747   3.097  17.380  0.1881 -1.9358 -2.0922
  179MPD1     C 2723   1.618   0.916  15.310 -0.0558 -0.5378 -0.4948
  179MPD1    C1 2724   1.490   0.966  15.299 -0.4207  0.7934  0.0058
  179MPD1    C2 2725   1.401   0.936  15.401 -0.2079  0.4129  0.5923
  179MPD1    C3 2726   1.438   0.865  15.520  0.0528  0.8670 -0.1879
  179MPD1    C4 2727   1.570   0.834  15.530 -0.0545 -0.4482 -0.5532
  179MPD1    C5 2728   1.660   0.860  15.429  0.0767  0.8145 -0.7727
  179MPD1     H 2729   1.295   0.953  15.384 -0.7826 -1.6096  2.1319
  179MPD1    H1 2730   1.610   0.775  15.611  0.3571  2.1183  1.0842
  179MPD1    H2 2731   1.677   0.920  15.219  0.1508 -0.0710 -0.3373
  179MPD1    H3 2732   1.765   0.836  15.445 -0.6843 -2.1561 -0.3761
  179MPD1     N 2733   1.353   0.827  15.623  0.3816 -0.8282 -0.1862
  179MPD1    H5 2734   1.394   0.783  15.705  0.0394 -0.5325  0.1504
  179MPD1    N1 2735   1.442   1.030  15.183 -0.0676  0.2810 -0.5891
  179MPD1    H6 2736   1.495   1.110  15.148 -1.0020  0.0790 -2.4471
  179MPD1    H7 2737   1.352   1.073  15.202 -0.2958  0.0419 -1.1224
  180MPD1     C 2738   0.479   2.447  15.174  0.1632  0.2250  0.3526
  180MPD1    C1 2739   0.618   2.451  15.167 -0.5040 -0.3404  0.6420
  180MPD1    C2 2740   0.672   2.416  15.044 -0.0372 -0.5402 -0.1180
  180MPD1    C3 2741   0.596   2.400  14.927 -0.0144 -0.6099 -0.2907
  180MPD1    C4 2742   0.458   2.406  14.935 -0.9961  0.6079  0.0195
  180MPD1    C5 2743   0.403   2.427  15.059  0.6076  0.1920 -0.2708
  180MPD1     H 2744   0.779   2.404  15.029  0.3501  1.8298  0.7621
  180MPD1    H1 2745   0.399   2.384  14.847  0.2768 -1.6997 -0.2475
  180MPD1    H2 2746   0.431   2.455  15.271 -0.8892 -0.3836 -0.1128
  180MPD1    H3 2747   0.298   2.404  15.072  1.4708 -3.5938  0.0944
  180MPD1     N 2748   0.672   2.392  14.806 -0.6191  0.6497  0.1092
  180MPD1    H5 2749   0.774   2.394  14.814 -0.5925 -1.9824  0.5419
  180MPD1    N1 2750   0.692   2.451  15.289 -0.3252 -0.2217 -0.0260
  180MPD1    H6 2751   0.649   2.514  15.356  1.6173 -0.5688  1.5407
  180MPD1    H7 2752   0.787   2.487  15.279 -0.0504 -0.0841  2.9367
  181MPD1     C 2753   2.687   4.127   9.396  0.1596  0.7659  0.4708
  181MPD1    C1 2754   2.709   4.228   9.308  0.3899  0.1513  0.6717
  181MPD1    C2 2755   2.836   4.283   9.314  0.2964  0.5527 -0.1074
  181MPD1    C3 2756   2.933   4.230   9.399  0.3652  0.9430 -0.7329
  181MPD1    C4 2757   2.900   4.124   9.484  0.2107 -0.0469  0.8804
  181MPD1    C5 2758   2.777   4.074   9.475 -0.2782  0.4479  0.1246
  181MPD1     H 2759   2.849   4.379   9.265  1.4365  0.0156 -0.8692
  181MPD1    H1 2760   2.970   4.077   9.552  1.7820  1.4274  0.2926
  181MPD1    H2 2761   2.588   4.085   9.408 -0.0471  1.0513 -0.2150
  181MPD1    H3 2762   2.743   3.996   9.542  0.8012 -1.8969 -2.0433
  181MPD1     N 2763   3.059   4.289   9.438 -0.6489 -0.6186  0.1062
  181MPD1    H5 2764   3.118   4.245   9.508 -1.9377  1.4950  2.5131
  181MPD1    N1 2765   2.601   4.291   9.235 -0.3336  0.7045 -0.2433
  181MPD1    H6 2766   2.635   4.341   9.153  1.1454 -1.7646 -1.1322
  181MPD1    H7 2767   2.533   4.222   9.204  1.0424 -0.1644 -1.3097
  182MPD1     C 2768   4.553   2.570   1.472 -0.1739  1.5261 -1.0122
  182MPD1    C1 2769   4.478   2.553   1.585 -0.4384  0.3852  0.2978
  182MPD1    C2 2770   4.347   2.594   1.576 -0.7229 -0.6630  0.3439
  182MPD1    C3 2771   4.294   2.657   1.462  0.7269 -0.6209  0.2213
  182MPD1    C4 2772   4.373   2.671   1.351 -0.1185  0.7035  0.5819
  182MPD1    C5 2773   4.497   2.618   1.356 -0.6296 -0.0398 -0.1850
  182MPD1     H 2774   4.285   2.586   1.665  1.0175  0.1634  1.6409
  182MPD1    H1 2775   4.341   2.701   1.252 -0.4336 -0.3560  0.3635
  182MPD1    H2 2776   4.652   2.528   1.466 -1.4948 -1.4751 -1.5771
  182MPD1    H3 2777   4.557   2.617   1.266  1.8211  0.6158  1.4495
  182MPD1     N 2778   4.164   2.696   1.442 -0.3464 -0.3413  0.1208
  182MPD1    H5 2779   4.136   2.733   1.351  0.3356 -1.4552 -0.5378
  182MPD1    N1 2780   4.531   2.512   1.714  0.2013  0.1696  0.5654
  182MPD1    H6 2781   4.617   2.459   1.702  0.4149  0.9394 -1.4024
  182MPD1    H7 2782   4.464   2.455   1.765 -2.9308  1.9957 -1.4852
  183MPD1     C 2783   0.375   4.226  10.920  0.1395 -0.3048  0.0652
  183MPD1    C1 2784   0.303   4.109  10.944 -0.1239 -0.4454 -0.3282
  183MPD1    C2 2785   0.313   4.009  10.852  0.0134 -0.1682  0.0063
  183MPD1    C3 2786   0.365   4.024  10.729 -0.8452  0.0374  0.1773
  183MPD1    C4 2787   0.410   4.149  10.700  0.3184 -0.2834  0.3456
  183MPD1    C5 2788   0.432   4.242  10.796  0.2520  0.3133  0.4169
  183MPD1     H 2789   0.279   3.909  10.876  0.0573  0.1370  1.3443
  183MPD1    H1 2790   0.443   4.168  10.599 -1.8810  1.7061  0.0253
  183MPD1    H2 2791   0.385   4.301  10.998  0.0809  0.6070 -0.7921
  183MPD1    H3 2792   0.491   4.332  10.784  0.7723 -0.0638  0.2008
  183MPD1     N 2793   0.367   3.912  10.647  0.0825  0.4740 -0.5309
  183MPD1    H5 2794   0.304   3.833  10.662 -0.6021  0.7210 -2.1943
  183MPD1    N1 2795   0.240   4.092  11.072  0.4081  0.0924 -0.3246
  183MPD1    H6 2796   0.228   4.178  11.124  0.6695 -1.2219  1.9123
  183MPD1    H7 2797   0.151   4.043  11.073  0.3099  0.2142 -1.8363
  184MPD1     C 2798   3.523   1.420   9.893 -0.4262  0.2119 -0.1510
  184MPD1    C1 2799   3.621   1.472   9.975 -0.6898  0.0393 -0.0776
  184MPD1    C2 2800   3.695   1.585   9.936  0.6169 -0.5055 -0.2499
  184MPD1    C3 2801   3.651   1.653   9.824 -0.3334 -0.5920  0.0588
  184MPD1    C4 2802   3.545   1.611   9.748 -0.0576 -0.0672 -0.4122
  184MPD1    C5 2803   3.495   1.484   9.778 -0.6346  0.4112  0.2098
  184MPD1     H 2804   3.771   1.620  10.005 -1.1187  3.3902 -0.2967
  184MPD1    H1 2805   3.516   1.671   9.662  1.6120  1.1450 -0.1406
  184MPD1    H2 2806   3.470   1.328   9.918  1.6217  0.1077  3.7973
  184MPD1    H3 2807   3.413   1.445   9.719  0.6570 -0.9116 -0.6988
  184MPD1     N 2808   3.718   1.761   9.777  0.0807  0.6337  0.4796
  184MPD1    H5 2809   3.689   1.797   9.687 -1.2599  1.0787  1.0848
  184MPD1    N1 2810   3.654   1.400  10.091  0.1109 -0.3850  0.3159
  184MPD1    H6 2811   3.689   1.465  10.161 -0.0614 -1.1556  1.1176
  184MPD1    H7 2812   3.588   1.332  10.129  0.1505 -0.8638 -0.4450
  185MPD1     C 2813   3.671   1.934   8.991  0.2915  0.1400 -0.2402
  185MPD1    C1 2814   3.736   2.047   9.017 -0.0492  0.2607  0.1610
  185MPD1    C2 2815   3.782   2.070   9.146  0.9522  0.5553 -0.2480
  185MPD1    C3 2816   3.747   1.977   9.247 -0.1242 -0.2701  0.1094
  185MPD1    C4 2817   3.666   1.873   9.224  0.7840  0.2612  0.5623
  185MPD1    C5 2818   3.635   1.848   9.091  0.5045 -0.0482 -0.6563
  185MPD1     H 2819   3.823   2.166   9.176 -1.4932  1.4360  0.2982
  185MPD1    H1 2820   3.634   1.812   9.308  1.6392  0.2733  0.8965
  185MPD1    H2 2821   3.626   1.916   8.894  0.4838 -0.8359 -0.1471
  185MPD1    H3 2822   3.588   1.754   9.064 -1.0340  0.0979  1.5329
  185MPD1     N 2823   3.786   1.994   9.381 -0.8904  0.4731 -0.1009
  185MPD1    H5 2824   3.734   1.938   9.448 -1.0658 -2.4809 -2.7047
  185MPD1    N1 2825   3.723   2.155   8.932  0.3400  0.1570  0.2316
  185MPD1    H6 2826   3.720   2.126   8.834  0.2108  1.1197 -0.0505
  185MPD1    H7 2827   3.794   2.227   8.941  2.0924 -1.5693  0.3557
  186MPD1     C 2828   2.361   0.419  16.015  0.4081 -0.3198  0.4131
  186MPD1    C1 2829   2.236   0.415  16.066 -0.7280  0.6839 -0.2904
  186MPD1    C2 2830   2.182   0.524  16.142 -0.2179  0.2812 -0.0169
  186MPD1    C3 2831   2.260   0.641  16.143 -0.5960  0.7240  0.3279
  186MPD1    C4 2832   2.387   0.644  16.090  0.2765 -0.0694  0.4574
  186MPD1    C5 2833   2.435   0.532  16.026 -0.2351 -0.8350 -0.3207
  186MPD1     H 2834   2.088   0.529  16.195 -0.6898 -0.5410 -0.7878
  186MPD1    H1 2835   2.441   0.737  16.072  0.4646 -0.1354  0.6894
  186MPD1    H2 2836   2.416   0.337  15.970  0.0081 -1.2717  1.6493
  186MPD1    H3 2837   2.528   0.544  15.971  0.5858  1.1051  1.4873
  186MPD1     N 2838   2.209   0.748  16.220 -0.3107 -0.2458 -0.4254
  186MPD1    H5 2839   2.112   0.734  16.247 -0.5258  0.5235 -0.7785
  186MPD1    N1 2840   2.157   0.297  16.055 -0.3102 -0.3134  0.6643
  186MPD1    H6 2841   2.161   0.257  15.961  2.2015  0.9296  0.2349
  186MPD1    H7 2842   2.060   0.308  16.083 -0.4932 -0.0161 -0.0889
  187MPD1     C 2843   0.551   3.782   0.864 -0.5838  0.7200  0.2253
  187MPD1    C1 2844   0.616   3.664   0.841 -0.1543  0.4599  0.2324
  187MPD1    C2 2845   0.583   3.610   0.721 -1.6563  0.4136 -0.0147
  187MPD1    C3 2846   0.523   3.679   0.617  0.0787 -0.7514  0.8540
  187MPD1    C4 2847   0.477   3.806   0.640 -0.3603  0.0132 -0.3989
  187MPD1    C5 2848   0.482   3.852   0.765  0.1119  0.1557  0.6531
  187MPD1     H 2849   0.616   3.512   0.689 -1.6810 -0.6573  3.2892
  187MPD1    H1 2850   0.417   3.860   0.568  0.4670 -0.4431 -1.4295
  187MPD1    H2 2851   0.526   3.807   0.967 -0.2853 -0.0028  0.4682
  187MPD1    H3 2852   0.437   3.946   0.794  1.0280  1.1853 -1.2332
  187MPD1     N 2853   0.516   3.633   0.483  0.4690 -0.2494 -0.2534
  187MPD1    H5 2854   0.491   3.700   0.411  1.7610 -0.9114 -1.3253
  187MPD1    N1 2855   0.645   3.578   0.946 -0.1628  0.3449  0.1518
  187MPD1    H6 2856   0.697   3.634   1.013  0.3800 -1.5514  1.3254
  187MPD1    H7 2857   0.722   3.526   0.906 -0.6504  0.2074 -0.6215
  188MPD1     C 2858   0.221   2.621  10.911  0.3971  0.6008  0.2195
  188MPD1    C1 2859   0.175   2.671  10.789 -0.4557  0.4709 -0.0884
  188MPD1    C2 2860   0.217   2.607  10.676  0.1516 -0.1060 -0.2890
  188MPD1    C3 2861   0.310   2.510  10.678 -0.1500  0.1628  0.0914
  188MPD1    C4 2862   0.359   2.467  10.801  0.2962 -0.0334  0.4600
  188MPD1    C5 2863   0.301   2.509  10.915  1.1393  0.1357  0.4796
  188MPD1     H 2864   0.180   2.645  10.581 -3.7230 -1.6143  0.6345
  188MPD1    H1 2865   0.427   2.385  10.820  0.9842  0.3417 -0.3748
  188MPD1    H2 2866   0.184   2.658  11.006  0.6255 -0.1338  0.5882
  188MPD1    H3 2867   0.332   2.470  11.011 -0.5127  0.3499  1.0890
  188MPD1     N 2868   0.367   2.447  10.564  0.1312 -0.2695 -0.7625
  188MPD1    H5 2869   0.415   2.359  10.577 -0.1615 -0.1668  1.0122
  188MPD1    N1 2870   0.094   2.787  10.780 -0.4280 -0.2748 -0.1421
  188MPD1    H6 2871   0.073   2.807  10.877 -0.4877  0.8001 -0.3834
  188MPD1    H7 2872   0.013   2.788  10.719  0.8473  1.7744 -1.8022
  189MPD1     C 2873   2.185   2.728   0.415  0.5456 -0.1318 -0.2103
  189MPD1    C1 2874   2.056   2.682   0.418  0.1215 -0.2534 -0.7528
  189MPD1    C2 2875   1.957   2.779   0.405  0.0850 -0.8243  0.2934
  189MPD1    C3 2876   1.982   2.913   0.371  0.2246 -0.2553 -0.4454
  189MPD1    C4 2877   2.111   2.952   0.367 -0.3363 -0.2878  0.0318
  189MPD1    C5 2878   2.206   2.855   0.381  0.6619  0.0820 -0.6181
  189MPD1     H 2879   1.856   2.741   0.413  0.2932 -1.1002  1.5523
  189MPD1    H1 2880   2.136   3.056   0.350 -3.3346  0.4103 -0.1056
  189MPD1    H2 2881   2.266   2.658   0.427 -1.5444 -2.6292 -0.5763
  189MPD1    H3 2882   2.313   2.870   0.371  0.8714 -0.2252  1.2137
  189MPD1     N 2883   1.879   3.011   0.374 -0.4920 -0.6873  0.0903
  189MPD1    H5 2884   1.785   2.985   0.401 -1.1024 -0.4712 -1.8544
  189MPD1    N1 2885   2.032   2.547   0.452 -0.1729 -0.5669  0.2628
  189MPD1    H6 2886   1.937   2.521   0.425 -0.1724  1.0740 -1.3086
  189MPD1    H7 2887   2.096   2.482   0.406 -0.3665 -1.0575  0.6897
  190MPD1     C 2888   0.383   1.847  15.739 -0.4472 -0.1120  0.0207
  190MPD1    C1 2889   0.419   1.880  15.866  0.0589 -0.0686  0.1015
  190MPD1    C2 2890   0.559   1.905  15.876 -0.0486 -0.0846 -0.6615
  190MPD1    C3 2891   0.642   1.923  15.771 -0.2100  0.4532 -0.5392
  190MPD1    C4 2892   0.588   1.909  15.643 -0.2327  0.5701 -0.2530
  190MPD1    C5 2893   0.464   1.852  15.632 -0.0876  0.0809 -0.4949
  190MPD1     H 2894   0.607   1.912  15.973 -0.8218  0.5175 -0.3267
  190MPD1    H1 2895   0.641   1.913  15.548 -3.2140  0.2238 -1.9080
  190MPD1    H2 2896   0.280   1.823  15.716 -0.7566  1.1166  0.1057
  190MPD1    H3 2897   0.426   1.825  15.534  1.5091  0.7622 -1.3053
  190MPD1     N 2898   0.779   1.940  15.792  0.7491 -1.0074  0.5758
  190MPD1    H5 2899   0.799   1.950  15.891 -1.2105  3.0416  0.5623
  190MPD1    N1 2900   0.333   1.856  15.977  0.3187  0.2993 -0.0086
  190MPD1    H6 2901   0.355   1.912  16.059 -0.4849 -1.1851  1.2196
  190MPD1    H7 2902   0.233   1.856  15.954  0.2471  2.6240  0.2666
  191MPD1     C 2903   1.043   3.734  13.476  0.1298 -0.1517 -0.1689
  191MPD1    C1 2904   1.044   3.693  13.342  0.3349 -0.6344  0.0884
  191MPD1    C2 2905   0.941   3.749  13.267  0.0123  0.0493 -0.1626
  191MPD1    C3 2906   0.841   3.825  13.319 -1.1384  0.0491  0.4504
  191MPD1    C4 2907   0.837   3.851  13.455 -0.2808 -0.1104 -0.0987
  191MPD1    C5 2908   0.944   3.813  13.530 -0.7521 -0.2206 -0.0462
  191MPD1     H 2909   0.934   3.714  13.165 -0.5401  1.1393 -0.4944
  191MPD1    H1 2910   0.760   3.911  13.502  0.0019 -0.9309  1.4516
  191MPD1    H2 2911   1.119   3.711  13.551 -0.6575 -2.2386 -0.0299
  191MPD1    H3 2912   0.943   3.840  13.635  1.1913 -0.5111  0.0417
  191MPD1     N 2913   0.741   3.860  13.225 -0.5875 -0.2248  0.0230
  191MPD1    H5 2914   0.766   3.894  13.133  0.9759 -1.6685 -0.0998
  191MPD1    N1 2915   1.160   3.640  13.290 -0.4898 -0.0507  0.1025
  191MPD1    H6 2916   1.132   3.573  13.219 -1.7139  2.1585 -1.5080
  191MPD1    H7 2917   1.207   3.584  13.361  0.9768  1.4413  0.2931
  192MPD1     C 2918   4.381   4.062  13.022  0.2331  0.1721  0.2075
  192MPD1    C1 2919   4.438   4.028  13.144  0.4407  0.2080  0.0293
  192MPD1    C2 2920   4.581   4.015  13.148  0.3440 -0.2376  0.6513
  192MPD1    C3 2921   4.657   4.039  13.036 -0.0003  0.3533 -0.9706
  192MPD1    C4 2922   4.593   4.067  12.919 -0.6203 -0.4572 -0.1814
  192MPD1    C5 2923   4.458   4.093  12.917 -0.5251  0.4589 -0.0847
  192MPD1     H 2924   4.632   4.001  13.243  2.2383 -1.8382 -0.5995
  192MPD1    H1 2925   4.662   4.090  12.838 -0.1609 -1.5158 -0.0920
  192MPD1    H2 2926   4.273   4.074  13.017  0.0230 -1.4123  1.1773
  192MPD1    H3 2927   4.405   4.132  12.832 -0.2222  1.9977  0.4289
  192MPD1     N 2928   0.074   4.040  13.046 -0.2840  0.1840  0.0157
  192MPD1    H5 2929   0.126   4.066  12.963  0.0013 -0.6705 -0.0766
  192MPD1    N1 2930   4.375   4.007  13.262  0.2961 -0.9737 -0.5784
  192MPD1    H6 2931   4.294   3.947  13.254 -0.5499 -0.1415  1.6268
  192MPD1    H7 2932   4.427   3.972  13.343 -2.0607  0.6527  1.6349
  193MPD1     C 2933   0.078   4.081  15.956 -0.4688  0.0544  0.0629
  193MPD1    C1 2934   0.071   4.217  15.961  0.3427 -0.0032 -0.0975
  193MPD1    C2 2935   0.171   4.284  16.027  0.4984 -0.1875  0.3634
  193MPD1    C3 2936   0.283   4.219  16.075  0.1735 -0.3790 -0.0889
  193MPD1    C4 2937   0.296   4.084  16.059 -0.0042 -0.0898 -1.1130
  193MPD1    C5 2938   0.189   4.017  16.010  0.7936 -0.0837 -0.1248
  193MPD1     H 2939   0.159   4.390  16.049 -0.6184 -0.7556  2.5615
  193MPD1    H1 2940   0.387   4.037  16.092  0.6436  2.0211  0.1141
  193MPD1    H2 2941   4.718   4.021  15.919 -2.7291  3.1134  0.1306
  193MPD1    H3 2942   0.202   3.911  15.992 -1.3063 -0.3320 -0.1718
  193MPD1     N 2943   0.384   4.281  16.155 -0.0407 -0.0312  0.1883
  193MPD1    H5 2944   0.461   4.220  16.178  0.8922  1.2279  0.3749
  193MPD1    N1 2945   4.669   4.273  15.940  0.2584 -0.0092 -0.2144
  193MPD1    H6 2946   4.673   4.375  15.937  2.7602 -0.0652  0.5171
  193MPD1    H7 2947   4.602   4.235  15.874  0.9240  1.2877 -1.6331
  194MPD1     C 2948   2.898   0.817  17.293 -0.0506  0.1508  0.8812
  194MPD1    C1 2949   2.984   0.747  17.212  0.2619  0.5834 -0.0333
  194MPD1    C2 2950   2.949   0.625  17.160 -0.1818 -0.4636  0.1396
  194MPD1    C3 2951   2.818   0.575  17.174 -0.4455  0.0470 -0.2056
  194MPD1    C4 2952   2.734   0.648  17.254 -0.5422 -0.7766 -0.0135
  194MPD1    C5 2953   2.770   0.761  17.317 -0.8682 -0.0271  0.0326
  194MPD1     H 2954   3.026   0.575  17.101 -1.0696 -1.0362 -0.5346
  194MPD1    H1 2955   2.633   0.609  17.255 -0.7222 -0.3329 -1.7957
  194MPD1    H2 2956   2.931   0.902  17.352 -0.7908  1.0054  0.0619
  194MPD1    H3 2957   2.688   0.801  17.376 -1.5390 -0.2557 -0.7420
  194MPD1     N 2958   2.767   0.455  17.118  0.2254  0.2127 -0.2004
  194MPD1    H5 2959   2.678   0.415  17.143 -0.5137  1.1391 -1.3858
  194MPD1    N1 2960   3.122   0.781  17.213 -0.0378 -0.3312  0.0276
  194MPD1    H6 2961   3.178   0.751  17.133  0.7385 -0.7654  0.7385
  194MPD1    H7 2962   3.148   0.879  17.227  3.5845 -1.6707  2.5586
  195MPD1     C 2963   0.710   2.862   0.195  0.2578  0.1891  0.1065
  195MPD1    C1 2964   0.658   2.816   0.076 -0.2548  0.1475 -0.0693
  195MPD1    C2 2965   0.586   2.696   0.078 -0.0737 -0.7377  0.5314
  195MPD1    C3 2966   0.551   2.632   0.200  0.3552 -0.3160  0.1180
  195MPD1    C4 2967   0.604   2.678   0.315 -0.5343  0.6235 -0.2872
  195MPD1    C5 2968   0.685   2.792   0.309 -0.0960  0.2168  0.1049
  195MPD1     H 2969   0.538   2.664  17.679  0.9294  0.4043 -0.3914
  195MPD1    H1 2970   0.591   2.626   0.409  1.5503  1.7235  0.6076
  195MPD1    H2 2971   0.770   2.952   0.190  2.9797 -1.6396 -0.0727
  195MPD1    H3 2972   0.725   2.823   0.404 -1.3966  3.9804 -0.5571
  195MPD1     N 2973   0.458   2.519   0.207  0.1071  0.0100  0.1894
  195MPD1    H5 2974   0.429   2.495   0.301  1.2595 -1.1008  0.2620
  195MPD1    N1 2975   0.697   2.877  17.656 -0.9536 -0.1752 -0.3942
  195MPD1    H6 2976   0.718   2.975  17.676  1.2844 -1.0760  1.6430
  195MPD1    H7 2977   0.627   2.878  17.582 -0.0938  0.4354 -1.2014
  196MPD1     C 2978   4.270   2.036   0.585 -0.2663 -0.7772 -0.0719
  196MPD1    C1 2979   4.236   1.961   0.696  0.0262  0.2581  0.2784
  196MPD1    C2 2980   4.305   1.987   0.812  0.5412  0.0986 -0.6657
  196MPD1    C3 2981   4.394   2.087   0.821  0.0753 -0.1969 -0.0206
  196MPD1    C4 2982   4.415   2.170   0.714  0.6182  0.1876  0.2140
  196MPD1    C5 2983   4.360   2.137   0.592 -0.7233  0.0345 -0.2164
  196MPD1     H 2984   4.283   1.918   0.892  0.3751 -2.2255 -2.7130
  196MPD1    H1 2985   4.473   2.261   0.712  0.4589  0.2783 -0.3495
  196MPD1    H2 2986   4.228   2.011   0.489  0.4705 -0.2066 -0.5437
  196MPD1    H3 2987   4.372   2.201   0.506 -0.3733 -1.3138 -1.1662
  196MPD1     N 2988   4.464   2.117   0.941  0.4514  1.2618  0.2796
  196MPD1    H5 2989   4.535   2.189   0.940  0.9733  0.6815 -2.2495
  196MPD1    N1 2990   4.149   1.852   0.681 -0.0361  0.2809 -0.5916
  196MPD1    H6 2991   4.118   1.806   0.766 -1.4721  0.7757 -0.8530
  196MPD1    H7 2992   4.068   1.875   0.623  0.1155  1.1827 -0.4543
  197MPD1     C 2993   4.229   4.016  17.563  0.0963 -0.4354  0.3124
  197MPD1    C1 2994   4.232   4.155  17.579 -0.0231  0.2798  0.5019
  197MPD1    C2 2995   4.166   4.236  17.487  0.1292  0.9547 -0.3113
  197MPD1    C3 2996   4.103   4.177  17.377 -0.3857  0.4349  1.0123
  197MPD1    C4 2997   4.100   4.036  17.369  0.3482 -0.3381  0.3645
  197MPD1    C5 2998   4.154   3.966  17.469 -0.9306 -0.3690 -0.0476
  197MPD1     H 2999   4.171   4.344  17.491  1.0520  0.9175 -0.5816
  197MPD1    H1 3000   4.046   3.994  17.285  2.3207 -1.9619 -0.0822
  197MPD1    H2 3001   4.280   3.960  17.642  0.5558 -1.9691 -1.0749
  197MPD1    H3 3002   4.151   3.858  17.457  0.5234 -0.1812 -2.0076
  197MPD1     N 3003   4.032   4.244  17.273  0.7753  0.0773 -0.0097
  197MPD1    H5 3004   3.988   4.194  17.196 -2.6635 -0.5483  2.3663
  197MPD1    N1 3005   4.266   4.205   0.009  0.6282  0.3646 -0.6850
  197MPD1    H6 3006   4.289   4.304   0.011 -2.6789  1.1224 -0.0838
  197MPD1    H7 3007   4.345   4.151   0.042 -0.2859 -0.8596 -0.5206
  198MPD1     C 3008   0.254   3.211  15.759  0.3367  0.3015 -0.1168
  198MPD1    C1 3009   0.331   3.176  15.861  0.3824  0.3171  0.0819
  198MPD1    C2 3010   0.465   3.203  15.854 -0.0958 -0.4356  0.4193
  198MPD1    C3 3011   0.524   3.268  15.744 -0.5352 -0.7120 -0.5253
  198MPD1    C4 3012   0.439   3.312  15.647  0.2070  0.2211  0.0642
  198MPD1    C5 3013   0.304   3.280  15.654 -0.1562  1.1766  0.2981
  198MPD1     H 3014   0.531   3.185  15.938 -1.7925 -1.5846  1.5012
  198MPD1    H1 3015   0.468   3.370  15.560 -1.1118 -2.0221 -1.8774
  198MPD1    H2 3016   0.148   3.187  15.749  0.2602  0.7663 -0.4598
  198MPD1    H3 3017   0.246   3.298  15.564  0.9428  2.1962 -0.2103
  198MPD1     N 3018   0.665   3.289  15.746 -0.4333 -0.2889 -0.0218
  198MPD1    H5 3019   0.715   3.257  15.828 -1.6014 -0.2079  0.7298
  198MPD1    N1 3020   0.279   3.089  15.958  0.3407 -0.0560  0.4315
  198MPD1    H6 3021   0.185   3.120  15.980  0.0045 -1.2074  0.6365
  198MPD1    H7 3022   0.335   3.086  16.043  1.0862 -2.0198 -0.1279
  199MPD1     C 3023   3.533   3.406   9.655 -0.0464  0.4785 -0.0655
  199MPD1    C1 3024   3.397   3.418   9.689 -0.2297  0.0125  1.1807
  199MPD1    C2 3025   3.329   3.523   9.638 -0.3801  0.3176  0.2982
  199MPD1    C3 3026   3.378   3.581   9.519  0.0979 -0.4315 -0.4858
  199MPD1    C4 3027   3.510   3.560   9.480  0.2408 -0.0242  0.0044
  199MPD1    C5 3028   3.587   3.479   9.556  0.2495 -0.6298 -0.2769
  199MPD1     H 3029   3.233   3.551   9.680 -0.6476  1.7112 -1.2714
  199MPD1    H1 3030   3.555   3.619   9.401  0.5078  0.3462  0.4326
  199MPD1    H2 3031   3.596   3.330   9.701  3.3156  2.8261 -0.8200
  199MPD1    H3 3032   3.688   3.459   9.522  0.6777  0.0700  0.6080
  199MPD1     N 3033   3.300   3.672   9.441 -0.2151  0.1523 -0.5321
  199MPD1    H5 3034   3.331   3.701   9.349 -1.2198  2.1794 -0.2469
  199MPD1    N1 3035   3.356   3.366   9.812 -0.0376  0.2744 -0.3978
  199MPD1    H6 3036   3.255   3.359   9.823 -0.1491  1.5921 -0.5397
  199MPD1    H7 3037   3.386   3.271   9.831  0.7741  0.5499 -0.3335
  200MPD1     C 3038   1.994   0.144  14.941 -0.4501  0.6966  0.3556
  200MPD1    C1 3039   2.035   0.030  14.998 -0.4503 -0.5698 -0.8110
  200MPD1    C2 3040   2.160   4.711  14.981 -0.5694  0.1368 -0.5792
  200MPD1    C3 3041   2.245   0.051  14.893 -0.0004 -0.6171 -0.3430
  200MPD1    C4 3042   2.205   0.174  14.838 -0.5938 -0.7235 -0.8524
  200MPD1    C5 3043   2.077   0.218  14.860 -0.3849  0.2161  0.5168
  200MPD1     H 3044   2.204   4.630  15.038 -0.4069  0.5563 -0.1034
  200MPD1    H1 3045   2.262   0.234  14.769 -0.1525  0.1485  0.2795
  200MPD1    H2 3046   1.897   0.192  14.951 -1.3907 -0.6940 -2.2048
  200MPD1    H3 3047   2.041   0.311  14.816  0.9871  0.0303 -0.9964
  200MPD1     N 3048   2.378   0.001  14.873 -0.6286 -0.1480  0.6765
  200MPD1    H5 3049   2.394   4.629  14.906  0.3763  0.1787  1.1430
  200MPD1    N1 3050   1.967   4.713  15.110  0.2638  0.8488  0.2441
  200MPD1    H6 3051   1.869   0.018  15.103 -0.0656  0.0484  1.7423
  200MPD1    H7 3052   1.969   4.613  15.129  0.8157  0.7830 -0.1800
  201MPD1     C 3053   0.137   3.850  12.680  0.4573 -0.5037  0.0051
  201MPD1    C1 3054   0.013   3.798  12.714 -0.1631 -0.1030 -0.2027
  201MPD1    C2 3055   0.010   3.716  12.827  0.1233  0.0357  0.3460
  201MPD1    C3 3056   0.121   3.699  12.913 -0.7741 -0.7459 -0.5549
  201MPD1    C4 3057   0.245   3.756  12.879 -0.0736 -0.6956 -0.4555
  201MPD1    C5 3058   0.246   3.833  12.768  0.2763 -1.0089 -0.3524
  201MPD1     H 3059   4.646   3.655  12.849 -1.7757  1.0853 -4.1652
  201MPD1    H1 3060   0.339   3.750  12.933 -0.8055 -2.3719  0.6247
  201MPD1    H2 3061   0.150   3.909  12.590 -2.2248 -1.4891 -1.0466
  201MPD1    H3 3062   0.343   3.876  12.745 -1.2780  1.1055 -3.0443
  201MPD1     N 3063   0.110   3.609  13.021  0.4613  0.2656  0.3738
  201MPD1    H5 3064   0.020   3.563  13.027  0.9825 -0.9431 -1.2782
  201MPD1    N1 3065   4.620   3.801  12.629  0.5748  0.5623  0.0340
  201MPD1    H6 3066   4.634   3.884  12.573  1.9567  0.8082  0.7370
  201MPD1    H7 3067   4.537   3.797  12.688 -0.2553 -0.5348 -1.1977
  202MPD1     C 3068   0.144   2.599   9.503  0.0437 -0.4757 -0.8263
  202MPD1    C1 3069   0.091   2.713   9.556 -0.1114 -1.4601  0.0652
  202MPD1    C2 3070   0.085   2.711   9.691 -0.9614 -0.2749  0.0379
  202MPD1    C3 3071   0.107   2.603   9.773 -0.4917  0.1631  0.0828
  202MPD1    C4 3072   0.142   2.487   9.711  0.2661 -0.4521 -0.5162
  202MPD1    C5 3073   0.163   2.485   9.580 -0.0150 -0.3765  0.0184
  202MPD1     H 3074   0.061   2.805   9.738  2.7188 -0.0345  1.4479
  202MPD1    H1 3075   0.163   2.403   9.776 -0.9742 -0.0758  0.3638
  202MPD1    H2 3076   0.160   2.579   9.398 -0.2113 -2.0182 -0.5790
  202MPD1    H3 3077   0.196   2.396   9.529  2.0702  0.0306  0.6689
  202MPD1     N 3078   0.068   2.601   9.915  0.1547  0.1767 -0.2110
  202MPD1    H5 3079   0.067   2.513   9.966  0.7767 -0.2253 -0.8926
  202MPD1    N1 3080   0.124   2.832   9.490  0.2251  0.3996 -0.1414
  202MPD1    H6 3081   0.103   2.821   9.391 -2.1372  1.2723  0.2711
  202MPD1    H7 3082   0.078   2.917   9.522  0.7390  0.1412  1.2919
  203MPD1     C 3083   2.872   4.470  12.589  0.5618 -0.6649  0.2669
  203MPD1    C1 3084   2.955   4.415  12.680 -0.8195  0.1014 -0.0138
  203MPD1    C2 3085   2.998   4.286  12.661 -0.2291 -0.1430 -0.2237
  203MPD1    C3 3086   2.942   4.209  12.560  0.2067  0.1022  0.6095
  203MPD1    C4 3087   2.849   4.256  12.475  0.0191 -0.3242 -0.4296
  203MPD1    C5 3088   2.814   4.389  12.492  0.3720  0.2165  0.1984
  203MPD1     H 3089   3.077   4.237  12.715 -0.3880 -1.1059 -0.8683
  203MPD1    H1 3090   2.808   4.198  12.392  0.9594 -0.1001 -1.0516
  203MPD1    H2 3091   2.833   4.570  12.607  1.3064 -0.4570  0.7116
  203MPD1    H3 3092   2.732   4.434  12.438 -0.0780 -0.4340  0.3393
  203MPD1     N 3093   2.990   4.072  12.545  0.6817 -0.1629  0.6798
  203MPD1    H5 3094   3.063   4.034  12.604  0.0269  0.1191  1.6589
  203MPD1    N1 3095   3.025   4.508  12.767  0.0605 -0.7301  0.3321
  203MPD1    H6 3096   3.076   4.454  12.837 -2.0376 -2.0739  0.8217
  203MPD1    H7 3097   2.970   4.585  12.806 -1.9739 -1.5590 -0.8823
  204MPD1     C 3098   2.089   4.030   0.065  0.2450  0.1122 -1.1998
  204MPD1    C1 3099   2.206   4.094   0.013 -0.9016  0.4089 -0.3685
  204MPD1    C2 3100   2.310   4.009  17.680 -0.3836  0.7188  0.2313
  204MPD1    C3 3101   2.312   3.869   0.009  0.5261  0.0875  0.5186
  204MPD1    C4 3102   2.196   3.815   0.070  0.0672  0.0460 -0.3791
  204MPD1    C5 3103   2.083   3.892   0.085  0.3065  0.3987  0.1749
  204MPD1     H 3104   2.396   4.062  17.642  0.3079 -1.3682 -1.1521
  204MPD1    H1 3105   2.190   3.708   0.089  0.7696  0.3334  1.4405
  204MPD1    H2 3106   1.997   4.087   0.077 -0.0691 -0.6006 -0.1665
  204MPD1    H3 3107   1.989   3.844   0.110  0.0546  1.2439  0.8860
  204MPD1     N 3108   2.430   3.802  17.660  0.4406  0.5759  0.0491
  204MPD1    H5 3109   2.511   3.857  17.632  0.6236 -1.0849 -2.5811
  204MPD1    N1 3110   2.194   4.225  17.659 -0.1711  0.3904 -0.0320
  204MPD1    H6 3111   2.281   4.277  17.662 -0.2245  0.3752  1.5135
  204MPD1    H7 3112   2.124   4.281   0.014 -1.8062  0.2714 -2.3126
  205MPD1     C 3113   3.784   2.948  17.011 -0.1364 -0.1201  0.0717
  205MPD1    C1 3114   3.682   3.035  16.990  0.4372  0.4641 -0.5947
  205MPD1    C2 3115   3.547   2.990  16.998 -0.0766  0.3564  0.2519
  205MPD1    C3 3116   3.526   2.865  17.055  0.1577 -0.0139 -0.5931
  205MPD1    C4 3117   3.631   2.779  17.078  0.4955  0.0750  0.2652
  205MPD1    C5 3118   3.760   2.823  17.062 -0.0229 -0.3052 -0.2399
  205MPD1     H 3119   3.465   3.050  16.961  0.4666  0.9055 -0.0716
  205MPD1    H1 3120   3.619   2.674  17.103 -2.5083  0.7227  1.4366
  205MPD1    H2 3121   3.887   2.975  16.992 -0.6630  0.8001 -1.5066
  205MPD1    H3 3122   3.842   2.754  17.079  0.4481  0.1638 -0.6039
  205MPD1     N 3123   3.397   2.812  17.083  0.2551 -0.6483  0.2663
  205MPD1    H5 3124   3.395   2.715  17.112 -1.1652 -0.3230  1.2996
  205MPD1    N1 3125   3.713   3.161  16.923 -0.3882 -0.6586  0.6063
  205MPD1    H6 3126   3.632   3.222  16.929 -0.2225 -0.1515 -2.5942
  205MPD1    H7 3127   3.791   3.201  16.975  0.8616 -0.6892 -1.2446
  206MPD1     C 3128   3.336   1.594  16.869  1.5364 -0.4305 -0.0259
  206MPD1    C1 3129   3.415   1.512  16.786 -0.2138 -0.0892  0.2589
  206MPD1    C2 3130   3.395   1.507  16.647 -0.5549 -0.3906  0.2027
  206MPD1    C3 3131   3.305   1.599  16.585  0.2783 -0.0481  0.7879
  206MPD1    C4 3132   3.227   1.675  16.669 -0.0973 -0.1246  0.4445
  206MPD1    C5 3133   3.234   1.669  16.807 -0.2886 -0.0738  0.2393
  206MPD1     H 3134   3.465   1.449  16.589 -3.4784 -2.6187 -1.0799
  206MPD1    H1 3135   3.144   1.732  16.629 -1.2661 -1.5262  0.8642
  206MPD1    H2 3136   3.343   1.594  16.978  0.2636  1.0631  0.0669
  206MPD1    H3 3137   3.165   1.724  16.870 -1.1956 -1.2066  0.2518
  206MPD1     N 3138   3.297   1.615  16.447  0.1952  0.0078 -0.2084
  206MPD1    H5 3139   3.228   1.683  16.417  1.4451  0.2127 -2.6528
  206MPD1    N1 3140   3.519   1.450  16.855  0.6107 -0.3183  0.4118
  206MPD1    H6 3141   3.527   1.352  16.827  1.0988  0.3879 -1.9553
  206MPD1    H7 3142   3.514   1.459  16.956 -3.5182  1.3335  0.0557
  207MPD1     C 3143   0.561   3.266  10.039 -0.7108  0.4698  0.8877
  207MPD1    C1 3144   0.576   3.381   9.969 -0.9279 -0.4983  0.1093
  207MPD1    C2 3145   0.633   3.486  10.048  0.5771  0.7656 -0.5273
  207MPD1    C3 3146   0.687   3.467  10.176  0.6320  0.1775 -0.0092
  207MPD1    C4 3147   0.665   3.347  10.238 -0.8587 -0.8135 -0.2183
  207MPD1    C5 3148   0.616   3.247  10.160 -0.5977  0.0702  0.4675
  207MPD1     H 3149   0.654   3.580   9.998 -0.6900  0.3689 -1.8249
  207MPD1    H1 3150   0.690   3.319  10.339  1.4754  2.4853  0.1153
  207MPD1    H2 3151   0.517   3.178   9.993  2.5854  0.3217 -1.9096
  207MPD1    H3 3152   0.607   3.146  10.201 -0.3328  0.5580  1.7286
  207MPD1     N 3153   0.762   3.557  10.252 -0.1512 -0.1670  0.2397
  207MPD1    H5 3154   0.802   3.515  10.335  3.2528  2.4629 -0.0769
  207MPD1    N1 3155   0.527   3.391   9.841 -0.1921 -0.0199 -0.3555
  207MPD1    H6 3156   0.558   3.321   9.774 -1.6787 -0.8909 -0.1275
  207MPD1    H7 3157   0.545   3.481   9.798 -0.8480  1.2935  2.0839
  208MPD1     C 3158   4.311   3.059   0.159 -0.4431  0.0924 -0.2535
  208MPD1    C1 3159   4.302   3.013   0.288  0.3261  0.4418 -0.1718
  208MPD1    C2 3160   4.201   2.932   0.332  0.3587 -0.4556 -1.1813
  208MPD1    C3 3161   4.109   2.884   0.236 -0.2683  0.6087 -0.1575
  208MPD1    C4 3162   4.122   2.926   0.104 -0.0418  0.1744  0.2903
  208MPD1    C5 3163   4.219   3.014   0.066 -0.3543  0.6711 -0.4296
  208MPD1     H 3164   4.180   2.933   0.438 -1.4616 -0.0336 -1.5419
  208MPD1    H1 3165   4.042   2.882   0.045  1.3741  0.0033 -1.4968
  208MPD1    H2 3166   4.385   3.133   0.130 -0.1631 -0.6158 -1.3418
  208MPD1    H3 3167   4.233   3.046  17.656 -0.6430 -2.0463 -1.3206
  208MPD1     N 3168   3.998   2.809   0.281 -0.1992  0.2444  0.5493
  208MPD1    H5 3169   4.009   2.780   0.377  1.9355  0.4629  0.3768
  208MPD1    N1 3170   4.386   3.069   0.387 -0.1738  0.3424 -0.1063
  208MPD1    H6 3171   4.379   3.007   0.468  1.8198  0.4459  0.1473
  208MPD1    H7 3172   4.480   3.096   0.359 -0.2399  1.1622  0.4591
  209MPD1     C 3173   1.188   3.765  12.156 -0.1421 -0.0329  0.0804
  209MPD1    C1 3174   1.147   3.895  12.128  0.3852  0.7452  0.1079
  209MPD1    C2 3175   1.126   3.927  11.990 -0.4269 -0.0598 -0.7214
  209MPD1    C3 3176   1.153   3.832  11.893 -0.2451  0.6224  0.4436
  209MPD1    C4 3177   1.187   3.704  11.928 -0.4285  0.0834 -0.6200
  209MPD1    C5 3178   1.200   3.671  12.059  0.4261 -0.3420  0.6279
  209MPD1     H 3179   1.091   4.024  11.958  1.1213  0.1024 -1.9714
  209MPD1    H1 3180   1.211   3.627  11.856 -0.2233  1.4809 -2.0534
  209MPD1    H2 3181   1.196   3.722  12.255 -1.4464  2.0772  1.1057
  209MPD1    H3 3182   1.233   3.571  12.083  2.0499  0.3383  1.2070
  209MPD1     N 3183   1.131   3.867  11.755  0.2986 -0.4546 -0.3242
  209MPD1    H5 3184   1.124   3.967  11.741 -1.5036 -0.3314  1.4956
  209MPD1    N1 3185   1.091   3.982  12.232  0.0837  0.3198  0.3402
  209MPD1    H6 3186   1.072   4.077  12.201  1.6845  1.2707  2.2930
  209MPD1    H7 3187   1.148   3.963  12.314  2.3185 -2.6900 -1.9101
  210MPD1     C 3188   0.563   4.493  11.219  0.7103  0.0179  0.7111
  210MPD1    C1 3189   0.570   4.450  11.350  0.2882 -0.0395 -0.0915
  210MPD1    C2 3190   0.662   4.351  11.375 -0.4742 -0.4423 -0.0458
  210MPD1    C3 3191   0.754   4.306  11.283 -0.1256  0.5560 -0.7788
  210MPD1    C4 3192   0.742   4.355  11.156 -0.6044 -0.1988  0.0719
  210MPD1    C5 3193   0.655   4.450  11.124 -0.2437 -0.6164  0.1291
  210MPD1     H 3194   0.664   4.307  11.474  2.6268  0.7080  0.4195
  210MPD1    H1 3195   0.805   4.315  11.077 -0.5210  0.8167 -0.3782
  210MPD1    H2 3196   0.477   4.551  11.188  0.3671 -1.4374 -1.0506
  210MPD1    H3 3197   0.638   4.471  11.019  1.0514 -2.2040 -0.4013
  210MPD1     N 3198   0.860   4.211  11.306 -0.0676 -0.3863  0.2949
  210MPD1    H5 3199   0.902   4.174  11.221 -0.6346 -0.4453  0.0419
  210MPD1    N1 3200   0.469   4.477  11.439  0.0176 -0.2678 -0.3645
  210MPD1    H6 3201   0.433   4.572  11.429 -0.6674 -0.1459  3.0947
  210MPD1    H7 3202   0.511   4.473  11.532 -1.3448 -0.6263  0.2249
  211MPD1     C 3203   3.510   2.595  16.781 -0.4149 -0.5409 -0.0620
  211MPD1    C1 3204   3.531   2.729  16.754  0.0542 -0.0660 -0.3050
  211MPD1    C2 3205   3.422   2.813  16.732 -0.0814 -0.2124  0.7611
  211MPD1    C3 3206   3.291   2.773  16.734 -0.3846 -0.3744  0.4889
  211MPD1    C4 3207   3.275   2.637  16.773 -0.3858 -0.5257  0.8020
  211MPD1    C5 3208   3.384   2.556  16.806  0.0897  0.5288  0.8333
  211MPD1     H 3209   3.440   2.916  16.704 -2.6155 -0.7125 -2.5463
  211MPD1    H1 3210   3.173   2.611  16.796  0.4738 -3.7985  0.9174
  211MPD1    H2 3211   3.584   2.517  16.791 -1.4329 -1.6670 -1.2989
  211MPD1    H3 3212   3.371   2.450  16.827  2.0410 -0.1253 -1.1709
  211MPD1     N 3213   3.193   2.869  16.722  0.2103  0.2853  0.0855
  211MPD1    H5 3214   3.228   2.960  16.694  1.3078 -0.2504 -0.2778
  211MPD1    N1 3215   3.662   2.773  16.729  0.0114  0.4033  0.1024
  211MPD1    H6 3216   3.686   2.872  16.728 -0.3203  0.4832  0.4937
  211MPD1    H7 3217   3.738   2.718  16.767  0.0431  0.9776  0.8736
  212MPD1     C 3218   2.051   2.250  16.524 -0.4514  0.2738  0.1062
  212MPD1    C1 3219   2.170   2.202  16.477  0.3184 -0.1581  0.5649
  212MPD1    C2 3220   2.242   2.114  16.558  0.5466 -0.0124 -0.1422
  212MPD1    C3 3221   2.189   2.068  16.683  1.0319  0.8508  0.3788
  212MPD1    C4 3222   2.060   2.118  16.718 -0.0523 -0.5061 -0.0855
  212MPD1    C5 3223   1.998   2.216  16.643  0.2191  0.0643  0.4005
  212MPD1     H 3224   2.334   2.067  16.524  1.1763  0.3227  1.0820
  212MPD1    H1 3225   2.016   2.085  16.811 -0.3049 -2.1339 -0.7854
  212MPD1    H2 3226   1.995   2.312  16.456  1.7288  2.7030  0.5026
  212MPD1    H3 3227   1.900   2.254  16.668  0.1310  0.6176 -0.7736
  212MPD1     N 3228   2.256   1.982  16.777  0.2422  0.0488 -0.3304
  212MPD1    H5 3229   2.212   1.970  16.868 -1.8518  1.5643 -1.1383
  212MPD1    N1 3230   2.224   2.267  16.368 -0.4503 -0.3418  1.0350
  212MPD1    H6 3231   2.292   2.202  16.330  0.5708  1.6339 -0.5591
  212MPD1    H7 3232   2.156   2.293  16.297  0.6988  0.9947  0.4082
  213MPD1     C 3233   0.933   2.954  15.898  0.0126  0.4378 -0.4663
  213MPD1    C1 3234   1.012   2.882  15.811  0.0990  0.4659 -0.9676
  213MPD1    C2 3235   0.952   2.880  15.680 -0.5415  0.5668  0.0406
  213MPD1    C3 3236   0.813   2.890  15.662  0.3750  0.4973 -0.0453
  213MPD1    C4 3237   0.732   2.921  15.769 -0.7479 -0.6523 -0.1578
  213MPD1    C5 3238   0.795   2.966  15.884 -0.2264 -0.6417 -0.0115
  213MPD1     H 3239   1.010   2.868  15.589 -0.6338 -1.3509  0.2281
  213MPD1    H1 3240   0.625   2.905  15.767 -0.7072 -0.8928 -0.3544
  213MPD1    H2 3241   0.974   2.978  15.996  1.2449 -2.4360 -0.2889
  213MPD1    H3 3242   0.729   3.004  15.961 -0.3715  0.4465 -0.6779
  213MPD1     N 3243   0.761   2.880  15.529 -0.7715 -0.2525  0.2726
  213MPD1    H5 3244   0.836   2.846  15.469 -0.9680 -0.5660  0.2067
  213MPD1    N1 3245   1.151   2.875  15.820 -0.3382 -0.2767  0.3981
  213MPD1    H6 3246   1.180   2.789  15.775  0.8357 -0.0435  0.7102
  213MPD1    H7 3247   1.180   2.857  15.916 -1.3548  0.9884  0.9444
  214MPD1     C 3248   4.627   2.482  15.195  0.2642 -0.2638  0.5374
  214MPD1    C1 3249   4.654   2.579  15.108 -0.0789 -0.4372 -0.5380
  214MPD1    C2 3250   0.048   2.651  15.122 -0.5722 -0.3585 -0.6006
  214MPD1    C3 3251   0.126   2.640  15.236  0.4646 -0.3829 -0.3196
  214MPD1    C4 3252   0.082   2.555  15.330 -0.3369  0.1960 -0.2530
  214MPD1    C5 3253   4.696   2.480  15.312 -0.2716 -0.1262 -0.1179
  214MPD1     H 3254   0.074   2.722  15.044  0.3666  0.6186  0.5994
  214MPD1    H1 3255   0.152   2.527  15.408 -2.7835 -0.9706  1.5131
  214MPD1    H2 3256   4.547   2.410  15.180 -1.0679  1.4435 -0.5968
  214MPD1    H3 3257   4.675   2.395  15.375  2.2407  0.2056  1.1553
  214MPD1     N 3258   0.250   2.706  15.253 -0.4931 -0.5614 -0.3155
  214MPD1    H5 3259   0.294   2.701  15.345  1.8698  1.8178 -1.3151
  214MPD1    N1 3260   4.582   2.576  14.983 -0.0209 -0.0628  0.5786
  214MPD1    H6 3261   4.588   2.663  14.932 -0.1580  1.5390  3.2772
  214MPD1    H7 3262   4.485   2.544  14.973 -0.4434  1.5668 -0.5002
  215MPD1     C 3263   0.363   3.223  10.606 -0.3282 -0.0465  0.3359
  215MPD1    C1 3264   0.340   3.262  10.730 -0.2870  1.1263 -0.3672
  215MPD1    C2 3265   0.422   3.362  10.780 -0.5914  0.6547 -0.3158
  215MPD1    C3 3266   0.488   3.446  10.698  0.0259  0.4354 -0.5959
  215MPD1    C4 3267   0.479   3.428  10.561 -0.1406 -0.2094 -0.1241
  215MPD1    C5 3268   0.427   3.309  10.515 -0.5334  1.0200 -0.3386
  215MPD1     H 3269   0.442   3.366  10.887 -0.6447  0.4357 -0.2975
  215MPD1    H1 3270   0.528   3.489  10.485  0.4939  0.0645  0.5018
  215MPD1    H2 3271   0.324   3.133  10.560 -1.2386  0.0053  1.0236
  215MPD1    H3 3272   0.433   3.279  10.412  1.5702  1.0377 -0.2246
  215MPD1     N 3273   0.564   3.552  10.752 -0.2842 -0.1268 -0.1615
  215MPD1    H5 3274   0.568   3.558  10.853  3.3379  0.8964 -0.3756
  215MPD1    N1 3275   0.265   3.179  10.823 -0.4224 -0.2711 -0.1318
  215MPD1    H6 3276   0.179   3.147  10.779  0.8009 -1.4382 -1.6655
  215MPD1    H7 3277   0.236   3.225  10.909  0.1374  0.3894 -0.3006
  216MPD1     C 3278   3.139   1.304  17.061  0.3287 -0.3247  0.4181
  216MPD1    C1 3279   3.075   1.275  17.180 -0.8112  0.2785 -0.6330
  216MPD1    C2 3280   2.984   1.176  17.176 -0.1935 -0.2425  0.0736
  216MPD1    C3 3281   2.952   1.111  17.058 -0.9285 -0.1372 -0.8480
  216MPD1    C4 3282   3.018   1.137  16.940 -0.7124 -0.2960  0.4501
  216MPD1    C5 3283   3.125   1.226  16.950  0.6856  0.4088  0.3314
  216MPD1     H 3284   2.912   1.167  17.257 -1.2734 -0.1189 -0.8696
  216MPD1    H1 3285   3.002   1.086  16.846  2.3604  0.5422 -0.5565
  216MPD1    H2 3286   3.214   1.381  17.072 -1.5791  1.3865  1.5055
  216MPD1    H3 3287   3.187   1.254  16.866 -1.6597 -1.3397 -1.9605
  216MPD1     N 3288   2.835   1.028  17.054 -0.3324 -0.3226 -0.3898
  216MPD1    H5 3289   2.781   1.025  17.140  0.1029  0.7782 -0.0780
  216MPD1    N1 3290   3.090   1.353  17.289 -0.4245  0.4427  0.1221
  216MPD1    H6 3291   3.185   1.389  17.302 -0.7328  0.1395  3.2894
  216MPD1    H7 3292   3.048   1.309  17.371 -0.2717  0.9142  0.4547
  217MPD1     C 3293   3.917   3.766   9.415  0.2989  0.1340  0.5642
  217MPD1    C1 3294   3.851   3.746   9.291 -0.0443  0.0997 -0.1825
  217MPD1    C2 3295   3.842   3.614   9.246 -0.2758  0.8853  0.1858
  217MPD1    C3 3296   3.889   3.508   9.328  1.0488  0.1297 -0.4021
  217MPD1    C4 3297   3.948   3.535   9.452 -0.4563  0.2693 -0.2695
  217MPD1    C5 3298   3.967   3.665   9.484  0.3206 -0.1771  0.4735
  217MPD1     H 3299   3.786   3.587   9.157  1.7437 -0.4333 -0.6862
  217MPD1    H1 3300   3.986   3.454   9.513  1.4172 -0.2185 -2.0756
  217MPD1    H2 3301   3.936   3.863   9.458  0.5045  0.6315 -0.6651
  217MPD1    H3 3302   4.032   3.677   9.571 -1.9218 -0.1496  2.1343
  217MPD1     N 3303   3.886   3.371   9.297 -0.1379  0.0551 -0.0736
  217MPD1    H5 3304   3.936   3.308   9.359 -1.4416 -1.9204 -1.0340
  217MPD1    N1 3305   3.784   3.849   9.220  0.3056  0.4508  0.9637
  217MPD1    H6 3306   3.851   3.926   9.215 -0.9119  1.4380 -0.2433
  217MPD1    H7 3307   3.755   3.821   9.126 -0.4956 -1.7314  1.8744
  218MPD1     C 3308   4.648   3.313  12.557 -0.3261  0.6953  1.4968
  218MPD1    C1 3309   4.686   3.444  12.573  0.5156 -0.7882 -0.2938
  218MPD1    C2 3310   0.082   3.465  12.640 -0.2303  0.3468  0.4004
  218MPD1    C3 3311   0.146   3.370  12.717  0.4568 -0.1892  0.1102
  218MPD1    C4 3312   0.086   3.246  12.723 -0.9227  0.5909  0.1904
  218MPD1    C5 3313   4.707   3.224  12.635 -0.0813 -0.0759  0.0292
  218MPD1     H 3314   0.124   3.565  12.640  1.0639 -0.1986  1.2685
  218MPD1    H1 3315   0.136   3.163  12.770  3.7636  2.6296 -1.1583
  218MPD1    H2 3316   4.562   3.289  12.495  0.4685 -0.1201  0.7251
  218MPD1    H3 3317   4.673   3.121  12.630  3.1413 -1.0872 -1.3616
  218MPD1     N 3318   0.271   3.404  12.775 -0.2853  0.6573 -0.2941
  218MPD1    H5 3319   0.301   3.499  12.755  0.2915  0.5006 -0.1704
  218MPD1    N1 3320   4.612   3.541  12.498 -0.3523  0.3499 -0.2549
  218MPD1    H6 3321   4.612   3.633  12.543 -0.1309 -0.2916  1.0733
  218MPD1    H7 3322   4.517   3.514  12.475 -0.7682  0.5609  1.2033
  219MPD1     C 3323   0.906   3.722  12.392  0.2448 -0.1738  0.1508
  219MPD1    C1 3324   0.906   3.801  12.504 -0.1787 -0.3856 -0.4426
  219MPD1    C2 3325   0.839   3.764  12.613 -0.7492 -0.1162 -0.0797
  219MPD1    C3 3326   0.776   3.637  12.621 -0.0596  1.0091 -0.7284
  219MPD1    C4 3327   0.783   3.560  12.510  0.1547 -0.1464  0.2800
  219MPD1    C5 3328   0.839   3.600  12.395 -0.4631 -0.0072  0.6931
  219MPD1     H 3329   0.847   3.821  12.705  1.7513 -0.8808  0.1704
  219MPD1    H1 3330   0.741   3.460  12.516  2.0349 -1.0064 -1.0340
  219MPD1    H2 3331   0.954   3.753  12.300  2.7373  0.4974  1.6755
  219MPD1    H3 3332   0.839   3.545  12.302 -3.2479 -1.0795  1.3294
  219MPD1     N 3333   0.704   3.584  12.730  0.5309  0.0159 -0.6035
  219MPD1    H5 3334   0.657   3.494  12.725 -0.3628  0.4418  0.2792
  219MPD1    N1 3335   0.943   3.932  12.492  0.4855  0.2468  0.5997
  219MPD1    H6 3336   1.013   3.936  12.418  2.7887  2.0585  2.8614
  219MPD1    H7 3337   0.973   3.973  12.580 -0.8629 -1.4846  1.8682
  220MPD1     C 3338   0.417   0.385   9.409  0.3112 -0.0312  0.4203
  220MPD1    C1 3339   0.304   0.370   9.494 -0.0044  0.4357  0.1560
  220MPD1    C2 3340   0.310   0.260   9.574  0.1931 -0.1519  0.0679
  220MPD1    C3 3341   0.413   0.167   9.563  0.4166 -0.0606 -0.3142
  220MPD1    C4 3342   0.512   0.180   9.472 -0.0724  0.0662  0.1387
  220MPD1    C5 3343   0.512   0.289   9.389 -1.1776  0.5443 -0.2352
  220MPD1     H 3344   0.238   0.258   9.655 -0.6338 -1.2025 -0.6981
  220MPD1    H1 3345   0.601   0.119   9.464 -0.2940 -0.0994 -1.0728
  220MPD1    H2 3346   0.412   0.471   9.343 -2.4539 -2.3253 -2.3675
  220MPD1    H3 3347   0.584   0.300   9.308 -1.6309  1.1251 -0.5548
  220MPD1     N 3348   0.408   0.067   9.665 -0.1498  0.2949 -0.2015
  220MPD1    H5 3349   0.331   0.073   9.732  0.7472  0.0636  0.8505
  220MPD1    N1 3350   0.208   0.470   9.519  0.1760 -0.4498 -0.0654
  220MPD1    H6 3351   0.205   0.526   9.434 -0.5987 -1.6796 -0.8597
  220MPD1    H7 3352   0.120   0.427   9.547 -0.2942  1.0559  0.7579
  221MPD1     C 3353   2.697   3.524  15.436 -0.0650  0.3291  0.2688
  221MPD1    C1 3354   2.823   3.470  15.468 -0.2735  0.3809 -0.3399
  221MPD1    C2 3355   2.860   3.481  15.601  0.0070  0.3207 -0.1073
  221MPD1    C3 3356   2.790   3.548  15.699  0.4705 -0.1231 -0.3152
  221MPD1    C4 3357   2.673   3.612  15.657  0.1008 -0.2011  0.0005
  221MPD1    C5 3358   2.624   3.599  15.530 -0.0251  0.0472  0.8867
  221MPD1     H 3359   2.955   3.435  15.626 -0.0124 -0.2577 -1.1334
  221MPD1    H1 3360   2.613   3.654  15.737 -1.3910 -0.0968 -1.1762
  221MPD1    H2 3361   2.651   3.496  15.341 -0.0108 -1.9592  0.9057
  221MPD1    H3 3362   2.527   3.641  15.504  0.0109  0.0134  0.6942
  221MPD1     N 3363   2.838   3.566  15.835 -0.1639  0.3042  0.5443
  221MPD1    H5 3364   2.772   3.603  15.902 -0.5675 -0.9157  0.8151
  221MPD1    N1 3365   2.880   3.369  15.387  0.1824  0.5496 -0.2280
  221MPD1    H6 3366   2.978   3.350  15.410  0.1711  1.8506  0.8897
  221MPD1    H7 3367   2.877   3.388  15.287 -2.5788  1.7021  0.0921
  222MPD1     C 3368   3.276   2.038  17.141 -0.2531 -0.2106 -0.3519
  222MPD1    C1 3369   3.271   1.969  17.022  0.6174 -0.0642 -1.3755
  222MPD1    C2 3370   3.148   1.994  16.953  0.0911 -1.7049 -0.3307
  222MPD1    C3 3371   3.046   2.075  17.000 -0.0521  0.3275 -0.2307
  222MPD1    C4 3372   3.067   2.132  17.125  0.7348  0.8264 -0.2247
  222MPD1    C5 3373   3.183   2.126  17.187 -0.2258 -0.1156  0.4168
  222MPD1     H 3374   3.150   1.956  16.851  0.2435  2.5320 -1.9173
  222MPD1    H1 3375   2.990   2.197  17.165 -0.1769  0.0754 -0.7562
  222MPD1    H2 3376   3.364   2.038  17.204  0.4083 -0.8620 -1.2662
  222MPD1    H3 3377   3.206   2.177  17.280  1.6346 -2.0523  1.0110
  222MPD1     N 3378   2.918   2.104  16.939 -1.0053 -0.2944  0.1674
  222MPD1    H5 3379   2.855   2.170  16.984  0.0476  0.8397 -0.0385
  222MPD1    N1 3380   3.376   1.914  16.952  0.5393 -0.0863 -0.2834
  222MPD1    H6 3381   3.342   1.853  16.879 -1.1244  0.7894 -0.2392
  222MPD1    H7 3382   3.457   1.877  17.002 -0.0740  0.9988  1.5374
  223MPD1     C 3383   2.502   2.307  15.973 -0.0872 -0.6265 -0.4729
  223MPD1    C1 3384   2.472   2.406  16.057 -0.4186  0.8531  0.2376
  223MPD1    C2 3385   2.500   2.393  16.194  0.0137 -0.7094 -0.2338
  223MPD1    C3 3386   2.543   2.277  16.250 -0.0273  0.1637 -0.4571
  223MPD1    C4 3387   2.579   2.177  16.161 -0.4481  0.3536 -1.0906
  223MPD1    C5 3388   2.547   2.188  16.035  0.0503  0.1048 -0.4240
  223MPD1     H 3389   2.474   2.475  16.261 -1.2257 -2.1548  1.0405
  223MPD1    H1 3390   2.616   2.080  16.194 -2.5591 -0.1370 -0.1544
  223MPD1    H2 3391   2.476   2.303  15.868  1.3313  0.3149 -0.8632
  223MPD1    H3 3392   2.569   2.103  15.971 -0.9528 -0.4783  0.0121
  223MPD1     N 3393   2.551   2.259  16.393  0.3809 -0.2112 -0.2927
  223MPD1    H5 3394   2.540   2.338  16.455  2.4226  0.8701 -1.2939
  223MPD1    N1 3395   2.444   2.534  16.006  0.5844  0.2944  0.0083
  223MPD1    H6 3396   2.377   2.581  16.066  1.5380  0.2079  1.1501
  223MPD1    H7 3397   2.394   2.530  15.918  0.5274  3.4797 -0.0877
  224MPD1     C 3398   4.670   4.433   9.257  0.3732 -0.0217  0.0448
  224MPD1    C1 3399   0.003   4.312   9.296  0.2902  0.1223  0.2677
  224MPD1    C2 3400   4.643   4.215   9.357 -0.5222 -0.4785 -0.7874
  224MPD1    C3 3401   4.510   4.241   9.393 -0.2714  0.0698  0.3467
  224MPD1    C4 3402   4.474   4.369   9.363  0.2096  0.1316 -0.0887
  224MPD1    C5 3403   4.548   4.464   9.295  0.2503 -0.5413  0.3568
  224MPD1     H 3404   4.683   4.120   9.389 -1.8471 -1.1591 -1.1487
  224MPD1    H1 3405   4.371   4.402   9.372  0.3081 -0.0004  1.4930
  224MPD1    H2 3406   0.003   4.501   9.193  0.0962  1.2398  1.1319
  224MPD1    H3 3407   4.501   4.558   9.267 -0.3893 -0.5409  1.4332
  224MPD1     N 3408   4.422   4.151   9.453  0.0060 -0.1610  0.3571
  224MPD1    H5 3409   4.333   4.199   9.467  0.1331 -0.1989  1.2741
  224MPD1    N1 3410   0.123   4.270   9.244 -0.0693 -0.1065 -0.1170
  224MPD1    H6 3411   0.179   4.353   9.223 -1.3506  0.8518  0.2554
  224MPD1    H7 3412   0.182   4.210   9.301  0.0715  0.2727  0.1410
  225MPD1     C 3413   0.416   4.266  12.293  0.1445  0.7574  0.2944
  225MPD1    C1 3414   0.328   4.227  12.396 -0.1398 -0.0939 -0.2814
  225MPD1    C2 3415   0.208   4.298  12.406  0.3755 -0.2762  0.5456
  225MPD1    C3 3416   0.180   4.411  12.330  0.8368  0.2411  0.1721
  225MPD1    C4 3417   0.274   4.457  12.241  0.0618  0.4125 -0.6972
  225MPD1    C5 3418   0.387   4.383  12.224  0.6634 -0.4063  0.0772
  225MPD1     H 3419   0.137   4.277  12.485 -0.9152  0.8293 -0.3178
  225MPD1    H1 3420   0.261   4.543  12.177  0.7614  1.2556  0.2960
  225MPD1    H2 3421   0.505   4.206  12.280 -0.6379 -0.4715  0.6628
  225MPD1    H3 3422   0.464   4.408  12.153  0.4819  0.7521  0.2913
  225MPD1     N 3423   0.054   4.479  12.334 -0.4583  0.5540  0.3022
  225MPD1    H5 3424   0.045   4.565  12.281 -1.5132  0.0032 -0.4141
  225MPD1    N1 3425   0.347   4.108  12.455 -0.0612 -0.5211  0.8717
  225MPD1    H6 3426   0.443   4.076  12.442 -0.2205 -1.3767  1.7641
  225MPD1    H7 3427   0.309   4.079  12.545 -2.5937 -0.1900 -0.1030
  226MPD1     C 3428   4.275   0.222   9.686 -0.4500 -0.6250 -0.1591
  226MPD1    C1 3429   4.187   0.121   9.680 -0.3302 -0.2702  0.2610
  226MPD1    C2 3430   4.237   4.714   9.677  0.0340 -0.4267  0.5538
  226MPD1    C3 3431   4.375   4.691   9.676  0.3280  0.2636  0.4228
  226MPD1    C4 3432   4.459   0.072   9.697  0.1316  0.1202  0.3160
  226MPD1    C5 3433   4.416   0.197   9.689  0.1091  0.4177 -0.2666
  226MPD1     H 3434   4.166   4.634   9.663 -0.5846  0.4166 -1.1025
  226MPD1    H1 3435   4.567   0.061   9.707  0.3779  1.7887 -0.5566
  226MPD1    H2 3436   4.236   0.322   9.667  3.4359  0.9982  0.3682
  226MPD1    H3 3437   4.482   0.283   9.685  1.1977 -0.3534  1.1132
  226MPD1     N 3438   4.421   4.560   9.682  0.8454 -0.3408  0.4656
  226MPD1    H5 3439   4.355   4.487   9.659  0.0501  0.2602  0.8044
  226MPD1    N1 3440   4.049   0.144   9.693 -0.5813  0.0332 -1.0014
  226MPD1    H6 3441   4.018   0.234   9.657  3.4980  1.4183 -1.1095
  226MPD1    H7 3442   3.996   0.078   9.636  1.4845 -0.8965 -1.8794
  227MPD1     C 3443   4.345   3.729  10.250 -0.4489 -0.2772 -0.2705
  227MPD1    C1 3444   4.482   3.722  10.208 -0.6394 -0.4886  0.4163
  227MPD1    C2 3445   4.534   3.818  10.122 -0.0818 -0.2209  0.1155
  227MPD1    C3 3446   4.447   3.909  10.064  0.3078  0.1625 -0.1046
  227MPD1    C4 3447   4.318   3.908  10.097  0.3726  0.0158  0.5300
  227MPD1    C5 3448   4.268   3.828  10.196  0.1976 -0.3708 -0.3662
  227MPD1     H 3449   4.632   3.805  10.078 -0.5129  2.7318 -1.6929
  227MPD1    H1 3450   4.241   3.965  10.045  0.6821  0.1972  0.2760
  227MPD1    H2 3451   4.306   3.665  10.329  6.3616 -4.1062  0.0417
  227MPD1    H3 3452   4.163   3.841  10.218  0.5499  1.5037  0.2017
  227MPD1     N 3453   4.506   4.005   9.970 -0.4149 -0.0009  0.2351
  227MPD1    H5 3454   4.607   3.998   9.955 -0.6562  0.2192 -1.5362
  227MPD1    N1 3455   4.567   3.628  10.265  0.4604 -0.2782 -0.2257
  227MPD1    H6 3456   4.513   3.544  10.287  0.8210 -0.2199  0.8803
  227MPD1    H7 3457   4.642   3.599  10.202 -0.2278  0.1763 -1.2380
  228MPD1     C 3458   1.887   2.872  12.735 -0.3817 -0.2682 -0.3358
  228MPD1    C1 3459   1.851   2.835  12.861 -0.3418 -0.0094  0.0666
  228MPD1    C2 3460   1.729   2.768  12.871  0.0141 -0.3749  0.0310
  228MPD1    C3 3461   1.652   2.730  12.767  0.8324  0.4414 -0.1073
  228MPD1    C4 3462   1.698   2.760  12.645  0.0786 -0.6778  0.2573
  228MPD1    C5 3463   1.814   2.827  12.630 -0.2638 -0.0624 -0.3506
  228MPD1     H 3464   1.691   2.732  12.966 -0.2210  0.5764  0.3006
  228MPD1    H1 3465   1.649   2.729  12.553 -0.8328  2.1800 -0.2194
  228MPD1    H2 3466   1.985   2.916  12.720 -0.3080 -1.0210 -2.0327
  228MPD1    H3 3467   1.860   2.830  12.531 -1.9848 -0.9550 -1.1802
  228MPD1     N 3468   1.546   2.633  12.792 -0.5555 -0.0819 -0.2162
  228MPD1    H5 3469   1.543   2.580  12.878 -1.5263 -0.2073 -0.3264
  228MPD1    N1 3470   1.936   2.847  12.971 -0.4972  0.2486  0.1896
  228MPD1    H6 3471   2.019   2.904  12.961 -0.0290 -0.1721  1.6800
  228MPD1    H7 3472   1.893   2.863  13.062  0.4453 -1.1121  0.8842
  229MPD1     C 3473   0.887   0.769  15.052  0.2376  0.0907 -0.2635
  229MPD1    C1 3474   0.915   0.644  15.100  0.0959 -0.1863  0.1883
  229MPD1    C2 3475   1.042   0.625  15.146  0.3375 -0.9932  0.6656
  229MPD1    C3 3476   1.147   0.712  15.121  0.0561 -0.0169 -0.6133
  229MPD1    C4 3477   1.119   0.829  15.057  0.5656 -0.5733  0.8670
  229MPD1    C5 3478   0.991   0.858  15.024  0.4408  0.4884  0.5389
  229MPD1     H 3479   1.059   0.536  15.206  2.5580 -2.1052 -1.6037
  229MPD1    H1 3480   1.201   0.890  15.019 -0.7524 -0.7032 -2.2399
  229MPD1    H2 3481   0.793   0.787  15.001 -1.0403  0.1683  2.1233
  229MPD1    H3 3482   0.964   0.947  14.968 -0.7802  1.4380  2.6524
  229MPD1     N 3483   1.276   0.693  15.178  0.0792 -0.6948  0.2329
  229MPD1    H5 3484   1.345   0.766  15.161 -2.2445  1.5895  0.6530
  229MPD1    N1 3485   0.811   0.561  15.142 -0.7762 -0.0264  0.0710
  229MPD1    H6 3486   0.735   0.558  15.074 -1.4617 -2.3493  0.9525
  229MPD1    H7 3487   0.840   0.465  15.158  1.9453  0.9181  0.8092
  230MPD1     C 3488   2.151   0.379  15.727  0.0239  0.2728 -0.2533
  230MPD1    C1 3489   2.143   0.302  15.615 -0.0590 -0.3156 -0.2141
  230MPD1    C2 3490   2.021   0.303  15.553 -0.6952 -0.1134  0.1661
  230MPD1    C3 3491   1.909   0.374  15.598 -0.3129  0.2729 -0.2241
  230MPD1    C4 3492   1.918   0.440  15.721 -0.3886 -0.1616  0.0151
  230MPD1    C5 3493   2.037   0.447  15.780  0.0828 -1.0029  0.3300
  230MPD1     H 3494   2.004   0.255  15.458  0.0566  2.1776 -1.1192
  230MPD1    H1 3495   1.834   0.498  15.757  0.8645 -0.0024  2.6858
  230MPD1    H2 3496   2.246   0.399  15.777 -0.7313  3.7547 -0.2373
  230MPD1    H3 3497   2.044   0.501  15.874  0.5809  3.2440 -2.1395
  230MPD1     N 3498   1.798   0.380  15.507  0.1065 -0.6186 -0.0779
  230MPD1    H5 3499   1.806   0.325  15.421  1.5128  1.2794 -1.1582
  230MPD1    N1 3500   2.256   0.249  15.555  0.1309 -0.5297 -0.4192
  230MPD1    H6 3501   2.333   0.230  15.620 -2.7699  0.0232  3.1784
  230MPD1    H7 3502   2.231   0.163  15.507 -2.1709 -0.4131  0.5873
  231MPD1     C 3503   0.001   2.932  15.486 -0.1175  0.1859 -0.4241
  231MPD1    C1 3504   4.679   2.920  15.352 -0.2738  0.6794  0.1600
  231MPD1    C2 3505   0.040   2.978  15.254 -0.1711  0.8230  0.4259
  231MPD1    C3 3506   0.151   3.050  15.285 -0.4591  0.5004  0.4414
  231MPD1    C4 3507   0.186   3.066  15.418 -0.3866 -0.0507 -0.1228
  231MPD1    C5 3508   0.116   3.000  15.514  0.0097  0.0188  0.6876
  231MPD1     H 3509   0.012   2.968  15.150 -0.6522 -1.5395  0.7719
  231MPD1    H1 3510   0.258   3.139  15.452  1.7521 -2.9537  1.5630
  231MPD1    H2 3511   4.683   2.885  15.574  1.7649 -1.6377 -0.5222
  231MPD1    H3 3512   0.143   3.013  15.618  2.1542 -1.8452  0.3629
  231MPD1     N 3513   0.215   3.113  15.177 -0.6291 -0.4090 -0.6953
  231MPD1    H5 3514   0.170   3.109  15.086  3.7796  1.6435 -2.9988
  231MPD1    N1 3515   4.578   2.827  15.319 -0.3225  0.1274  0.4172
  231MPD1    H6 3516   4.623   2.742  15.287  0.5179  0.8752 -0.3902
  231MPD1    H7 3517   4.528   2.803  15.404 -1.7534  0.2247 -0.3926
  232MPD1     C 3518   0.930   1.087   0.010 -0.2080  0.2693 -0.4255
  232MPD1    C1 3519   0.990   0.975  17.653 -0.0709  0.1911 -0.2425
  232MPD1    C2 3520   0.999   0.863   0.041 -0.7806 -0.0640 -0.6589
  232MPD1    C3 3521   0.941   0.860   0.165  0.9027 -0.1494  0.6742
  232MPD1    C4 3522   0.867   0.966   0.207 -0.5186  0.6260  0.9226
  232MPD1    C5 3523   0.858   1.082   0.131 -0.6615  0.4549  0.4715
  232MPD1     H 3524   1.053   0.773   0.015  0.1744  0.1675  0.5213
  232MPD1    H1 3525   0.826   0.983   0.306 -1.4727  0.2400  0.5830
  232MPD1    H2 3526   0.933   1.178  17.644  1.9229  0.0138 -0.7249
  232MPD1    H3 3527   0.813   1.168   0.179 -1.1258  0.4278  0.0962
  232MPD1     N 3528   0.962   0.748   0.243  0.2891  0.7816 -0.0622
  232MPD1    H5 3529   1.011   0.671   0.197  2.4481  1.1390  1.6267
  232MPD1    N1 3530   1.057   0.979  17.530 -0.3624  0.2591  0.4270
  232MPD1    H6 3531   1.083   0.894  17.481  0.8190  2.0599 -2.0793
  232MPD1    H7 3532   0.993   1.034  17.473 -1.0571  0.7128  1.6422
  233MPD1     C 3533   2.522   3.111   2.364  0.0687 -0.1594 -0.6775
  233MPD1    C1 3534   2.481   2.983   2.365 -0.0864  0.2632  0.1841
  233MPD1    C2 3535   2.547   2.898   2.280 -0.5475  0.0834  0.3773
  233MPD1    C3 3536   2.640   2.937   2.183  0.0675 -0.3962 -0.2181
  233MPD1    C4 3537   2.665   3.069   2.177  0.4719  0.1201  0.4457
  233MPD1    C5 3538   2.612   3.151   2.267  0.3798 -0.0768  0.1619
  233MPD1     H 3539   2.531   2.791   2.295 -2.9282  0.5293  0.9844
  233MPD1    H1 3540   2.738   3.108   2.107 -0.8481  1.0186 -0.4457
  233MPD1    H2 3541   2.473   3.185   2.427  0.8991 -0.3496  0.1911
  233MPD1    H3 3542   2.626   3.258   2.256  0.8745 -0.1371  0.1977
  233MPD1     N 3543   2.705   2.860   2.092 -0.0759 -0.5317 -0.4070
  233MPD1    H5 3544   2.755   2.908   2.018  0.4730  1.2954  1.1810
  233MPD1    N1 3545   2.382   2.937   2.451 -0.0508 -0.2945 -0.6303
  233MPD1    H6 3546   2.307   3.005   2.457  0.8374  0.7179 -0.9682
  233MPD1    H7 3547   2.344   2.851   2.414  1.9348 -0.7991 -1.4946
  234MPD1     C 3548   4.320   2.206  10.468  0.2484 -1.1447  0.3046
  234MPD1    C1 3549   4.320   2.207  10.330 -0.5966 -0.9228 -0.0869
  234MPD1    C2 3550   4.309   2.327  10.262  0.2795 -0.7287  0.0123
  234MPD1    C3 3551   4.309   2.450  10.329  0.4023  0.0241  0.3171
  234MPD1    C4 3552   4.315   2.446  10.467 -0.4036 -0.1629  0.3964
  234MPD1    C5 3553   4.316   2.331  10.538  1.1154  0.3348  0.3739
  234MPD1     H 3554   4.297   2.325  10.154  0.9374 -0.9764 -0.0522
  234MPD1    H1 3555   4.309   2.535  10.530 -3.0698  0.3414 -0.5511
  234MPD1    H2 3556   4.330   2.117  10.528 -0.3079 -0.8255  0.8761
  234MPD1    H3 3557   4.328   2.342  10.646  2.3426 -0.6843  0.3384
  234MPD1     N 3558   4.293   2.566  10.249  0.3648  0.0465  0.1266
  234MPD1    H5 3559   4.284   2.558  10.148  1.9199  1.9940 -0.1956
  234MPD1    N1 3560   4.315   2.087  10.254  0.3644 -1.2847  0.1515
  234MPD1    H6 3561   4.373   2.015  10.297 -1.8794 -2.0610  1.9080
  234MPD1    H7 3562   4.343   2.093  10.157  1.7547 -2.4747  0.4863
  235MPD1     C 3563   1.200   4.241  11.143 -0.0298  0.0191 -0.4854
  235MPD1    C1 3564   1.106   4.242  11.049  0.0884 -0.0635 -0.1386
  235MPD1    C2 3565   1.099   4.352  10.965 -0.1163 -0.2782 -0.1530
  235MPD1    C3 3566   1.193   4.451  10.974  0.3483  0.4366  0.0027
  235MPD1    C4 3567   1.305   4.436  11.057 -0.1961  0.1549  0.2331
  235MPD1    C5 3568   1.307   4.328  11.143 -0.1977  0.6725 -0.0722
  235MPD1     H 3569   1.013   4.362  10.900 -0.5549  1.6061  0.7115
  235MPD1    H1 3570   1.380   4.513  11.072 -0.1090  0.4220 -1.5246
  235MPD1    H2 3571   1.210   4.167  11.223 -1.0728 -1.0017 -1.3042
  235MPD1    H3 3572   1.387   4.336  11.216  0.0578 -2.1573 -0.0638
  235MPD1     N 3573   1.166   4.568  10.896  0.2496 -0.5417 -0.0075
  235MPD1    H5 3574   1.072   4.575  10.858  0.0024 -0.8013  0.5551
  235MPD1    N1 3575   1.001   4.144  11.047  0.1748 -0.3036 -0.4950
  235MPD1    H6 3576   0.961   4.142  10.953 -0.6841  1.7874 -0.1776
  235MPD1    H7 3577   1.036   4.053  11.078 -0.2411 -0.7373 -1.2806
  236MPD1     C 3578   0.664   0.783   9.889  0.5884  0.1640  0.3851
  236MPD1    C1 3579   0.542   0.755   9.948 -0.4957 -0.1171  0.6483
  236MPD1    C2 3580   0.554   0.656  10.046 -0.7795 -0.6370 -0.1181
  236MPD1    C3 3581   0.671   0.584  10.078 -0.1796 -0.1575 -0.2279
  236MPD1    C4 3582   0.788   0.615  10.005 -0.3127  1.0960  0.0272
  236MPD1    C5 3583   0.783   0.722   9.917 -0.1377  0.8928 -0.4796
  236MPD1     H 3584   0.463   0.631  10.100  0.0548 -0.9115  1.1589
  236MPD1    H1 3585   0.886   0.574  10.028 -1.0279  0.3954  1.9071
  236MPD1    H2 3586   0.667   0.856   9.809 -0.1078 -2.1883 -1.7997
  236MPD1    H3 3587   0.870   0.756   9.863 -0.3543  1.0447 -0.7355
  236MPD1     N 3588   0.676   0.490  10.182  0.3823  0.4229  0.1007
  236MPD1    H5 3589   0.763   0.441  10.201 -0.6608 -0.8174  1.7272
  236MPD1    N1 3590   0.431   0.841   9.951  0.2783 -0.2970  0.2635
  236MPD1    H6 3591   0.348   0.785   9.967  0.8794 -0.8186  1.5947
  236MPD1    H7 3592   0.427   0.877   9.856 -1.4087 -2.9453 -0.6521
  237MPD1     C 3593   0.432   4.233  15.092  0.0017  0.5607 -0.3438
  237MPD1    C1 3594   0.337   4.337  15.083 -0.0564  0.0521 -0.3747
  237MPD1    C2 3595   0.207   4.318  15.121 -0.0589 -0.1740 -0.0862
  237MPD1    C3 3596   0.164   4.194  15.178 -0.3372  0.1861 -0.1881
  237MPD1    C4 3597   0.262   4.094  15.194 -0.6617  0.1287 -0.8472
  237MPD1    C5 3598   0.389   4.116  15.145  0.1398  0.1349 -0.3936
  237MPD1     H 3599   0.140   4.402  15.106  0.3535  0.0247 -0.8177
  237MPD1    H1 3600   0.237   3.996  15.232  2.5725  0.0851  1.1419
  237MPD1    H2 3601   0.529   4.245  15.046 -0.0344  0.8830 -0.3313
  237MPD1    H3 3602   0.456   4.032  15.157 -1.9744 -1.6902 -1.4088
  237MPD1     N 3603   0.035   4.161  15.217  0.2739 -0.0033 -0.3283
  237MPD1    H5 3604   0.023   4.068  15.255  1.3103  0.0105  0.0586
  237MPD1    N1 3605   0.377   4.460  15.024 -0.1928 -0.3728 -0.8298
  237MPD1    H6 3606   0.477   4.474  15.013 -0.3382  0.9602 -0.4558
  237MPD1    H7 3607   0.342   4.545  15.068  3.2876  0.4169  0.3751
  238MPD1     C 3608   2.149   2.265  15.921 -0.1660 -0.1677  0.8431
  238MPD1    C1 3609   2.011   2.257  15.962  0.3679 -0.2371  0.3066
  238MPD1    C2 3610   1.904   2.251  15.869  1.0585  0.5095  0.3500
  238MPD1    C3 3611   1.933   2.241  15.740  0.7266  0.5285 -0.3086
  238MPD1    C4 3612   2.059   2.243  15.698  0.3863  0.1166 -0.0755
  238MPD1    C5 3613   2.171   2.256  15.784 -0.9802  0.5976 -0.1964
  238MPD1     H 3614   1.806   2.220  15.903  1.4482 -1.7360 -0.5577
  238MPD1    H1 3615   2.086   2.258  15.594  1.7861 -0.4390  0.2066
  238MPD1    H2 3616   2.227   2.281  15.994 -0.3442  1.2445  0.7241
  238MPD1    H3 3617   2.271   2.269  15.744 -0.5894  3.5402  1.7056
  238MPD1     N 3618   1.838   2.219  15.634  0.8744  0.5125  0.3994
  238MPD1    H5 3619   1.873   2.217  15.539 -3.0212  1.2932 -1.0232
  238MPD1    N1 3620   1.979   2.260  16.100 -0.0089  0.0471  0.7211
  238MPD1    H6 3621   1.992   2.163  16.128 -3.2735 -0.8617 -0.8634
  238MPD1    H7 3622   1.880   2.275  16.121 -0.3461 -3.7650  1.8331
  239MPD1     C 3623   1.910   3.382  15.072 -0.4499 -0.8526 -0.0212
  239MPD1    C1 3624   2.034   3.405  15.015 -0.0428  0.0056 -0.1853
  239MPD1    C2 3625   2.046   3.498  14.913  0.0052 -0.5745  0.0292
  239MPD1    C3 3626   1.946   3.597  14.896 -0.3424  0.3470 -0.1696
  239MPD1    C4 3627   1.827   3.576  14.966  0.0426 -0.6068 -0.2084
  239MPD1    C5 3628   1.809   3.470  15.048  0.0954  0.1500  0.3305
  239MPD1     H 3629   2.147   3.510  14.875 -0.5497  1.7767 -0.7062
  239MPD1    H1 3630   1.741   3.643  14.965  1.3178  1.0360 -0.3769
  239MPD1    H2 3631   1.894   3.305  15.146 -0.0163 -1.7754 -0.8919
  239MPD1    H3 3632   1.713   3.435  15.084 -0.9426  0.0381 -2.5316
  239MPD1     N 3633   1.950   3.703  14.805  0.5638 -0.3814  1.0903
  239MPD1    H5 3634   1.867   3.761  14.803  0.7166 -0.2464 -0.9287
  239MPD1    N1 3635   2.137   3.315  15.040  0.8568  0.1384 -0.9447
  239MPD1    H6 3636   2.229   3.353  15.020  0.8995 -0.1478 -1.2931
  239MPD1    H7 3637   2.142   3.269  15.131 -0.8410  2.9481  0.5541
  240MPD1     C 3638   1.468   2.842  13.183 -0.3205  0.4027  0.5818
  240MPD1    C1 3639   1.492   2.750  13.286  0.1395 -0.5546 -0.1689
  240MPD1    C2 3640   1.502   2.803  13.416  0.0758  0.0510 -0.1829
  240MPD1    C3 3641   1.458   2.937  13.449 -0.1620 -0.8085  0.7484
  240MPD1    C4 3642   1.422   3.017  13.347 -0.2581 -0.3689  0.0079
  240MPD1    C5 3643   1.440   2.972  13.216 -0.2514 -0.1695  0.6306
  240MPD1     H 3644   1.521   2.735  13.499 -2.8212  0.0048  0.4513
  240MPD1    H1 3645   1.396   3.123  13.346  0.4689 -0.1977 -0.7217
  240MPD1    H2 3646   1.461   2.812  13.080 -1.1169 -1.1109  1.0788
  240MPD1    H3 3647   1.397   3.031  13.136  0.3304  0.8877  1.0953
  240MPD1     N 3648   1.449   2.972  13.585  0.2256 -0.1411  0.0202
  240MPD1    H5 3649   1.471   2.897  13.650 -4.4590 -0.4742  1.2186
  240MPD1    N1 3650   1.496   2.613  13.269 -0.5655  0.3080 -0.0462
  240MPD1    H6 3651   1.529   2.556  13.347  0.0982  0.2194 -0.3964
  240MPD1    H7 3652   1.545   2.583  13.185  2.2891  0.6928  1.4926
  241MPD1     C 3653   1.738   2.720  14.483 -0.1466  0.4190 -0.2103
  241MPD1    C1 3654   1.734   2.665  14.362 -0.6023 -0.0936 -0.4745
  241MPD1    C2 3655   1.655   2.721  14.261  0.0144 -0.2143  0.0491
  241MPD1    C3 3656   1.595   2.844  14.286  0.5970 -0.0792  0.1979
  241MPD1    C4 3657   1.591   2.897  14.416  0.3269 -0.2539 -0.1741
  241MPD1    C5 3658   1.668   2.836  14.507  0.3416  0.9936  0.0645
  241MPD1     H 3659   1.651   2.673  14.164  0.6721 -1.4474  0.6349
  241MPD1    H1 3660   1.529   2.978  14.452  1.6116 -0.0843  1.7022
  241MPD1    H2 3661   1.794   2.687  14.569  1.5277  0.3508 -1.3319
  241MPD1    H3 3662   1.664   2.886  14.603 -2.7531 -1.8520  1.4401
  241MPD1     N 3663   1.530   2.918  14.182  0.3748 -0.3265 -0.2445
  241MPD1    H5 3664   1.478   3.001  14.208 -1.6409 -1.1213 -1.6809
  241MPD1    N1 3665   1.794   2.536  14.348 -0.1182 -0.3789  0.5109
  241MPD1    H6 3666   1.828   2.520  14.253  2.0809 -0.9009  1.3719
  241MPD1    H7 3667   1.881   2.526  14.400 -0.8756  1.0782  2.0526
  242MPD1     C 3668   0.464   1.328  15.844 -0.4293 -0.7813 -0.0718
  242MPD1    C1 3669   0.502   1.462  15.840  0.2032  0.3985 -0.6033
  242MPD1    C2 3670   0.611   1.494  15.755 -0.0840 -0.5752 -0.0195
  242MPD1    C3 3671   0.658   1.407  15.660  0.1099 -0.3384  0.1064
  242MPD1    C4 3672   0.600   1.282  15.651  0.0056 -0.0566  0.3155
  242MPD1    C5 3673   0.517   1.240  15.755 -0.0943  0.7403 -0.4568
  242MPD1     H 3674   0.638   1.598  15.766 -0.6039 -0.3386 -1.0180
  242MPD1    H1 3675   0.632   1.208  15.579  1.0297  1.5672 -0.8741
  242MPD1    H2 3676   0.384   1.293  15.907 -1.1173  0.1796 -0.4083
  242MPD1    H3 3677   0.488   1.135  15.757  0.1617  0.6945  1.1115
  242MPD1     N 3678   0.763   1.447  15.574 -0.8469 -0.1963  0.5986
  242MPD1    H5 3679   0.783   1.388  15.494 -0.9404 -0.5405  0.8271
  242MPD1    N1 3680   0.443   1.549  15.938 -0.1377 -0.7212  0.1415
  242MPD1    H6 3681   0.349   1.525  15.968 -0.3212 -0.0748  0.0882
  242MPD1    H7 3682   0.436   1.642  15.898  0.4318 -1.8748 -2.6749
  243MPD1     C 3683   1.758   4.428  17.573 -0.4277 -0.1138  0.2033
  243MPD1    C1 3684   1.806   4.306  17.616  0.4641 -0.0210  0.5215
  243MPD1    C2 3685   1.897   4.242  17.544 -0.2634  0.1929 -0.1301
  243MPD1    C3 3686   1.944   4.300  17.427  0.5867 -0.1540  0.1238
  243MPD1    C4 3687   1.884   4.414  17.379 -0.1625 -0.6228 -0.4397
  243MPD1    C5 3688   1.787   4.474  17.449 -0.0410  0.5475 -0.0246
  243MPD1     H 3689   1.952   4.157  17.582  1.3173  1.0833 -0.4460
  243MPD1    H1 3690   1.914   4.454  17.282 -1.8501 -0.7819 -1.0252
  243MPD1    H2 3691   1.689   4.479  17.640 -0.0350  1.3790 -0.5345
  243MPD1    H3 3692   1.753   4.569  17.410  1.2121  1.5725  1.4162
  243MPD1     N 3693   2.056   4.246  17.351 -0.2511 -0.1732 -0.3496
  243MPD1    H5 3694   2.103   4.163  17.384 -1.4069 -0.0455  1.5882
  243MPD1    N1 3695   1.755   4.266   0.044  0.3387  0.4818  0.2058
  243MPD1    H6 3696   1.663   4.302   0.067 -0.4861 -1.8051  0.4680
  243MPD1    H7 3697   1.768   4.170   0.076 -1.0710 -0.1556 -1.1423
  244MPD1     C 3698   2.593   3.417  17.262  0.3095  0.2507 -1.0133
  244MPD1    C1 3699   2.666   3.509  17.189  0.4008  0.2184  0.4838
  244MPD1    C2 3700   2.637   3.646  17.186  0.0936  0.3123  0.5978
  244MPD1    C3 3701   2.517   3.685  17.240 -0.0995  0.1143  0.2561
  244MPD1    C4 3702   2.438   3.595  17.308 -0.5642 -0.2577  0.0578
  244MPD1    C5 3703   2.480   3.463  17.319 -0.7941 -0.4231 -0.3694
  244MPD1     H 3704   2.697   3.716  17.129  1.6473 -2.8919 -1.7074
  244MPD1    H1 3705   2.346   3.617  17.362  0.4953  0.5192  1.5527
  244MPD1    H2 3706   2.611   3.311  17.276  0.0714  0.4200  0.5658
  244MPD1    H3 3707   2.417   3.391  17.370  1.6308 -2.9199 -0.9411
  244MPD1     N 3708   2.463   3.806  17.203  0.0700  0.3233  0.3872
  244MPD1    H5 3709   2.526   3.877  17.165 -0.0026 -0.1270 -0.5670
  244MPD1    N1 3710   2.761   3.454  17.097 -0.0779  0.1693 -0.0684
  244MPD1    H6 3711   2.830   3.525  17.072 -1.1419  0.8420 -1.1448
  244MPD1    H7 3712   2.807   3.371  17.134 -2.3164 -1.3103 -0.5842
  245MPD1     C 3713   4.406   1.092  13.251  0.4917 -0.3405 -0.0734
  245MPD1    C1 3714   4.375   1.212  13.186 -0.6507 -0.9493 -0.2270
  245MPD1    C2 3715   4.467   1.314  13.192  0.3125  0.2363 -0.6830
  245MPD1    C3 3716   4.586   1.294  13.257 -0.2653  0.3183  0.8050
  245MPD1    C4 3717   4.607   1.177  13.333 -0.0068  0.1697 -0.4130
  245MPD1    C5 3718   4.517   1.079  13.331 -0.2024 -0.9134 -0.2842
  245MPD1     H 3719   4.451   1.408  13.141  0.6081  0.5479 -0.2007
  245MPD1    H1 3720   4.696   1.165  13.394 -0.4563  0.3309  0.2716
  245MPD1    H2 3721   4.340   1.006  13.250 -0.1536  0.1497  1.5718
  245MPD1    H3 3722   4.524   0.982  13.379 -0.5948 -1.6389 -1.6901
  245MPD1     N 3723   4.677   1.405  13.259 -0.0276  0.1185  0.3001
  245MPD1    H5 3724   4.654   1.485  13.202 -2.5182 -0.4538  0.5220
  245MPD1    N1 3725   4.261   1.218  13.100 -0.2710 -0.2664 -0.0384
  245MPD1    H6 3726   4.200   1.156  13.154 -2.1654  0.0451 -1.8255
  245MPD1    H7 3727   4.228   1.313  13.090 -0.6397 -0.0408  3.2412
  246MPD1     C 3728   0.530   2.644  10.110 -1.2594  0.2046 -0.1039
  246MPD1    C1 3729   0.491   2.743  10.024  0.0739 -1.0284 -0.1552
  246MPD1    C2 3730   0.515   2.711   9.894  0.6320 -0.5836  0.2482
  246MPD1    C3 3731   0.537   2.580   9.851 -0.2706 -0.2344  0.8380
  246MPD1    C4 3732   0.559   2.481   9.947  1.0125  0.5177  0.4391
  246MPD1    C5 3733   0.570   2.517  10.072  0.3301  0.6009 -0.6816
  246MPD1     H 3734   0.515   2.791   9.821  0.6408 -0.0072  0.8800
  246MPD1    H1 3735   0.598   2.387   9.910 -0.7734 -0.2195  0.4344
  246MPD1    H2 3736   0.541   2.658  10.217 -0.3905  1.5444 -0.3674
  246MPD1    H3 3737   0.604   2.447  10.147 -0.5907  0.3347 -0.5010
  246MPD1     N 3738   0.544   2.554   9.712 -0.7909 -0.1457  0.8009
  246MPD1    H5 3739   0.535   2.633   9.648 -1.1368  1.4813  2.8481
  246MPD1    N1 3740   0.473   2.875  10.074  0.0788  0.9220  0.1888
  246MPD1    H6 3741   0.436   2.868  10.169  1.3408 -0.3118  0.5882
  246MPD1    H7 3742   0.415   2.920  10.004 -2.1103 -0.0159  1.3954
  247MPD1     C 3743   3.467   0.165  16.644 -0.0012 -0.3615 -0.1740
  247MPD1    C1 3744   3.568   0.100  16.718  0.6386  0.8933  0.2061
  247MPD1    C2 3745   3.686   0.082  16.639  0.2279 -0.0852  0.9379
  247MPD1    C3 3746   3.692   0.107  16.502  0.1410 -0.2330 -0.0553
  247MPD1    C4 3747   3.588   0.174  16.443 -0.7389  0.4888 -0.0774
  247MPD1    C5 3748   3.474   0.197  16.512 -0.0772 -0.5453 -0.3822
  247MPD1     H 3749   3.773   0.039  16.686  0.5170  1.0734  1.4550
  247MPD1    H1 3750   3.588   0.190  16.336  0.6090 -1.8601 -0.4362
  247MPD1    H2 3751   3.366   0.181  16.682 -0.1509  1.1470 -1.1897
  247MPD1    H3 3752   3.385   0.236  16.465 -2.2190 -3.9351  0.8010
  247MPD1     N 3753   3.803   0.068  16.421  0.3188  0.2661  0.1622
  247MPD1    H5 3754   3.808   0.094  16.323 -2.0204  0.8745  0.2055
  247MPD1    N1 3755   3.558   0.074  16.857  0.6161 -0.8502 -0.0186
  247MPD1    H6 3756   3.612   4.715  16.885 -0.1751 -1.7738 -1.1804
  247MPD1    H7 3757   3.468   0.078  16.905 -0.4620  1.5810 -2.2426
  248MPD1     C 3758   4.344   0.046  17.529  0.3372  0.0513  0.5789
  248MPD1    C1 3759   4.234   4.686  17.508 -0.0127 -0.4080  0.3843
  248MPD1    C2 3760   4.185   4.610  17.609 -0.0578 -0.1842  0.2856
  248MPD1    C3 3761   4.258   4.598   0.034  0.1207 -0.7475  0.5643
  248MPD1    C4 3762   4.370   4.674   0.057  0.0899  0.2647  1.0712
  248MPD1    C5 3763   4.409   0.036  17.647  0.0075 -0.5694  1.0421
  248MPD1     H 3764   4.092   4.557  17.591  1.2505 -2.4708  0.2931
  248MPD1    H1 3765   4.426   4.672   0.150  1.9916 -0.6288 -0.0876
  248MPD1    H2 3766   4.376   0.113  17.451  0.3647  1.1584  1.5393
  248MPD1    H3 3767   4.491   0.103  17.667 -0.7002  0.6403 -0.1000
  248MPD1     N 3768   4.209   4.510   0.129 -0.3372 -1.2503  0.5434
  248MPD1    H5 3769   4.128   4.458   0.096  0.7534 -2.5285 -0.1366
  248MPD1    N1 3770   4.148   4.704  17.394  0.3382 -0.1996 -0.4911
  248MPD1    H6 3771   4.099   4.615  17.388  0.8015 -0.6078  1.6960
  248MPD1    H7 3772   4.194   0.027  17.315  0.4059  1.5114  0.5335
  249MPD1     C 3773   1.729   3.807  10.785  0.2685  0.1222 -0.9697
  249MPD1    C1 3774   1.811   3.913  10.756  0.3310 -0.0602 -0.0831
  249MPD1    C2 3775   1.855   3.925  10.623  0.0637 -0.3540 -0.3867
  249MPD1    C3 3776   1.840   3.835  10.523  0.2294  0.6569  0.0015
  249MPD1    C4 3777   1.762   3.726  10.565  0.2549 -0.1886 -0.0870
  249MPD1    C5 3778   1.709   3.718  10.688  0.0200 -0.0787 -0.2392
  249MPD1     H 3779   1.905   4.019  10.603 -1.1810  0.4724  0.3524
  249MPD1    H1 3780   1.725   3.650  10.497  1.8736 -0.5720 -0.5415
  249MPD1    H2 3781   1.672   3.794  10.876  0.5859 -0.4749 -0.8589
  249MPD1    H3 3782   1.640   3.635  10.696  0.6686 -0.7780 -1.9234
  249MPD1     N 3783   1.883   3.856  10.394  0.1213  0.3975  0.1731
  249MPD1    H5 3784   1.928   3.945  10.378 -0.5715  0.2350 -2.7438
  249MPD1    N1 3785   1.832   4.020  10.849 -0.0600 -0.1574  0.6165
  249MPD1    H6 3786   1.825   3.995  10.947 -1.0635 -1.9811  0.0875
  249MPD1    H7 3787   1.894   4.095  10.821 -0.9473  0.0653 -0.7609
  250MPD2     C 3788   2.761   4.026  13.069  0.3523  0.9343 -0.3569
  250MPD2    C1 3789   2.757   4.142  12.998 -0.0504 -0.0807  0.1886
  250MPD2    C2 3790   2.708   4.136  12.869 -0.4373 -0.3528  0.5413
  250MPD2    C3 3791   2.663   4.021  12.815 -0.6415  0.2950  0.4731
  250MPD2    C4 3792   2.683   3.904  12.884  0.3556  0.6047 -0.9676
  250MPD2    C5 3793   2.734   3.905  13.009 -0.1088 -0.3363 -0.6878
  250MPD2     H 3794   2.709   4.223  12.803  1.2061  0.9339  2.2559
  250MPD2    H1 3795   2.648   3.811  12.840 -0.4751  1.7876 -2.8057
  250MPD2    H2 3796   2.794   4.017  13.172 -0.2327  0.6500 -0.1898
  250MPD2    H3 3797   2.728   3.815  13.070  0.3827 -0.0460 -0.2147
  250MPD2     N 3798   2.606   4.014  12.690 -0.4732 -0.4713 -0.0754
  250MPD2    H5 3799   2.593   3.923  12.647 -0.1491  0.2809 -1.7809
  250MPD2    N1 3800   2.813   4.265  13.053  0.0265 -0.6425  0.3992
  250MPD2    H7 3801   2.873   4.261  13.135 -0.1008  1.2517  0.5815
  251TMC3    C1 3802   2.834   4.488  13.083  0.4200 -0.3950 -0.2785
  251TMC3    C2 3803   2.763   4.601  13.106  0.3102  0.5348 -0.0174
  251TMC3    C3 3804   2.813   4.698  13.178  0.4247 -0.2487 -0.8728
  251TMC3    C4 3805   2.959   4.476  13.130  0.1403 -0.4907  0.4271
  251TMC3    C5 3806   3.007   4.579  13.205  0.0437  0.5678  0.5567
  251TMC3    C6 3807   2.930   4.692  13.236  0.4457 -0.5578  0.6298
  251TMC3     C 3808   2.779   4.383  13.005 -0.4043 -0.9787 -0.3203
  251TMC3     O 3809   2.677   4.414  12.941 -0.0904  0.8660 -0.0833
  251TMC3     H 3810   2.668   4.617  13.056  0.3382  2.0669  0.4114
  251TMC3    H1 3811   3.024   4.393  13.105  1.4550  1.0847 -1.4952
  251TMC3    H2 3812   2.972   0.051  13.294  0.7299 -1.5229  1.7922
  251TMC3    C7 3813   3.152   4.589  13.198  0.6458  0.1975 -1.0029
  251TMC3    C8 3814   2.732   0.083  13.227 -0.1071  0.3358  0.0702
  251TMC3    O1 3815   3.209   4.493  13.151  0.6003 -0.1256  0.3537
  251TMC3    O2 3816   2.787   0.182  13.272 -0.1689 -0.3076  0.2453
  252TMC3    C1 3817   3.472   0.178   9.019 -0.1235  0.0720  0.0259
  252TMC3    C2 3818   3.572   0.265   8.974  0.3831 -0.4931 -0.1331
  252TMC3    C3 3819   3.701   0.241   9.018 -0.4350  0.7155  0.5435
  252TMC3    C4 3820   3.505   0.072   9.105 -1.0374  0.3902 -0.7579
  252TMC3    C5 3821   3.633   0.050   9.138  1.0582  0.0297 -0.3493
  252TMC3    C6 3822   3.738   0.128   9.089  0.6591  0.4660 -0.0729
  252TMC3     C 3823   3.334   0.220   9.001 -0.2324  0.2024 -0.2127
  252TMC3     O 3824   3.309   0.333   8.964  0.0938  0.5321  0.0165
  252TMC3     H 3825   3.550   0.338   8.897  2.2153  0.6950  0.4662
  252TMC3    H1 3826   3.429   0.026   9.167  2.1284  0.2491  3.0133
  252TMC3    H2 3827   3.844   0.111   9.108  0.0165 -1.5186  1.7159
  252TMC3    C7 3828   3.669   4.664   9.224  0.3337 -0.9025 -0.5717
  252TMC3    C8 3829   3.801   0.332   8.972 -0.0088 -0.5461 -0.1760
  252TMC3    O1 3830   3.779   4.666   9.271 -0.6949 -0.2296 -0.5364
  252TMC3    O2 3831   3.784   0.375   8.856  0.3515  0.0894  0.0608
  253MPD2     C 3832   4.321   4.368  15.417  0.5623  0.1410  0.8425
  253MPD2    C1 3833   4.189   4.356  15.389 -0.4825  0.7300 -0.9388
  253MPD2    C2 3834   4.110   4.296  15.483 -0.6049  0.0762 -0.2788
  253MPD2    C3 3835   4.159   4.251  15.603  0.3199 -0.4328  0.4510
  253MPD2    C4 3836   4.297   4.263  15.628  0.2591  0.1426 -0.7804
  253MPD2    C5 3837   4.376   4.323  15.537 -0.3100  0.2123 -0.3818
  253MPD2     H 3838   4.005   4.284  15.458 -1.2957  2.2820  1.6269
  253MPD2    H1 3839   4.339   4.238  15.725  1.1075  1.7540 -0.7354
  253MPD2    H2 3840   4.388   4.424  15.354 -0.3032 -2.6707 -2.5308
  253MPD2    H3 3841   4.482   4.321  15.559  0.1876  0.2626 -2.7331
  253MPD2     N 3842   4.081   4.190  15.697 -0.2566  0.3099 -0.0289
  253MPD2    H5 3843   4.136   4.143  15.768  1.4470 -0.7529 -2.0320
  253MPD2    N1 3844   4.122   4.400  15.271 -0.2518 -0.4219 -0.3476
  253MPD2    H7 3845   4.025   4.370  15.271 -0.9177  1.6958  1.7016
  254TMC3    C1 3846   3.884   4.121  15.801  0.2081  0.3539 -0.0021
  254TMC3    C2 3847   3.758   4.162  15.837  0.0338  0.1747  0.5029
  254TMC3    C3 3848   3.698   4.102  15.938 -0.0493 -0.1981  0.7294
  254TMC3    C4 3849   3.951   4.018  15.860 -0.3697 -0.7959  0.4689
  254TMC3    C5 3850   3.878   3.955  15.964 -0.9233  0.9331  0.1874
  254TMC3    C6 3851   3.753   3.997  16.011 -0.5977 -0.3466  0.1325
  254TMC3     C 3852   3.945   4.197  15.697  0.4538 -0.2385 -0.1961
  254TMC3     O 3853   3.869   4.263  15.631 -0.0184 -0.5825  0.4131
  254TMC3     H 3854   3.708   4.247  15.791 -2.3764 -1.9951 -0.9020
  254TMC3    H1 3855   4.043   3.978  15.819 -1.2937  0.3378 -2.6407
  254TMC3    H2 3856   3.701   3.940  16.087 -1.7882 -0.2233 -0.5957
  254TMC3    C7 3857   3.935   3.847  16.040  0.8241  0.0066 -0.2948
  254TMC3    C8 3858   3.572   4.155  15.982  0.5308 -0.3145  1.0465
  254TMC3    O1 3859   4.054   3.855  16.077 -0.0899  0.2179  0.5572
  254TMC3    O2 3860   3.504   4.218  15.897 -0.0737 -0.1803 -0.1119
  255MPD2     C 3861   3.160   1.154   8.706 -0.3787  0.2592  0.1499
  255MPD2    C1 3862   3.120   1.270   8.643 -0.2266 -0.1784 -0.3914
  255MPD2    C2 3863   3.122   1.383   8.721 -0.1408 -0.0365 -0.6552
  255MPD2    C3 3864   3.189   1.390   8.847 -0.0119 -0.9178 -0.1253
  255MPD2    C4 3865   3.239   1.271   8.898  0.2011  0.4850 -0.4214
  255MPD2    C5 3866   3.219   1.163   8.827 -0.3292  0.0820 -0.4900
  255MPD2     H 3867   3.080   1.474   8.680 -1.7510 -0.2630  0.4682
  255MPD2    H1 3868   3.298   1.268   8.989 -0.2618  2.2639 -0.0617
  255MPD2    H2 3869   3.154   1.064   8.646  1.5017  0.8967 -0.9944
  255MPD2    H3 3870   3.256   1.070   8.870 -2.2379 -0.5035 -0.1043
  255MPD2     N 3871   3.204   1.517   8.905 -0.0218  0.0587  0.0697
  255MPD2    H5 3872   3.148   1.593   8.868 -0.9886  0.4327  2.2963
  255MPD2    N1 3873   3.066   1.254   8.518 -0.4956  0.0831  0.1010
  255MPD2    H7 3874   3.068   1.159   8.482  0.6375 -0.0627  0.5485
  256TMC3    C1 3875   2.909   1.306   8.345  0.1661  0.4290  0.5886
  256TMC3    C2 3876   2.862   1.417   8.270 -0.4406  0.1629  0.3177
  256TMC3    C3 3877   2.729   1.439   8.253  0.2881 -0.2725  0.4041
  256TMC3    C4 3878   2.819   1.222   8.396 -0.1258  0.1783  0.6446
  256TMC3    C5 3879   2.693   1.246   8.380 -0.1659  0.0647 -0.2278
  256TMC3    C6 3880   2.644   1.361   8.326  0.9612  0.0466 -0.6216
  256TMC3     C 3881   3.008   1.351   8.438 -0.0344 -0.2025  0.3713
  256TMC3     O 3882   3.010   1.470   8.453  0.2413  0.2231 -0.4769
  256TMC3     H 3883   2.937   1.487   8.237  0.6440 -1.7322 -1.2376
  256TMC3    H1 3884   2.862   1.136   8.447  1.5129  0.9279  0.5369
  256TMC3    H2 3885   2.537   1.378   8.321  0.7785 -1.2536 -1.0837
  256TMC3    C7 3886   2.606   1.182   8.479  0.5714  0.2494 -0.5136
  256TMC3    C8 3887   2.690   1.576   8.263 -0.2450 -0.9187  0.2784
  256TMC3    O1 3888   2.663   1.147   8.585 -0.5232  0.7004 -0.0336
  256TMC3    O2 3889   2.568   1.594   8.250  0.2983 -0.2415  0.2982
  257MPD2     C 3890   1.682   4.425  13.172 -0.0759  0.4952  0.4083
  257MPD2    C1 3891   1.643   4.303  13.118 -0.5589  0.3792 -0.0441
  257MPD2    C2 3892   1.658   4.185  13.193  0.3422 -0.8911 -0.0920
  257MPD2    C3 3893   1.712   4.196  13.322  0.3201  0.3606 -0.2022
  257MPD2    C4 3894   1.758   4.313  13.371 -0.0834 -0.5370  0.1256
  257MPD2    C5 3895   1.742   4.424  13.294  0.4667  0.6794 -0.7197
  257MPD2     H 3896   1.639   4.095  13.137  2.1876 -1.7220  0.6096
  257MPD2    H1 3897   1.803   4.319  13.469 -0.3578 -0.2694  0.2352
  257MPD2    H2 3898   1.665   4.516  13.116  0.1621  0.5404  0.4076
  257MPD2    H3 3899   1.761   4.515  13.350 -1.2732  0.0437  0.9183
  257MPD2     N 3900   1.738   4.065  13.382  0.5306 -0.4364 -0.0048
  257MPD2    H5 3901   1.716   3.989  13.319 -1.1383  0.5073 -0.5631
  257MPD2    N1 3902   1.575   4.301  12.990  0.8908  0.1955 -0.6371
  257MPD2    H7 3903   1.587   4.376  12.923  2.0559  0.0414 -0.5959
  258TMC3    C1 3904   1.807   3.904  13.550  0.6018  0.3193 -0.6318
  258TMC3    C2 3905   1.768   3.797  13.469 -0.4065  0.7167  0.2921
  258TMC3    C3 3906   1.833   3.679  13.484  0.7414  0.1024 -0.8083
  258TMC3    C4 3907   1.893   3.882  13.658  0.0149 -0.7474 -0.4228
  258TMC3    C5 3908   1.947   3.756  13.674  0.1995 -0.1143 -0.1572
  258TMC3    C6 3909   1.918   3.654  13.589  0.7537  0.2803 -0.3677
  258TMC3     C 3910   1.804   4.045  13.503  0.1319 -0.0776  0.0207
  258TMC3     O 3911   1.849   4.120  13.584  0.0758 -0.3897 -0.4901
  258TMC3     H 3912   1.698   3.802  13.387 -0.5721  1.4317  0.4773
  258TMC3    H1 3913   1.931   3.957  13.726 -0.5715 -1.6258  0.8782
  258TMC3    H2 3914   1.969   3.559  13.602  0.3540  0.3803  1.9773
  258TMC3    C7 3915   1.971   3.705  13.806  0.3762  0.2362  0.4325
  258TMC3    C8 3916   1.788   3.564  13.410 -0.0605  0.9924  0.5939
  258TMC3    O1 3917   2.035   3.604  13.821  0.0346 -0.1875 -0.0116
  258TMC3    O2 3918   1.777   3.465  13.480 -0.2795  0.7136  0.0570
  259MPD2     C 3919   4.508   4.253   1.219 -0.1978  0.5674 -0.6079
  259MPD2    C1 3920   4.566   4.383   1.237 -0.2223  0.4066 -0.5260
  259MPD2    C2 3921   4.687   4.407   1.171 -0.0172  0.3089  0.9035
  259MPD2    C3 3922   0.028   4.310   1.094  0.4081 -1.0774 -0.0619
  259MPD2    C4 3923   4.694   4.185   1.084  0.3040  0.7117  1.1285
  259MPD2    C5 3924   4.578   4.158   1.148  0.4044 -0.1613  1.1294
  259MPD2     H 3925   0.016   4.502   1.164  2.2841 -0.8866  1.5862
  259MPD2    H1 3926   0.006   4.112   1.012 -1.1706  0.7827  0.3311
  259MPD2    H2 3927   4.414   4.221   1.263 -0.7360  2.4422 -0.3702
  259MPD2    H3 3928   4.542   4.057   1.133 -0.9589  0.5036 -0.0780
  259MPD2     N 3929   0.150   4.357   1.032  0.8700 -0.3108  0.6807
  259MPD2    H5 3930   0.177   4.454   1.044  3.5972 -0.8026 -1.5835
  259MPD2    N1 3931   4.501   4.474   1.322 -0.2725 -0.6934 -0.0026
  259MPD2    H7 3932   4.413   4.448   1.365 -1.0949  0.5615 -0.9538
  260TMC3    C1 3933   0.361   4.346   0.908 -0.4606 -0.2221 -0.2621
  260TMC3    C2 3934   0.380   4.472   0.954 -0.1547 -0.0107  0.2637
  260TMC3    C3 3935   0.474   4.549   0.889  0.8900  0.3560 -0.2240
  260TMC3    C4 3936   0.417   4.299   0.793  0.3435 -0.0350 -0.2286
  260TMC3    C5 3937   0.509   4.377   0.725 -0.2092 -0.0281 -0.7505
  260TMC3    C6 3938   0.531   4.509   0.768 -0.5776 -0.6114  0.4739
  260TMC3     C 3939   0.232   4.282   0.949  1.1624  0.2588  0.1450
  260TMC3     O 3940   0.212   4.166   0.922  0.5897 -0.5356 -0.0758
  260TMC3     H 3941   0.342   4.506   1.050  3.0254  2.5441  0.6278
  260TMC3    H1 3942   0.400   4.199   0.756 -0.6033  0.2767 -0.6186
  260TMC3    H2 3943   0.595   4.576   0.712  0.2238 -0.9912  0.9376
  260TMC3    C7 3944   0.536   4.339   0.588  0.1926 -0.0633  0.3881
  260TMC3    C8 3945   0.473   4.685   0.932 -0.1407  0.7338 -0.7019
  260TMC3    O1 3946   0.520   4.220   0.559  0.5303 -0.4192 -0.0379
  260TMC3    O2 3947   0.375   4.714   0.995 -0.1507  0.0209  0.0600
  261MPD2     C 3948   1.932   4.303  12.249  0.4900 -0.1038  0.5437
  261MPD2    C1 3949   2.047   4.308  12.164  0.3992  0.4778 -0.2542
  261MPD2    C2 3950   2.043   4.366  12.041  0.0097  0.6594  0.6756
  261MPD2    C3 3951   1.928   4.435  12.000  0.2931  0.2169  0.6255
  261MPD2    C4 3952   1.820   4.441  12.081 -0.0230  0.2189  0.2279
  261MPD2    C5 3953   1.824   4.371  12.201 -0.0197 -0.9363 -0.4168
  261MPD2     H 3954   2.136   4.362  11.984  0.4154 -0.3913  1.4243
  261MPD2    H1 3955   1.724   4.486  12.057  0.6537  0.9219 -1.1366
  261MPD2    H2 3956   1.921   4.234  12.332  1.4542  0.4651  1.1467
  261MPD2    H3 3957   1.734   4.366  12.261 -0.2769  0.7392 -0.6670
  261MPD2     N 3958   1.936   4.492  11.874 -0.4376  0.3725  0.9901
  261MPD2    H5 3959   2.022   4.478  11.822 -0.9946  3.5021 -0.7797
  261MPD2    N1 3960   2.167   4.246  12.202 -0.5838  0.0586  0.5445
  261MPD2    H7 3961   2.235   4.224  12.129 -0.9012  0.3614  0.1558
  262TMC3    C1 3962   1.899   4.607  11.677  0.1056 -0.0405 -0.3473
  262TMC3    C2 3963   1.907   0.017  11.662 -0.5016  0.1234  0.1472
  262TMC3    C3 3964   1.977   0.072  11.553  0.0461  0.3274  0.1262
  262TMC3    C4 3965   1.962   4.522  11.592  0.5120 -0.2711 -0.4117
  262TMC3    C5 3966   2.027   4.568  11.487  0.7168  0.9340 -0.5446
  262TMC3    C6 3967   2.031   4.707  11.458  0.3090 -1.1393 -0.3023
  262TMC3     C 3968   1.840   4.563  11.803  0.1209  0.5811 -0.4913
  262TMC3     O 3969   1.748   4.620  11.855  0.7202  0.0241  0.1095
  262TMC3     H 3970   1.851   0.072  11.738 -2.0867  1.0952 -1.7191
  262TMC3    H1 3971   1.955   4.415  11.610  2.5469 -0.4611 -0.6719
  262TMC3    H2 3972   2.103   0.030  11.390 -1.0571  0.6833 -0.5236
  262TMC3    C7 3973   2.101   4.468  11.408 -0.5248  0.1648  0.3791
  262TMC3    C8 3974   1.986   0.209  11.534 -0.8619 -0.5235 -0.7866
  262TMC3    O1 3975   2.098   4.352  11.448 -0.5326  0.7398 -0.5184
  262TMC3    O2 3976   2.048   0.247  11.439 -0.0795 -0.2010 -0.2634
  263MPD2     C 3977   3.114   3.736  11.427  0.7029 -0.2693  0.0468
  263MPD2    C1 3978   3.248   3.749  11.385 -0.0442 -0.5614 -0.8777
  263MPD2    C2 3979   3.273   3.819  11.265 -0.1335  0.0094  0.3198
  263MPD2    C3 3980   3.165   3.869  11.187  0.3637  0.4922  0.1424
  263MPD2    C4 3981   3.033   3.848  11.222  0.5723  0.0598  0.3501
  263MPD2    C5 3982   3.012   3.785  11.341  0.6912  0.1065  0.1077
  263MPD2     H 3983   3.371   3.845  11.227 -0.7981  0.9770 -0.7490
  263MPD2    H1 3984   2.948   3.900  11.180  0.6335  0.7996  1.1421
  263MPD2    H2 3985   3.076   3.682  11.513 -0.9315 -1.2615 -1.2995
  263MPD2    H3 3986   2.912   3.775  11.383  1.9526 -3.2358  2.3352
  263MPD2     N 3987   3.198   3.946  11.070  0.0022  0.6129 -0.1234
  263MPD2    H5 3988   3.294   3.943  11.037 -0.4641  0.3582 -1.4806
  263MPD2    N1 3989   3.348   3.698  11.472  0.4307  0.4133 -0.0983
  263MPD2    H7 3990   3.315   3.665  11.562  0.9542 -1.7861 -0.7074
  264TMC3    C1 3991   3.173   4.120  10.903 -0.4726 -0.0796  0.4358
  264TMC3    C2 3992   3.146   4.251  10.930 -0.1467  0.0351 -0.4722
  264TMC3    C3 3993   3.244   4.350  10.912 -0.3681 -0.4353  0.0191
  264TMC3    C4 3994   3.294   4.094  10.847  0.1139  0.6786 -0.1363
  264TMC3    C5 3995   3.376   4.200  10.817  0.4951 -0.4018  0.0589
  264TMC3    C6 3996   3.366   4.322  10.859  0.8728  0.1119 -0.2776
  264TMC3     C 3997   3.108   4.028  10.993 -0.6112 -0.1030 -1.1590
  264TMC3     O 3998   2.989   4.044  11.009  0.3474 -0.3841 -0.4361
  264TMC3     H 3999   3.047   4.272  10.968  0.8377  1.6170  1.2452
  264TMC3    H1 4000   3.323   3.991  10.828  1.7187  1.1880 -0.4106
  264TMC3    H2 4001   3.432   4.404  10.829  0.1064  0.2818 -1.5288
  264TMC3    C7 4002   3.487   4.175  10.725 -0.4058 -0.3216  0.1824
  264TMC3    C8 4003   3.240   4.463  10.995  0.4840  0.6618  0.6282
  264TMC3    O1 4004   3.577   4.258  10.736 -0.5473  0.1995 -0.1460
  264TMC3    O2 4005   3.334   4.539  10.987  0.1245  0.3358  0.2755
  265MPD2     C 4006   0.340   3.816  15.498 -0.8994 -0.1623 -0.5790
  265MPD2    C1 4007   0.415   3.931  15.490 -0.0347  0.3173  0.1559
  265MPD2    C2 4008   0.533   3.932  15.406 -0.6042  0.5179  0.0109
  265MPD2    C3 4009   0.564   3.818  15.330 -0.9613  0.0311 -0.8351
  265MPD2    C4 4010   0.475   3.710  15.328  0.2244  0.5479 -0.6078
  265MPD2    C5 4011   0.372   3.716  15.418  0.2029 -0.3353 -0.2435
  265MPD2     H 4012   0.594   4.021  15.396  0.0075  0.1504  0.4794
  265MPD2    H1 4013   0.488   3.619  15.272  1.7000  1.8019 -2.2776
  265MPD2    H2 4014   0.242   3.810  15.544 -0.2648  2.4837  1.1107
  265MPD2    H3 4015   0.309   3.628  15.421 -1.8487  1.1154 -0.6517
  265MPD2     N 4016   0.678   3.811  15.244 -0.3477  0.0486 -0.3905
  265MPD2    H5 4017   0.688   3.716  15.209  2.5979  0.6654 -1.2221
  265MPD2    N1 4018   0.374   4.051  15.551 -0.4763 -1.2425  0.2097
  265MPD2    H7 4019   0.426   4.136  15.532 -2.3736 -0.1580 -0.1592
  266TMC3    C1 4020   0.259   4.207  15.651 -0.6022  0.1051  0.4269
  266TMC3    C2 4021   0.371   4.251  15.714 -0.6153 -0.0255 -0.2340
  266TMC3    C3 4022   0.357   4.386  15.756 -0.4427  0.2346 -0.3397
  266TMC3    C4 4023   0.150   4.292  15.626  0.2072 -0.1887 -1.1470
  266TMC3    C5 4024   0.151   4.424  15.661  0.2921 -0.3459  0.1249
  266TMC3    C6 4025   0.257   4.474  15.728 -0.2750  0.3114 -0.4976
  266TMC3     C 4026   0.254   4.072  15.608 -0.4825  0.2445 -0.2822
  266TMC3     O 4027   0.146   4.014  15.594 -0.0522  0.4809 -0.3777
  266TMC3     H 4028   0.448   4.182  15.745 -1.1423  0.0803  1.2832
  266TMC3    H1 4029   0.060   4.252  15.580 -1.0353  3.5789 -1.9850
  266TMC3    H2 4030   0.269   4.576  15.761 -1.2565  1.0913 -2.5414
  266TMC3    C7 4031   0.080   4.508  15.567  0.5088  0.7276  0.6469
  266TMC3    C8 4032   0.469   4.427  15.843  0.1593 -0.1125 -0.0072
  266TMC3    O1 4033   4.703   4.465  15.506 -0.3839  0.1961  0.1584
  266TMC3    O2 4034   0.572   4.356  15.835  0.4330 -0.4023 -0.7430
  267MPD2     C 4035   2.256   0.992  17.639 -0.4349 -0.1001 -0.0954
  267MPD2    C1 4036   2.228   0.882  17.561  0.7074  0.7873  0.1388
  267MPD2    C2 4037   2.262   0.878  17.425 -0.6669  0.1045  0.3117
  267MPD2    C3 4038   2.335   0.985  17.373  0.1317 -0.7937  0.2421
  267MPD2    C4 4039   2.373   1.085  17.452 -1.0091  0.4915 -0.0048
  267MPD2    C5 4040   2.327   1.095  17.582  0.0466 -0.3140 -0.2364
  267MPD2     H 4041   2.219   0.801  17.361 -1.8778  0.8282  0.2538
  267MPD2    H1 4042   2.436   1.162  17.409  0.0075  0.7854  1.9778
  267MPD2    H2 4043   2.221   0.983   0.048  0.5660  1.3084  0.3710
  267MPD2    H3 4044   2.352   1.175  17.650  1.7833 -1.1212  0.0696
  267MPD2     N 4045   2.385   0.984  17.244 -0.6288  0.3731 -0.3391
  267MPD2    H5 4046   2.445   1.061  17.216 -1.3931  0.8285 -0.7266
  267MPD2    N1 4047   2.175   0.768  17.627 -0.0167  0.0450 -0.0738
  267MPD2    H7 4048   2.159   0.781   0.033 -0.9801 -1.8181  0.0107
  268TMC3    C1 4049   2.155   0.538  17.667 -0.3247 -0.4455 -0.3157
  268TMC3    C2 4050   2.137   0.409  17.621 -0.1253 -0.0460  0.7874
  268TMC3    C3 4051   2.128   0.303   0.027 -0.0328  0.6313 -0.1853
  268TMC3    C4 4052   2.203   0.565   0.101 -0.1107 -0.4567  0.4004
  268TMC3    C5 4053   2.208   0.456   0.188 -0.8568  0.5528  0.0002
  268TMC3    C6 4054   2.157   0.331   0.161  0.5838 -0.6082 -0.0318
  268TMC3     C 4055   2.172   0.640  17.569  0.0043 -0.4053 -1.5169
  268TMC3     O 4056   2.211   0.598  17.457  0.2952 -0.8564 -0.2526
  268TMC3     H 4057   2.116   0.397  17.516  0.8986  0.3541  0.5360
  268TMC3    H1 4058   2.250   0.659   0.128 -0.6399 -0.2348  0.5430
  268TMC3    H2 4059   2.163   0.245   0.228  2.4227  0.6950  1.4963
  268TMC3    C7 4060   2.231   0.486   0.329  0.1275  0.1050  0.3444
  268TMC3    C8 4061   2.165   0.174  17.667 -0.5320  0.0756  0.2551
  268TMC3    O1 4062   2.174   0.584   0.367  0.7081  0.2617  0.3010
  268TMC3    O2 4063   2.122   0.078   0.040 -0.1834  0.4750  0.4867
  269MPD2     C 4064   3.243   4.370  15.699 -0.0789  0.2268 -0.6534
  269MPD2    C1 4065   3.133   4.417  15.761 -0.0558  0.0110 -0.2242
  269MPD2    C2 4066   3.091   4.551  15.744  0.9205  0.3824 -0.3904
  269MPD2    C3 4067   3.153   4.632  15.644 -0.4325 -0.4212 -0.4587
  269MPD2    C4 4068   3.270   4.580  15.585 -0.6997  0.1247 -0.1626
  269MPD2    C5 4069   3.317   4.449  15.613 -0.2797  0.1993 -0.2991
  269MPD2     H 4070   3.003   4.587  15.797  0.3408 -0.6141 -0.6827
  269MPD2    H1 4071   3.337   4.626  15.514 -0.6553 -1.4017 -1.1221
  269MPD2    H2 4072   3.271   4.266  15.713 -0.1812  0.4133  0.9248
  269MPD2    H3 4073   3.407   4.406  15.571  1.1097  2.3893  0.4393
  269MPD2     N 4074   3.105   0.039  15.622  0.2734 -0.3757 -0.2534
  269MPD2    H5 4075   3.046   0.074  15.697  0.2138 -1.1248  0.0439
  269MPD2    N1 4076   3.067   4.325  15.843 -0.2695  0.1787  0.2986
  269MPD2    H7 4077   3.112   4.234  15.834  0.0948  0.4868 -0.9216
  270TMC3    C1 4078   2.868   4.213  15.884 -0.3129  0.1920 -0.6005
  270TMC3    C2 4079   2.755   4.207  15.808  0.2403 -0.2333 -0.2316
  270TMC3    C3 4080   2.726   4.084  15.755 -0.0478  0.7957 -0.5359
  270TMC3    C4 4081   2.946   4.105  15.930 -0.6958  0.1551 -0.4042
  270TMC3    C5 4082   2.898   3.984  15.879  0.9033  0.3064 -0.8045
  270TMC3    C6 4083   2.798   3.970  15.787 -0.1198 -0.4080  0.5822
  270TMC3     C 4084   2.934   4.342  15.887 -0.1466 -0.3988 -0.2093
  270TMC3     O 4085   2.857   4.437  15.890 -0.8477  0.3108  0.0191
  270TMC3     H 4086   2.717   4.285  15.744 -0.4367  1.0930  1.7666
  270TMC3    H1 4087   3.031   4.115  15.996 -0.6914  0.9869 -0.5380
  270TMC3    H2 4088   2.766   3.877  15.740 -1.1276  1.4441 -2.3575
  270TMC3    C7 4089   3.005   3.881  15.872  0.4847  0.4153  0.2524
  270TMC3    C8 4090   2.696   4.094  15.612  0.4403  0.1168 -0.2463
  270TMC3    O1 4091   3.007   3.816  15.767  0.3869  0.6351 -0.0691
  270TMC3    O2 4092   2.764   4.170  15.547  0.5402 -0.5539  0.4350
  271MPD2     C 4093   2.432   4.548  14.045  0.2614  0.7278  1.0994
  271MPD2    C1 4094   2.358   4.435  14.045 -0.0698 -0.5043 -0.9104
  271MPD2    C2 4095   2.228   4.441  13.998  0.9115 -0.7602  0.1451
  271MPD2    C3 4096   2.171   4.552  13.951  0.2939 -0.1668 -0.3057
  271MPD2    C4 4097   2.244   4.671  13.952  0.3061 -0.7217  0.5349
  271MPD2    C5 4098   2.375   4.664  14.001  0.2193 -1.0621 -0.1400
  271MPD2     H 4099   2.165   4.352  13.994 -1.5803  0.9636  1.4176
  271MPD2    H1 4100   2.200   0.044  13.927 -1.5615 -2.5157 -2.9641
  271MPD2    H2 4101   2.528   4.552  14.094 -1.5383  1.5152  4.6099
  271MPD2    H3 4102   2.433   0.032  14.003  0.0919 -1.0304  2.0675
  271MPD2     N 4103   2.036   4.557  13.914 -0.2333  0.2056  0.1722
  271MPD2    H5 4104   1.995   4.644  13.883 -0.4954 -0.0281 -0.1433
  271MPD2    N1 4105   2.406   4.311  14.098  0.2829 -0.2671  0.2323
  271MPD2    H7 4106   2.338   4.236  14.109  0.9402 -1.2947 -2.7315
  272TMC3    C1 4107   2.563   4.163  14.179  0.8940  0.3267 -0.3008
  272TMC3    C2 4108   2.689   4.115  14.165 -0.0970  0.5240  0.3315
  272TMC3    C3 4109   2.741   4.046  14.271 -0.0062 -0.3018 -0.7427
  272TMC3    C4 4110   2.479   4.130  14.283  0.1498  0.2689  0.0257
  272TMC3    C5 4111   2.540   4.066  14.391 -0.3538  0.5135 -0.1767
  272TMC3    C6 4112   2.672   4.035  14.391  0.2623  0.2564  0.3629
  272TMC3     C 4113   2.540   4.294  14.123 -0.0440  0.0324  0.4578
  272TMC3     O 4114   2.636   4.346  14.072 -0.0877 -0.0552 -0.3400
  272TMC3     H 4115   2.746   4.145  14.078 -2.1678 -3.7352 -2.4644
  272TMC3    H1 4116   2.377   4.166  14.287  0.0362 -0.1296  0.7472
  272TMC3    H2 4117   2.718   4.007  14.485  0.2425 -2.1735 -0.3443
  272TMC3    C7 4118   2.475   4.089  14.518 -1.4843 -0.4222 -0.2134
  272TMC3    C8 4119   2.877   3.998  14.266  0.6802 -0.1855 -0.0052
  272TMC3    O1 4120   2.356   4.082  14.518  0.4388  0.7635  0.1738
  272TMC3    O2 4121   2.941   4.022  14.167  0.4324  0.0330  0.4114
  273MPD2     C 4122   3.935   2.534  11.710 -0.0181  0.3521 -0.4839
  273MPD2    C1 4123   3.996   2.654  11.686  0.1179  0.4882 -0.9157
  273MPD2    C2 4124   4.021   2.693  11.558  0.0002  0.4437  0.3168
  273MPD2    C3 4125   3.977   2.618  11.450  0.3614  0.2284  0.6260
  273MPD2    C4 4126   3.914   2.497  11.475  0.4721  0.3637 -0.0741
  273MPD2    C5 4127   3.891   2.460  11.605  0.7073 -0.2496 -0.1081
  273MPD2     H 4128   4.064   2.791  11.542 -0.4966  0.6262  0.0799
  273MPD2    H1 4129   3.879   2.430  11.397  0.7562  0.2620 -0.1162
  273MPD2    H2 4130   3.927   2.492  11.810 -0.8829  1.7130  0.0102
  273MPD2    H3 4131   3.839   2.367  11.626  1.4044 -0.4929  0.5300
  273MPD2     N 4132   3.996   2.662  11.321 -0.5390  0.8509 -0.2008
  273MPD2    H5 4133   3.944   2.609  11.251 -1.2115  2.6256 -1.0581
  273MPD2    N1 4134   4.034   2.737  11.796 -0.2942  0.6814  0.6643
  273MPD2    H7 4135   4.021   2.691  11.885  2.4916  2.2493  1.8652
  274TMC3    C1 4136   4.077   2.803  11.143 -0.3821 -0.6537 -0.0784
  274TMC3    C2 4137   3.958   2.774  11.075 -0.1763  0.1371  0.3096
  274TMC3    C3 4138   3.902   2.871  10.994  0.2590 -0.2852  0.6567
  274TMC3    C4 4139   4.132   2.926  11.133 -0.3235 -0.2826 -0.0383
  274TMC3    C5 4140   4.068   3.027  11.057  0.6980 -0.1803 -0.4012
  274TMC3    C6 4141   3.949   2.999  10.981 -0.1397 -0.0152 -0.6008
  274TMC3     C 4142   4.088   2.754  11.279  0.1717 -0.2429  0.5718
  274TMC3     O 4143   4.158   2.827  11.345 -0.0211  0.1427  0.0653
  274TMC3     H 4144   3.929   2.670  11.070  2.4693 -0.7238  2.9791
  274TMC3    H1 4145   4.228   2.953  11.177 -0.8216 -1.5201  1.7885
  274TMC3    H2 4146   3.879   3.078  10.957 -0.1345  0.8022  2.0426
  274TMC3    C7 4147   4.041   3.154  11.131 -0.7000  0.0448  0.2924
  274TMC3    C8 4148   3.764   2.850  10.950 -0.1075 -0.5191  0.2789
  274TMC3    O1 4149   3.925   3.186  11.145  0.2858  0.6597 -0.1624
  274TMC3    O2 4150   3.704   2.942  10.896  0.7459 -0.5951  0.6859
  275MPD2     C 4151   3.960   0.401  14.244 -0.0819 -1.1838 -0.1091
  275MPD2    C1 4152   3.898   0.470  14.343 -0.3108  0.0137  0.3342
  275MPD2    C2 4153   3.767   0.446  14.360 -0.0267  0.6565  0.3468
  275MPD2    C3 4154   3.697   0.361  14.276 -0.9502  0.0262  0.1994
  275MPD2    C4 4155   3.764   0.305  14.166 -0.2988  0.3179 -0.2927
  275MPD2    C5 4156   3.901   0.316  14.155 -0.1838  0.6519 -0.9848
  275MPD2     H 4157   3.725   0.511  14.435  0.0267 -0.3514  1.2569
  275MPD2    H1 4158   3.715   0.235  14.099  0.6467  0.7771 -1.4738
  275MPD2    H2 4159   4.065   0.422  14.227 -0.8406  1.0891 -2.0098
  275MPD2    H3 4160   3.957   0.264  14.078 -1.5377 -1.8988 -0.2533
  275MPD2     N 4161   3.563   0.323  14.295  0.6490 -0.4086  0.1931
  275MPD2    H5 4162   3.525   0.252  14.232  2.2089  0.7513 -2.0542
  275MPD2    N1 4163   3.958   0.569  14.427 -0.2402  0.2116  0.1109
  275MPD2    H7 4164   3.898   0.624  14.488 -2.1004 -0.9683 -0.6538
  276TMC3    C1 4165   4.117   0.712  14.539 -0.3293 -0.0903  0.0176
  276TMC3    C2 4166   3.994   0.751  14.590  0.6781  0.3928 -0.5909
  276TMC3    C3 4167   3.968   0.736  14.728 -0.3739  0.8444 -0.1292
  276TMC3    C4 4168   4.215   0.669  14.630 -0.4482 -0.7578 -0.0436
  276TMC3    C5 4169   4.196   0.685  14.764 -1.0604 -0.6622 -0.2138
  276TMC3    C6 4170   4.070   0.706  14.811  0.4281  0.9780  0.1440
  276TMC3     C 4171   4.091   0.607  14.430  0.6546  0.6301 -0.2654
  276TMC3     O 4172   4.188   0.543  14.389 -0.2241 -0.7953  0.4798
  276TMC3     H 4173   3.906   0.780  14.534  0.1153 -0.3901 -0.1039
  276TMC3    H1 4174   4.307   0.630  14.589 -2.2982 -2.5934 -2.4687
  276TMC3    H2 4175   4.063   0.721  14.918 -1.0168 -0.1684  0.2147
  276TMC3    C7 4176   4.293   0.641  14.857 -0.7731 -0.1856  0.3184
  276TMC3    C8 4177   3.838   0.686  14.758  0.5441  0.4537  0.4151
  276TMC3    O1 4178   4.320   0.722  14.946 -0.0594 -0.3024  0.1578
  276TMC3    O2 4179   3.749   0.706  14.673  0.2077 -0.3985 -0.2759
  277MPD2     C 4180   0.903   4.227  13.419 -0.0420  0.1850  0.4577
  277MPD2    C1 4181   0.761   4.218  13.416  0.4398  0.2035  0.0945
  277MPD2    C2 4182   0.694   4.166  13.525 -0.2923 -0.9669 -0.6769
  277MPD2    C3 4183   0.766   4.131  13.640 -0.4432  0.6014 -0.1014
  277MPD2    C4 4184   0.905   4.141  13.645 -0.4502  1.1208  0.7226
  277MPD2    C5 4185   0.970   4.187  13.532  0.2178 -0.9496  0.1574
  277MPD2     H 4186   0.586   4.154  13.525 -0.4855  0.9030  1.1757
  277MPD2    H1 4187   0.977   4.109  13.720 -2.5325 -0.5599  2.0151
  277MPD2    H2 4188   0.960   4.255  13.332  0.6452 -0.0173  0.8469
  277MPD2    H3 4189   1.077   4.203  13.532  0.1183 -0.3093  1.9596
  277MPD2     N 4190   0.688   4.085  13.746  0.0703  0.6363 -0.2626
  277MPD2    H5 4191   0.588   4.079  13.728  0.5245  0.0600 -2.6325
  277MPD2    N1 4192   0.693   4.268  13.301 -0.0202  0.7371 -0.0709
  277MPD2    H7 4193   0.758   4.309  13.235  0.1562  1.3485  0.4878
  278TMC3    C1 4194   0.628   3.984  13.934 -0.3048  0.3074 -0.0667
  278TMC3    C2 4195   0.612   3.849  13.923 -0.5167  0.1455  0.4699
  278TMC3    C3 4196   0.483   3.800  13.931 -0.4250 -0.5368 -0.0204
  278TMC3    C4 4197   0.533   4.070  13.968  0.2041  0.9571  0.1808
  278TMC3    C5 4198   0.411   4.019  13.993 -0.2413 -0.5372  0.2221
  278TMC3    C6 4199   0.384   3.889  13.959 -0.1470 -0.0063 -0.9608
  278TMC3     C 4200   0.735   4.032  13.858 -0.1544  0.7058  0.5497
  278TMC3     O 4201   0.838   3.969  13.866 -0.0507  0.3655 -0.4320
  278TMC3     H 4202   0.687   3.779  13.890  1.2158  2.0221  0.3929
  278TMC3    H1 4203   0.555   4.176  13.972  2.5747  0.4398  0.8858
  278TMC3    H2 4204   0.285   3.846  13.965  0.8889 -2.0838  1.0962
  278TMC3    C7 4205   0.310   4.099  14.057 -0.0502  0.1015 -0.6506
  278TMC3    C8 4206   0.437   3.677  13.872 -0.0444  0.4080 -0.4942
  278TMC3    O1 4207   0.349   4.198  14.125 -0.7382 -0.2122  0.2579
  278TMC3    O2 4208   0.322   3.666  13.828 -0.4828  0.1744 -0.0089
  279MPD2     C 4209   0.157   4.292   0.255  0.1508  0.1806  0.5138
  279MPD2    C1 4210   0.072   4.202   0.181  0.3245  0.3057  0.1443
  279MPD2    C2 4211   0.101   4.190   0.040  0.4226 -0.2871 -0.1796
  279MPD2    C3 4212   0.176   4.280  17.666 -0.1544 -0.7825  0.1356
  279MPD2    C4 4213   0.237   4.379   0.048 -0.1336 -1.0512  0.8647
  279MPD2    C5 4214   0.222   4.380   0.181 -0.1272  0.0504  0.4316
  279MPD2     H 4215   0.043   4.117  17.678 -3.0772  2.8805 -0.7746
  279MPD2    H1 4216   0.296   4.458   0.003 -3.5937  0.5124 -0.9531
  279MPD2    H2 4217   0.160   4.303   0.362 -0.8089  3.0862  0.2416
  279MPD2    H3 4218   0.266   4.460   0.239  1.1025 -1.4749  1.5844
  279MPD2     N 4219   0.189   4.281  17.525 -0.0288  0.4485 -0.3768
  279MPD2    H5 4220   0.229   4.364  17.482  1.0534  0.5176  0.7554
  279MPD2    N1 4221   4.708   4.117   0.255  0.4401  0.5777 -0.0319
  279MPD2    H7 4222   4.722   4.116   0.356  1.2932 -0.1501 -0.1552
  280TMC3    C1 4223   4.536   3.979   0.287  0.2002  0.7626  0.9007
  280TMC3    C2 4224   4.605   3.899   0.379  0.3344 -0.1488  0.7198
  280TMC3    C3 4225   4.529   3.839   0.475 -0.0485  0.5583  0.3532
  280TMC3    C4 4226   4.402   4.008   0.308 -0.3541 -0.6020 -0.0594
  280TMC3    C5 4227   4.339   3.951   0.407  0.4977  0.5106 -0.1232
  280TMC3    C6 4228   4.394   3.861   0.492  0.4759  0.4254 -0.3284
  280TMC3     C 4229   4.598   4.066   0.199  0.6488 -0.0700  0.3881
  280TMC3     O 4230   4.545   4.095   0.093  0.1627  0.2882 -0.0689
  280TMC3     H 4231   4.710   3.878   0.358  0.1262 -2.0432  1.5830
  280TMC3    H1 4232   4.346   4.077   0.247  1.6353  1.5992  0.5974
  280TMC3    H2 4233   4.337   3.801   0.562  0.1517  0.5490 -0.4856
  280TMC3    C7 4234   4.208   3.988   0.449 -0.4096  0.5779  0.0272
  280TMC3    C8 4235   4.578   3.718   0.526  0.1038  0.3296  0.3483
  280TMC3    O1 4236   4.200   3.974   0.569  0.6577  0.4926  0.0877
  280TMC3    O2 4237   4.499   3.624   0.542 -0.3233 -0.3276  0.1948
  281TMC3    C1 4238   3.513   4.416  13.473  0.5818  0.2112 -0.5083
  281TMC3    C2 4239   3.602   4.469  13.379  0.3376  0.0274 -0.9375
  281TMC3    C3 4240   3.599   4.421  13.250  0.7616  0.0394  0.1740
  281TMC3    C4 4241   3.410   4.335  13.427 -0.3856  0.7043  0.0286
  281TMC3    C5 4242   3.412   4.292  13.292  0.6353  0.0212 -0.0089
  281TMC3    C6 4243   3.513   4.331  13.210  0.3245  0.3627 -0.1153
  281TMC3     C 4244   3.491   4.485  13.600  0.7294 -0.3742  0.3206
  281TMC3     O 4245   3.406   4.434  13.675  0.5884 -0.0138 -0.0588
  281TMC3     H 4246   3.686   4.533  13.403  0.2666 -1.6989  3.8130
  281TMC3    H1 4247   3.336   4.298  13.497 -0.1793  0.6841  0.2326
  281TMC3    H2 4248   3.506   4.304  13.105 -1.3207 -0.8130  0.2877
  281TMC3    C7 4249   3.321   4.191  13.236  0.2698 -0.0368  0.1661
  281TMC3    C8 4250   3.685   4.481  13.147 -0.3735  0.1136  0.1526
  281TMC3    O1 4251   3.346   4.159  13.121  0.0065 -0.3033 -0.3420
  281TMC3    O2 4252   3.763   4.404  13.092  0.0940 -0.0678 -0.1623
  282MPD2     C 4253   0.523   1.150  15.209 -0.0085  0.9878 -0.2639
  282MPD2    C1 4254   0.423   1.247  15.224  0.3241 -0.1034  0.0541
  282MPD2    C2 4255   0.408   1.354  15.136 -0.4802 -0.1075 -0.8101
  282MPD2    C3 4256   0.493   1.358  15.024  0.7016  0.0147  0.1195
  282MPD2    C4 4257   0.584   1.255  15.007 -0.1062  0.0122  1.3892
  282MPD2    C5 4258   0.601   1.154  15.099  0.0973  1.2731  0.0374
  282MPD2     H 4259   0.338   1.434  15.156 -2.7103 -2.3791  0.4865
  282MPD2    H1 4260   0.648   1.260  14.919 -2.5707  0.9297 -0.3462
  282MPD2    H2 4261   0.536   1.067  15.278  0.8582 -0.4491 -2.1758
  282MPD2    H3 4262   0.676   1.078  15.084 -0.4914  1.0101 -1.4776
  282MPD2     N 4263   0.483   1.456  14.926 -0.0971  0.1610 -1.1997
  282MPD2    H5 4264   0.430   1.539  14.948 -2.2435 -1.3361 -0.6897
  282MPD2    N1 4265   0.332   1.243  15.338  0.1770  0.5112  0.2429
  282MPD2    H7 4266   0.259   1.314  15.342 -0.2762  0.0723 -0.2019
  283TMC3    C1 4267   0.216   1.166  15.534 -0.2440 -1.1799 -0.1952
  283TMC3    C2 4268   0.170   1.287  15.563 -0.6351  0.2683  0.0685
  283TMC3    C3 4269   0.083   1.301  15.670  0.0555  0.4389  0.0419
  283TMC3    C4 4270   0.179   1.054  15.602 -0.1968 -0.8361 -0.3256
  283TMC3    C5 4271   0.086   1.067  15.702  0.0634 -0.1885  0.1569
  283TMC3    C6 4272   0.044   1.197  15.745 -0.4763 -0.3157  0.8794
  283TMC3     C 4273   0.329   1.149  15.443  0.3302 -0.3294  0.4426
  283TMC3     O 4274   0.407   1.055  15.461 -0.8619 -0.2545  0.1914
  283TMC3     H 4275   0.234   1.361  15.517 -0.1193 -0.6488 -0.6933
  283TMC3    H1 4276   0.232   0.964  15.575  2.0519  0.1795  0.6445
  283TMC3    H2 4277   4.711   1.215  15.836  0.0955  2.1852  0.7450
  283TMC3    C7 4278   0.053   0.947  15.776 -0.1752 -0.5798 -0.0315
  283TMC3    C8 4279   0.073   1.435  15.730  0.9318 -0.3495 -0.9231
  283TMC3    O1 4280   0.006   0.974  15.888 -0.2074  0.6547 -0.0067
  283TMC3    O2 4281   0.045   1.430  15.850  0.0055  0.3886  0.4790
  284MPD2     C 4282   3.081   0.543  12.354  0.2513 -0.9615 -0.3855
  284MPD2    C1 4283   3.080   0.541  12.217 -0.4020  0.0692 -0.9110
  284MPD2    C2 4284   3.024   0.430  12.146 -0.6490 -0.2303 -0.3556
  284MPD2    C3 4285   2.966   0.329  12.214 -0.2595  0.1257  0.1232
  284MPD2    C4 4286   2.961   0.333  12.357  0.7499  0.0235 -0.1655
  284MPD2    C5 4287   3.009   0.443  12.418  0.3927 -0.5390  0.1425
  284MPD2     H 4288   3.022   0.439  12.038  0.0114  0.6926 -0.2951
  284MPD2    H1 4289   2.917   0.265  12.429  0.3369 -0.2095 -0.6375
  284MPD2    H2 4290   3.137   0.613  12.415  1.9299 -1.5796 -1.2200
  284MPD2    H3 4291   2.999   0.446  12.526  1.6140  0.4968  0.2346
  284MPD2     N 4292   2.922   0.209  12.149  0.7529  0.3253  0.4170
  284MPD2    H5 4293   2.966   0.201  12.058 -0.2605 -0.9623  0.0430
  284MPD2    N1 4294   3.160   0.635  12.142  0.0243 -0.0224  0.1660
  284MPD2    H7 4295   3.157   0.621  12.042  0.1230  2.3715 -0.1847
  285TMC3    C1 4296   3.260   0.833  12.077  0.4579 -0.2902  0.2696
  285TMC3    C2 4297   3.161   0.841  11.984  0.0573  0.6245 -0.4220
  285TMC3    C3 4298   3.165   0.949  11.896  0.5739 -0.7174  0.2222
  285TMC3    C4 4299   3.351   0.930  12.102  0.2228 -0.3343 -0.1559
  285TMC3    C5 4300   3.368   1.030  12.006 -0.2284  0.7364  0.2855
  285TMC3    C6 4301   3.281   1.040  11.900 -0.2234  0.0278  0.8482
  285TMC3     C 4302   3.231   0.744  12.190  0.3554  0.9929  0.1077
  285TMC3     O 4303   3.273   0.777  12.297 -0.2164  0.4907  0.3529
  285TMC3     H 4304   3.075   0.776  11.989  0.8728 -0.3177  1.1231
  285TMC3    H1 4305   3.424   0.915  12.180  0.5313  0.4341 -0.2942
  285TMC3    H2 4306   3.294   1.116  11.824  0.7705 -0.5860  0.4090
  285TMC3    C7 4307   3.505   1.077  11.971  0.3338  0.0693 -1.2311
  285TMC3    C8 4308   3.115   0.927  11.761 -0.1501  0.5640  0.0533
  285TMC3    O1 4309   3.510   1.179  11.901  0.0982  0.0119 -0.1032
  285TMC3    O2 4310   3.202   0.940  11.677 -0.0278  0.6544 -0.1434
  286MPD2     C 4311   3.531   3.343   1.922 -0.4263  0.1369 -0.0216
  286MPD2    C1 4312   3.499   3.281   1.810 -0.1098  0.3453  0.1282
  286MPD2    C2 4313   3.606   3.244   1.721 -0.4095 -0.6306 -0.1537
  286MPD2    C3 4314   3.738   3.271   1.759 -0.3679 -0.6385  0.2281
  286MPD2    C4 4315   3.761   3.327   1.886 -1.2971 -0.2040  0.1693
  286MPD2    C5 4316   3.659   3.358   1.968  0.2710  0.4321 -0.3348
  286MPD2     H 4317   3.583   3.201   1.624  0.8228 -0.0153 -0.7262
  286MPD2    H1 4318   3.858   3.348   1.929 -0.3445 -0.1378 -2.0422
  286MPD2    H2 4319   3.450   3.367   1.990  0.4715  0.8647  0.7807
  286MPD2    H3 4320   3.677   3.390   2.070 -1.4237  1.1370 -0.2552
  286MPD2     N 4321   3.847   3.241   1.674  0.0030 -0.7350  0.0367
  286MPD2    H5 4322   3.931   3.266   1.724 -1.9907  1.9720  2.0520
  286MPD2    N1 4323   3.362   3.243   1.772 -0.4350 -0.6350 -0.1736
  286MPD2    H7 4324   3.356   3.188   1.687  1.0217 -0.9175 -0.0865
  287TMC3    C1 4325   3.980   3.164   1.492  0.7601  0.3985  0.0192
  287TMC3    C2 4326   3.980   3.113   1.369  0.4842  0.1469  0.5942
  287TMC3    C3 4327   4.092   3.041   1.323  0.0684 -0.8403 -0.7909
  287TMC3    C4 4328   4.095   3.145   1.576 -0.2035 -0.3564 -0.6903
  287TMC3    C5 4329   4.197   3.066   1.541 -0.1630  0.0025  0.1125
  287TMC3    C6 4330   4.198   3.021   1.413  0.1194 -0.5953  0.1550
  287TMC3     C 4331   3.845   3.189   1.547  0.0786  0.1459  0.2859
  287TMC3     O 4332   3.752   3.166   1.472 -0.1711 -0.2508 -0.3693
  287TMC3     H 4333   3.892   3.119   1.305 -0.0055  0.3023  1.2808
  287TMC3    H1 4334   4.085   3.176   1.679  0.4744  0.3019 -0.8281
  287TMC3    H2 4335   4.286   2.968   1.377  1.3225  2.5135 -1.4485
  287TMC3    C7 4336   4.329   3.104   1.583  0.2227  0.3880  0.0223
  287TMC3    C8 4337   4.089   2.966   1.200 -0.4176 -0.3377 -0.5850
  287TMC3    O1 4338   4.345   3.219   1.612  0.0094 -0.4997 -0.4833
  287TMC3    O2 4339   4.166   2.874   1.203  0.2508  0.5368  0.0485
  288TMC3    C1 4340   1.200   3.782  14.323  0.1142  0.4000 -0.0072
  288TMC3    C2 4341   1.095   3.812  14.407 -1.2271  0.2836  0.3298
  288TMC3    C3 4342   1.041   3.936  14.418  0.2641  0.2215 -0.1444
  288TMC3    C4 4343   1.258   3.888  14.256 -0.0738 -0.2282 -0.4539
  288TMC3    C5 4344   1.212   4.017  14.274  0.2650  0.0732 -0.2624
  288TMC3    C6 4345   1.095   4.044  14.351 -0.8182 -0.4066 -0.0431
  288TMC3     C 4346   1.272   3.659  14.332 -0.1166  0.3658  0.1687
  288TMC3     O 4347   1.240   3.592  14.426 -0.8005 -0.0834 -0.0472
  288TMC3     H 4348   1.064   3.730  14.472 -1.1986 -1.4476 -1.8129
  288TMC3    H1 4349   1.331   3.867  14.179  0.8659 -1.1806  0.6994
  288TMC3    H2 4350   1.072   4.146  14.378 -3.1823 -0.9395 -0.0878
  288TMC3    C7 4351   1.307   4.126  14.255  0.5593 -0.0603 -0.0468
  288TMC3    C8 4352   0.934   3.966  14.516  0.0574  0.3948 -0.0855
  288TMC3    O1 4353   1.425   4.105  14.276 -0.9338 -0.4342 -0.6836
  288TMC3    O2 4354   0.921   4.081  14.552 -0.4343 -0.2399 -0.4776
  289MPD2     C 4355   1.033   3.273  14.333 -0.0982  0.2259 -0.6415
  289MPD2    C1 4356   1.018   3.230  14.205 -0.0358  0.3463  0.1320
  289MPD2    C2 4357   0.891   3.204  14.156  0.6222 -0.0084  0.1250
  289MPD2    C3 4358   0.783   3.223  14.242 -0.5319  0.9604  0.1967
  289MPD2    C4 4359   0.802   3.274  14.364 -0.5038 -0.8715 -0.4495
  289MPD2    C5 4360   0.930   3.303  14.407  0.3231 -0.7320  0.2099
  289MPD2     H 4361   0.872   3.169  14.055  0.2670 -1.5211  0.7091
  289MPD2    H1 4362   0.719   3.302  14.427  0.4848  0.1093  0.4256
  289MPD2    H2 4363   1.129   3.297  14.379  0.4529  2.2478 -2.8047
  289MPD2    H3 4364   0.953   3.349  14.503 -2.8199 -1.4611  1.3365
  289MPD2     N 4365   0.651   3.186  14.207  0.2130 -0.0838  0.0651
  289MPD2    H5 4366   0.580   3.218  14.271  0.9360 -2.1791  1.9267
  289MPD2    N1 4367   1.136   3.210  14.138  0.1566  0.0752 -0.5627
  289MPD2    H7 4368   1.226   3.219  14.183  0.0109 -0.2700 -0.2042
  290TMC3    C1 4369   0.477   3.103  14.069 -0.8995 -0.1906 -0.3219
  290TMC3    C2 4370   0.416   3.225  14.068 -0.9462  0.2788 -0.2494
  290TMC3    C3 4371   0.318   3.240  13.971  0.3808 -0.1646 -0.0612
  290TMC3    C4 4372   0.436   2.995  13.999 -0.3622 -0.3934 -1.1015
  290TMC3    C5 4373   0.327   3.007  13.918 -0.3216  0.3766  0.1108
  290TMC3    C6 4374   0.272   3.130  13.902  0.2942  0.1441  0.5701
  290TMC3     C 4375   0.615   3.103  14.106  0.1746 -0.1199  0.6993
  290TMC3     O 4376   0.688   3.045  14.031  0.0289  0.5237 -0.1366
  290TMC3     H 4377   0.457   3.306  14.127  1.6428 -2.1966  1.3217
  290TMC3    H1 4378   0.493   2.904  14.010  0.1068  0.3116  2.1727
  290TMC3    H2 4379   0.180   3.136  13.844 -1.0060 -0.0061  2.5989
  290TMC3    C7 4380   0.236   2.896  13.903  0.6344  0.4311 -0.0254
  290TMC3    C8 4381   0.221   3.353  13.988 -0.4894  0.0016 -0.6144
  290TMC3    O1 4382   0.119   2.902  13.862 -0.3917  0.5415  0.4110
  290TMC3    O2 4383   0.117   3.349  13.927  0.3224 -0.0764  0.0242
  291MPD2     C 4384   0.198   2.104   0.890 -0.2729  0.1073  0.6289
  291MPD2    C1 4385   0.179   1.999   0.795 -0.9197  0.0995 -0.1069
  291MPD2    C2 4386   0.215   2.015   0.663 -0.0993  0.0704  0.9854
  291MPD2    C3 4387   0.273   2.137   0.627  1.0868 -0.5134  0.0229
  291MPD2    C4 4388   0.294   2.237   0.717  0.2196 -0.9268 -0.0005
  291MPD2    C5 4389   0.269   2.219   0.852  0.4078 -0.1587  0.1219
  291MPD2     H 4390   0.202   1.932   0.593  0.9614  0.9392 -0.2528
  291MPD2    H1 4391   0.345   2.330   0.691  2.0691 -2.0265 -0.3210
  291MPD2    H2 4392   0.179   2.090   0.996 -0.4078  1.5826  0.7972
  291MPD2    H3 4393   0.287   2.303   0.919 -1.6878  0.0169  0.4699
  291MPD2     N 4394   0.299   2.161   0.489 -0.1116 -0.4356 -0.3436
  291MPD2    H5 4395   0.336   2.253   0.468 -1.8378  0.1049 -1.0443
  291MPD2    N1 4396   0.114   1.876   0.824  0.1144 -0.0727  0.5411
  291MPD2    H7 4397   0.113   1.803   0.754  2.7507  0.7438 -0.3387
  292TMC3    C1 4398   4.639   1.767   0.896  0.2585  0.3102 -0.8086
  292TMC3    C2 4399   4.563   1.704   0.990  0.6422 -0.3977 -0.5148
  292TMC3    C3 4400   4.449   1.642   0.958 -0.2508  0.1136 -1.5686
  292TMC3    C4 4401   4.596   1.776   0.766 -0.4779 -0.3055 -0.5640
  292TMC3    C5 4402   4.476   1.715   0.738  0.2763 -0.1449 -0.0294
  292TMC3    C6 4403   4.407   1.644   0.831  0.1843  1.1817 -0.3606
  292TMC3     C 4404   0.030   1.857   0.930 -0.5625  0.8263  0.5859
  292TMC3     O 4405   0.027   1.912   1.039 -0.2015 -0.1400  0.2394
  292TMC3     H 4406   4.593   1.708   1.094 -0.6062 -0.1757 -0.1579
  292TMC3    H1 4407   4.650   1.824   0.685  0.7953  2.2756  1.7953
  292TMC3    H2 4408   4.328   1.580   0.795  3.9797 -2.3049 -2.4360
  292TMC3    C7 4409   4.472   1.663   0.600 -0.3022 -0.4167 -0.1258
  292TMC3    C8 4410   4.386   1.562   1.063  0.0968  0.0392  0.2892
  292TMC3    O1 4411   4.571   1.626   0.545  0.3522 -0.0088  0.0309
  292TMC3    O2 4412   4.444   1.571   1.172  0.3221  0.2589  0.4648
  293MPD2     C 4413   1.911   4.237  12.687 -1.2161  1.2525  0.1764
  293MPD2    C1 4414   1.857   4.143  12.775  0.1505  0.6179  0.3871
  293MPD2    C2 4415   1.885   4.167  12.910  0.4771  0.2608  0.9902
  293MPD2    C3 4416   1.976   4.265  12.958  1.0360 -0.2882 -0.0888
  293MPD2    C4 4417   2.034   4.350  12.869 -0.3706 -0.2244  0.0524
  293MPD2    C5 4418   1.992   4.337  12.734 -0.0344 -0.5549 -0.1138
  293MPD2     H 4419   1.834   4.106  12.984  0.3135 -1.5074 -0.5865
  293MPD2    H1 4420   2.103   4.430  12.893  1.0710 -1.6227  0.5889
  293MPD2    H2 4421   1.876   4.248  12.585 -0.0997 -5.0698 -0.9267
  293MPD2    H3 4422   2.032   4.415  12.671  1.0895 -2.3363 -1.5936
  293MPD2     N 4423   1.997   4.284  13.101  0.2420  0.1236  0.7690
  293MPD2    H5 4424   1.942   4.219  13.158 -0.2940 -1.4591 -1.5640
  293MPD2    N1 4425   1.761   4.049  12.728  0.1657 -0.0823  0.2051
  293MPD2    H7 4426   1.756   4.055  12.627  2.2094  0.0498  0.1020
  294TMC3    C1 4427   1.575   3.901  12.712 -0.0667 -0.1374 -0.8642
  294TMC3    C2 4428   1.482   3.816  12.774  0.3471 -0.1201 -0.7297
  294TMC3    C3 4429   1.364   3.773  12.713  0.5750 -0.2173 -0.7556
  294TMC3    C4 4430   1.559   3.929  12.579 -0.5081  0.3693  0.0829
  294TMC3    C5 4431   1.437   3.891  12.519 -0.6407  1.1777 -0.0351
  294TMC3    C6 4432   1.343   3.807  12.579 -0.5642  0.4089  0.7069
  294TMC3     C 4433   1.683   3.950  12.791  0.2288 -0.3755  0.1451
  294TMC3     O 4434   1.685   3.913  12.910  0.2304  0.0407  0.4245
  294TMC3     H 4435   1.492   3.812  12.882  1.8115 -0.0403 -0.8701
  294TMC3    H1 4436   1.628   3.989  12.520  1.0995 -2.4603 -0.9540
  294TMC3    H2 4437   1.250   3.790  12.527 -0.1459  0.8709 -0.2004
  294TMC3    C7 4438   1.382   3.972  12.414 -0.3544  0.2252 -0.3951
  294TMC3    C8 4439   1.257   3.728  12.793 -0.3092  0.8855 -0.1574
  294TMC3    O1 4440   1.267   4.006  12.433  0.2208 -0.1215 -0.7191
  294TMC3    O2 4441   1.272   3.749  12.914  0.3366 -0.2007 -0.2561
  295MPD2     C 4442   1.518   1.972  17.651 -0.2102 -0.5622 -0.7227
  295MPD2    C1 4443   1.569   2.079   0.018  0.5243  0.3478  0.4878
  295MPD2    C2 4444   1.503   2.132   0.123 -0.2243  0.4953  1.0554
  295MPD2    C3 4445   1.390   2.066   0.186 -0.4839  0.0003  0.6972
  295MPD2    C4 4446   1.336   1.952   0.115 -0.7957 -0.5465  0.7092
  295MPD2    C5 4447   1.398   1.919  17.687  0.3510 -1.0626  0.2478
  295MPD2     H 4448   1.527   2.233   0.155  0.2447  0.5965  0.3721
  295MPD2    H1 4449   1.245   1.908   0.154 -0.4666 -1.8712 -0.0012
  295MPD2    H2 4450   1.566   1.926  17.566  1.4273 -1.0465  0.4527
  295MPD2    H3 4451   1.363   1.827  17.641 -0.5460  0.3974 -2.0092
  295MPD2     N 4452   1.329   2.108   0.307  0.5233  0.1767 -0.1037
  295MPD2    H5 4453   1.271   2.041   0.357  2.6015 -0.6610  1.2257
  295MPD2    N1 4454   1.689   2.157  17.658 -0.3095 -0.0609  0.1292
  295MPD2    H7 4455   1.713   2.239   0.021 -0.6558  0.7159 -0.8717
  296TMC3    C1 4456   1.290   2.240   0.494  0.4916  0.1625 -0.3264
  296TMC3    C2 4457   1.276   2.375   0.541 -0.6545  0.4173  0.3603
  296TMC3    C3 4458   1.239   2.390   0.671 -0.2854 -0.2673 -0.4529
  296TMC3    C4 4459   1.252   2.131   0.567 -0.1933  0.0232 -0.4531
  296TMC3    C5 4460   1.211   2.160   0.691  0.3108  0.1310  0.0981
  296TMC3    C6 4461   1.211   2.284   0.755 -0.6701 -0.0684 -0.0368
  296TMC3     C 4462   1.361   2.221   0.373  0.1157  0.1667 -0.4374
  296TMC3     O 4463   1.424   2.319   0.335  0.4994  0.2964 -0.3306
  296TMC3     H 4464   1.284   2.459   0.473  1.2540  0.2167  0.3386
  296TMC3    H1 4465   1.280   2.033   0.532  1.4495  0.5447 -0.6302
  296TMC3    H2 4466   1.163   2.299   0.852 -1.3335  0.2612 -0.4143
  296TMC3    C7 4467   1.126   2.050   0.731 -0.5011  0.4503  0.8467
  296TMC3    C8 4468   1.232   2.526   0.716 -0.6831 -0.3759  0.2116
  296TMC3    O1 4469   1.079   1.976   0.644  0.3616  0.2322  0.0124
  296TMC3    O2 4470   1.224   2.616   0.631 -0.1825  0.3784  0.3457
  297MPD2     C 4471   0.060   4.212  16.524 -0.2850 -0.1062 -0.4239
  297MPD2    C1 4472   4.721   4.249  16.401  0.5018  0.6363 -0.2098
  297MPD2    C2 4473   0.004   4.373  16.347  0.3714 -0.2331  0.1759
  297MPD2    C3 4474   0.078   4.468  16.409 -0.7679 -0.1146  0.2555
  297MPD2    C4 4475   0.145   4.438  16.530  0.1597  0.6376 -0.4637
  297MPD2    C5 4476   0.133   4.311  16.581 -0.2942  0.0576  0.0331
  297MPD2     H 4477   4.658   4.389  16.264 -1.1197 -2.9900  0.8787
  297MPD2    H1 4478   0.179   4.518  16.595 -0.8126  0.5341  0.1800
  297MPD2    H2 4479   0.078   4.112  16.564  2.6686  1.1775  1.4395
  297MPD2    H3 4480   0.176   4.285  16.677  0.7117 -0.3314 -0.5318
  297MPD2     N 4481   0.071   4.597  16.351  0.3299  0.3407 -0.0354
  297MPD2    H5 4482   0.029   4.607  16.259 -2.8937 -1.9068  1.2077
  297MPD2    N1 4483   4.632   4.162  16.332 -0.2661 -0.4854  0.0700
  297MPD2    H7 4484   4.575   4.201  16.258 -0.7945 -1.4824 -0.0597
  298TMC3    C1 4485   4.526   3.972  16.275  0.0268  0.7113  0.5213
  298TMC3    C2 4486   4.585   3.877  16.205  0.1702 -0.3940 -0.0339
  298TMC3    C3 4487   4.536   3.850  16.076  0.0787 -0.6752  0.1335
  298TMC3    C4 4488   4.418   4.042  16.228 -0.8325  0.8783 -0.6227
  298TMC3    C5 4489   4.370   4.010  16.107 -0.7964 -0.0604 -0.3551
  298TMC3    C6 4490   4.419   3.906  16.030 -0.8459 -0.5537 -0.2503
  298TMC3     C 4491   4.617   4.032  16.362 -0.6779  1.0730  0.1224
  298TMC3     O 4492   4.699   3.959  16.421 -0.1357 -0.1919 -0.3129
  298TMC3     H 4493   4.686   3.843  16.223  1.4370  2.4261 -1.8577
  298TMC3    H1 4494   4.372   4.120  16.288 -2.2342 -0.1039 -0.4288
  298TMC3    H2 4495   4.382   3.897  15.928  0.6494 -1.1597 -0.7394
  298TMC3    C7 4496   4.274   4.098  16.040 -0.4689  0.1514 -0.5020
  298TMC3    C8 4497   4.596   3.759  15.978 -0.6633 -0.3945  0.0736
  298TMC3    O1 4498   4.262   4.100  15.919 -0.3371  0.1051  0.6745
  298TMC3    O2 4499   4.586   3.781  15.857 -0.1998 -0.2056  0.0257
  299MPD2     C 4500   4.141   0.147  10.362 -0.4819 -0.3316 -0.2557
  299MPD2    C1 4501   4.264   0.195  10.394 -0.0705 -0.1723 -0.4902
  299MPD2    C2 4502   4.278   0.332  10.428  0.0706 -0.1465 -0.5652
  299MPD2    C3 4503   4.160   0.405  10.438  0.6697  0.2619  0.2847
  299MPD2    C4 4504   4.042   0.354  10.385  0.2034  0.3112  0.2486
  299MPD2    C5 4505   4.029   0.223  10.355 -0.2594  0.0192 -0.3559
  299MPD2     H 4506   4.370   0.386  10.444 -1.7922  3.4173 -1.9148
  299MPD2    H1 4507   3.956   0.419  10.396 -1.4283 -1.4692 -1.9270
  299MPD2    H2 4508   4.133   0.040  10.345  0.6223  0.0320 -3.0030
  299MPD2    H3 4509   3.931   0.184  10.325 -0.3642 -0.6485  0.8573
  299MPD2     N 4510   4.166   0.543  10.470  0.2363  0.0363 -0.5592
  299MPD2    H5 4511   4.077   0.591  10.455 -0.1508 -0.6010 -0.2880
  299MPD2    N1 4512   4.372   0.100  10.396  0.0014  0.0700  0.3262
  299MPD2    H7 4513   4.346   0.002  10.389  0.7149 -0.1311  0.5273
  300TMC3    C1 4514   4.249   0.758  10.563  0.1255 -0.1218  0.1226
  300TMC3    C2 4515   4.353   0.804  10.639 -0.1612 -0.8564  0.3939
  300TMC3    C3 4516   4.336   0.896  10.740  0.0413 -0.3993 -0.6061
  300TMC3    C4 4517   4.125   0.813  10.571  0.2135  0.3903 -0.1877
  300TMC3    C5 4518   4.108   0.905  10.675 -0.0058 -0.6814 -0.4388
  300TMC3    C6 4519   4.211   0.960  10.751 -0.8630 -0.1945  0.4819
  300TMC3     C 4520   4.266   0.613  10.542 -0.0783 -0.4134 -0.3357
  300TMC3     O 4521   4.357   0.562  10.610 -0.7824 -0.4412 -0.2507
  300TMC3     H 4522   4.448   0.754  10.627 -0.8022 -1.9637 -0.0421
  300TMC3    H1 4523   4.040   0.770  10.518 -1.8874  3.9163  0.3055
  300TMC3    H2 4524   4.190   1.014  10.842 -0.2639 -0.5646  0.8421
  300TMC3    C7 4525   3.979   0.960  10.698  0.2365 -0.7591 -0.1239
  300TMC3    C8 4526   4.429   0.880  10.850 -0.0970 -0.8805 -0.6588
  300TMC3    O1 4527   3.975   1.070  10.748  0.0812 -0.2921  0.4304
  300TMC3    O2 4528   4.528   0.810  10.827 -0.7242  0.6909  0.0013
  301MPD2     C 4529   1.610   0.029   1.630  0.5717 -0.3001  0.1844
  301MPD2    C1 4530   1.705   0.106   1.566  0.1699  0.0769 -0.9080
  301MPD2    C2 4531   1.803   0.034   1.498  0.3899  0.1352  0.6862
  301MPD2    C3 4532   1.826   4.620   1.512 -0.0617  0.3651  0.4048
  301MPD2    C4 4533   1.729   4.554   1.588  0.4486 -0.0908 -0.0309
  301MPD2    C5 4534   1.622   4.617   1.647 -0.1716  0.7428 -0.0077
  301MPD2     H 4535   1.869   0.088   1.431  1.5429 -3.8868 -1.4177
  301MPD2    H1 4536   1.735   4.446   1.594 -0.5911 -0.2303 -1.4053
  301MPD2    H2 4537   1.526   0.068   1.687  0.4969  0.7730 -0.6696
  301MPD2    H3 4538   1.552   4.558   1.705  0.6210  0.4083  0.6060
  301MPD2     N 4539   1.925   4.551   1.432  0.4342  0.2588 -0.1439
  301MPD2    H5 4540   1.934   4.451   1.443 -0.8738 -0.0296 -1.6510
  301MPD2    N1 4541   1.695   0.241   1.537 -0.7681 -0.3551  0.1943
  301MPD2    H7 4542   1.763   0.279   1.471  0.4909 -1.1198  1.0483
  302TMC3    C1 4543   2.113   4.529   1.282 -0.0117 -0.1328  0.5740
  302TMC3    C2 4544   2.167   4.428   1.355 -0.1502 -0.4135 -0.3074
  302TMC3    C3 4545   2.281   4.368   1.307 -0.6333 -0.3661 -0.1427
  302TMC3    C4 4546   2.167   4.567   1.163 -0.0771 -0.5321 -0.6847
  302TMC3    C5 4547   2.278   4.498   1.118 -0.4151 -0.4579  0.1062
  302TMC3    C6 4548   2.343   4.401   1.189 -0.0966  0.4699  0.1031
  302TMC3     C 4549   2.011   4.615   1.344 -0.3830 -0.2462 -0.0529
  302TMC3     O 4550   2.012   0.006   1.296  0.2564 -0.0003 -0.5722
  302TMC3     H 4551   2.116   4.395   1.445  2.1198 -3.3335 -0.1173
  302TMC3    H1 4552   2.111   4.643   1.109 -0.2475 -0.6739 -0.7092
  302TMC3    H2 4553   2.434   4.356   1.150  0.5561  0.9744  1.0386
  302TMC3    C7 4554   2.301   4.479   0.979  0.5069 -0.7669  0.5381
  302TMC3    C8 4555   2.322   4.238   1.357 -0.5732  0.5679  0.1484
  302TMC3    O1 4556   2.360   4.380   0.939  0.3104  0.2303 -0.3723
  302TMC3    O2 4557   2.423   4.193   1.299  0.5558  0.2594  0.5466
  303MPD2     C 4558   2.157   3.516  10.138 -0.1203  0.2337  0.2936
  303MPD2    C1 4559   2.127   3.388  10.099  0.4794  0.1515 -0.4297
  303MPD2    C2 4560   2.147   3.352   9.966 -0.6617  0.1078  0.3543
  303MPD2    C3 4561   2.197   3.445   9.877 -0.4053  0.5989 -0.7354
  303MPD2    C4 4562   2.235   3.569   9.921  0.6218 -0.6762 -0.1582
  303MPD2    C5 4563   2.222   3.598  10.054 -0.0665 -0.1017  0.4172
  303MPD2     H 4564   2.113   3.255   9.931  0.8046 -0.6165  0.8996
  303MPD2    H1 4565   2.274   3.643   9.853 -0.7618 -2.2386 -2.6450
  303MPD2    H2 4566   2.147   3.553  10.240 -1.1762  1.0282 -0.1018
  303MPD2    H3 4567   2.247   3.699  10.082 -2.0348  0.5776 -0.3222
  303MPD2     N 4568   2.202   3.437   9.735 -0.6495 -0.2348 -0.5633
  303MPD2    H5 4569   2.212   3.525   9.685  1.9327 -0.9028 -1.2103
  303MPD2    N1 4570   2.063   3.301  10.196  0.2172  0.4328  0.2596
  303MPD2    H7 4571   2.015   3.356  10.266  0.7656  2.3229 -0.8535
  304TMC3    C1 4572   1.977   3.097  10.298 -0.6750 -0.2754  0.5374
  304TMC3    C2 4573   1.844   3.136  10.312 -0.4037  0.1653  0.3771
  304TMC3    C3 4574   1.754   3.060  10.365  0.2951 -0.6888  0.9032
  304TMC3    C4 4575   2.000   2.963  10.318 -0.1294  0.1154 -0.3887
  304TMC3    C5 4576   1.907   2.879  10.370  0.0059 -0.3349 -0.2401
  304TMC3    C6 4577   1.782   2.932  10.398 -0.6106  0.4382  0.3015
  304TMC3     C 4578   2.044   3.162  10.185 -0.4246 -0.5941 -0.6755
  304TMC3     O 4579   2.107   3.094  10.106  0.5457  0.2202  0.2039
  304TMC3     H 4580   1.822   3.233  10.268  3.2298  0.8760  0.1811
  304TMC3    H1 4581   2.097   2.917  10.298  0.0199  0.4261 -0.3833
  304TMC3    H2 4582   1.709   2.884  10.463 -0.0386 -0.1332  0.5206
  304TMC3    C7 4583   1.903   2.751  10.299 -1.0244 -0.2293  0.3662
  304TMC3    C8 4584   1.624   3.060  10.294 -0.4111 -0.2619  0.3220
  304TMC3    O1 4585   2.004   2.684  10.284  0.4762  0.4099 -0.0885
  304TMC3    O2 4586   1.576   2.949  10.277 -0.4623  0.1311 -0.0556
  305MPD2     C 4587   0.436   0.770  14.122  0.2220 -0.0912 -0.2504
  305MPD2    C1 4588   0.469   0.905  14.109  0.5331 -0.7302 -0.0722
  305MPD2    C2 4589   0.464   0.961  13.988  0.0293  0.5422 -0.1009
  305MPD2    C3 4590   0.420   0.882  13.877  0.7107 -0.2415 -0.7697
  305MPD2    C4 4591   0.383   0.751  13.894  0.5295  0.0251  0.0742
  305MPD2    C5 4592   0.395   0.693  14.016 -0.1751 -0.1702  0.3454
  305MPD2     H 4593   0.491   1.065  13.975  0.5418  0.3074 -0.9666
  305MPD2    H1 4594   0.338   0.700  13.809  0.5523  2.4949 -1.4362
  305MPD2    H2 4595   0.436   0.734  14.225 -0.5394  0.6513  0.0156
  305MPD2    H3 4596   0.358   0.592  14.031  1.5232 -0.8370  0.1542
  305MPD2     N 4597   0.401   0.941  13.746  0.2464  0.2038 -0.1333
  305MPD2    H5 4598   0.362   0.892  13.666 -0.3824  0.2328  0.1554
  305MPD2    N1 4599   0.521   0.972  14.222  0.2164 -0.0356  0.2646
  305MPD2    H7 4600   0.525   0.915  14.305  0.7400 -1.0814 -0.4858
  306TMC3    C1 4601   0.660   1.108  14.339  0.2908 -0.2470 -1.1070
  306TMC3    C2 4602   0.685   1.003  14.423 -0.5273  0.2141 -0.0534
  306TMC3    C3 4603   0.743   1.028  14.540  0.1462 -0.2619  0.0475
  306TMC3    C4 4604   0.698   1.238  14.367  0.4047 -0.7672  0.2913
  306TMC3    C5 4605   0.769   1.252  14.480 -0.2353  0.5579  0.0004
  306TMC3    C6 4606   0.780   1.155  14.572 -0.2363  0.4161 -0.5940
  306TMC3     C 4607   0.594   1.089  14.219  0.1208  0.7996  0.5501
  306TMC3     O 4608   0.582   1.177  14.134 -0.6176 -0.1434  0.0335
  306TMC3     H 4609   0.665   0.903  14.388  1.2415  0.3204 -1.3846
  306TMC3    H1 4610   0.684   1.318  14.295  0.9817  2.1205  3.4247
  306TMC3    H2 4611   0.832   1.179  14.664 -1.5354  0.7263  0.0596
  306TMC3    C7 4612   0.845   1.371  14.504 -0.0402 -0.0763 -0.2018
  306TMC3    C8 4613   0.824   0.924  14.611 -0.3016 -0.4381 -0.0318
  306TMC3    O1 4614   0.903   1.414  14.406 -0.0521 -0.1131  0.2642
  306TMC3    O2 4615   0.907   0.961  14.693 -0.0970 -0.6675  0.0153
  307MPD2     C 4616   2.577   2.851   0.661 -0.6788 -0.0149 -0.2610
  307MPD2    C1 4617   2.569   2.988   0.670  0.0125 -0.0259 -0.0241
  307MPD2    C2 4618   2.467   3.046   0.737  0.0927  0.2070 -0.4420
  307MPD2    C3 4619   2.359   2.972   0.786 -0.1550 -0.6351 -0.0620
  307MPD2    C4 4620   2.370   2.832   0.761 -0.7730  0.0584 -0.0656
  307MPD2    C5 4621   2.474   2.773   0.701  0.1354  0.8562  0.0611
  307MPD2     H 4622   2.468   3.154   0.750  0.2043  0.3900 -1.9900
  307MPD2    H1 4623   2.286   2.771   0.796 -0.5372  1.0184  2.1649
  307MPD2    H2 4624   2.662   2.795   0.622 -1.6473 -0.7345 -1.3664
  307MPD2    H3 4625   2.479   2.665   0.693 -2.8017  0.6400  1.0088
  307MPD2     N 4626   2.249   3.039   0.842 -1.0485  0.0990  0.2100
  307MPD2    H5 4627   2.261   3.140   0.838  0.3824  0.0083  2.2175
  307MPD2    N1 4628   2.659   3.071   0.600  0.1309  0.4616  0.2786
  307MPD2    H7 4629   2.624   3.165   0.588  0.6924  0.4592 -1.3697
  308TMC3    C1 4630   1.813   3.159   0.804  0.0614  0.5987  0.4500
  308TMC3    C2 4631   1.831   3.283   0.859 -0.6493  0.0689 -0.3500
  308TMC3    C3 4632   1.950   3.303   0.913 -0.6369  0.1893 -0.6879
  308TMC3    C4 4633   1.911   3.067   0.789 -0.4671  0.3864  0.3966
  308TMC3    C5 4634   2.030   3.098   0.850 -0.2968 -0.3272 -0.4051
  308TMC3    C6 4635   2.055   3.220   0.906 -0.0385  0.1991  0.1965
  308TMC3     C 4636   1.687   3.139   0.737 -0.2486 -0.6280 -0.1125
  308TMC3     O 4637   1.656   3.023   0.728 -0.0783 -0.5243 -0.5608
  308TMC3     H 4638   1.749   3.354   0.864  0.7633  1.5103  2.0376
  308TMC3    H1 4639   1.884   2.974   0.740 -0.8845  0.6975  0.0456
  308TMC3    H2 4640   2.148   3.243   0.957  0.8418 -2.7547 -0.0887
  308TMC3    C7 4641   2.128   2.988   0.860  0.3632 -0.1286  0.3020
  308TMC3    C8 4642   1.960   3.416   1.013  0.2443  0.9021  0.1208
  308TMC3    O1 4643   2.089   2.870   0.842 -0.1069 -0.0727  0.6112
  308TMC3    O2 4644   1.855   3.451   1.068  0.7895  0.2651 -0.1628
  309MPD2     C 4645   1.976   3.937  17.084 -0.2596 -0.0216 -0.4253
  309MPD2    C1 4646   1.971   4.030  16.979  0.0109 -0.5410  0.3321
  309MPD2    C2 4647   1.871   4.123  16.995  0.0632 -0.4403  0.0897
  309MPD2    C3 4648   1.777   4.107  17.096 -0.5851  0.0531 -0.1481
  309MPD2    C4 4649   1.774   3.997  17.181 -0.6862  0.7449 -0.3704
  309MPD2    C5 4650   1.874   3.910  17.169  0.3795 -0.5538  0.0792
  309MPD2     H 4651   1.872   4.215  16.938  0.2882 -0.2527  0.3967
  309MPD2    H1 4652   1.704   3.977  17.261  1.5409  0.6860  1.5645
  309MPD2    H2 4653   2.062   3.872  17.098 -0.0838 -0.1205 -1.9929
  309MPD2    H3 4654   1.882   3.827  17.238  3.1282 -0.3151  0.0401
  309MPD2     N 4655   1.678   4.202  17.122  0.0895  0.1500  0.6045
  309MPD2    H5 4656   1.608   4.180  17.192  1.4042 -0.4819  1.7053
  309MPD2    N1 4657   2.060   4.038  16.869 -0.3181  0.0476  0.1396
  309MPD2    H7 4658   2.049   4.115  16.804  1.8474 -0.2909 -0.6304
  310TMC3    C1 4659   2.236   3.964  16.726  0.0278  0.0870 -0.8695
  310TMC3    C2 4660   2.218   4.066  16.637  0.4288  0.4842  0.6996
  310TMC3    C3 4661   2.310   4.077  16.539 -0.4320 -0.7023  0.3552
  310TMC3    C4 4662   2.342   3.877  16.713 -0.1196 -0.0864  1.2792
  310TMC3    C5 4663   2.424   3.884  16.607 -0.2663 -0.2204 -0.2720
  310TMC3    C6 4664   2.407   3.985  16.518 -0.1165 -0.3881  0.7411
  310TMC3     C 4665   2.161   3.948  16.851  0.5215 -0.0650 -0.8799
  310TMC3     O 4666   2.200   3.860  16.922 -0.3397 -0.4639  0.2837
  310TMC3     H 4667   2.140   4.142  16.643  0.3238  0.4208  0.1052
  310TMC3    H1 4668   2.341   3.792  16.781  3.2819  0.0922  1.5357
  310TMC3    H2 4669   2.450   3.980  16.418  0.8903 -0.8751  1.1968
  310TMC3    C7 4670   2.513   3.771  16.577 -0.0339  0.5086  0.5760
  310TMC3    C8 4671   2.309   4.189  16.452 -0.7019 -0.6741 -0.2707
  310TMC3    O1 4672   2.503   3.682  16.663 -0.6737  0.3424  0.0417
  310TMC3    O2 4673   2.200   4.231  16.428  0.0587  0.4080  0.0230
  311MPD2     C 4674   4.416   0.705  12.973  0.4360  0.4155 -0.0037
  311MPD2    C1 4675   4.415   0.842  12.964  0.0297 -0.3709 -0.0428
  311MPD2    C2 4676   4.295   0.914  12.961 -0.0075 -0.8451 -0.1467
  311MPD2    C3 4677   4.178   0.847  12.978 -0.8209 -0.4269 -0.6158
  311MPD2    C4 4678   4.179   0.704  12.981 -0.5203  0.1585  0.1479
  311MPD2    C5 4679   4.302   0.640  12.985 -0.2932 -0.3181 -0.3544
  311MPD2     H 4680   4.285   1.020  12.940 -1.3703 -1.1029 -0.7554
  311MPD2    H1 4681   4.083   0.654  12.989 -0.7265  0.6220  0.6701
  311MPD2    H2 4682   4.510   0.651  12.977 -1.5649 -3.0671 -0.2455
  311MPD2    H3 4683   4.298   0.532  12.993 -2.6218 -0.0966  1.5986
  311MPD2     N 4684   4.060   0.928  12.985 -0.0896  0.3162  0.3604
  311MPD2    H5 4685   4.080   1.025  12.963 -1.0548  0.2937 -0.6318
  311MPD2    N1 4686   4.540   0.910  12.956  0.2607  0.2104  0.2763
  311MPD2    H7 4687   4.531   1.011  12.950  0.0492  0.1864  0.2129
  312TMC3    C1 4688   3.849   1.008  13.029  0.0565  0.9794  0.1334
  312TMC3    C2 4689   3.725   0.997  12.976 -0.0735  0.0736  0.5302
  312TMC3    C3 4690   3.652   1.113  12.963 -0.1778 -0.0560 -0.0506
  312TMC3    C4 4691   3.900   1.126  13.072  0.0884  0.2249  0.6654
  312TMC3    C5 4692   3.817   1.235  13.064  0.6325  1.6479 -0.1682
  312TMC3    C6 4693   3.700   1.234  13.001  0.5793 -0.4632  0.5604
  312TMC3     C 4694   3.933   0.888  13.026 -0.4422  0.1453 -0.2207
  312TMC3     O 4695   3.876   0.783  13.042  0.7777  0.3250  0.4277
  312TMC3     H 4696   3.686   0.896  12.969  0.6379 -0.4226  3.7675
  312TMC3    H1 4697   3.997   1.132  13.120  0.8607 -0.6368 -0.7956
  312TMC3    H2 4698   3.637   1.322  12.991 -0.4272 -0.8288  3.7210
  312TMC3    C7 4699   3.874   1.367  13.089  0.0922 -0.8597 -0.0339
  312TMC3    C8 4700   3.517   1.103  12.924 -0.5061  0.4427  0.6760
  312TMC3    O1 4701   3.827   1.462  13.022 -0.2984  0.2123  0.1271
  312TMC3    O2 4702   3.466   0.993  12.940 -0.3106  0.6580  0.0870
  313MPD2     C 4703   4.615   0.673  10.367 -0.1094  0.2250  0.2102
  313MPD2    C1 4704   4.517   0.758  10.315  0.5042 -0.1901 -0.0327
  313MPD2    C2 4705   4.421   0.706  10.229 -0.2848  0.0624  0.0483
  313MPD2    C3 4706   4.423   0.572  10.190 -0.0410  0.6912 -0.0967
  313MPD2    C4 4707   4.523   0.494  10.236  0.0907 -0.7403 -0.2967
  313MPD2    C5 4708   4.613   0.537  10.328  0.4213  0.1747 -0.5837
  313MPD2     H 4709   4.343   0.763  10.180  1.1788  0.8998 -1.3318
  313MPD2    H1 4710   4.537   0.393  10.198 -0.2870 -0.9789  0.1913
  313MPD2    H2 4711   4.681   0.705  10.447  0.9006  2.2348 -1.4465
  313MPD2    H3 4712   4.690   0.466  10.357 -0.1953  0.2837  1.3721
  313MPD2     N 4713   4.321   0.522  10.104 -0.8181  0.1079  0.0511
  313MPD2    H5 4714   4.250   0.591  10.079  1.9246  2.4106 -1.3735
  313MPD2    N1 4715   4.509   0.899  10.352 -0.2867  0.4481 -0.0908
  313MPD2    H7 4716   4.439   0.954  10.304 -0.8004 -0.5249 -0.4607
  314TMC3    C1 4717   4.540   1.101  10.478 -0.1175  0.3602  0.8589
  314TMC3    C2 4718   4.566   1.150  10.606 -0.1456  0.1222  0.5084
  314TMC3    C3 4719   4.525   1.278  10.628 -0.1233 -0.4363  0.3195
  314TMC3    C4 4720   4.466   1.166  10.383 -0.1771  0.6572  0.0810
  314TMC3    C5 4721   4.428   1.299  10.420 -0.0513  0.4277  0.3422
  314TMC3    C6 4722   4.452   1.359  10.539  0.3154  0.1948 -0.4548
  314TMC3     C 4723   4.583   0.966  10.453  0.4654 -0.1986 -0.5190
  314TMC3     O 4724   4.678   0.928  10.520  0.7419  0.3459 -0.3683
  314TMC3     H 4725   4.617   1.088  10.678  1.1336 -0.3244 -0.7665
  314TMC3    H1 4726   4.451   1.124  10.283  0.2840  1.7245 -0.4349
  314TMC3    H2 4727   4.425   1.460  10.564 -2.2243 -0.7983  0.7636
  314TMC3    C7 4728   4.350   1.379  10.326  0.2571 -0.7993  0.1601
  314TMC3    C8 4729   4.551   1.338  10.754 -0.2410  0.1390  0.4618
  314TMC3    O1 4730   4.333   1.500  10.346 -0.9634 -0.3162 -0.3371
  314TMC3    O2 4731   4.463   1.415  10.790 -0.1391  0.1707  0.1755
  315MPD2     C 4732   3.488   3.336  17.495  0.1379 -0.1071  0.1008
  315MPD2    C1 4733   3.577   3.403  17.580 -0.0095  0.4652  0.3036
  315MPD2    C2 4734   3.564   3.539  17.591  0.5832 -0.2218  0.3676
  315MPD2    C3 4735   3.473   3.610  17.520 -0.1836 -0.7345  0.4417
  315MPD2    C4 4736   3.373   3.538  17.443  0.3425  0.7115 -0.6994
  315MPD2    C5 4737   3.381   3.402  17.433 -0.6373 -0.0532 -0.0956
  315MPD2     H 4738   3.625   3.593  17.663  0.1956 -1.7646  1.8742
  315MPD2    H1 4739   3.284   3.583  17.402  0.4431  0.6713 -0.9645
  315MPD2    H2 4740   3.486   3.228  17.489 -1.1016 -0.0516 -0.6703
  315MPD2    H3 4741   3.321   3.351  17.360  0.0266  1.3081 -1.5971
  315MPD2     N 4742   3.465   3.749  17.534 -0.3502 -0.1931  0.6369
  315MPD2    H5 4743   3.528   3.794  17.600  1.7058 -1.3857 -0.5343
  315MPD2    N1 4744   3.678   3.337  17.649  0.0926  0.2806  0.7328
  315MPD2    H7 4745   3.742   3.391   0.013  0.9466 -0.6200  0.6293
  316TMC3    C1 4746   3.431   3.958  17.481 -0.3389 -0.1763 -0.5682
  316TMC3    C2 4747   3.444   3.988  17.614 -0.2994  0.3069 -0.2949
  316TMC3    C3 4748   3.535   4.090  17.643  0.3199 -0.4358 -0.6369
  316TMC3    C4 4749   3.481   4.039  17.388  0.4319  0.4550 -0.1308
  316TMC3    C5 4750   3.570   4.136  17.419 -0.1681  0.5017 -0.0010
  316TMC3    C6 4751   3.612   4.150  17.549 -0.3490 -0.7087  0.2872
  316TMC3     C 4752   3.401   3.825  17.441  0.0439 -0.0448  0.4716
  316TMC3     O 4753   3.364   3.803  17.325 -0.3918 -0.0156 -0.3529
  316TMC3     H 4754   3.374   3.949  17.686  1.3806 -0.1889  1.0565
  316TMC3    H1 4755   3.466   4.009  17.285 -0.6219  0.4533  0.0228
  316TMC3    H2 4756   3.679   4.230  17.578 -0.8524 -1.3199  3.1660
  316TMC3    C7 4757   3.676   4.139  17.318 -0.0787  0.3092 -0.5395
  316TMC3    C8 4758   3.574   4.082   0.087  0.3162 -0.5550 -0.1936
  316TMC3    O1 4759   3.783   4.086  17.349 -0.3726 -1.0991  0.1477
  316TMC3    O2 4760   3.490   4.047   0.164  0.4241 -0.2013  0.4289
  317MPD2     C 4761   0.576   2.955  13.261 -0.0142 -0.2362 -0.1782
  317MPD2    C1 4762   0.530   2.826  13.240  0.7521  0.7698 -0.1503
  317MPD2    C2 4763   0.579   2.726  13.326  0.5751 -0.0961  0.3333
  317MPD2    C3 4764   0.664   2.759  13.434  0.6051  0.5263  0.4678
  317MPD2    C4 4765   0.699   2.886  13.457 -0.1736 -0.1432  0.0123
  317MPD2    C5 4766   0.658   2.984  13.368  0.7415  0.3246 -0.3037
  317MPD2     H 4767   0.548   2.624  13.304  0.5716  0.6055 -2.9015
  317MPD2    H1 4768   0.759   2.921  13.540 -0.5918  0.6416 -0.0175
  317MPD2    H2 4769   0.534   3.041  13.210 -0.7998 -0.0999  0.7029
  317MPD2    H3 4770   0.682   3.089  13.374 -0.7938  0.6381  0.4667
  317MPD2     N 4771   0.705   2.656  13.516 -0.9014 -0.4548 -0.0917
  317MPD2    H5 4772   0.672   2.562  13.494 -1.0623 -0.5077  0.3805
  317MPD2    N1 4773   0.463   2.777  13.126  0.5802  0.0792  0.0735
  317MPD2    H7 4774   0.469   2.677  13.111 -0.3089 -0.2092  1.7032
  318TMC3    C1 4775   0.844   2.523  13.630  0.3333  0.3181  0.1044
  318TMC3    C2 4776   0.861   2.450  13.512  0.1262 -0.7805 -0.0069
  318TMC3    C3 4777   0.961   2.362  13.502  0.2164  0.0993 -0.3196
  318TMC3    C4 4778   0.937   2.506  13.731 -0.1010 -1.1845 -0.9620
  318TMC3    C5 4779   1.031   2.406  13.719 -0.8992  0.0130  0.4596
  318TMC3    C6 4780   1.043   2.328  13.608  0.8059  0.0574 -0.6762
  318TMC3     C 4781   0.790   2.657  13.621 -0.3375  0.6560 -0.2769
  318TMC3     O 4782   0.853   2.750  13.663  0.1333 -0.0372  0.3709
  318TMC3     H 4783   0.816   2.477  13.418  0.7253 -0.5491 -0.2286
  318TMC3    H1 4784   0.929   2.562  13.824 -1.7304 -2.4235 -0.3557
  318TMC3    H2 4785   1.094   2.234  13.621  1.1536  0.2328 -0.7747
  318TMC3    C7 4786   1.136   2.395  13.817  0.5479 -0.4929 -0.4179
  318TMC3    C8 4787   0.961   2.270  13.390 -0.1863 -1.0095  0.3566
  318TMC3    O1 4788   1.096   2.387  13.932  0.1791  0.0703  0.0232
  318TMC3    O2 4789   1.056   2.193  13.371 -0.1098  0.7947  0.0712
  319MPD2     C 4790   1.012   4.190  16.719  0.5518  0.4241 -0.2558
  319MPD2    C1 4791   0.983   4.059  16.762  0.0566  0.3928  0.3795
  319MPD2    C2 4792   0.865   3.999  16.709 -0.4843 -0.2554  0.4178
  319MPD2    C3 4793   0.780   4.064  16.622  0.8568 -0.1004 -0.4135
  319MPD2    C4 4794   0.807   4.198  16.596  0.1076 -1.3369  0.2933
  319MPD2    C5 4795   0.923   4.259  16.639  0.4514  0.8189  0.0204
  319MPD2     H 4796   0.845   3.897  16.739  1.5070 -0.6448  0.4003
  319MPD2    H1 4797   0.734   4.247  16.533  1.4045  0.7033  0.3897
  319MPD2    H2 4798   1.103   4.236  16.755 -0.1643  1.3633  0.3875
  319MPD2    H3 4799   0.943   4.365  16.628 -1.2412  1.2233  0.8561
  319MPD2     N 4800   0.671   4.011  16.551  0.2731  0.1447 -0.2756
  319MPD2    H5 4801   0.614   4.074  16.495 -1.7538  0.4089  2.0656
  319MPD2    N1 4802   1.067   3.992  16.865  0.5528  0.5715  0.0223
  319MPD2    H7 4803   1.027   3.906  16.900  1.1453  0.3663  0.1856
  320TMC3    C1 4804   0.571   3.846  16.412  0.8356  0.4655 -0.5511
  320TMC3    C2 4805   0.606   3.916  16.297  1.1879  0.2484  0.6322
  320TMC3    C3 4806   0.602   3.850  16.174  0.7953  0.4726 -0.4506
  320TMC3    C4 4807   0.524   3.716  16.398 -0.6828 -0.1270  0.3733
  320TMC3    C5 4808   0.531   3.654  16.275 -0.1146 -0.6470  0.3612
  320TMC3    C6 4809   0.563   3.718  16.160 -0.4882 -0.0626 -0.7620
  320TMC3     C 4810   0.650   3.874  16.533 -0.6933 -0.5401  0.6049
  320TMC3     O 4811   0.695   3.787  16.596  0.3900 -0.6088  0.1613
  320TMC3     H 4812   0.648   4.017  16.296  0.9959  0.2679 -2.5412
  320TMC3    H1 4813   0.529   3.669  16.495  0.8565 -0.3316  0.1923
  320TMC3    H2 4814   0.545   3.659  16.070 -0.5980 -1.0755 -0.0802
  320TMC3    C7 4815   0.505   3.509  16.270 -0.2938 -0.1034 -0.0811
  320TMC3    C8 4816   0.635   3.942  16.060 -0.1072  0.2386 -0.4067
  320TMC3    O1 4817   0.565   3.439  16.188 -0.2076 -0.0840  0.2810
  320TMC3    O2 4818   0.634   4.063  16.081 -0.6023 -0.4724  0.9506
  321TMC3    C1 4819   1.214   3.975  17.052 -0.1185  0.6189  0.4051
  321TMC3    C2 4820   1.161   3.847  17.084  0.1598 -0.1783 -0.1606
  321TMC3    C3 4821   1.163   3.805  17.211 -0.3484 -0.1884 -0.2454
  321TMC3    C4 4822   1.282   4.039  17.152  0.2798  0.3626 -0.8157
  321TMC3    C5 4823   1.270   4.007  17.278  0.3251 -0.9307 -0.2424
  321TMC3    C6 4824   1.203   3.893  17.307 -0.3837 -0.9669 -0.1419
  321TMC3     C 4825   1.178   4.043  16.934 -0.9101  0.2635  0.4281
  321TMC3     O 4826   1.243   4.149  16.913  0.1381 -0.6630  0.0248
  321TMC3     H 4827   1.118   3.784  17.007  1.8420  0.6248 -1.7551
  321TMC3    H1 4828   1.344   4.125  17.128 -0.6423  1.0042 -0.8553
  321TMC3    H2 4829   1.187   3.866  17.410 -0.1132  0.7454  0.3521
  321TMC3    C7 4830   1.391   4.034  17.355  0.2807 -0.7068 -0.3897
  321TMC3    C8 4831   1.198   3.669  17.246 -0.2596 -0.2979  0.0686
  321TMC3    O1 4832   1.446   4.143  17.357  0.5350  0.1223  0.4084
  321TMC3    O2 4833   1.254   3.656  17.353 -0.6910 -0.2983  0.2991
  322MPD2     C 4834   0.769   0.609  13.250  0.3354 -0.3253 -0.5895
  322MPD2    C1 4835   0.739   0.556  13.367 -0.3489  0.0673  0.4654
  322MPD2    C2 4836   0.694   0.427  13.365 -0.1870 -1.0489 -0.3080
  322MPD2    C3 4837   0.673   0.359  13.245 -0.1844 -0.3615  0.7059
  322MPD2    C4 4838   0.712   0.411  13.126  0.1562  0.2294  0.5502
  322MPD2    C5 4839   0.756   0.538  13.134 -0.0418  0.3387  0.9787
  322MPD2     H 4840   0.660   0.368  13.450  1.4946  1.2110  1.9429
  322MPD2    H1 4841   0.716   0.363  13.029  1.9201  1.4428  0.0281
  322MPD2    H2 4842   0.799   0.713  13.238 -1.6754  0.3732  0.2637
  322MPD2    H3 4843   0.788   0.592  13.046  1.3662 -2.2629 -0.1059
  322MPD2     N 4844   0.629   0.226  13.253 -0.2598 -0.3130 -0.3444
  322MPD2    H5 4845   0.594   0.195  13.343 -0.3010 -1.4670 -0.7461
  322MPD2    N1 4846   0.763   0.633  13.478 -0.2746  0.1249  0.1073
  322MPD2    H7 4847   0.810   0.722  13.468  0.3284 -0.3509 -1.2466
  323TMC3    C1 4848   0.753   0.686  13.717 -0.0351 -0.5735 -0.2868
  323TMC3    C2 4849   0.762   0.814  13.678  0.4667 -0.7726  0.2252
  323TMC3    C3 4850   0.759   0.907  13.775  0.2326 -0.5076 -0.3621
  323TMC3    C4 4851   0.720   0.651  13.847  0.3936  0.2400  0.6636
  323TMC3    C5 4852   0.726   0.747  13.945 -1.2800 -0.4448 -0.2000
  323TMC3    C6 4853   0.748   0.873  13.905  0.1043 -0.8795 -0.1606
  323TMC3     C 4854   0.735   0.589  13.611 -0.5211  0.0008 -0.8965
  323TMC3     O 4855   0.694   0.478  13.654 -0.6897  0.2920 -0.1663
  323TMC3     H 4856   0.790   0.845  13.578 -1.9984 -0.7630 -0.4440
  323TMC3    H1 4857   0.700   0.548  13.871 -0.0078  0.7629  2.5593
  323TMC3    H2 4858   0.748   0.954  13.977 -1.7049 -0.3519 -0.7683
  323TMC3    C7 4859   0.783   0.708  14.071 -1.1553  0.5931 -0.7661
  323TMC3    C8 4860   0.843   1.022  13.760  0.2170  0.2997 -0.0788
  323TMC3    O1 4861   0.800   0.588  14.086  0.1650  0.1742  0.4079
  323TMC3    O2 4862   0.958   0.991  13.728  0.7618 -0.4828  0.1522
  324MPD2     C 4863   2.330   1.443  14.697 -0.1501  0.1815  0.2850
  324MPD2    C1 4864   2.351   1.522  14.594 -0.8665  0.4071  0.1150
  324MPD2    C2 4865   2.234   1.571  14.530 -0.0877  0.2198  0.1374
  324MPD2    C3 4866   2.105   1.565  14.588 -0.8909 -0.0348 -0.7731
  324MPD2    C4 4867   2.097   1.497  14.707  0.4217  0.3599  0.5291
  324MPD2    C5 4868   2.204   1.435  14.759  0.7010 -0.8487  0.0797
  324MPD2     H 4869   2.241   1.623  14.436  1.4832 -2.0593 -1.0080
  324MPD2    H1 4870   2.003   1.484  14.760  0.6259 -0.1836  0.7638
  324MPD2    H2 4871   2.408   1.380  14.739  1.1377  2.3955  1.2268
  324MPD2    H3 4872   2.187   1.371  14.845  4.2126  0.0248  1.4097
  324MPD2     N 4873   1.992   1.617  14.533  0.0724  0.9607 -0.6215
  324MPD2    H5 4874   1.908   1.596  14.586 -1.2803 -0.0441 -3.1631
  324MPD2    N1 4875   2.481   1.557  14.543  0.3308  0.4781 -0.4146
  324MPD2    H7 4876   2.474   1.634  14.478 -3.9746 -0.3066 -0.9256
  325TMC3    C1 4877   1.844   1.701  14.386 -0.0730  0.3491 -0.8836
  325TMC3    C2 4878   1.785   1.643  14.284  0.5712 -0.1473 -0.9144
  325TMC3    C3 4879   1.645   1.646  14.277 -0.2867  0.5964  0.4527
  325TMC3    C4 4880   1.776   1.759  14.487  0.5579 -0.6737 -0.5036
  325TMC3    C5 4881   1.636   1.767  14.478  0.6652 -0.2224 -0.2191
  325TMC3    C6 4882   1.572   1.717  14.370 -0.1832  0.3033 -0.2990
  325TMC3     C 4883   1.980   1.665  14.408 -0.4895 -0.7805  0.0099
  325TMC3     O 4884   2.060   1.670  14.317  0.4877  0.0296 -0.0096
  325TMC3     H 4885   1.839   1.577  14.217 -0.7155 -1.1527 -0.9631
  325TMC3    H1 4886   1.833   1.816  14.560  1.0333  1.9987 -2.9747
  325TMC3    H2 4887   1.464   1.721  14.374 -0.3120 -1.5992 -2.1562
  325TMC3    C7 4888   1.575   1.844  14.584  0.2997 -0.9427  0.3072
  325TMC3    C8 4889   1.585   1.575  14.167  0.2243 -0.9622  0.1419
  325TMC3    O1 4890   1.645   1.841  14.690 -0.6988 -0.2430  0.1810
  325TMC3    O2 4891   1.654   1.495  14.104 -0.5558 -0.1859  0.5034
  326MPD2     C 4892   3.022   3.289  11.093  0.1429 -0.1255 -0.3999
  326MPD2    C1 4893   3.112   3.259  10.994  0.2615  0.2896 -0.2465
  326MPD2    C2 4894   3.238   3.311  10.998  0.2645 -0.3821 -0.2062
  326MPD2    C3 4895   3.283   3.400  11.090  0.1325  0.0975 -0.1297
  326MPD2    C4 4896   3.186   3.441  11.189  0.2078  0.2159  0.3599
  326MPD2    C5 4897   3.060   3.381  11.185  0.2712 -0.6247  0.3566
  326MPD2     H 4898   3.307   3.276  10.922  1.3914  2.0980 -0.3255
  326MPD2    H1 4899   3.214   3.517  11.261  0.5992  0.0724  0.3556
  326MPD2    H2 4900   2.920   3.253  11.094  0.1623 -0.1365  1.0736
  326MPD2    H3 4901   2.981   3.422  11.246  0.9377 -0.6455  1.2376
  326MPD2     N 4902   3.413   3.466  11.091  0.2668  0.1785  1.2683
  326MPD2    H5 4903   3.421   3.547  11.152 -0.6136  0.4914  0.9620
  326MPD2    N1 4904   3.090   3.158  10.894  0.1447  0.3399 -0.4006
  326MPD2    H7 4905   3.174   3.133  10.842  0.4474  0.4430  0.0353
  327TMC3    C1 4906   2.988   3.016  10.753 -0.1505 -0.3278  0.0383
  327TMC3    C2 4907   2.900   3.023  10.647 -0.8125 -0.1322 -0.1858
  327TMC3    C3 4908   2.918   2.931  10.538  0.2861 -0.0797  0.3451
  327TMC3    C4 4909   3.083   2.921  10.766 -0.2998 -0.2191 -0.7136
  327TMC3    C5 4910   3.100   2.842  10.657  0.5740 -0.2353 -0.3825
  327TMC3    C6 4911   3.025   2.849  10.544 -0.5031  0.3048 -0.5505
  327TMC3     C 4912   2.967   3.115  10.853 -0.0847  0.7919  0.3947
  327TMC3     O 4913   2.864   3.179  10.858 -0.1928  0.6742  0.2807
  327TMC3     H 4914   2.830   3.105  10.642 -0.1058  0.5647  1.6395
  327TMC3    H1 4915   3.147   2.925  10.853 -1.3847  0.7986  0.0437
  327TMC3    H2 4916   3.038   2.780  10.462 -0.5629 -1.9798  1.3811
  327TMC3    C7 4917   3.189   2.724  10.667 -0.0147 -0.8318 -0.1326
  327TMC3    C8 4918   2.863   2.967  10.410  0.7667 -0.0221  0.6759
  327TMC3    O1 4919   3.159   2.623  10.607  0.4114  0.3995  0.3708
  327TMC3    O2 4920   2.815   3.082  10.411 -0.1558  0.3929 -0.5680
  328MPD2     C 4921   0.798   2.372  17.019 -0.7466  0.6166  0.0943
  328MPD2    C1 4922   0.718   2.340  16.913  0.4305 -0.0086 -0.3806
  328MPD2    C2 4923   0.629   2.433  16.867  0.1113 -0.6163  0.1142
  328MPD2    C3 4924   0.613   2.556  16.934  0.5626 -0.1565 -0.2496
  328MPD2    C4 4925   0.710   2.595  17.023 -0.2614 -0.5664  1.4432
  328MPD2    C5 4926   0.804   2.505  17.067  0.0737  0.1297  0.1330
  328MPD2     H 4927   0.551   2.410  16.795 -0.6842  3.3466 -0.3052
  328MPD2    H1 4928   0.706   2.687  17.081  1.5974  1.5025 -1.7230
  328MPD2    H2 4929   0.859   2.291  17.058 -1.0032  0.6434  0.5533
  328MPD2    H3 4930   0.874   2.526  17.146  0.4585 -1.0062  0.1030
  328MPD2     N 4931   0.512   2.646  16.904 -0.2849 -0.0898 -0.4188
  328MPD2    H5 4932   0.507   2.734  16.953 -0.0030 -1.7203  2.5126
  328MPD2    N1 4933   0.720   2.205  16.880 -0.0429 -0.1200 -0.3710
  328MPD2    H7 4934   0.789   2.150  16.931 -0.4902  0.9310  1.3760
  329TMC3    C1 4935   0.591   2.001  16.832  0.3851  0.0656  0.6925
  329TMC3    C2 4936   0.463   1.975  16.879  0.2359  0.3969  0.1231
  329TMC3    C3 4937   0.444   1.852  16.933 -0.3552  0.6833 -0.3075
  329TMC3    C4 4938   0.695   1.921  16.836 -0.2107  0.4374 -0.1517
  329TMC3    C5 4939   0.666   1.795  16.888  0.6449 -0.2300  0.1818
  329TMC3    C6 4940   0.547   1.759  16.943 -0.3434  0.5938 -0.4462
  329TMC3     C 4941   0.617   2.143  16.808 -0.1408 -0.0375 -0.3173
  329TMC3     O 4942   0.532   2.197  16.735 -0.0601  0.1612 -0.6690
  329TMC3     H 4943   0.384   2.043  16.848  0.3445  0.1803 -0.6297
  329TMC3    H1 4944   0.788   1.949  16.787  0.4293 -0.8210  0.3286
  329TMC3    H2 4945   0.527   1.657  16.974  1.2708  0.3085 -0.3808
  329TMC3    C7 4946   0.780   1.706  16.900 -0.0026 -0.0783  0.4257
  329TMC3    C8 4947   0.334   1.825  17.027 -0.6362  0.3171 -0.7374
  329TMC3    O1 4948   0.850   1.691  16.800 -0.0867  0.8522  0.0408
  329TMC3    O2 4949   0.274   1.719  17.024  0.1306 -0.4242 -0.8852
  330TMC3    C1 4950   4.243   1.685   9.730  0.6261  0.0499 -0.3430
  330TMC3    C2 4951   4.148   1.704   9.633  0.6785 -0.6521 -0.5845
  330TMC3    C3 4952   4.116   1.599   9.551  0.5360  0.0527 -0.2398
  330TMC3    C4 4953   4.297   1.562   9.752  0.2110  0.3787 -0.4627
  330TMC3    C5 4954   4.263   1.458   9.671  0.7164 -0.3038 -0.3555
  330TMC3    C6 4955   4.171   1.471   9.569 -0.6923 -0.1178 -0.5761
  330TMC3     C 4956   4.299   1.789   9.800  0.6885 -0.2574 -0.8315
  330TMC3     O 4957   4.358   1.770   9.905 -0.6906  0.0784  0.8728
  330TMC3     H 4958   4.086   1.793   9.639  0.8525 -0.4329 -2.0343
  330TMC3    H1 4959   4.359   1.545   9.840  1.1849 -0.4091 -1.3113
  330TMC3    H2 4960   4.136   1.391   9.505 -0.1497 -1.6162  1.0134
  330TMC3    C7 4961   4.342   1.337   9.678 -0.1984  0.1078  0.0816
  330TMC3    C8 4962   3.981   1.593   9.498 -0.9170 -0.0440  0.0231
  330TMC3    O1 4963   4.306   1.243   9.616  0.0517  0.1095 -0.3039
  330TMC3    O2 4964   3.943   1.697   9.449  0.3036  0.4432  0.3679
  331MPD2     C 4965   1.592   0.672  12.607 -1.2980 -0.4878 -0.4205
  331MPD2    C1 4966   1.693   0.764  12.588 -0.2334  0.4402  0.3186
  331MPD2    C2 4967   1.770   0.761  12.472  0.7529 -0.2439 -0.1318
  331MPD2    C3 4968   1.757   0.660  12.381  0.1262  0.6598 -0.0697
  331MPD2    C4 4969   1.661   0.563  12.398 -0.5625 -0.5284  0.1588
  331MPD2    C5 4970   1.584   0.575  12.512 -0.2447 -0.0447 -0.3828
  331MPD2     H 4971   1.843   0.838  12.450 -0.0963  1.4540  2.8644
  331MPD2    H1 4972   1.636   0.487  12.325 -2.3859  0.1034  0.1278
  331MPD2    H2 4973   1.516   0.673  12.685  0.1153  1.9124  0.9229
  331MPD2    H3 4974   1.504   0.505  12.531 -0.0662 -0.4519 -1.1119
  331MPD2     N 4975   1.845   0.661  12.275 -0.4528 -0.0196 -0.2012
  331MPD2    H5 4976   1.884   0.752  12.255  0.7254 -0.4069  0.3022
  331MPD2    N1 4977   1.699   0.881  12.673 -0.4693 -0.4556 -0.3181
  331MPD2    H7 4978   1.615   0.899  12.727  0.0481  0.2825  0.2376
  332TMC3    C1 4979   1.918   0.612  12.066 -0.5136  0.0953  0.1039
  332TMC3    C2 4980   1.917   0.755  12.054 -0.2713 -0.0242  0.3442
  332TMC3    C3 4981   2.044   0.808  12.023  0.2345 -0.2631 -0.5736
  332TMC3    C4 4982   2.022   0.540  12.022  0.0827  0.1679  0.6709
  332TMC3    C5 4983   2.131   0.599  11.975 -0.0721 -0.3785 -0.2483
  332TMC3    C6 4984   2.149   0.733  11.980  0.6973 -0.0318  0.6167
  332TMC3     C 4985   1.848   0.565  12.182  0.1636 -0.8445 -0.4356
  332TMC3     O 4986   1.834   0.444  12.196 -0.2066 -0.2079 -0.2298
  332TMC3     H 4987   1.842   0.825  12.086 -0.4626 -0.1571  0.1857
  332TMC3    H1 4988   2.019   0.434  12.047  0.8364 -0.3812 -1.6531
  332TMC3    H2 4989   2.248   0.773  11.964  0.5147  0.1747  0.0357
  332TMC3    C7 4990   2.248   0.515  11.991  0.0508 -0.4300 -0.2606
  332TMC3    C8 4991   2.041   0.948  11.966 -0.5216  0.4255  0.1809
  332TMC3    O1 4992   2.223   0.399  11.972 -0.3928  0.4558 -1.3217
  332TMC3    O2 4993   1.935   1.008  11.952 -0.2681  0.7436 -0.3772
  333MPD2     C 4994   2.078   1.216  11.203  0.6165 -0.3574 -0.4262
  333MPD2    C1 4995   2.182   1.133  11.165 -0.2714 -0.4477  0.1624
  333MPD2    C2 4996   2.170   0.999  11.150  0.9298 -0.7878  0.5975
  333MPD2    C3 4997   2.054   0.946  11.181 -0.5847  0.1930  0.0216
  333MPD2    C4 4998   1.947   1.023  11.239 -0.2018  0.1652  0.1564
  333MPD2    C5 4999   1.963   1.160  11.245 -0.1763  0.2567  0.0929
  333MPD2     H 5000   2.250   0.935  11.115  1.9689  1.5514 -1.2369
  333MPD2    H1 5001   1.847   0.986  11.261  0.4667 -2.4232 -1.1224
  333MPD2    H2 5002   2.073   1.324  11.211  0.3343 -0.5018  1.4129
  333MPD2    H3 5003   1.877   1.217  11.276  0.5440  0.5959  1.4542
  333MPD2     N 5004   2.039   0.806  11.155 -0.5736 -0.2437 -0.4405
  333MPD2    H5 5005   2.121   0.760  11.116  0.8043  0.4654  1.6076
  333MPD2    N1 5006   2.302   1.201  11.146  0.5087 -0.7047  0.3615
  333MPD2    H7 5007   2.302   1.302  11.142  1.7234 -0.6414  1.9485
  334TMC3    C1 5008   2.532   1.211  11.105  0.8058  0.3481  0.0475
  334TMC3    C2 5009   2.653   1.171  11.142 -0.6258  1.0171  0.0792
  334TMC3    C3 5010   2.757   1.243  11.094  0.8740  0.5667  0.6429
  334TMC3    C4 5011   2.508   1.322  11.027  0.5644  0.0677  0.0317
  334TMC3    C5 5012   2.621   1.386  10.979 -0.4967 -0.0988 -0.2785
  334TMC3    C6 5013   2.746   1.347  11.007  0.4138  0.0447  0.7945
  334TMC3     C 5014   2.422   1.131  11.155  0.2185 -0.2250  0.0502
  334TMC3     O 5015   2.435   1.013  11.189  0.7380  0.0636 -0.0268
  334TMC3     H 5016   2.655   1.073  11.189  1.8379  1.3899  0.7709
  334TMC3    H1 5017   2.412   1.361  10.994  0.5582  0.3204  0.3498
  334TMC3    H2 5018   2.829   1.413  10.987 -0.3436  0.3912 -1.1742
  334TMC3    C7 5019   2.600   1.496  10.885  0.4413 -0.4321  0.8501
  334TMC3    C8 5020   2.896   1.199  11.118  1.3803 -0.2855 -0.1573
  334TMC3    O1 5021   2.487   1.528  10.855  0.0821  0.0118 -0.1643
  334TMC3    O2 5022   2.915   1.120  11.212 -0.7079  0.2020  0.1435
  335TMC3    C1 5023   1.166   2.735  17.042 -0.6620 -1.5283  0.2157
  335TMC3    C2 5024   1.121   2.652  16.940 -1.0029 -0.1972 -0.0527
  335TMC3    C3 5025   1.206   2.556  16.898  0.4411 -0.4967 -0.3364
  335TMC3    C4 5026   1.283   2.722  17.108 -0.0471  0.3539  0.1839
  335TMC3    C5 5027   1.370   2.631  17.051 -0.9903  0.0011 -0.6392
  335TMC3    C6 5028   1.334   2.544  16.953 -0.1863  1.1594  0.2630
  335TMC3     C 5029   1.077   2.837  17.095  0.4181  0.1354 -0.4240
  335TMC3     O 5030   1.091   2.867  17.210 -0.5370 -0.5666 -0.2652
  335TMC3     H 5031   1.020   2.660  16.904 -1.7046 -1.0852  1.7234
  335TMC3    H1 5032   1.324   2.797  17.174 -1.5454  2.0019 -0.7746
  335TMC3    H2 5033   1.412   2.480  16.913 -1.0061 -0.9919  2.0616
  335TMC3    C7 5034   1.510   2.621  17.095  0.0236 -0.3071 -0.0251
  335TMC3    C8 5035   1.136   2.438  16.851  0.0427  0.6733 -0.2408
  335TMC3    O1 5036   1.582   2.548  17.022 -0.6517  0.5018  0.4223
  335TMC3    O2 5037   1.044   2.461  16.776  0.1155  0.1372  0.2301
  336MPD2     C 5038   1.385   0.418  16.222  0.1792 -0.0646 -0.4290
  336MPD2    C1 5039   1.355   0.415  16.091  0.2892  0.1380  0.1997
  336MPD2    C2 5040   1.391   0.299  16.030  0.5830  0.3692  0.5467
  336MPD2    C3 5041   1.453   0.195  16.098  0.4832  0.4325 -0.1379
  336MPD2    C4 5042   1.483   0.199  16.233  0.2213  0.0106  0.3265
  336MPD2    C5 5043   1.447   0.318  16.291  0.6017  0.6185  0.3183
  336MPD2     H 5044   1.367   0.286  15.925 -1.3869 -0.7221  1.1365
  336MPD2    H1 5045   1.522   0.115  16.290  2.6435  0.0872 -1.2104
  336MPD2    H2 5046   1.368   0.508  16.279  0.7648 -0.0348 -0.3004
  336MPD2    H3 5047   1.479   0.337  16.393 -0.9889 -0.4090  1.0079
  336MPD2     N 5048   1.457   0.075  16.030 -0.0558  0.7521 -0.4346
  336MPD2    H5 5049   1.413   0.070  15.939 -0.0787 -2.2805 -0.2514
  336MPD2    N1 5050   1.299   0.524  16.014  0.6354 -0.5716  0.2299
  336MPD2    H7 5051   1.285   0.507  15.915 -1.8620 -0.4487  0.5633
  337TMC3    C1 5052   1.178   0.718  15.967  0.0518 -0.3128  0.0684
  337TMC3    C2 5053   1.067   0.785  16.009  0.3799 -0.4350 -0.8160
  337TMC3    C3 5054   0.997   0.857  15.918 -0.1166 -0.6475  0.3773
  337TMC3    C4 5055   1.229   0.728  15.848 -0.7561  0.1997 -0.7591
  337TMC3    C5 5056   1.159   0.813  15.762  0.2625  0.3443  0.6772
  337TMC3    C6 5057   1.049   0.886  15.793  0.6250 -0.1167 -0.3562
  337TMC3     C 5058   1.242   0.632  16.069  0.7212  0.1755  0.1770
  337TMC3     O 5059   1.223   0.658  16.189  0.0365 -0.2159  0.3036
  337TMC3     H 5060   1.028   0.757  16.106  0.3573 -0.5918 -0.8701
  337TMC3    H1 5061   1.311   0.668  15.809 -2.3745  0.0466 -3.9431
  337TMC3    H2 5062   1.011   0.950  15.714  0.1556  0.2771  0.1886
  337TMC3    C7 5063   1.215   0.832  15.625 -0.3682  0.5452  0.4036
  337TMC3    C8 5064   0.859   0.888  15.935  0.0545 -0.0483 -0.6079
  337TMC3    O1 5065   1.142   0.882  15.541  0.1936  0.0535  0.1098
  337TMC3    O2 5066   0.820   0.898  16.052  0.2919  0.2506  0.2784
  338MPD2     C 5067   1.689   3.914   0.733 -0.5516 -0.2526  0.0893
  338MPD2    C1 5068   1.609   4.018   0.688 -0.2334  0.3379 -0.1042
  338MPD2    C2 5069   1.640   4.148   0.721 -0.3250 -0.5874  0.3005
  338MPD2    C3 5070   1.746   4.186   0.797  0.1629  0.0997  0.2226
  338MPD2    C4 5071   1.831   4.079   0.839  0.5807 -0.7541 -0.1856
  338MPD2    C5 5072   1.795   3.951   0.807  0.0301  0.3470 -0.1383
  338MPD2     H 5073   1.587   4.225   0.667 -1.2052 -0.3959  1.4428
  338MPD2    H1 5074   1.923   4.100   0.891  0.6026 -1.1610 -0.0611
  338MPD2    H2 5075   1.673   3.808   0.720 -0.5059 -0.2907  0.3643
  338MPD2    H3 5076   1.865   3.877   0.844 -0.1004 -0.7176 -2.0291
  338MPD2     N 5077   1.777   4.325   0.819 -0.3137  0.3154 -0.3441
  338MPD2    H5 5078   1.722   4.391   0.765 -1.5792  0.2423  0.8478
  338MPD2    N1 5079   1.501   3.994   0.607  0.0735 -0.3091  0.0810
  338MPD2    H7 5080   1.457   4.077   0.567  1.5190  0.1211 -0.5938
  339TMC3    C1 5081   1.847   4.524   0.924 -0.2842 -0.0882  0.1771
  339TMC3    C2 5082   1.828   4.584   1.044 -0.2589  0.2782 -0.3085
  339TMC3    C3 5083   1.827   4.720   1.051  0.7198 -0.3926  0.4331
  339TMC3    C4 5084   1.829   4.585   0.808 -0.4521 -0.6763  0.1960
  339TMC3    C5 5085   1.818   4.721   0.805 -0.2865 -0.3778  0.2813
  339TMC3    C6 5086   1.817   0.062   0.928 -0.5995 -0.1766  0.0743
  339TMC3     C 5087   1.861   4.380   0.915 -0.0688  0.0537 -0.8829
  339TMC3     O 5088   1.913   4.324   1.006  0.1583 -0.2585 -0.7263
  339TMC3     H 5089   1.823   4.525   1.135 -1.3396 -0.5962 -0.9316
  339TMC3    H1 5090   1.839   4.531   0.715 -2.1927 -1.3370  0.3938
  339TMC3    H2 5091   1.801   0.169   0.926  0.4848  0.0428  3.5675
  339TMC3    C7 5092   1.742   0.068   0.697  0.2840  0.2846 -0.1194
  339TMC3    C8 5093   1.734   0.063   1.138 -0.0498  0.1157 -0.1076
  339TMC3    O1 5094   1.727   0.189   0.716 -0.3841 -0.8682  0.1912
  339TMC3    O2 5095   1.746   0.181   1.161  0.2425  0.2371 -0.2047
  340MPD2     C 5096   2.161   1.011   8.677 -0.5416 -0.3682  0.1623
  340MPD2    C1 5097   2.287   1.041   8.738  0.0175  0.7145  0.7744
  340MPD2    C2 5098   2.382   1.095   8.656 -0.2999  0.2358  0.6563
  340MPD2    C3 5099   2.366   1.116   8.521  0.6013 -0.0451  0.1825
  340MPD2    C4 5100   2.244   1.094   8.468  0.1174 -0.3875  0.3582
  340MPD2    C5 5101   2.151   1.036   8.546  0.4859 -0.1872 -0.0308
  340MPD2     H 5102   2.483   1.105   8.695 -0.8246  2.1680  1.4999
  340MPD2    H1 5103   2.221   1.096   8.362 -0.2009 -0.5173  0.4247
  340MPD2    H2 5104   2.075   0.967   8.726 -1.4434  0.1395 -0.9903
  340MPD2    H3 5105   2.054   1.004   8.509 -0.3432  0.3594  1.6498
  340MPD2     N 5106   2.475   1.169   8.444  0.0029 -0.0679 -0.6026
  340MPD2    H5 5107   2.438   1.197   8.353 -1.2690  0.1933 -0.0093
  340MPD2    N1 5108   2.294   0.998   8.874 -0.7539 -0.6041  0.4960
  340MPD2    H7 5109   2.211   0.959   8.917 -0.3237 -1.7723  0.2756
  341TMC3    C1 5110   2.362   0.964   9.103 -0.2896 -0.9220 -0.6129
  341TMC3    C2 5111   2.243   0.904   9.133 -0.5529 -0.0061 -0.5122
  341TMC3    C3 5112   2.237   0.827   9.243  0.0471 -0.0947 -0.3085
  341TMC3    C4 5113   2.464   0.959   9.192 -0.1545 -0.7109  0.6392
  341TMC3    C5 5114   2.451   0.884   9.309 -0.4551 -1.0290  0.2346
  341TMC3    C6 5115   2.335   0.817   9.338 -0.4019  0.6788 -0.6659
  341TMC3     C 5116   2.394   1.022   8.971  0.3936 -0.5728 -0.1180
  341TMC3     O 5117   2.508   1.063   8.949  0.1084 -0.1971 -0.7136
  341TMC3     H 5118   2.166   0.883   9.060 -0.7716 -1.9267  0.2554
  341TMC3    H1 5119   2.552   1.016   9.164 -0.1409  0.3374  2.7789
  341TMC3    H2 5120   2.322   0.771   9.436  0.4693 -2.0498 -1.8279
  341TMC3    C7 5121   2.546   0.900   9.413  0.5187  0.0059  0.2408
  341TMC3    C8 5122   2.109   0.821   9.311  0.1009 -0.3937 -0.1747
  341TMC3    O1 5123   2.615   0.999   9.403  0.7077  0.5686 -0.3192
  341TMC3    O2 5124   2.016   0.765   9.265 -0.3101  0.1789 -0.4154
  342MPD2     C 5125   4.249   0.468  17.436  0.6502 -0.3615  0.1397
  342MPD2    C1 5126   4.374   0.510  17.392 -0.2295 -0.2804  0.5569
  342MPD2    C2 5127   4.422   0.638  17.419 -0.0271 -0.1618  0.4826
  342MPD2    C3 5128   4.341   0.727  17.492 -0.3848  1.1577 -0.1660
  342MPD2    C4 5129   4.218   0.688  17.531  0.0132  0.0050 -0.6366
  342MPD2    C5 5130   4.167   0.563  17.508  0.4387  0.6038 -0.7232
  342MPD2     H 5131   4.520   0.664  17.380 -0.3028 -1.9611 -1.3814
  342MPD2    H1 5132   4.161   0.763  17.585  0.6926 -0.0354  0.1395
  342MPD2    H2 5133   4.210   0.369  17.417  2.2605 -0.9068 -0.3061
  342MPD2    H3 5134   4.071   0.535  17.549  0.9553 -2.2688 -1.4212
  342MPD2     N 5135   4.378   0.862  17.502 -0.4798 -0.0065  0.5163
  342MPD2    H5 5136   4.310   0.923  17.548  0.0391  3.2377 -3.0433
  342MPD2    N1 5137   4.444   0.413  17.318  0.1444 -0.5977  0.4521
  342MPD2    H7 5138   4.400   0.322  17.305 -1.6688  0.6545 -2.0184
  343TMC3    C1 5139   4.622   0.314  17.179 -0.2345  0.0296  0.2765
  343TMC3    C2 5140   4.704   0.355  17.075 -0.0274  0.1073  0.3243
  343TMC3    C3 5141   0.052   0.253  17.016 -0.3020  0.6468  0.0952
  343TMC3    C4 5142   4.615   0.188  17.229 -0.5797 -0.3542  0.2420
  343TMC3    C5 5143   4.702   0.097  17.172 -0.1373 -0.1900  0.1057
  343TMC3    C6 5144   0.046   0.118  17.050 -0.0551  1.2145  0.3740
  343TMC3     C 5145   4.568   0.423  17.256 -0.4428 -0.3670  0.2574
  343TMC3     O 5146   4.641   0.521  17.255 -0.3867 -1.2833 -0.4376
  343TMC3     H 5147   4.703   0.456  17.037 -1.5866 -0.1961 -0.4343
  343TMC3    H1 5148   4.562   0.161  17.319  0.1569  0.4753  0.9222
  343TMC3    H2 5149   0.112   0.036  17.025 -1.1761  1.1551 -2.3324
  343TMC3    C7 5150   4.681   4.682  17.216 -0.3966  0.0983 -1.3524
  343TMC3    C8 5151   0.161   0.302  16.934 -0.3580  0.2907  0.4789
  343TMC3    O1 5152   4.644   4.601  17.129  0.3456 -0.3433  0.1037
  343TMC3    O2 5153   0.177   0.425  16.929 -0.1998  0.2777  0.4119
  344MPD2     C 5154   0.480   4.672  10.275 -0.4691  0.3714  0.2456
  344MPD2    C1 5155   0.374   0.020  10.227 -0.7120 -0.4798  0.2101
  344MPD2    C2 5156   0.411   0.117  10.133  0.1263 -0.2506  0.4956
  344MPD2    C3 5157   0.543   0.141  10.094  0.2052  0.0940 -0.3038
  344MPD2    C4 5158   0.645   0.074  10.160  0.0301 -0.1615  0.2695
  344MPD2    C5 5159   0.613   4.695  10.243 -0.0809 -0.2418 -0.7466
  344MPD2     H 5160   0.325   0.171  10.095 -0.0185  1.0824  2.7404
  344MPD2    H1 5161   0.752   0.088  10.147 -0.6840  0.6378 -4.4944
  344MPD2    H2 5162   0.467   4.588  10.341 -2.6800 -0.0642 -0.7171
  344MPD2    H3 5163   0.686   4.624  10.282  1.3178  1.2797 -0.6026
  344MPD2     N 5164   0.575   0.238  10.001  0.1753  0.4050 -0.0369
  344MPD2    H5 5165   0.673   0.258   9.984  0.1889  1.0924  0.8859
  344MPD2    N1 5166   0.234   4.720  10.261  0.0310  0.0265 -0.1435
  344MPD2    H7 5167   0.164   0.060  10.225 -0.8570 -1.3095 -0.7360
  345TMC3    C1 5168   0.569   0.360   9.804 -0.8726 -0.1939 -0.2910
  345TMC3    C2 5169   0.703   0.343   9.795  0.2818  0.0758  0.0570
  345TMC3    C3 5170   0.773   0.422   9.708 -0.9212  0.7592 -0.3512
  345TMC3    C4 5171   0.499   0.457   9.736  0.4213 -1.0292  0.8659
  345TMC3    C5 5172   0.574   0.538   9.649  0.1353  0.2160  0.4001
  345TMC3    C6 5173   0.715   0.523   9.640 -0.5469 -0.2096  0.4043
  345TMC3     C 5174   0.496   0.288   9.902  0.0605  0.2848  0.1028
  345TMC3     O 5175   0.375   0.289   9.882 -0.2635 -0.0139  0.6525
  345TMC3     H 5176   0.761   0.258   9.831 -0.2566  1.2947  3.7851
  345TMC3    H1 5177   0.392   0.463   9.750  0.5448  0.8633  1.1035
  345TMC3    H2 5178   0.770   0.590   9.576  0.4373 -0.0685  1.4023
  345TMC3    C7 5179   0.526   0.671   9.622 -0.5207 -0.0476 -0.4001
  345TMC3    C8 5180   0.907   0.447   9.757  0.3540  0.6499  0.4278
  345TMC3    O1 5181   0.603   0.749   9.575 -0.0044  0.5405 -1.0221
  345TMC3    O2 5182   0.951   0.376   9.840  0.3417 -0.5803 -0.0808
  346MPD2     C 5183   0.761   2.190  13.741 -0.8588  0.0724  0.0127
  346MPD2    C1 5184   0.852   2.126  13.815 -0.4103 -0.5642 -0.4181
  346MPD2    C2 5185   0.852   2.161  13.941 -0.0199  0.1787 -0.6285
  346MPD2    C3 5186   0.763   2.245  14.003 -0.6203 -0.2173 -1.0098
  346MPD2    C4 5187   0.665   2.301  13.924  0.0973  0.3029  0.2245
  346MPD2    C5 5188   0.668   2.278  13.791  0.0597  0.7642 -0.1313
  346MPD2     H 5189   0.915   2.108  14.012 -4.4319 -2.2143  1.4745
  346MPD2    H1 5190   0.588   2.370  13.957 -1.4467 -1.7726  0.8793
  346MPD2    H2 5191   0.756   2.162  13.636 -0.5655  0.4900 -0.1122
  346MPD2    H3 5192   0.591   2.325  13.730 -0.1419 -0.7721 -1.0428
  346MPD2     N 5193   0.772   2.267  14.143 -0.8962 -0.3656 -0.4861
  346MPD2    H5 5194   0.857   2.227  14.183 -0.5002  1.2321  0.2806
  346MPD2    N1 5195   0.949   2.032  13.767  0.7836  0.0208 -0.1073
  346MPD2    H7 5196   1.015   2.005  13.839  1.9396  0.8219 -0.8784
  347TMC3    C1 5197   0.762   2.380  14.342  0.2977 -0.6634 -0.4019
  347TMC3    C2 5198   0.883   2.338  14.367  0.5295 -0.2409  0.2598
  347TMC3    C3 5199   0.925   2.321  14.493  0.2986 -0.2071  0.1927
  347TMC3    C4 5200   0.680   2.415  14.443 -0.1849  0.2505 -0.0084
  347TMC3    C5 5201   0.713   2.376  14.572 -0.5330 -0.5483 -0.5931
  347TMC3    C6 5202   0.842   2.331  14.602  0.4002  0.3810 -0.2100
  347TMC3     C 5203   0.705   2.361  14.213 -0.8186  0.1769  0.2863
  347TMC3     O 5204   0.606   2.426  14.185  0.6023 -0.3543  0.4408
  347TMC3     H 5205   0.955   2.320  14.288  0.9386  0.9816  0.3451
  347TMC3    H1 5206   0.580   2.453  14.428  0.3628  2.1335  1.1307
  347TMC3    H2 5207   0.879   2.303  14.700  1.5858 -2.7488 -1.5444
  347TMC3    C7 5208   0.615   2.374  14.681  0.3853 -0.7908 -0.5769
  347TMC3    C8 5209   1.031   2.223  14.509 -0.4596 -0.1089  0.5743
  347TMC3    O1 5210   0.499   2.365  14.649 -0.8419 -1.0986 -0.9723
  347TMC3    O2 5211   1.056   2.158  14.410 -0.3071 -1.1387  0.1458
  348MPD2     C 5212   3.942   1.288  12.267  0.1247 -0.0303 -0.5058
  348MPD2    C1 5213   4.026   1.398  12.272 -0.4826 -0.0079 -0.5363
  348MPD2    C2 5214   4.016   1.508  12.182  0.9357  0.2952  0.1001
  348MPD2    C3 5215   3.927   1.502  12.075 -0.4467 -0.7179  0.3392
  348MPD2    C4 5216   3.835   1.395  12.076  0.8362 -0.2204  0.5221
  348MPD2    C5 5217   3.844   1.287  12.172  0.4630 -0.8730  0.0080
  348MPD2     H 5218   4.088   1.586  12.204  2.9481 -1.8680  1.1053
  348MPD2    H1 5219   3.754   1.388  12.004  0.0360  0.2972  1.3716
  348MPD2    H2 5220   3.969   1.198  12.321  3.6091  2.2812  1.6040
  348MPD2    H3 5221   3.768   1.210  12.175  0.0441 -0.4696 -0.2186
  348MPD2     N 5222   3.911   1.611  11.990 -0.5435  0.3111 -0.4573
  348MPD2    H5 5223   3.976   1.686  12.013 -2.6682  1.2250  2.5302
  348MPD2    N1 5224   4.134   1.416  12.365 -0.0520 -0.0206  0.1968
  348MPD2    H7 5225   4.193   1.498  12.354 -0.7222  0.4801  0.3258
  349TMC3    C1 5226   4.311   1.362  12.504 -0.2619  0.2001 -1.0474
  349TMC3    C2 5227   4.374   1.248  12.550  0.2441 -0.0574  0.5038
  349TMC3    C3 5228   4.497   1.208  12.506  0.0353  0.6396 -0.2132
  349TMC3    C4 5229   4.375   1.431  12.409  0.3549  0.0098  0.2357
  349TMC3    C5 5230   4.504   1.397  12.373  0.5164  0.2250  0.4100
  349TMC3    C6 5231   4.569   1.283  12.420 -0.3266 -0.4264  0.5065
  349TMC3     C 5232   4.175   1.335  12.467  0.0492  0.1153 -0.4083
  349TMC3     O 5233   4.115   1.237  12.508  0.0739  0.4797  0.2932
  349TMC3     H 5234   4.311   1.185  12.612  0.3991 -0.2862  0.4275
  349TMC3    H1 5235   4.338   1.512  12.348  0.6821  0.5115  0.7002
  349TMC3    H2 5236   4.664   1.262  12.373 -1.3296  0.4437 -1.9518
  349TMC3    C7 5237   4.520   1.443  12.238 -0.3182 -0.0769 -0.8670
  349TMC3    C8 5238   4.549   1.085  12.559  0.4364 -0.6624 -0.4713
  349TMC3    O1 5239   4.528   1.366  12.148 -0.1298 -0.0194 -0.2091
  349TMC3    O2 5240   4.479   1.024  12.636 -0.8145  0.0301  0.6117
  350MPD2     C 5241   3.590   0.281   9.457  0.6371 -0.1128  0.1929
  350MPD2    C1 5242   3.577   0.194   9.565 -0.3780  0.3908 -0.5553
  350MPD2    C2 5243   3.671   0.225   9.661  0.9397 -0.7768  0.0368
  350MPD2    C3 5244   3.756   0.329   9.664  0.9829 -0.0697 -0.3346
  350MPD2    C4 5245   3.762   0.419   9.557  0.3675  0.2866 -0.1050
  350MPD2    C5 5246   3.690   0.382   9.448 -0.5988 -0.9417 -0.1736
  350MPD2     H 5247   3.665   0.150   9.739  0.9149 -0.5454  0.2594
  350MPD2    H1 5248   3.829   0.504   9.549  1.2988 -0.4631 -0.3546
  350MPD2    H2 5249   3.525   0.274   9.370 -1.3836  0.5554  1.6529
  350MPD2    H3 5250   3.683   0.454   9.367  0.3268  0.6360  1.1450
  350MPD2     N 5251   3.827   0.348   9.783  0.0756 -0.0951  0.0771
  350MPD2    H5 5252   3.798   0.281   9.854  0.8006 -0.5074 -0.0213
  350MPD2    N1 5253   3.504   0.073   9.565  0.4913  0.8082 -0.5725
  350MPD2    H7 5254   3.528   0.009   9.640 -2.5254 -1.4072 -1.5231
  351TMC3    C1 5255   3.386   4.604   9.486 -0.0828 -0.2012  0.6625
  351TMC3    C2 5256   3.476   4.519   9.545  0.1351 -0.8296  0.8804
  351TMC3    C3 5257   3.436   4.388   9.553  0.3114 -0.2039 -0.4461
  351TMC3    C4 5258   3.273   4.565   9.418  0.6909  0.3151 -0.5000
  351TMC3    C5 5259   3.243   4.432   9.432 -0.4872 -0.0557  0.2249
  351TMC3    C6 5260   3.322   4.341   9.501  0.9300 -0.3539 -0.3837
  351TMC3     C 5261   3.418   0.022   9.472 -0.0427  0.1192  0.5627
  351TMC3     O 5262   3.373   0.091   9.381 -0.0230  0.2168 -0.0620
  351TMC3     H 5263   3.572   4.552   9.582  0.0258  0.5554 -0.0855
  351TMC3    H1 5264   3.214   4.643   9.372  1.1360  0.2935 -1.1083
  351TMC3    H2 5265   3.303   4.234   9.496  1.1441 -0.3865 -0.5358
  351TMC3    C7 5266   3.107   4.404   9.383  1.1115  0.3032 -0.0899
  351TMC3    C8 5267   3.526   4.301   9.630 -0.2158 -0.0466  0.2121
  351TMC3    O1 5268   3.043   4.487   9.316 -0.3406 -0.2254  0.1351
  351TMC3    O2 5269   3.639   4.345   9.638 -0.6994 -0.0129  0.3764
  352MPD2     C 5270   0.987   1.087   1.425 -0.2263 -0.2180 -0.7356
  352MPD2    C1 5271   1.095   1.125   1.345  0.2721 -0.6422 -0.0311
  352MPD2    C2 5272   1.216   1.060   1.365  0.2792 -0.1919 -0.4412
  352MPD2    C3 5273   1.230   0.947   1.447 -0.1881 -0.3560 -1.1373
  352MPD2    C4 5274   1.116   0.910   1.519 -0.1863  0.0578  0.5934
  352MPD2    C5 5275   1.004   0.996   1.522  0.3316  0.9064 -0.3264
  352MPD2     H 5276   1.302   1.091   1.307  1.4841 -0.9099  0.9713
  352MPD2    H1 5277   1.099   0.818   1.574 -0.0929 -0.1246  0.3174
  352MPD2    H2 5278   0.896   1.146   1.419  1.0510  1.9013  0.7844
  352MPD2    H3 5279   0.917   0.976   1.583  1.6084 -1.5782  0.6664
  352MPD2     N 5280   1.340   0.857   1.443  0.3408 -0.2894 -0.4331
  352MPD2    H5 5281   1.408   0.881   1.372 -1.4711  0.2134 -1.9817
  352MPD2    N1 5282   1.070   1.237   1.260  0.5581  0.2606 -0.0280
  352MPD2    H7 5283   0.976   1.273   1.247  0.0327 -0.4604  1.7822
  353TMC3    C1 5284   1.471   0.658   1.474  0.4593 -1.1960 -0.2847
  353TMC3    C2 5285   1.482   0.536   1.541  0.2472 -0.2776  0.4953
  353TMC3    C3 5286   1.574   0.443   1.491  0.4741 -0.0906  0.0215
  353TMC3    C4 5287   1.528   0.667   1.353 -0.0507  0.5867 -0.2329
  353TMC3    C5 5288   1.624   0.580   1.314 -0.0097  0.1172 -0.7888
  353TMC3    C6 5289   1.650   0.465   1.382  0.2107  0.4970  0.1763
  353TMC3     C 5290   1.358   0.743   1.513 -0.4165 -0.1602  0.8117
  353TMC3     O 5291   1.288   0.705   1.610  0.5049 -0.0952  0.0888
  353TMC3     H 5292   1.428   0.504   1.630  0.3999 -2.4093 -0.1881
  353TMC3    H1 5293   1.490   0.744   1.286  0.3470  0.6281 -0.4125
  353TMC3    H2 5294   1.716   0.391   1.338 -0.1428  0.3209 -0.0592
  353TMC3    C7 5295   1.677   0.597   1.180  0.0147  0.2462  0.0981
  353TMC3    C8 5296   1.579   0.316   1.560  0.4717  0.5072  0.2475
  353TMC3    O1 5297   1.654   0.503   1.109 -0.4516 -0.4291 -0.4277
  353TMC3    O2 5298   1.488   0.285   1.640 -0.8081  0.7717 -0.4321
  354TMC3    C1 5299   2.888   2.976  13.418  0.6691  0.4930 -0.1951
  354TMC3    C2 5300   2.961   3.093  13.436 -0.1833  0.1048  0.0968
  354TMC3    C3 5301   2.936   3.198  13.359  0.0734 -0.3927 -0.0342
  354TMC3    C4 5302   2.793   2.971  13.321 -0.3049 -0.2575  0.2133
  354TMC3    C5 5303   2.768   3.076  13.247  0.1000 -0.1237 -0.6384
  354TMC3    C6 5304   2.837   3.189  13.264 -0.1104 -0.0739 -0.0993
  354TMC3     C 5305   2.938   2.856  13.482  0.2433 -0.4813  0.6179
  354TMC3     O 5306   2.860   2.765  13.493  0.8934 -0.1597 -0.3868
  354TMC3     H 5307   3.029   3.102  13.521  0.9723 -1.2673 -0.6706
  354TMC3    H1 5308   2.748   2.875  13.296  0.3263 -0.9470  1.7193
  354TMC3    H2 5309   2.811   3.273  13.201 -2.2878 -0.4681  0.2645
  354TMC3    C7 5310   2.775   3.065  13.101  0.0439 -0.0647  0.2177
  354TMC3    C8 5311   3.059   3.270  13.317  0.4019  0.5811 -0.5310
  354TMC3    O1 5312   2.679   3.092  13.028 -0.2566 -0.2815  0.5222
  354TMC3    O2 5313   3.155   3.255  13.391 -0.1602  0.2494  0.2395
  355MPD2     C 5314   2.984   3.920  11.710 -0.1135  0.1302  0.1957
  355MPD2    C1 5315   3.045   4.005  11.619 -0.9597 -0.0282  0.0302
  355MPD2    C2 5316   3.184   4.003  11.619  0.9781 -0.4989 -0.5774
  355MPD2    C3 5317   3.264   3.951  11.722 -0.1428 -1.0258 -0.0642
  355MPD2    C4 5318   3.196   3.873  11.815 -0.0930 -0.6018 -0.3378
  355MPD2    C5 5319   3.058   3.858  11.802 -0.8045 -0.3739  0.1947
  355MPD2     H 5320   3.233   4.054  11.537  0.3415  1.2328  0.1059
  355MPD2    H1 5321   3.251   3.817  11.889  2.8314 -0.2783 -2.2716
  355MPD2    H2 5322   2.877   3.901  11.704  0.1129 -0.0432 -3.4375
  355MPD2    H3 5323   2.997   3.806  11.874 -1.6082 -1.2460 -1.1208
  355MPD2     N 5324   3.404   3.980  11.736 -0.1428 -0.2383 -0.7371
  355MPD2    H5 5325   3.458   3.944  11.815 -1.5108 -0.8856 -0.0968
  355MPD2    N1 5326   2.967   4.075  11.526 -0.3099 -0.5941 -0.1369
  355MPD2    H7 5327   2.872   4.046  11.505 -1.0179  1.9168 -0.4006
  356TMC3    C1 5328   3.605   4.110  11.710 -0.6830  0.0342  0.5002
  356TMC3    C2 5329   3.690   4.174  11.624 -0.3284 -0.1246  0.3432
  356TMC3    C3 5330   3.814   4.206  11.665  1.0500  0.3813 -0.0386
  356TMC3    C4 5331   3.642   4.064  11.833  0.6649 -0.7268  0.3355
  356TMC3    C5 5332   3.762   4.113  11.881 -0.0090 -0.0224 -0.9060
  356TMC3    C6 5333   3.845   4.187  11.798 -0.6998  0.1695 -0.2057
  356TMC3     C 5334   3.471   4.073  11.662  1.2832 -0.2900 -0.0512
  356TMC3     O 5335   3.446   4.131  11.560  0.1146 -0.0826  0.1081
  356TMC3     H 5336   3.655   4.188  11.523  0.1639 -1.2935  0.0110
  356TMC3    H1 5337   3.581   4.009  11.903 -0.6901 -0.0950 -0.3478
  356TMC3    H2 5338   3.937   4.232  11.836 -1.2391 -0.0454  1.3467
  356TMC3    C7 5339   3.800   4.073  12.018 -0.2853 -0.3388  0.5597
  356TMC3    C8 5340   3.895   4.290  11.577  0.3492  0.4111  0.1432
  356TMC3    O1 5341   3.749   3.980  12.076  0.5327 -0.5413  0.5009
  356TMC3    O2 5342   3.838   4.344  11.482 -0.1894  0.0015 -0.2420
  357MPD2     C 5343   3.571   2.990   1.965  0.4867 -0.5546  0.6489
  357MPD2    C1 5344   3.539   2.933   1.844  0.3815  0.6017 -0.2946
  357MPD2    C2 5345   3.406   2.896   1.827  0.2098  0.5485 -0.3980
  357MPD2    C3 5346   3.311   2.914   1.927  0.0227  0.0840 -0.7162
  357MPD2    C4 5347   3.351   2.977   2.044  0.1519  0.3151 -0.4299
  357MPD2    C5 5348   3.478   3.016   2.063  0.1049 -0.1640  0.3435
  357MPD2     H 5349   3.372   2.843   1.739 -0.1036  1.6097 -0.9149
  357MPD2    H1 5350   3.285   2.988   2.130  0.2245  0.8058 -0.4386
  357MPD2    H2 5351   3.673   3.023   1.980  0.4405 -0.3359  0.4906
  357MPD2    H3 5352   3.504   3.076   2.149 -0.8885  1.0604 -0.2087
  357MPD2     N 5353   3.177   2.867   1.920  0.2369  0.5377  0.2907
  357MPD2    H5 5354   3.115   2.906   1.990 -1.2413 -1.9650  0.3699
  357MPD2    N1 5355   3.641   2.906   1.750  0.0035  0.2772 -0.1869
  357MPD2    H7 5356   3.736   2.935   1.767  0.4083 -2.6811  2.4906
  358TMC3    C1 5357   3.725   2.839   1.529 -0.2401 -0.1972  0.4847
  358TMC3    C2 5358   3.684   2.823   1.396 -0.5365 -0.3044  0.5794
  358TMC3    C3 5359   3.776   2.774   1.307 -0.0821 -0.6803 -0.1456
  358TMC3    C4 5360   3.846   2.795   1.573 -0.2829  0.1466  0.6531
  358TMC3    C5 5361   3.936   2.744   1.480 -0.0740  0.5187  1.0547
  358TMC3    C6 5362   3.901   2.740   1.349 -0.2538 -0.1563  0.1902
  358TMC3     C 5363   3.611   2.864   1.618  0.1394 -0.0051  0.5682
  358TMC3     O 5364   3.504   2.831   1.567 -0.2181 -0.4764  0.1210
  358TMC3     H 5365   3.582   2.843   1.365 -0.4286  1.8132  1.5409
  358TMC3    H1 5366   3.865   2.786   1.680 -2.3662 -1.0475  0.9180
  358TMC3    H2 5367   3.960   2.682   1.279 -1.1893 -0.5233 -0.2992
  358TMC3    C7 5368   4.063   2.692   1.533 -0.1761  0.2028 -0.4553
  358TMC3    C8 5369   3.751   2.774   1.168 -0.0592 -0.1898 -1.1164
  358TMC3    O1 5370   4.058   2.656   1.651  0.1017  0.2599 -0.4476
  358TMC3    O2 5371   3.829   2.716   1.091 -0.0917  0.4350  0.1124
  359MPD2     C 5372   4.073   2.595  12.506 -0.2557  0.1095 -0.0833
  359MPD2    C1 5373   4.000   2.623  12.390  0.2231 -0.9045  0.8927
  359MPD2    C2 5374   3.869   2.575  12.382 -0.5268  0.3203  0.7584
  359MPD2    C3 5375   3.805   2.512  12.489 -0.3941  0.1510 -0.2289
  359MPD2    C4 5376   3.887   2.480  12.595  0.3311  0.4827 -0.1484
  359MPD2    C5 5377   4.018   2.520  12.603  0.2991 -0.8603  0.1401
  359MPD2     H 5378   3.818   2.596  12.289 -1.5448  0.4248  1.3338
  359MPD2    H1 5379   3.843   2.426  12.677  0.1772  0.3835 -0.2961
  359MPD2    H2 5380   4.178   2.623  12.501  0.0374 -1.1214 -0.8658
  359MPD2    H3 5381   4.074   2.492  12.691  1.8265  1.0034 -0.2399
  359MPD2     N 5382   3.668   2.467  12.505 -0.3512  0.8794 -0.4425
  359MPD2    H5 5383   3.640   2.416  12.588  0.2937  0.3800 -0.5321
  359MPD2    N1 5384   4.055   2.688  12.269 -0.0163  0.5145  0.1143
  359MPD2    H7 5385   3.991   2.702  12.192  0.0485  1.8177  0.3002
  360TMC3    C1 5386   4.221   2.807  12.128 -0.2993  0.2408 -0.0007
  360TMC3    C2 5387   4.343   2.872  12.114 -0.1735 -0.1758  0.1332
  360TMC3    C3 5388   4.356   2.972  12.021  0.0272 -0.1996 -1.1272
  360TMC3    C4 5389   4.128   2.808  12.027  0.6203  0.1314 -0.5151
  360TMC3    C5 5390   4.152   2.897  11.923 -0.3361 -0.1407 -0.0466
  360TMC3    C6 5391   4.267   2.977  11.921 -0.3686 -0.7188 -0.2135
  360TMC3     C 5392   4.181   2.744  12.258  0.0686 -0.2021 -0.3995
  360TMC3     O 5393   4.272   2.750  12.337 -0.5609  0.1012 -0.3033
  360TMC3     H 5394   4.409   2.865  12.200 -1.0434  0.3539  0.8490
  360TMC3    H1 5395   4.028   2.765  12.032  0.2898  0.9655 -0.0251
  360TMC3    H2 5396   4.286   3.030  11.828  1.8387 -2.1143 -0.5387
  360TMC3    C7 5397   4.112   2.850  11.790  0.5872  0.6896  0.3858
  360TMC3    C8 5398   4.489   3.015  11.979  0.0968  0.1282 -0.0832
  360TMC3    O1 5399   4.141   2.920  11.690  0.2616 -0.0492 -0.2539
  360TMC3    O2 5400   4.504   3.129  11.936 -0.7566  0.0013 -0.7632
  361MPD2     C 5401   0.696   1.316  16.777 -0.3357 -0.2975  0.2195
  361MPD2    C1 5402   0.690   1.261  16.904 -0.0821  0.0426  0.2118
  361MPD2    C2 5403   0.801   1.196  16.959 -0.4331 -1.1606 -0.4642
  361MPD2    C3 5404   0.913   1.172  16.884  0.1286 -0.4479  0.1325
  361MPD2    C4 5405   0.919   1.229  16.752  0.3968 -0.0676  0.4287
  361MPD2    C5 5406   0.813   1.303  16.705 -0.2845  0.7380 -0.4316
  361MPD2     H 5407   0.791   1.156  17.059 -1.6579  1.0711  0.3134
  361MPD2    H1 5408   1.000   1.200  16.687 -0.1791  1.4492 -0.9479
  361MPD2    H2 5409   0.617   1.373  16.729  2.2693  1.1030 -2.4663
  361MPD2    H3 5410   0.807   1.343  16.604 -2.1194  0.4672 -0.4333
  361MPD2     N 5411   1.023   1.087  16.916  0.0972 -0.2387 -0.8296
  361MPD2    H5 5412   1.098   1.068  16.850  0.3190  1.2010 -0.9839
  361MPD2    N1 5413   0.575   1.280  16.993  0.6352 -0.0043  0.1697
  361MPD2    H7 5414   0.580   1.232  17.082 -1.6907  0.4426  0.5420
  362TMC3    C1 5415   0.362   1.346  17.068 -0.1516  0.4992 -0.3362
  362TMC3    C2 5416   0.401   1.408  17.187  0.3892 -0.2312  0.3421
  362TMC3    C3 5417   0.300   1.472  17.251  0.8536 -0.1738 -0.4010
  362TMC3    C4 5418   0.234   1.364  17.020 -0.3495 -0.6902  0.6766
  362TMC3    C5 5419   0.132   1.427  17.094 -0.6623  0.3583  0.3255
  362TMC3    C6 5420   0.166   1.494  17.208 -0.0305  0.0708  0.1967
  362TMC3     C 5421   0.456   1.335  16.956  0.4832  0.3493 -0.3106
  362TMC3     O 5422   0.414   1.360  16.842 -0.1750  0.8768  0.1879
  362TMC3     H 5423   0.503   1.396  17.222  0.1290 -2.4455  0.2846
  362TMC3    H1 5424   0.212   1.311  16.928 -0.3171 -0.9950  0.8439
  362TMC3    H2 5425   0.084   1.543  17.261 -1.6725 -1.3873 -0.9728
  362TMC3    C7 5426   0.001   1.459  17.029 -0.1908  0.6770  0.6344
  362TMC3    C8 5427   0.342   1.534  17.372 -0.4132 -0.5219  0.6057
  362TMC3    O1 5428   4.668   1.569  17.051  0.2915  0.5903 -0.7204
  362TMC3    O2 5429   0.459   1.556  17.389  0.6779 -0.5805  0.4516
  363TMC3    C1 5430   0.376   3.792  10.452  0.6210 -0.6267 -0.1766
  363TMC3    C2 5431   0.268   3.718  10.506  0.1136 -0.0180  0.0902
  363TMC3    C3 5432   0.204   3.628  10.420  0.1709  0.0962  0.0002
  363TMC3    C4 5433   0.420   3.771  10.326 -0.1067  0.2316 -0.5168
  363TMC3    C5 5434   0.354   3.676  10.246  0.1984  0.2386  0.5092
  363TMC3    C6 5435   0.244   3.607  10.291  0.1316 -0.0251  0.1407
  363TMC3     C 5436   0.435   3.902  10.530 -0.3748 -0.4402  0.2067
  363TMC3     O 5437   0.509   3.984  10.476 -0.2727  0.0599 -0.2510
  363TMC3     H 5438   0.229   3.726  10.606  1.5758 -0.1386  0.6684
  363TMC3    H1 5439   0.509   3.822  10.291  0.3799 -0.0160  0.3579
  363TMC3    H2 5440   0.178   3.558  10.221 -0.8914  2.8413 -0.8902
  363TMC3    C7 5441   0.341   3.720  10.110 -0.3329 -0.1591 -0.2286
  363TMC3    C8 5442   0.101   3.545  10.479 -0.3638  0.2260  0.4863
  363TMC3    O1 5443   0.230   3.712  10.056  0.1483  0.2837 -0.3226
  363TMC3    O2 5444   0.038   3.598  10.564  0.2028 -0.0605  0.4092
  364MPD2     C 5445   2.771   2.876   9.920  0.5091  0.1907 -0.2414
  364MPD2    C1 5446   2.764   2.996   9.989  0.3700  0.1306 -0.3666
  364MPD2    C2 5447   2.819   3.000  10.118  0.4359 -0.8378 -0.2670
  364MPD2    C3 5448   2.866   2.883  10.168 -0.3366  0.2624 -0.6259
  364MPD2    C4 5449   2.891   2.774  10.095 -0.3352 -0.2973 -0.6117
  364MPD2    C5 5450   2.842   2.769   9.968  0.2807 -0.4766  0.3194
  364MPD2     H 5451   2.815   3.086  10.184 -0.9667  0.2672 -1.7822
  364MPD2    H1 5452   2.929   2.684  10.141 -1.7249  0.2810  1.7290
  364MPD2    H2 5453   2.739   2.875   9.816 -0.3997  0.8696  0.0298
  364MPD2    H3 5454   2.849   2.673   9.919 -3.0690 -0.9216  0.7071
  364MPD2     N 5455   2.892   2.874  10.310  0.4113  0.0294  0.1917
  364MPD2    H5 5456   2.915   2.784  10.350 -0.4638 -0.0711  0.4668
  364MPD2    N1 5457   2.717   3.113   9.929 -0.0624 -0.2922 -0.5552
  364MPD2    H7 5458   2.685   3.098   9.833 -0.3437  3.1608 -0.9858
  365TMC3    C1 5459   2.674   3.340   9.895 -0.2526  0.0357 -0.2662
  365TMC3    C2 5460   2.650   3.313   9.763 -0.4786  0.3204 -0.5261
  365TMC3    C3 5461   2.604   3.415   9.691  0.0037 -0.5198 -0.0718
  365TMC3    C4 5462   2.648   3.467   9.946  0.2490  0.7019 -0.3778
  365TMC3    C5 5463   2.594   3.563   9.863  0.2875 -0.1949 -0.5107
  365TMC3    C6 5464   2.573   3.542   9.728 -0.2742 -0.3045 -0.1600
  365TMC3     C 5465   2.709   3.240   9.988  0.5841  0.2211 -0.1356
  365TMC3     O 5466   2.727   3.277  10.105  0.3215  0.4874 -0.1543
  365TMC3     H 5467   2.663   3.214   9.721 -0.8198 -0.7643  1.9271
  365TMC3    H1 5468   2.680   3.489  10.047 -0.1936 -0.1737 -0.0558
  365TMC3    H2 5469   2.548   3.632   9.672  0.4273  0.6429  1.0411
  365TMC3    C7 5470   2.564   3.689   9.925  0.3774  0.5907  0.5581
  365TMC3    C8 5471   2.587   3.403   9.549 -0.8790 -0.4268  0.2387
  365TMC3    O1 5472   2.564   3.788   9.856  0.0165 -0.2178  0.2614
  365TMC3    O2 5473   2.503   3.476   9.495  0.1240  0.0990  0.2700
  366MPD2     C 5474   1.293   3.992  15.120 -0.0639 -0.0097  0.0581
  366MPD2    C1 5475   1.331   4.122  15.103 -0.8338 -0.1852  1.4154
  366MPD2    C2 5476   1.447   4.152  15.037  0.0078 -0.0725 -0.4777
  366MPD2    C3 5477   1.528   4.055  14.988  0.0277  0.4371  0.0193
  366MPD2    C4 5478   1.496   3.925  15.011  0.0212  0.2168 -0.0454
  366MPD2    C5 5479   1.372   3.897  15.072 -0.4062 -0.6628 -0.1016
  366MPD2     H 5480   1.479   4.255  15.031  1.3721 -0.4761  0.0834
  366MPD2    H1 5481   1.550   3.848  14.958 -1.8449 -0.0314 -1.5779
  366MPD2    H2 5482   1.207   3.957  15.176 -1.4540  0.7327 -1.6006
  366MPD2    H3 5483   1.343   3.795  15.094 -2.1242 -0.6062 -2.0837
  366MPD2     N 5484   1.652   4.089  14.918  0.1485 -0.1414  0.3694
  366MPD2    H5 5485   1.660   4.189  14.902 -0.9309 -0.5706 -2.8638
  366MPD2    N1 5486   1.268   4.234  15.163 -0.2391  0.3899 -0.1051
  366MPD2    H7 5487   1.317   4.321  15.145  0.0728  0.4186  0.8898
  367TMC3    C1 5488   1.127   4.368  15.286 -0.2671  0.4092  0.0003
  367TMC3    C2 5489   1.238   4.420  15.350 -0.1774 -0.5316  0.0981
  367TMC3    C3 5490   1.249   4.556  15.361 -0.1214  0.3495 -1.4159
  367TMC3    C4 5491   1.034   4.447  15.236 -0.7898  0.2815 -0.2806
  367TMC3    C5 5492   1.036   4.586  15.253 -0.7528 -0.6252 -0.8642
  367TMC3    C6 5493   1.147   4.642  15.319 -0.2345  0.5805 -0.6170
  367TMC3     C 5494   1.143   4.241  15.221 -0.6040 -0.2280 -0.3070
  367TMC3     O 5495   1.058   4.157  15.236 -0.6122 -0.1227 -0.0423
  367TMC3     H 5496   1.303   4.348  15.398 -0.4435 -0.6062  0.3487
  367TMC3    H1 5497   0.959   4.399  15.175  0.6582  0.2589 -2.0569
  367TMC3    H2 5498   1.169   0.025  15.307 -0.9358  0.8502  0.4196
  367TMC3    C7 5499   0.913   4.658  15.264  0.3880 -0.0302  0.2379
  367TMC3    C8 5500   1.364   4.610  15.421 -0.1499 -0.0059  0.0843
  367TMC3    O1 5501   0.918   0.056  15.286 -0.1389  0.0169  0.2854
  367TMC3    O2 5502   1.463   4.537  15.421 -0.0009  0.7709 -0.4025
  368MPD2     C 5503   2.168   1.794  13.256 -0.1501  0.0583 -0.4363
  368MPD2    C1 5504   2.115   1.918  13.236  0.2274 -0.2871  0.0701
  368MPD2    C2 5505   2.199   2.024  13.228  0.5787 -0.1241 -0.4847
  368MPD2    C3 5506   2.338   2.005  13.247 -0.0173  0.4772 -0.5842
  368MPD2    C4 5507   2.385   1.883  13.268  0.2601  0.0396  0.0182
  368MPD2    C5 5508   2.297   1.780  13.273  0.2400  0.5927  0.5978
  368MPD2     H 5509   2.164   2.124  13.205  0.4507 -0.5496 -2.1291
  368MPD2    H1 5510   2.491   1.863  13.283  0.2620  0.7171  0.8691
  368MPD2    H2 5511   2.110   1.703  13.266 -0.7190  0.3224 -1.3149
  368MPD2    H3 5512   2.340   1.682  13.294 -2.9426 -1.1572 -1.1313
  368MPD2     N 5513   2.438   2.104  13.234  0.3004  0.1671  0.1434
  368MPD2    H5 5514   2.534   2.075  13.245  0.3108  0.6109  1.2250
  368MPD2    N1 5515   1.972   1.926  13.233  0.3894 -0.0064  1.0379
  368MPD2    H7 5516   1.917   1.841  13.239  0.5972 -0.0534  2.4258
  369TMC3    C1 5517   1.762   2.024  13.157  0.0551  0.8098 -0.5480
  369TMC3    C2 5518   1.740   2.102  13.049 -0.6816 -0.1517  0.3740
  369TMC3    C3 5519   1.647   2.056  12.955 -0.2914  0.6828  0.3700
  369TMC3    C4 5520   1.702   1.897  13.171  0.0998 -0.2214  0.2387
  369TMC3    C5 5521   1.615   1.854  13.079 -0.1932 -0.4981 -0.7623
  369TMC3    C6 5522   1.584   1.932  12.973 -0.4353  0.8403 -0.4829
  369TMC3     C 5523   1.898   2.045  13.210 -0.1936 -0.4082  0.1357
  369TMC3     O 5524   1.935   2.162  13.216 -0.0934 -0.0863  0.0353
  369TMC3     H 5525   1.793   2.195  13.034  0.5937 -0.8106  0.7783
  369TMC3    H1 5526   1.711   1.847  13.267 -0.5106 -0.6074  0.0941
  369TMC3    H2 5527   1.507   1.900  12.904 -0.0751 -1.1959  0.0507
  369TMC3    C7 5528   1.570   1.711  13.088  0.3137 -0.0642  0.2537
  369TMC3    C8 5529   1.633   2.133  12.830  0.5953  0.1033 -0.3077
  369TMC3    O1 5530   1.593   1.651  13.196  0.1844  0.0042 -0.5383
  369TMC3    O2 5531   1.534   2.113  12.758  0.4974 -0.1435 -0.4115
  370TMC3    C1 5532   1.675   1.984  16.379  0.0052  0.0873  0.5055
  370TMC3    C2 5533   1.670   1.897  16.484 -0.4062 -0.7272 -0.3692
  370TMC3    C3 5534   1.707   1.764  16.466 -0.6055  0.3474  0.0119
  370TMC3    C4 5535   1.725   1.943  16.260 -0.3793 -0.9118  0.7831
  370TMC3    C5 5536   1.767   1.810  16.246 -0.5304  0.1117  0.0195
  370TMC3    C6 5537   1.742   1.716  16.344  0.2828  0.3468 -0.3578
  370TMC3     C 5538   1.684   2.127  16.415 -0.2929 -0.0291  0.1496
  370TMC3     O 5539   1.679   2.160  16.532  0.0321  0.1673  0.1503
  370TMC3     H 5540   1.616   1.935  16.570 -1.0551 -0.1167 -1.0437
  370TMC3    H1 5541   1.730   2.001  16.169  0.7750 -2.7638 -0.3457
  370TMC3    H2 5542   1.787   1.618  16.340  0.5476  0.5260 -1.7944
  370TMC3    C7 5543   1.801   1.771  16.114 -0.3097  0.6769  0.5581
  370TMC3    C8 5544   1.713   1.678  16.581 -0.6846  0.1758 -0.2093
  370TMC3    O1 5545   1.774   1.846  16.019  0.1664  0.2603 -0.1483
  370TMC3    O2 5546   1.734   1.563  16.549 -0.4943  0.0834  0.0895
  371TMC3    C1 5547   3.102   0.261  15.547 -0.0459 -0.5863 -0.0314
  371TMC3    C2 5548   2.969   0.274  15.585 -0.3630 -0.1475 -0.1579
  371TMC3    C3 5549   2.918   0.402  15.573 -0.4737  0.0935  0.2950
  371TMC3    C4 5550   3.188   0.369  15.518  0.1263 -0.0898 -0.5662
  371TMC3    C5 5551   3.131   0.493  15.519 -0.4517 -0.0778 -0.0141
  371TMC3    C6 5552   2.998   0.511  15.548 -0.4143  0.1973 -0.3662
  371TMC3     C 5553   3.163   0.132  15.536 -0.2303 -0.2731 -0.3536
  371TMC3     O 5554   3.266   0.122  15.473 -0.0317  0.0606 -0.6602
  371TMC3     H 5555   2.901   0.192  15.605  0.9143 -1.0716  0.4417
  371TMC3    H1 5556   3.293   0.356  15.495 -0.1376  0.3758 -2.0431
  371TMC3    H2 5557   2.960   0.613  15.539 -0.1712  0.0658 -2.8796
  371TMC3    C7 5558   3.199   0.615  15.477  0.1268 -0.1373 -0.0663
  371TMC3    C8 5559   2.773   0.418  15.612  0.3675  0.2774 -0.0887
  371TMC3    O1 5560   3.150   0.727  15.504 -0.1861  0.4580 -0.2401
  371TMC3    O2 5561   2.698   0.325  15.586  0.3114 -0.5934  0.3157
  372MPD2     C 5562   3.280   2.029  13.505 -0.1266  0.9573 -0.2977
  372MPD2    C1 5563   3.345   1.942  13.585  0.0774  0.4876  0.2664
  372MPD2    C2 5564   3.280   1.823  13.621  0.1688 -0.5679 -0.4359
  372MPD2    C3 5565   3.145   1.797  13.596  0.5551  0.0521 -0.3466
  372MPD2    C4 5566   3.086   1.893  13.518  0.2154  0.0026  0.5768
  372MPD2    C5 5567   3.151   2.003  13.471  0.2548  0.9490  0.6486
  372MPD2     H 5568   3.334   1.749  13.679  0.4941 -1.1217 -1.4301
  372MPD2    H1 5569   2.980   1.881  13.497  0.0072 -2.2082  2.8710
  372MPD2    H2 5570   3.329   2.115  13.461 -2.9451  2.1351 -1.1443
  372MPD2    H3 5571   3.092   2.070  13.409  0.5433  1.0033  0.4325
  372MPD2     N 5572   3.085   1.683  13.639 -0.5754 -0.1055  0.1081
  372MPD2    H5 5573   3.136   1.601  13.669  0.4035  0.4811  0.0776
  372MPD2    N1 5574   3.472   1.952  13.628 -0.5015  0.3535  0.4466
  372MPD2    H7 5575   3.502   1.877  13.690 -0.9272  0.4678  0.7882
  373TMC3    C1 5576   2.911   1.527  13.654 -0.6115 -0.1191  0.3654
  373TMC3    C2 5577   2.791   1.496  13.714 -0.8684 -1.0979 -0.1957
  373TMC3    C3 5578   2.763   1.363  13.731 -0.1327  0.1770 -0.3183
  373TMC3    C4 5579   3.008   1.438  13.617  0.5966 -0.1472 -0.3130
  373TMC3    C5 5580   2.974   1.306  13.635  0.0249  0.3367 -0.8332
  373TMC3    C6 5581   2.857   1.267  13.686  0.5149  1.3707 -1.0559
  373TMC3     C 5582   2.944   1.669  13.640 -0.5144  0.9666  0.2891
  373TMC3     O 5583   2.856   1.752  13.651  1.3495 -0.2277  0.1560
  373TMC3     H 5584   2.721   1.574  13.743 -0.2967 -1.0011  0.9158
  373TMC3    H1 5585   3.097   1.470  13.563  0.0739  0.7776 -0.6238
  373TMC3    H2 5586   2.827   1.162  13.681 -1.6759  2.0236 -1.5967
  373TMC3    C7 5587   3.085   1.221  13.661 -0.4548 -0.5783  0.0474
  373TMC3    C8 5588   2.718   1.356  13.871  0.1769 -0.4227 -0.1646
  373TMC3    O1 5589   3.179   1.222  13.581  0.7171  0.2198  0.5804
  373TMC3    O2 5590   2.713   1.450  13.946  0.0150  0.0689 -0.0699
  374TMC3    C1 5591   3.859   1.954   9.767  0.4795  0.4121 -0.0376
  374TMC3    C2 5592   3.896   2.058   9.840  0.0725  0.1912 -0.5302
  374TMC3    C3 5593   3.925   2.171   9.775  0.0435 -0.0564 -0.5591
  374TMC3    C4 5594   3.852   1.948   9.633 -0.1650  0.3138 -0.6090
  374TMC3    C5 5595   3.898   2.063   9.567 -0.1326  0.0878  0.1315
  374TMC3    C6 5596   3.933   2.176   9.642 -0.3088  0.5880  0.4699
  374TMC3     C 5597   3.819   1.835   9.837  0.3334  0.0988 -0.2723
  374TMC3     O 5598   3.859   1.821   9.951  0.5450  0.4464  0.2216
  374TMC3     H 5599   3.901   2.056   9.949 -1.6482  1.4555 -0.4243
  374TMC3    H1 5600   3.826   1.856   9.583  0.0414  0.4513 -0.9717
  374TMC3    H2 5601   3.960   2.264   9.585 -0.1329 -0.9322 -1.7919
  374TMC3    C7 5602   3.879   2.081   9.427 -0.0654  0.2232  0.4526
  374TMC3    C8 5603   3.937   2.298   9.835 -0.0118 -0.5119  0.2143
  374TMC3    O1 5604   3.916   2.189   9.378 -0.1678 -0.4852  0.3117
  374TMC3    O2 5605   3.930   2.398   9.767 -0.1719 -0.5454 -0.4371
  375MPD2     C 5606   2.844   2.493  17.004  0.4914 -0.5437 -0.7545
  375MPD2    C1 5607   2.763   2.531  16.900 -0.1977  0.5727  0.1240
  375MPD2    C2 5608   2.804   2.494  16.770  0.2692  0.4723 -0.3323
  375MPD2    C3 5609   2.927   2.429  16.752  0.3043  0.2434  0.6437
  375MPD2    C4 5610   3.011   2.409  16.860  0.2638  0.7452 -0.2109
  375MPD2    C5 5611   2.964   2.432  16.982 -0.1822 -0.7903  0.6895
  375MPD2     H 5612   2.738   2.515  16.687  1.5952 -0.1255 -1.5319
  375MPD2    H1 5613   3.108   2.365  16.844  0.4644  1.1341 -0.0592
  375MPD2    H2 5614   2.820   2.507  17.109  1.6673  1.1565 -0.7145
  375MPD2    H3 5615   3.024   2.405  17.068  0.7077  0.5815  0.5008
  375MPD2     N 5616   2.961   2.370  16.634  0.6013  0.4382  0.0992
  375MPD2    H5 5617   3.043   2.311  16.621  0.0424 -0.4058  0.3786
  375MPD2    N1 5618   2.650   2.613  16.899 -0.3275  0.0928 -0.9092
  375MPD2    H7 5619   2.601   2.646  16.817 -0.7750  1.5865 -0.0323
  376TMC3    C1 5620   2.948   2.299  16.406  0.5250  0.5789 -0.4202
  376TMC3    C2 5621   3.012   2.186  16.450 -0.1809  0.4695 -0.4909
  376TMC3    C3 5622   3.036   2.095  16.356 -0.1033 -0.2171 -0.0764
  376TMC3    C4 5623   2.902   2.318  16.279  0.4063 -0.1330  0.6047
  376TMC3    C5 5624   2.932   2.228  16.183  0.0741 -0.6286  0.2792
  376TMC3    C6 5625   3.013   2.120  16.215  0.7537  0.2706 -0.2574
  376TMC3     C 5626   2.904   2.391  16.512 -0.2426 -0.3599 -0.2709
  376TMC3     O 5627   2.826   2.480  16.481 -0.1499  0.1350 -0.3183
  376TMC3     H 5628   3.033   2.155  16.551 -0.7005 -2.8998 -1.4250
  376TMC3    H1 5629   2.860   2.415  16.255  1.4055  0.1477 -0.0269
  376TMC3    H2 5630   3.049   2.051  16.139  2.0059  0.2796  0.3296
  376TMC3    C7 5631   2.906   2.257  16.048 -0.3629 -0.0871 -0.6596
  376TMC3    C8 5632   3.151   2.012  16.380  0.6394 -0.6829  0.1137
  376TMC3    O1 5633   2.881   2.374  16.015 -0.5366 -0.6348 -0.4397
  376TMC3    O2 5634   3.134   1.901  16.429  0.0241 -0.2827  0.0705
  377MPD2     C 5635   1.001   2.066  12.209  0.2964 -0.3568  0.0598
  377MPD2    C1 5636   1.053   1.976  12.303 -0.0392 -0.6854 -0.1233
  377MPD2    C2 5637   0.965   1.891  12.366  0.2245 -0.2698  0.1400
  377MPD2    C3 5638   0.827   1.897  12.344 -0.3338  0.8917  0.2184
  377MPD2    C4 5639   0.776   1.988  12.257  0.1320 -0.3483 -0.2379
  377MPD2    C5 5640   0.865   2.072  12.195  0.4058 -0.3422 -0.4806
  377MPD2     H 5641   0.999   1.811  12.432  0.6808 -1.0539 -1.0375
  377MPD2    H1 5642   0.672   1.996  12.228  0.2717 -0.6056 -0.8047
  377MPD2    H2 5643   1.065   2.134  12.155 -1.2270  0.3317 -0.8929
  377MPD2    H3 5644   0.815   2.138  12.125  0.1755  0.2657  0.2603
  377MPD2     N 5645   0.745   1.786  12.389 -0.6638  0.4950  0.4990
  377MPD2    H5 5646   0.652   1.767  12.354 -0.4412 -1.7893  1.1454
  377MPD2    N1 5647   1.189   1.973  12.326  0.2331  0.2338  0.4241
  377MPD2    H7 5648   1.243   2.037  12.269 -2.1792 -0.9741 -3.2352
  378TMC3    C1 5649   1.573   2.072  12.356  0.2508  0.1651 -0.2308
  378TMC3    C2 5650   1.446   2.025  12.328 -0.6214  0.3153  0.4857
  378TMC3    C3 5651   1.400   1.914  12.404  0.4563 -0.0064  0.1890
  378TMC3    C4 5652   1.650   2.019  12.460  0.0729  0.5166 -0.7127
  378TMC3    C5 5653   1.594   1.900  12.524  0.0671  0.1872 -0.3827
  378TMC3    C6 5654   1.477   1.847  12.492 -0.1089  0.2367  0.6820
  378TMC3     C 5655   1.645   2.149  12.252 -0.7281  0.2221  0.4606
  378TMC3     O 5656   1.592   2.157  12.143 -0.4232  0.0839 -0.5336
  378TMC3     H 5657   1.399   2.071  12.242 -0.4551  2.5360  1.5786
  378TMC3    H1 5658   1.755   2.039  12.478 -0.2185  1.3619  0.0563
  378TMC3    H2 5659   1.435   1.759  12.540 -1.2922  1.2596  1.5228
  378TMC3    C7 5660   1.673   1.828  12.630  0.3748 -0.0363 -0.0195
  378TMC3    C8 5661   1.257   1.895  12.419 -0.4508 -0.2112  0.0777
  378TMC3    O1 5662   1.611   1.753  12.701  0.4423  0.4462  0.0923
  378TMC3    O2 5663   1.219   1.821  12.508 -0.0140 -0.2264  0.5779
  379MPD2     C 5664   2.551   4.472  16.094 -0.4623 -0.3742 -0.5571
  379MPD2    C1 5665   2.413   4.466  16.122 -0.8103 -0.6313  0.7882
  379MPD2    C2 5666   2.363   4.381  16.224 -0.0955 -0.3974 -0.2003
  379MPD2    C3 5667   2.461   4.305  16.291  0.7127 -0.2104  0.4233
  379MPD2    C4 5668   2.595   4.316  16.260 -0.5859  0.6817  0.0450
  379MPD2    C5 5669   2.638   4.401  16.164  0.3102 -0.2419 -0.2025
  379MPD2     H 5670   2.260   4.369  16.254  0.9242 -0.5657  3.2151
  379MPD2    H1 5671   2.670   4.254  16.309 -1.7170 -0.7629 -0.0481
  379MPD2    H2 5672   2.586   4.542  16.019 -0.2929  1.5655  1.3136
  379MPD2    H3 5673   2.744   4.403  16.141  0.3555  0.3024  0.0543
  379MPD2     N 5674   2.432   4.216  16.400  0.4216 -0.0830 -0.6682
  379MPD2    H5 5675   2.511   4.171  16.444  2.2436  1.1855 -2.6617
  379MPD2    N1 5676   2.327   4.542  16.038  0.1473 -0.2318  0.1908
  379MPD2    H7 5677   2.376   4.598  15.969  0.7079  0.6218  1.2842
  380TMC3    C1 5678   2.131   4.602  15.921 -0.0298  0.1661  0.6817
  380TMC3    C2 5679   2.191   4.573  15.802  0.3458  0.3398  0.1017
  380TMC3    C3 5680   2.143   4.625  15.684 -0.4172 -0.8277 -0.4850
  380TMC3    C4 5681   2.034   4.699  15.927 -0.4753  0.3806 -0.0738
  380TMC3    C5 5682   1.980   0.017  15.810 -0.0532 -0.5044 -0.0241
  380TMC3    C6 5683   2.029   4.702  15.689  0.3215 -0.2851 -0.0620
  380TMC3     C 5684   2.191   4.538  16.038  0.3233  0.2753  0.1357
  380TMC3     O 5685   2.114   4.527  16.133  0.2530 -0.2186  0.2547
  380TMC3     H 5686   2.260   4.490  15.792 -0.8853 -0.6304 -0.4118
  380TMC3    H1 5687   1.993   0.011  16.021 -2.9173 -0.5938 -0.7742
  380TMC3    H2 5688   2.003   0.032  15.598  0.2159  0.1239  0.2066
  380TMC3    C7 5689   1.852   0.076  15.817 -0.0049  0.6440  0.1151
  380TMC3    C8 5690   2.223   4.626  15.561 -0.5151 -0.3124 -0.8967
  380TMC3    O1 5691   1.812   0.122  15.926  0.0196  0.5731 -0.5118
  380TMC3    O2 5692   2.195   4.706  15.473 -0.3122 -0.6803  0.4819
  381TMC3    C1 5693   2.182   0.955  16.338 -0.2772  0.1229  0.5672
  381TMC3    C2 5694   2.231   1.080  16.349 -0.2448 -0.2322  0.6563
  381TMC3    C3 5695   2.162   1.169  16.421 -0.4825  0.6927  0.0411
  381TMC3    C4 5696   2.057   0.913  16.396  0.6369 -0.1198 -0.3625
  381TMC3    C5 5697   1.988   1.014  16.462 -0.6294 -0.0228 -0.1619
  381TMC3    C6 5698   2.038   1.140  16.469 -0.1252 -0.7089  0.4075
  381TMC3     C 5699   2.268   0.864  16.258  0.3527 -1.3393  0.1045
  381TMC3     O 5700   2.379   0.905  16.224 -0.3477 -0.2095 -0.4923
  381TMC3     H 5701   2.328   1.103  16.306 -0.3827 -2.0551 -0.6073
  381TMC3    H1 5702   2.020   0.811  16.397 -0.5282  0.3173  0.2572
  381TMC3    H2 5703   1.976   1.223  16.503 -1.4072 -0.3820 -2.7306
  381TMC3    C7 5704   1.882   0.967  16.556 -0.5691 -0.3533  0.2965
  381TMC3    C8 5705   2.199   1.307  16.392  0.1088 -0.5970  0.0431
  381TMC3    O1 5706   1.872   0.850  16.583 -0.0039  0.2583  0.0484
  381TMC3    O2 5707   2.264   1.329  16.287 -0.3021 -0.0816 -0.5175
  382MPD2     C 5708   0.794   3.686  17.205  0.3541  0.3520  0.9051
  382MPD2    C1 5709   0.782   3.776  17.310 -0.9441  0.6827 -0.0549
  382MPD2    C2 5710   0.736   3.740  17.437 -0.3918  0.6956  0.0706
  382MPD2    C3 5711   0.714   3.602  17.464  0.4254  0.2753 -0.2390
  382MPD2    C4 5712   0.724   3.516  17.359  0.5290  0.3989  0.3633
  382MPD2    C5 5713   0.768   3.553  17.237  0.3868 -0.0469 -0.3815
  382MPD2     H 5714   0.726   3.807  17.522  0.8742  1.2239 -0.2070
  382MPD2    H1 5715   0.698   3.414  17.386  1.1975 -0.4144 -2.0782
  382MPD2    H2 5716   0.812   3.718  17.103 -0.5071  0.1608  0.6957
  382MPD2    H3 5717   0.762   3.479  17.158 -2.1421 -0.9565  0.6880
  382MPD2     N 5718   0.675   3.543  17.588 -0.4891  0.6596 -0.0406
  382MPD2    H5 5719   0.661   3.444  17.576 -0.1965  0.6443 -0.2472
  382MPD2    N1 5720   0.820   3.908  17.298  0.3966 -0.1532 -0.7198
  382MPD2    H7 5721   0.827   3.962  17.383 -1.0469 -1.6852  0.3582
  383TMC3    C1 5722   0.586   3.510   0.099 -0.0211  0.2070  0.1317
  383TMC3    C2 5723   0.539   3.382   0.060  0.1024 -0.2066  0.2011
  383TMC3    C3 5724   0.465   3.305   0.150 -0.7522 -0.0180 -0.1396
  383TMC3    C4 5725   0.558   3.554   0.222 -0.5531 -0.2579  0.0780
  383TMC3    C5 5726   0.489   3.477   0.311 -0.3116 -0.2220 -0.3647
  383TMC3    C6 5727   0.445   3.351   0.281 -0.1194  0.4588 -0.1779
  383TMC3     C 5728   0.653   3.605   0.016  0.5870 -0.2172 -0.6963
  383TMC3     O 5729   0.662   3.726   0.045 -0.6716  0.1149  0.3851
  383TMC3     H 5730   0.568   3.327  17.663  0.4648  0.6782 -0.2200
  383TMC3    H1 5731   0.574   3.659   0.245  1.7984 -0.6383  0.2143
  383TMC3    H2 5732   0.368   3.315   0.349 -0.6432  2.7085  0.4147
  383TMC3    C7 5733   0.505   3.499   0.450  0.3930 -0.0878 -0.2753
  383TMC3    C8 5734   0.433   3.170   0.108 -0.5433 -0.1333 -0.2116
  383TMC3    O1 5735   0.511   3.400   0.519 -0.3506 -0.1936  0.5910
  383TMC3    O2 5736   0.461   3.132  17.686  0.6877 -0.1526 -0.6738
  384MPD2     C 5737   2.318   0.292  11.645 -0.2543  0.3700 -0.4011
  384MPD2    C1 5738   2.294   0.166  11.700 -0.1741  0.1094 -0.4393
  384MPD2    C2 5739   2.341   0.051  11.634  0.2492  0.5717  0.2463
  384MPD2    C3 5740   2.421   0.064  11.514  0.3543  0.2709 -0.1335
  384MPD2    C4 5741   2.448   0.188  11.470 -0.5616 -0.3084  0.5854
  384MPD2    C5 5742   2.398   0.294  11.535  1.0137 -0.0009 -0.0219
  384MPD2     H 5743   2.335   4.673  11.674  0.4220 -0.1703 -1.5902
  384MPD2    H1 5744   2.507   0.209  11.381 -1.6603 -0.3027 -0.1470
  384MPD2    H2 5745   2.292   0.383  11.699 -2.2834 -0.1596 -0.4972
  384MPD2    H3 5746   2.437   0.390  11.502  1.6603 -0.2385  0.0486
  384MPD2     N 5747   2.475   4.680  11.442  0.3622  0.3151  0.0687
  384MPD2    H5 5748   2.546   4.699  11.372  2.7081 -1.6851  1.8937
  384MPD2    N1 5749   2.220   0.164  11.810  0.0363  0.1013 -0.2347
  384MPD2    H7 5750   2.205   0.252  11.857  0.3784  0.5035 -0.8802
  385TMC3    C1 5751   2.566   4.474  11.440 -0.7246 -0.1218 -0.9944
  385TMC3    C2 5752   2.528   4.343  11.431  0.2019  0.2292  0.0528
  385TMC3    C3 5753   2.591   4.247  11.502 -0.1486  0.8729  0.3896
  385TMC3    C4 5754   2.674   4.504  11.516  0.4494 -0.1489  0.5945
  385TMC3    C5 5755   2.721   4.416  11.607 -0.3759 -0.6855  0.0184
  385TMC3    C6 5756   2.681   4.286  11.589  0.8600  0.0567  0.2775
  385TMC3     C 5757   2.454   4.548  11.478 -0.0462 -0.6117  0.0963
  385TMC3     O 5758   2.365   4.491  11.546 -0.3962  0.0659 -0.1627
  385TMC3     H 5759   2.434   4.311  11.386 -0.3904  2.0696 -0.0246
  385TMC3    H1 5760   2.710   4.606  11.522  0.8221 -0.1785 -1.2199
  385TMC3    H2 5761   2.737   4.211  11.644  0.0445 -0.9147 -0.2162
  385TMC3    C7 5762   2.711   4.468  11.739 -0.5507  0.5775  0.9622
  385TMC3    C8 5763   2.558   4.110  11.489 -0.8994 -0.4461  0.2573
  385TMC3    O1 5764   2.679   4.583  11.747 -0.4070 -0.2372  0.0605
  385TMC3    O2 5765   2.621   4.042  11.568  0.5282 -0.1481  0.1322
  386TMC3    C1 5766   2.324   2.744  11.758  0.6477 -1.0875 -0.3733
  386TMC3    C2 5767   2.354   2.686  11.639  0.4538  0.1284  0.4365
  386TMC3    C3 5768   2.260   2.697  11.537  0.0749 -0.0527 -0.0060
  386TMC3    C4 5769   2.207   2.821  11.778  0.2385  0.0318  0.5819
  386TMC3    C5 5770   2.122   2.825  11.672  0.8856  0.5709  0.0235
  386TMC3    C6 5771   2.141   2.756  11.552 -0.2585 -0.5228  0.2496
  386TMC3     C 5772   2.383   2.689  11.874 -0.1569  0.3371  0.6064
  386TMC3     O 5773   2.316   2.707  11.975  0.8127  0.4999 -0.2086
  386TMC3     H 5774   2.443   2.629  11.616 -0.2111  0.0728 -1.9764
  386TMC3    H1 5775   2.173   2.855  11.875  1.0193 -0.9664  1.2056
  386TMC3    H2 5776   2.074   2.775  11.469  1.3251 -1.6687 -1.2906
  386TMC3    C7 5777   1.983   2.861  11.698  0.6328  0.2605  0.5112
  386TMC3    C8 5778   2.300   2.645  11.404  0.4705  0.3250  0.0800
  386TMC3    O1 5779   1.961   2.881  11.816 -0.0230  0.3383  0.2105
  386TMC3    O2 5780   2.212   2.611  11.328 -0.9564 -0.1682 -0.1044
  387MPD2     C 5781   0.156   2.109   9.802 -0.5513  0.3104  0.0026
  387MPD2    C1 5782   0.281   2.090   9.847  0.3653  0.2030  0.4053
  387MPD2    C2 5783   0.368   1.992   9.793 -0.1542 -0.2474  0.6397
  387MPD2    C3 5784   0.319   1.911   9.693 -0.1365  0.2910  0.8446
  387MPD2    C4 5785   0.193   1.938   9.641 -0.4613  0.3066 -0.4199
  387MPD2    C5 5786   0.112   2.041   9.694 -0.6255  0.1820  0.3506
  387MPD2     H 5787   0.463   1.964   9.837 -0.1073  1.5766  1.6923
  387MPD2    H1 5788   0.144   1.878   9.565 -0.9454  0.0552  0.0896
  387MPD2    H2 5789   0.090   2.180   9.849 -0.1521  1.8348 -1.6960
  387MPD2    H3 5790   0.014   2.065   9.656  0.3564  0.8506 -1.7904
  387MPD2     N 5791   0.384   1.790   9.655 -0.1158 -0.0800  0.0047
  387MPD2    H5 5792   0.342   1.719   9.594 -0.4711  1.5031 -1.5973
  387MPD2    N1 5793   0.336   2.161   9.953  0.4990  0.7276  0.0597
  387MPD2    H7 5794   0.429   2.146   9.989 -0.0481 -3.9055 -0.4104
  388TMC3    C1 5795   0.333   2.272  10.152 -0.2028  0.3964 -0.6161
  388TMC3    C2 5796   0.315   2.389  10.225 -0.7230  0.1526 -0.4190
  388TMC3    C3 5797   0.388   2.401  10.340 -0.3782  0.0579  0.5880
  388TMC3    C4 5798   0.416   2.169  10.181  0.2278 -0.1133 -0.1331
  388TMC3    C5 5799   0.483   2.190  10.304 -0.0371  0.4588  0.1843
  388TMC3    C6 5800   0.471   2.297  10.377 -0.1534  0.0805 -0.2816
  388TMC3     C 5801   0.272   2.263  10.024  0.2089 -0.1189 -0.3220
  388TMC3     O 5802   0.174   2.338  10.012  0.2698  0.3453 -0.0235
  388TMC3     H 5803   0.239   2.464  10.207 -1.7188 -0.4273  1.3602
  388TMC3    H1 5804   0.405   2.064  10.158  0.8249 -0.5019  1.3381
  388TMC3    H2 5805   0.537   2.299  10.463  0.4163  0.4737 -0.7246
  388TMC3    C7 5806   0.577   2.076  10.353 -0.6373  0.7498 -0.5657
  388TMC3    C8 5807   0.346   2.503  10.439  0.0504  0.6940  0.1291
  388TMC3    O1 5808   0.547   2.040  10.465  0.0349  0.1694 -0.3329
  388TMC3    O2 5809   0.288   2.605  10.401 -0.3405  0.3368 -0.7551
  389MPD2     C 5810   4.667   0.265  11.911  0.8933  0.6402  0.2434
  389MPD2    C1 5811   4.618   0.282  11.778 -0.1097  0.7163 -0.4390
  389MPD2    C2 5812   4.492   0.236  11.743 -0.2520 -0.4164  0.2601
  389MPD2    C3 5813   4.420   0.158  11.833 -0.0000  0.2763 -0.6415
  389MPD2    C4 5814   4.473   0.135  11.963  0.1282  0.4532  0.0781
  389MPD2    C5 5815   4.588   0.194  12.002  0.7194  0.7547  0.0399
  389MPD2     H 5816   4.447   0.257  11.647  2.5762  1.9285 -0.5485
  389MPD2    H1 5817   4.421   0.076  12.037 -0.2760  1.3143  0.4853
  389MPD2    H2 5818   0.037   0.303  11.951 -0.8019  3.1380  1.8327
  389MPD2    H3 5819   4.622   0.160  12.100  0.7769 -1.9896 -0.9504
  389MPD2     N 5820   4.290   0.106  11.809  0.3528  0.2145  0.7351
  389MPD2    H5 5821   4.247   0.054  11.885 -2.1752 -1.6042 -1.9542
  389MPD2    N1 5822   4.703   0.340  11.682  0.0578  0.0442 -0.1645
  389MPD2    H7 5823   0.057   0.400  11.708 -0.2636  0.8047 -0.9844
  390TMC3    C1 5824   4.075   0.111  11.745 -0.4841 -0.3803 -0.2533
  390TMC3    C2 5825   4.063   4.710  11.808  0.0977 -0.4544 -0.2814
  390TMC3    C3 5826   3.961   4.697  11.903  0.1895  0.0749  0.0475
  390TMC3    C4 5827   3.966   0.202  11.748  0.9476  0.4431  0.9501
  390TMC3    C5 5828   3.864   0.184  11.832  0.1634  0.8268  0.5528
  390TMC3    C6 5829   3.864   0.074  11.921 -0.4468  0.8050  0.4797
  390TMC3     C 5830   4.205   0.167  11.718 -0.3333 -0.4731 -0.3779
  390TMC3     O 5831   4.227   0.270  11.654 -0.1478  0.1649  0.7738
  390TMC3     H 5832   4.146   4.640  11.802 -0.0960 -0.6594 -0.6188
  390TMC3    H1 5833   3.983   0.301  11.706 -0.5556  0.8991  1.4206
  390TMC3    H2 5834   3.793   0.059  12.001  1.4617  1.1688  2.2472
  390TMC3    C7 5835   3.736   0.207  11.761  0.3757  0.5707 -0.3184
  390TMC3    C8 5836   3.898   4.564  11.889 -0.2011 -0.1164  0.1026
  390TMC3    O1 5837   3.742   0.261  11.651  1.0067  0.1773  0.3569
  390TMC3    O2 5838   3.907   4.506  11.780 -0.4799 -0.1602  0.3413
  391MPD2     C 5839   3.576   1.762  11.223 -0.2794 -0.0291  1.2161
  391MPD2    C1 5840   3.684   1.841  11.273  0.2086 -0.8819  0.7187
  391MPD2    C2 5841   3.747   1.940  11.191 -0.5713  0.2625 -0.0622
  391MPD2    C3 5842   3.701   1.962  11.063 -0.0971 -0.2435  0.5657
  391MPD2    C4 5843   3.599   1.879  11.018 -0.2283  0.2698 -0.2044
  391MPD2    C5 5844   3.537   1.786  11.092 -0.4827  0.6760  0.2650
  391MPD2     H 5845   3.825   2.004  11.230 -1.6659  0.0756  2.4299
  391MPD2    H1 5846   3.559   1.886  10.918 -1.6182 -0.6845  0.2828
  391MPD2    H2 5847   3.522   1.692  11.285 -0.1357 -0.1486  1.2071
  391MPD2    H3 5848   3.460   1.721  11.052  1.9576 -0.3800 -2.7767
  391MPD2     N 5849   3.753   2.072  10.989  0.4072 -0.1377  0.3703
  391MPD2    H5 5850   3.828   2.117  11.040  0.1258 -0.5791  1.1620
  391MPD2    N1 5851   3.710   1.831  11.416 -0.0767  0.0809  0.4380
  391MPD2    H7 5852   3.672   1.749  11.463 -0.3539 -0.6657 -1.0960
  392TMC3    C1 5853   3.801   2.206  10.795 -1.0735  0.6388  0.5712
  392TMC3    C2 5854   3.804   2.208  10.660  0.3923  0.3760  0.6086
  392TMC3    C3 5855   3.885   2.308  10.606  0.2339 -1.0870 -0.6348
  392TMC3    C4 5856   3.873   2.291  10.873 -0.2762  0.0074 -0.8199
  392TMC3    C5 5857   3.958   2.384  10.807  0.0175 -0.6903 -0.2723
  392TMC3    C6 5858   3.973   2.379  10.677 -0.3004 -0.2098  0.5811
  392TMC3     C 5859   3.720   2.100  10.851  0.5670 -0.3277 -0.1020
  392TMC3     O 5860   3.642   2.047  10.776 -0.2669 -0.9147  0.2087
  392TMC3     H 5861   3.748   2.145  10.592  1.7196 -2.1028  1.7878
  392TMC3    H1 5862   3.868   2.287  10.981  0.0133  0.5129 -0.7912
  392TMC3    H2 5863   4.057   2.434  10.635 -0.4069 -1.9308 -1.8555
  392TMC3    C7 5864   4.035   2.474  10.893  0.3976 -0.4027 -0.3346
  392TMC3    C8 5865   3.880   2.316  10.462 -0.5409  0.1199  0.6701
  392TMC3    O1 5866   4.025   2.478  11.015  0.0592  1.3380  0.4349
  392TMC3    O2 5867   3.832   2.222  10.401 -0.1383  0.1477 -0.0853
  393TMC3    C1 5868   3.327   4.278  10.123  0.1975  0.2542  0.3706
  393TMC3    C2 5869   3.272   4.294  10.255  0.4259 -0.3383 -0.5324
  393TMC3    C3 5870   3.358   4.316  10.351  0.1605  0.0502  0.8654
  393TMC3    C4 5871   3.465   4.288  10.098  0.0693  0.0347 -0.6197
  393TMC3    C5 5872   3.548   4.314  10.202  0.3910  0.2129 -1.3666
  393TMC3    C6 5873   3.490   4.336  10.331  0.0112  0.9046  0.4852
  393TMC3     C 5874   3.233   4.278  10.011 -0.0908  0.3812  0.6604
  393TMC3     O 5875   3.273   4.336   9.912  0.4549 -0.5248 -0.4791
  393TMC3     H 5876   3.165   4.307  10.270  0.6302  0.5716  0.0811
  393TMC3    H1 5877   3.512   4.286  10.000 -0.4616  0.8819 -0.8830
  393TMC3    H2 5878   3.557   4.346  10.415 -0.1303  0.6644  0.6287
  393TMC3    C7 5879   3.678   4.386  10.177  0.0349  0.0731 -0.5813
  393TMC3    C8 5880   3.303   4.353  10.480 -0.2726  0.1328  0.7591
  393TMC3    O1 5881   3.705   4.476  10.257  0.6129  0.4402  0.5797
  393TMC3    O2 5882   3.376   4.416  10.557  0.3477  0.8281 -0.4751
  394TMC3    C1 5883   0.057   0.403  11.479  0.5789 -0.1703  0.0952
  394TMC3    C2 5884   0.055   0.540  11.508 -0.4683  0.8237  0.4289
  394TMC3    C3 5885   0.113   0.622  11.413  0.2017  0.4278 -0.0507
  394TMC3    C4 5886   0.102   0.352  11.359  0.4240  0.1066 -0.2602
  394TMC3    C5 5887   0.163   0.436  11.276 -0.3340  0.4053 -0.4630
  394TMC3    C6 5888   0.180   0.573  11.306 -0.0856 -0.2652 -0.1177
  394TMC3     C 5889   4.692   0.315  11.552 -0.0675 -0.2188  0.4280
  394TMC3     O 5890   4.625   0.230  11.497  0.2122 -0.4056  0.2634
  394TMC3     H 5891   0.016   0.583  11.600 -1.4819  0.0274  0.3769
  394TMC3    H1 5892   0.089   0.245  11.346 -0.6745  0.3571 -1.1858
  394TMC3    H2 5893   0.239   0.631  11.235  0.7321 -0.5198  0.3574
  394TMC3    C7 5894   0.190   0.395  11.142 -0.2548  0.1223  0.5874
  394TMC3    C8 5895   0.058   0.756  11.393  0.4533  0.3922 -0.2349
  394TMC3    O1 5896   0.258   0.473  11.077  0.0430 -0.5509 -0.2002
  394TMC3    O2 5897   0.045   0.830  11.491  0.1603  0.8135 -0.0987
  395TMC3    C1 5898   4.527   2.373  14.446  0.3522  0.0448 -0.8393
  395TMC3    C2 5899   4.395   2.407  14.454 -0.8096  0.3224  0.6773
  395TMC3    C3 5900   4.358   2.506  14.549  0.5060  0.1880 -1.2807
  395TMC3    C4 5901   4.620   2.448  14.507 -0.0927  0.7022 -0.5338
  395TMC3    C5 5902   4.588   2.546  14.599 -1.4655  0.5425 -0.5347
  395TMC3    C6 5903   4.452   2.581  14.616  0.4033 -0.6188 -0.6064
  395TMC3     C 5904   4.541   2.237  14.482 -0.0804 -0.1564 -0.4706
  395TMC3     O 5905   4.606   2.220  14.586  0.2252  0.1930  0.1544
  395TMC3     H 5906   4.318   2.357  14.396 -1.5067  1.2066  0.8463
  395TMC3    H1 5907   0.002   2.420  14.508 -0.1990  0.3209 -0.4129
  395TMC3    H2 5908   4.422   2.663  14.680  0.7418 -0.3287 -0.8254
  395TMC3    C7 5909   4.675   2.659  14.619  0.3871 -0.4426 -0.8349
  395TMC3    C8 5910   4.236   2.497  14.619  0.4196 -0.4961  0.0011
  395TMC3    O1 5911   4.641   2.757  14.685 -0.2384 -0.1958  1.0491
  395TMC3    O2 5912   4.199   2.596  14.680 -0.3515  0.1667 -0.0244
  396MPD2     C 5913   3.854   3.138  17.322 -0.2484 -0.5104 -0.1168
  396MPD2    C1 5914   3.974   3.096  17.279 -0.3147  0.3751  0.2937
  396MPD2    C2 5915   4.041   3.183  17.192  0.2492 -0.0476  0.0873
  396MPD2    C3 5916   3.975   3.294  17.131  0.1203  0.7969  0.4341
  396MPD2    C4 5917   3.851   3.329  17.180  0.1078 -0.7815  0.0092
  396MPD2    C5 5918   3.796   3.252  17.279  0.1295  0.1811 -0.6340
  396MPD2     H 5919   4.140   3.162  17.154  0.5563 -1.1771  1.4822
  396MPD2    H1 5920   3.781   3.402  17.140  2.4573  1.3171 -0.2214
  396MPD2    H2 5921   3.802   3.081  17.398  1.6028 -0.8296  0.9250
  396MPD2    H3 5922   3.695   3.264  17.314  0.4509  1.8671 -0.3044
  396MPD2     N 5923   4.034   3.368  17.029 -0.1640  0.1459  0.1518
  396MPD2    H5 5924   4.134   3.351  17.021 -0.1144  0.5926 -0.1629
  396MPD2    N1 5925   4.011   2.963  17.315  0.5911  0.4361  0.0391
  396MPD2    H7 5926   3.946   2.916  17.378  0.0681  1.2420  0.0954
  397TMC3    C1 5927   4.123   2.763  17.294 -0.2497  0.3046 -0.1177
  397TMC3    C2 5928   4.170   2.696  17.180  0.3704  0.0757 -0.3378
  397TMC3    C3 5929   4.102   2.584  17.136  0.0183 -0.0833  0.5085
  397TMC3    C4 5930   4.025   2.703  17.367  0.0018 -0.6052  0.1561
  397TMC3    C5 5931   3.957   2.591  17.324 -0.0416 -0.8171  0.7124
  397TMC3    C6 5932   3.995   2.535  17.203 -0.3822  1.0528 -0.2077
  397TMC3     C 5933   4.120   2.902  17.266  0.1924  0.2766  1.3431
  397TMC3     O 5934   4.205   2.948  17.191 -0.2213 -0.1243  0.4325
  397TMC3     H 5935   4.228   2.747  17.105  0.9862  0.9039  0.6970
  397TMC3    H1 5936   3.984   2.753  17.454 -0.7252  1.7110 -1.5028
  397TMC3    H2 5937   3.955   2.439  17.174  0.3788  0.1693  1.6698
  397TMC3    C7 5938   3.885   2.502  17.417 -0.0356 -1.0980  0.0207
  397TMC3    C8 5939   4.095   2.574  16.996  0.2529  0.2150  0.4744
  397TMC3    O1 5940   3.802   2.431  17.365 -0.4002 -0.2259  0.0224
  397TMC3    O2 5941   4.091   2.680  16.938 -0.1621 -0.1328  0.4902
  398MPD2     C 5942   1.645   3.831   0.225 -0.9099 -0.6951 -0.3653
  398MPD2    C1 5943   1.727   3.744   0.293 -0.6930  0.4066 -0.0287
  398MPD2    C2 5944   1.831   3.798   0.360 -0.6744 -0.0902 -0.5008
  398MPD2    C3 5945   1.849   3.938   0.374  1.3618  0.0813  0.2416
  398MPD2    C4 5946   1.756   4.024   0.312 -0.0544 -0.3290  0.0832
  398MPD2    C5 5947   1.653   3.970   0.239 -0.2357  0.3945  0.1067
  398MPD2     H 5948   1.896   3.734   0.419 -2.0062 -0.6198  0.3804
  398MPD2    H1 5949   1.759   4.132   0.322 -0.9875 -0.4236  1.4277
  398MPD2    H2 5950   1.568   3.804   0.154 -1.2182 -1.2285  0.1706
  398MPD2    H3 5951   1.579   4.034   0.193  0.0712  0.8709  0.2781
  398MPD2     N 5952   1.958   3.987   0.442 -0.8175 -0.4703 -0.7049
  398MPD2    H5 5953   2.024   3.919   0.478 -1.1159 -1.7355 -2.5200
  398MPD2    N1 5954   1.714   3.601   0.286  0.2899 -0.1578  0.0422
  398MPD2    H7 5955   1.786   3.555   0.340  2.4606 -0.2992 -2.9855
  399TMC3    C1 5956   1.639   3.383   0.216  0.3536  0.0328  0.1790
  399TMC3    C2 5957   1.746   3.328   0.284  0.3139  0.0331 -0.0363
  399TMC3    C3 5958   1.757   3.192   0.309  0.5562 -0.2621  0.6445
  399TMC3    C4 5959   1.536   3.300   0.177 -0.2238 -0.2678  0.1332
  399TMC3    C5 5960   1.551   3.163   0.196  0.4495 -0.2610 -0.4108
  399TMC3    C6 5961   1.660   3.109   0.257 -0.0534  0.6660 -0.4764
  399TMC3     C 5962   1.614   3.529   0.217  0.2867 -0.2898 -0.2383
  399TMC3     O 5963   1.505   3.560   0.170 -0.0635 -0.2506 -0.0218
  399TMC3     H 5964   1.827   3.389   0.323 -0.5957  0.6715  0.8281
  399TMC3    H1 5965   1.452   3.356   0.139  0.2471 -0.8540 -1.7358
  399TMC3    H2 5966   1.661   3.001   0.261  0.7191  0.6415 -1.1838
  399TMC3    C7 5967   1.447   3.061   0.159 -0.1402  0.1882  0.1875
  399TMC3    C8 5968   1.884   3.147   0.352 -0.4334 -1.1048 -0.3814
  399TMC3    O1 5969   1.451   2.945   0.203  0.1124 -0.3304  0.1023
  399TMC3    O2 5970   1.983   3.221   0.340  0.3394  0.5695 -0.2219
  400TMC3    C1 5971   0.303   2.734  16.840  0.3488  0.4384  0.0413
  400TMC3    C2 5972   0.177   2.719  16.810 -0.1501 -0.1533 -0.4641
  400TMC3    C3 5973   0.111   2.815  16.738  0.0743 -0.4436 -0.7184
  400TMC3    C4 5974   0.358   2.862  16.820 -0.3879  0.3846  0.0745
  400TMC3    C5 5975   0.278   2.966  16.775 -0.4738  0.6858 -0.6268
  400TMC3    C6 5976   0.152   2.944  16.725  0.4102 -0.2446  0.3617
  400TMC3     C 5977   0.397   2.626  16.824  0.6889 -0.9594  0.6625
  400TMC3     O 5978   0.360   2.522  16.768 -0.1260 -0.7882 -0.7115
  400TMC3     H 5979   0.118   2.639  16.853  0.3505  0.3684  1.2160
  400TMC3    H1 5980   0.453   2.892  16.861  0.1377 -1.7230  0.4258
  400TMC3    H2 5981   0.092   3.023  16.680 -0.4378  0.0641  2.0140
  400TMC3    C7 5982   0.358   3.076  16.736 -0.3026 -0.1854  0.8415
  400TMC3    C8 5983   4.701   2.767  16.697  0.0481  0.1922 -0.3614
  400TMC3    O1 5984   0.463   3.056  16.669 -0.5717  0.4628  0.3212
  400TMC3    O2 5985   4.621   2.855  16.665  0.1405 -0.2677 -0.5154
  401MPD2     C 5986   3.506   0.824   0.371 -0.6540  0.8410 -0.2135
  401MPD2    C1 5987   3.500   0.758   0.488 -0.2655 -0.2656 -0.8307
  401MPD2    C2 5988   3.408   0.655   0.496 -0.5757 -0.4956 -0.5431
  401MPD2    C3 5989   3.324   0.613   0.396  0.0299 -0.1240 -0.4476
  401MPD2    C4 5990   3.330   0.686   0.283  0.2229  0.3905 -0.9829
  401MPD2    C5 5991   3.424   0.782   0.266 -0.2182 -0.0981 -0.0741
  401MPD2     H 5992   3.392   0.614   0.596 -0.8364 -3.4982 -1.8078
  401MPD2    H1 5993   3.268   0.650   0.202  0.1570  0.6053 -1.0280
  401MPD2    H2 5994   3.577   0.903   0.351 -2.1758  1.9120 -1.3547
  401MPD2    H3 5995   3.447   0.824   0.169  2.4941 -1.8215 -0.1969
  401MPD2     N 5996   3.226   0.515   0.409  0.7511 -0.2605  0.0259
  401MPD2    H5 5997   3.158   0.508   0.334  0.3285 -0.0569  0.3960
  401MPD2    N1 5998   3.574   0.788   0.605 -0.4223  0.2418 -0.2156
  401MPD2    H7 5999   3.563   0.725   0.684 -4.0244  0.3520 -0.6027
  402TMC3    C1 6000   3.108   0.329   0.486 -0.0969  0.1891 -0.1228
  402TMC3    C2 6001   3.074   0.261   0.600  0.1267 -1.0817  0.4295
  402TMC3    C3 6002   3.083   0.127   0.597 -0.1308 -0.1143 -0.0043
  402TMC3    C4 6003   3.152   0.266   0.369  0.1881  0.3211  0.3663
  402TMC3    C5 6004   3.159   0.130   0.374 -0.1499 -0.7701 -0.5678
  402TMC3    C6 6005   3.128   0.061   0.489  0.5059  1.0834  0.3587
  402TMC3     C 6006   3.200   0.440   0.514 -0.2438  0.4394  0.2835
  402TMC3     O 6007   3.244   0.444   0.628 -0.8381 -0.0051 -0.1961
  402TMC3     H 6008   3.044   0.308   0.693  0.8597 -2.2972  1.2883
  402TMC3    H1 6009   3.146   0.314   0.272 -0.4796  0.2523  0.3743
  402TMC3    H2 6010   3.145   4.676   0.485 -1.6180  0.7792 -0.1393
  402TMC3    C7 6011   3.232   0.064   0.267  0.1490 -0.8253  0.1661
  402TMC3    C8 6012   3.051   0.048   0.713 -0.1701  0.3343 -0.7261
  402TMC3    O1 6013   3.190   0.081   0.151 -0.4351  0.7115 -0.9319
  402TMC3    O2 6014   3.125   4.679   0.741  0.2912 -0.2024 -0.7208
  403MPD2     C 6015   2.179   0.192  13.705 -0.5453  0.1961  0.1798
  403MPD2    C1 6016   2.249   0.085  13.659  0.3136  0.1132  1.1081
  403MPD2    C2 6017   2.382   0.085  13.684  0.3500  0.0956 -0.6030
  403MPD2    C3 6018   2.446   0.177  13.769 -0.5386  0.2342 -0.1922
  403MPD2    C4 6019   2.369   0.275  13.822 -0.0362 -0.4737  0.4377
  403MPD2    C5 6020   2.235   0.284  13.791 -0.1970 -0.2720  0.4017
  403MPD2     H 6021   2.447   0.009  13.643 -1.1927 -1.3625 -0.3274
  403MPD2    H1 6022   2.397   0.355  13.889 -2.9759 -1.8180  3.2540
  403MPD2    H2 6023   2.072   0.207  13.693 -0.5957 -0.2492  0.0791
  403MPD2    H3 6024   2.177   0.371  13.820  0.3338  0.4191 -0.6408
  403MPD2     N 6025   2.590   0.164  13.790  0.2187 -0.6373  0.5307
  403MPD2    H5 6026   2.641   0.093  13.738  0.5348  2.3412 -3.2008
  403MPD2    N1 6027   2.183   4.721  13.574  0.0772  0.0316  0.1247
  403MPD2    H7 6028   2.082   4.719  13.580  0.0774  1.2975  0.3986
  404TMC3    C1 6029   2.137   4.503  13.497 -1.0727 -1.3405  0.4452
  404TMC3    C2 6030   2.130   4.399  13.582  0.9168 -0.5692  0.0540
  404TMC3    C3 6031   2.098   4.274  13.529 -0.6470 -0.2130 -0.3985
  404TMC3    C4 6032   2.119   4.494  13.366 -0.6383  0.0134  0.0734
  404TMC3    C5 6033   2.090   4.377  13.305  0.4228 -0.7853  0.2009
  404TMC3    C6 6034   2.085   4.266  13.389 -0.3671 -0.0318 -0.7007
  404TMC3     C 6035   2.239   4.602  13.536 -0.5001 -0.4447  0.6664
  404TMC3     O 6036   2.348   4.552  13.553  0.0130  0.6494 -0.2874
  404TMC3     H 6037   2.165   4.409  13.684  0.6419 -0.3934  0.1300
  404TMC3    H1 6038   2.128   4.583  13.305 -1.9548  1.1155  1.4991
  404TMC3    H2 6039   2.071   4.166  13.349 -0.0028  0.3695 -1.8340
  404TMC3    C7 6040   2.077   4.381  13.154 -0.1835 -0.3172  0.4782
  404TMC3    C8 6041   2.148   4.150  13.594 -0.4535 -0.1205  0.1505
  404TMC3    O1 6042   2.143   4.470  13.100  0.2350 -0.1106 -0.4483
  404TMC3    O2 6043   2.188   4.059  13.520  0.3596 -0.1353  0.9214
  405MPD2     C 6044   2.789   0.509  14.676 -0.9708 -0.1054 -0.0777
  405MPD2    C1 6045   2.750   0.407  14.600  0.6525  0.6755  0.6582
  405MPD2    C2 6046   2.666   0.423  14.490 -0.3301  0.8952 -0.7899
  405MPD2    C3 6047   2.619   0.552  14.468  0.1508 -0.7526  0.0760
  405MPD2    C4 6048   2.671   0.660  14.540 -0.2374  0.1445 -0.8416
  405MPD2    C5 6049   2.752   0.636  14.649 -0.0163  0.5479  0.1999
  405MPD2     H 6050   2.638   0.335  14.433  2.1847 -0.2653 -0.2140
  405MPD2    H1 6051   2.635   0.762  14.525 -0.1837  0.4861  1.3149
  405MPD2    H2 6052   2.854   0.502  14.762  0.9165  0.1063 -1.4958
  405MPD2    H3 6053   2.790   0.713  14.715  1.7722  0.2315 -0.4500
  405MPD2     N 6054   2.530   0.570  14.362 -0.3610  0.3068  0.1312
  405MPD2    H5 6055   2.499   0.484  14.317  0.2214 -0.4181  1.1184
  405MPD2    N1 6056   2.785   0.275  14.632  0.2511  0.0514 -0.2429
  405MPD2    H7 6057   2.821   0.260  14.726  3.2159 -0.9740 -1.5147
  406TMC3    C1 6058   2.130   0.724  14.253  0.9811  0.7327  0.5193
  406TMC3    C2 6059   2.092   0.597  14.211  0.7581 -0.0933  0.4462
  406TMC3    C3 6060   2.197   0.508  14.181 -0.0130 -0.0367  0.4895
  406TMC3    C4 6061   2.260   0.770  14.265  1.1785 -0.3547 -0.1403
  406TMC3    C5 6062   2.356   0.684  14.239  0.2041  0.0287  0.0830
  406TMC3    C6 6063   2.324   0.549  14.201  0.3139  0.0455  0.0547
  406TMC3     C 6064   2.040   0.808  14.321  0.3779  0.1429 -0.3396
  406TMC3     O 6065   2.075   0.920  14.351  0.3996  0.4179 -0.4821
  406TMC3     H 6066   1.988   0.567  14.207  0.7943 -0.5439  2.5499
  406TMC3    H1 6067   2.286   0.866  14.308 -2.5439  1.8742 -2.8385
  406TMC3    H2 6068   2.395   0.478  14.159 -0.3182 -0.6380  0.1296
  406TMC3    C7 6069   2.478   0.692  14.316 -0.3155  0.3511  0.9092
  406TMC3    C8 6070   2.159   0.362  14.180  0.5594  0.5127  0.1277
  406TMC3    O1 6071   2.508   0.805  14.345 -0.6393 -0.2653 -0.0071
  406TMC3    O2 6072   2.058   0.326  14.127 -0.8973 -0.1466 -0.2610
  407MPD2     C 6073   4.622   1.706   9.487 -0.6677  0.0653 -0.6674
  407MPD2    C1 6074   4.714   1.599   9.506 -1.3372  0.3358 -0.4150
  407MPD2    C2 6075   0.045   1.581   9.630 -0.1653  0.2860 -0.2896
  407MPD2    C3 6076   0.001   1.661   9.742 -0.4186  0.1459  0.4473
  407MPD2    C4 6077   4.639   1.765   9.719  0.7261  0.2237  0.4531
  407MPD2    C5 6078   4.590   1.782   9.597  0.2551 -0.3991  0.7865
  407MPD2     H 6079   0.117   1.502   9.645  0.4028  0.5761 -1.5488
  407MPD2    H1 6080   4.619   1.844   9.790 -1.4729  0.6592 -0.6584
  407MPD2    H2 6081   4.585   1.740   9.391  0.4632  0.8736 -0.8236
  407MPD2    H3 6082   4.531   1.871   9.581 -1.1905 -2.1141 -3.4746
  407MPD2     N 6083   0.074   1.667   9.869 -0.5826  0.3753  0.2103
  407MPD2    H5 6084   0.044   1.736   9.936  0.2526  0.0764  0.8802
  407MPD2    N1 6085   0.053   1.531   9.397 -0.1645  0.6510  0.0662
  407MPD2    H7 6086   0.141   1.484   9.416 -1.0253 -1.4272 -1.0385
  408TMC3    C1 6087   0.128   1.497   9.179 -0.7714 -0.3271  0.3599
  408TMC3    C2 6088   0.231   1.434   9.233  0.2104  0.5282  0.3908
  408TMC3    C3 6089   0.354   1.452   9.177  0.0921  0.4234  0.0092
  408TMC3    C4 6090   0.147   1.598   9.085 -0.1598  0.3435  0.0030
  408TMC3    C5 6091   0.277   1.627   9.044 -0.3760  0.4868 -0.7054
  408TMC3    C6 6092   0.380   1.551   9.091  0.0482  0.1207 -0.0256
  408TMC3     C 6093   0.017   1.531   9.263  0.5676  0.0419  0.0652
  408TMC3     O 6094   4.637   1.582   9.219 -0.2238  0.0201  0.2856
  408TMC3     H 6095   0.230   1.363   9.315  0.7769  0.2859  0.1913
  408TMC3    H1 6096   0.068   1.673   9.080  0.1477  0.6563 -0.1135
  408TMC3    H2 6097   0.480   1.574   9.058  0.0588  0.4124  0.2164
  408TMC3    C7 6098   0.294   1.771   9.022 -0.0726  0.8763  0.3354
  408TMC3    C8 6099   0.473   1.405   9.248 -0.1394 -0.0933 -0.3022
  408TMC3    O1 6100   0.410   1.814   9.048 -0.0997  0.3874 -0.1575
  408TMC3    O2 6101   0.457   1.299   9.306 -0.0001 -0.4007 -0.2911
  409MPD2     C 6102   4.394   1.989  17.265  0.9030  0.4640  0.3544
  409MPD2    C1 6103   4.424   2.054  17.382  0.7636 -0.1833  0.5331
  409MPD2    C2 6104   4.514   2.159  17.385  0.1226  0.6020 -0.2802
  409MPD2    C3 6105   4.579   2.194  17.270  0.3546  0.0320 -0.6589
  409MPD2    C4 6106   4.543   2.132  17.148 -0.7713 -0.3348 -0.0269
  409MPD2    C5 6107   4.456   2.027  17.145 -0.3426 -0.0780 -0.4791
  409MPD2     H 6108   4.537   2.214  17.475 -1.5005  1.6702 -0.5290
  409MPD2    H1 6109   4.585   2.162  17.053  0.2821 -1.0815  0.2061
  409MPD2    H2 6110   4.311   1.920  17.253  0.7849  1.0201 -2.2059
  409MPD2    H3 6111   4.427   1.984  17.050  0.1504 -0.0574 -0.6386
  409MPD2     N 6112   4.678   2.296  17.264 -0.4829  0.8515 -0.0329
  409MPD2    H5 6113   4.720   2.302  17.172 -1.5720  0.1244 -0.5898
  409MPD2    N1 6114   4.355   2.036  17.502 -0.0542 -0.0665  0.2775
  409MPD2    H7 6115   4.389   2.098  17.575 -2.7038  1.1362  0.4683
  410TMC3    C1 6116   0.084   2.485  17.317  0.2724 -0.2609  1.0282
  410TMC3    C2 6117   0.128   2.559  17.420 -0.3022  0.0788 -0.1621
  410TMC3    C3 6118   0.135   2.697  17.400 -0.0399  0.5461 -0.3866
  410TMC3    C4 6119   0.058   2.537  17.193 -0.0384  0.3271 -0.3481
  410TMC3    C5 6120   0.061   2.671  17.178 -0.2363  0.1102 -0.5114
  410TMC3    C6 6121   0.103   2.751  17.278 -0.2583  0.3936 -0.3086
  410TMC3     C 6122   4.718   2.382  17.367 -0.1739 -0.1952 -0.1058
  410TMC3     O 6123   4.672   2.384  17.483 -0.5514  0.3629 -0.3850
  410TMC3     H 6124   0.156   2.510  17.513 -0.7593  2.8368  1.4272
  410TMC3    H1 6125   0.024   2.476  17.109  0.6378  0.7315 -0.9110
  410TMC3    H2 6126   0.100   2.860  17.279 -1.6129  0.3525 -0.7716
  410TMC3    C7 6127   4.678   2.723  17.097 -0.0941  0.2137 -0.3895
  410TMC3    C8 6128   0.198   2.775  17.504 -0.0698 -0.2725  0.0020
  410TMC3    O1 6129   4.601   2.639  17.060 -0.0551 -0.3042 -0.1528
  410TMC3    O2 6130   0.246   2.879  17.463 -0.7857 -0.2850  0.5767
  411MPD2     C 6131   0.051   3.323  14.911 -0.2940 -0.3878 -0.5664
  411MPD2    C1 6132   0.111   3.391  14.808 -0.8259 -0.2371 -0.8283
  411MPD2    C2 6133   0.110   3.327  14.682 -0.0401  0.5280 -0.5523
  411MPD2    C3 6134   0.038   3.211  14.663 -0.0992 -0.0646  0.1187
  411MPD2    C4 6135   4.697   3.149  14.767  0.2017  0.0100  0.8270
  411MPD2    C5 6136   4.704   3.203  14.890 -0.1834  0.1158 -0.3537
  411MPD2     H 6137   0.161   3.379  14.602  2.8131 -1.3583  0.0159
  411MPD2    H1 6138   4.644   3.055  14.754  0.0885 -0.3374  3.7066
  411MPD2    H2 6139   0.051   3.370  15.009 -0.9775 -2.2188  0.3093
  411MPD2    H3 6140   4.650   3.164  14.975  1.3087  0.7077  0.8704
  411MPD2     N 6141   0.032   3.144  14.545 -0.4591  0.1373  0.2996
  411MPD2    H5 6142   4.692   3.064  14.541 -1.4313  1.0408 -3.0324
  411MPD2    N1 6143   0.154   3.521  14.846 -0.6808  0.5312  0.6797
  411MPD2    H7 6144   0.125   3.551  14.938 -0.7161  1.2601  0.4287
  412TMC3    C1 6145   0.038   3.103  14.312 -0.1735  0.7474 -0.0497
  412TMC3    C2 6146   4.712   2.979  14.330  0.1108  0.1414 -0.2344
  412TMC3    C3 6147   4.646   2.917  14.228  0.0107 -0.7263 -1.0595
  412TMC3    C4 6148   0.021   3.169  14.189  0.0608  0.1551  0.0971
  412TMC3    C5 6149   4.675   3.110  14.084  0.2702 -0.2612 -0.7872
  412TMC3    C6 6150   4.632   2.984  14.107  0.7688  0.1034  0.4349
  412TMC3     C 6151   0.076   3.189  14.421  0.2773 -0.2006  0.0292
  412TMC3     O 6152   0.144   3.289  14.398 -0.3089 -0.2421 -0.0725
  412TMC3     H 6153   0.007   2.927  14.424 -1.7584 -3.2199 -1.7390
  412TMC3    H1 6154   0.066   3.268  14.184 -0.6201  0.3609 -2.1548
  412TMC3    H2 6155   4.574   2.931  14.033  0.8191  0.0885  0.4057
  412TMC3    C7 6156   4.556   3.180  14.038  0.1821  0.3696 -0.1170
  412TMC3    C8 6157   4.533   2.833  14.274  0.0818 -0.3907  0.4474
  412TMC3    O1 6158   4.451   3.131  14.077 -0.2065  0.3246 -0.0944
  412TMC3    O2 6159   4.550   2.758  14.369 -0.9230  0.5062 -0.0020
  413MPD2     C 6160   1.488   1.519  15.710 -0.1569 -1.0571 -0.9102
  413MPD2    C1 6161   1.455   1.515  15.582 -0.3220 -1.3411  0.2868
  413MPD2    C2 6162   1.547   1.473  15.483 -0.7841 -0.4210  0.0125
  413MPD2    C3 6163   1.668   1.419  15.525  0.4427 -0.2278 -0.5345
  413MPD2    C4 6164   1.700   1.417  15.652  0.4566  0.3820  0.0510
  413MPD2    C5 6165   1.619   1.478  15.745  0.1774  0.2256  0.7685
  413MPD2     H 6166   1.513   1.450  15.383 -0.7426 -1.4465  0.2409
  413MPD2    H1 6167   1.789   1.372  15.695  0.5480 -1.7545 -2.4135
  413MPD2    H2 6168   1.423   1.564  15.784  1.8143 -1.9957  1.3980
  413MPD2    H3 6169   1.639   1.459  15.850  0.9475  1.3151  0.8262
  413MPD2     N 6170   1.736   1.343  15.426 -0.0327 -0.1144  0.4392
  413MPD2    H5 6171   1.716   1.370  15.331  1.2582  0.2696  0.2752
  413MPD2    N1 6172   1.326   1.557  15.550  0.4512 -0.5068 -0.5364
  413MPD2    H7 6173   1.269   1.550  15.633  1.0164  3.3939  0.2084
  414TMC3    C1 6174   1.890   1.180  15.334 -1.1252 -0.5099 -0.7402
  414TMC3    C2 6175   1.991   1.093  15.360 -0.4149  0.5487 -0.4046
  414TMC3    C3 6176   2.023   1.004  15.256  0.5890  0.3725 -0.2005
  414TMC3    C4 6177   1.830   1.189  15.211 -0.1203 -0.2681  0.3870
  414TMC3    C5 6178   1.866   1.108  15.110 -0.0618  0.0651 -0.3781
  414TMC3    C6 6179   1.956   1.006  15.133  0.1933 -0.3354  0.8763
  414TMC3     C 6180   1.832   1.255  15.455  0.2516 -0.1250  0.0966
  414TMC3     O 6181   1.848   1.203  15.568 -0.2182  0.0323 -0.2976
  414TMC3     H 6182   2.030   1.090  15.461 -0.3596 -0.8406 -0.4643
  414TMC3    H1 6183   1.766   1.274  15.188  0.6976  0.2911  0.1770
  414TMC3    H2 6184   1.970   0.942  15.047  0.1158  0.9096 -0.0650
  414TMC3    C7 6185   1.807   1.136  14.981 -0.6651  0.1903 -0.5295
  414TMC3    C8 6186   2.147   0.925  15.252  0.4823  0.4328  0.6915
  414TMC3    O1 6187   1.688   1.166  14.998 -0.0148  0.0386 -0.1964
  414TMC3    O2 6188   2.140   0.823  15.185  0.2363  0.0440 -0.0507
  415TMC3    C1 6189   2.145   3.337   9.520  0.6765 -0.0938  0.4577
  415TMC3    C2 6190   2.208   3.445   9.456 -0.8944 -0.1978  0.8192
  415TMC3    C3 6191   2.159   3.473   9.326 -0.4614 -0.1237  0.3134
  415TMC3    C4 6192   2.043   3.267   9.455 -0.4960  0.0564  0.7390
  415TMC3    C5 6193   2.002   3.310   9.327  0.2595  0.3202  0.4799
  415TMC3    C6 6194   2.061   3.409   9.259 -0.3262  0.2381 -0.2405
  415TMC3     C 6195   2.166   3.319   9.667  0.6251 -0.1064  0.4969
  415TMC3     O 6196   2.129   3.212   9.710 -0.3503  0.0268 -0.8472
  415TMC3     H 6197   2.283   3.509   9.500 -0.0586 -0.7244  0.1582
  415TMC3    H1 6198   2.005   3.177   9.501  1.4956 -1.0996  0.1201
  415TMC3    H2 6199   2.016   3.441   9.166 -0.2208  1.5724  0.1712
  415TMC3    C7 6200   1.899   3.243   9.255  0.4301  0.0840  0.2440
  415TMC3    C8 6201   2.213   3.585   9.245 -0.0587 -0.1802  0.4413
  415TMC3    O1 6202   1.888   3.264   9.135 -0.3414 -0.4918  0.6651
  415TMC3    O2 6203   2.141   3.636   9.162  0.1471 -0.2788 -0.1501
  416MPD2     C 6204   4.171   3.511  11.460  0.5956  0.4767  0.3383
  416MPD2    C1 6205   4.050   3.456  11.430  0.4870  0.8442 -0.8239
  416MPD2    C2 6206   4.044   3.349  11.348  0.2083 -0.0603 -0.5546
  416MPD2    C3 6207   4.161   3.302  11.289  0.2957 -0.2259 -0.5105
  416MPD2    C4 6208   4.280   3.354  11.334  0.0937 -0.0983 -0.3999
  416MPD2    C5 6209   4.287   3.457  11.419  0.3882 -0.2575 -0.4640
  416MPD2     H 6210   3.953   3.293  11.336 -0.1026  0.5982 -1.2692
  416MPD2    H1 6211   4.371   3.302  11.304  0.2343  0.7473 -1.4233
  416MPD2    H2 6212   4.185   3.599  11.521 -0.2856 -1.4257  3.3047
  416MPD2    H3 6213   4.382   3.490  11.460  0.1949 -1.4324  0.9047
  416MPD2     N 6214   4.153   3.205  11.191 -0.0842  0.1876  0.6625
  416MPD2    H5 6215   4.241   3.169  11.154 -0.3129 -1.5051  1.7596
  416MPD2    N1 6216   3.931   3.502  11.473 -0.1072  0.4662  0.0092
  416MPD2    H7 6217   3.851   3.449  11.439 -0.0277  0.8453 -0.7611
  417TMC3    C1 6218   3.776   3.621  11.607  0.4568 -0.2386 -0.1177
  417TMC3    C2 6219   3.754   3.675  11.728 -0.1649 -0.0939  0.2533
  417TMC3    C3 6220   3.619   3.699  11.754 -0.4045 -0.0240  0.4002
  417TMC3    C4 6221   3.688   3.592  11.507 -0.3415 -0.0311 -0.7806
  417TMC3    C5 6222   3.561   3.633  11.537  0.2045 -0.3377 -0.4657
  417TMC3    C6 6223   3.520   3.682  11.660 -0.7150 -0.1708 -0.3525
  417TMC3     C 6224   3.913   3.594  11.573  0.4908  0.0698 -0.7710
  417TMC3     O 6225   3.999   3.643  11.641 -0.1041 -0.1249  0.0938
  417TMC3     H 6226   3.837   3.711  11.789 -0.4809 -0.4953  0.9191
  417TMC3    H1 6227   3.709   3.574  11.402 -0.5590 -1.2645 -0.6066
  417TMC3    H2 6228   3.417   3.692  11.691 -1.4963 -1.2113 -2.6444
  417TMC3    C7 6229   3.470   3.654  11.426  0.2683  0.2016  0.2834
  417TMC3    C8 6230   3.570   3.682  11.891  0.0572  0.0304 -0.2800
  417TMC3    O1 6231   3.515   3.663  11.313 -0.2901 -0.3463 -0.0449
  417TMC3    O2 6232   3.452   3.692  11.917 -0.1780  0.0898 -0.0549
  418TMC3    C1 6233   2.331   4.055   0.437  0.4314 -0.4124 -0.1868
  418TMC3    C2 6234   2.217   4.137   0.418 -0.0400  0.1113 -0.0779
  418TMC3    C3 6235   2.130   4.133   0.518  0.3949  0.6520  0.7409
  418TMC3    C4 6236   2.353   3.986   0.552  0.2995  0.0409 -0.0741
  418TMC3    C5 6237   2.268   4.005   0.654 -0.1361 -0.4724 -0.0411
  418TMC3    C6 6238   2.151   4.067   0.634  0.6189  0.0070 -0.1399
  418TMC3     C 6239   2.418   4.038   0.325  0.4134  0.2872 -0.1340
  418TMC3     O 6240   2.433   4.128   0.251 -0.4863  0.2303  0.2335
  418TMC3     H 6241   2.195   4.175   0.319  2.7849  0.6776 -0.4834
  418TMC3    H1 6242   2.436   3.921   0.577  0.5536  0.8609  1.2515
  418TMC3    H2 6243   2.072   4.067   0.708 -1.9087 -1.1727 -2.8292
  418TMC3    C7 6244   2.260   3.896   0.743  0.7125 -0.2295  0.3593
  418TMC3    C8 6245   1.993   4.122   0.457 -0.0840  0.3334 -0.3543
  418TMC3    O1 6246   2.279   3.786   0.691 -0.0222  0.3346 -0.2012
  418TMC3    O2 6247   1.961   4.223   0.395 -0.2198 -0.1378  0.1101
  419MPD2     C 6248   0.792   2.569  12.972 -0.0171 -0.7357  0.0400
  419MPD2    C1 6249   0.794   2.707  12.994 -0.0104 -0.1124  0.1871
  419MPD2    C2 6250   0.854   2.749  13.112  0.0936 -0.0332  0.9204
  419MPD2    C3 6251   0.933   2.666  13.189  0.4301 -0.4159 -0.5872
  419MPD2    C4 6252   0.955   2.536  13.153  0.0502  0.9428 -0.1554
  419MPD2    C5 6253   0.872   2.489  13.051 -0.1004 -0.0960 -0.1846
  419MPD2     H 6254   0.862   2.853  13.141 -0.4812  0.5187 -0.9165
  419MPD2    H1 6255   1.023   2.469  13.203 -1.2230  0.2752  0.6817
  419MPD2    H2 6256   0.751   2.522  12.883  0.3705 -2.3947  0.7409
  419MPD2    H3 6257   0.868   2.382  13.035 -1.2547 -0.3359  1.6558
  419MPD2     N 6258   1.006   2.724  13.294 -0.6635  0.1332 -0.4926
  419MPD2    H5 6259   0.999   2.824  13.311  0.6118 -0.5026  3.8046
  419MPD2    N1 6260   0.745   2.802  12.905 -0.3409 -0.2057 -0.3598
  419MPD2    H7 6261   0.763   2.900  12.925 -0.5895 -0.2884  0.2602
  420TMC3    C1 6262   1.162   2.776  13.456  1.0496  0.1741  0.1772
  420TMC3    C2 6263   1.135   2.904  13.426  0.9751 -0.3703  0.0065
  420TMC3    C3 6264   1.106   2.984  13.530 -0.1689  0.3272 -0.2172
  420TMC3    C4 6265   1.180   2.731  13.585  0.4670  0.2490  0.7951
  420TMC3    C5 6266   1.148   2.817  13.690  0.0011  0.4546  0.2998
  420TMC3    C6 6267   1.098   2.946  13.662  0.5911 -0.3811  0.2419
  420TMC3     C 6268   1.110   2.671  13.370  0.1507 -0.4091  0.2326
  420TMC3     O 6269   1.161   2.559  13.376  0.1480 -0.4005 -0.1551
  420TMC3     H 6270   1.147   2.932  13.322 -0.1745  0.6591  0.1538
  420TMC3    H1 6271   1.162   2.626  13.608 -1.6563  1.0401  2.6997
  420TMC3    H2 6272   1.091   3.024  13.736 -3.7634  0.7583 -1.4008
  420TMC3    C7 6273   1.173   2.770  13.829 -0.1160 -0.1105  0.5280
  420TMC3    C8 6274   1.038   3.101  13.485  0.4499  0.2829 -0.4263
  420TMC3    O1 6275   1.260   2.686  13.837  0.8806 -0.1136  0.3274
  420TMC3    O2 6276   1.034   3.112  13.364 -0.0611  0.4684 -1.1278
  421TMC3    C1 6277   2.806   0.212  13.867 -0.5574 -0.1670 -0.1174
  421TMC3    C2 6278   2.892   0.293  13.937 -0.0703 -0.1388 -0.3907
  421TMC3    C3 6279   3.019   0.251  13.951  0.0881  0.3926 -0.0242
  421TMC3    C4 6280   2.848   0.083  13.835 -0.1984 -0.1086  0.4177
  421TMC3    C5 6281   2.984   0.052  13.840  0.6201  0.4651  0.0946
  421TMC3    C6 6282   3.068   0.134  13.898  0.0387  0.0440  1.0592
  421TMC3     C 6283   2.666   0.247  13.868 -0.8702  0.6126 -0.0762
  421TMC3     O 6284   2.627   0.342  13.930  0.4445 -0.1170  0.3726
  421TMC3     H 6285   2.853   0.389  13.968 -0.2046  0.1608 -1.4961
  421TMC3    H1 6286   2.784   0.021  13.774 -0.6304  0.4461  0.2975
  421TMC3    H2 6287   3.172   0.110  13.913  0.0775 -0.2605  0.3001
  421TMC3    C7 6288   3.040   4.648  13.806 -0.2141 -0.7787  0.2647
  421TMC3    C8 6289   3.119   0.342  14.001  0.1768 -0.7633  0.5129
  421TMC3    O1 6290   3.158   4.652  13.768 -0.0135  0.9034  0.1348
  421TMC3    O2 6291   3.232   0.323  13.956  0.2740 -0.2288  0.5297
  422TMC3    C1 6292   0.235   1.030  12.774  0.2578  0.5369  0.1337
  422TMC3    C2 6293   0.234   1.157  12.825 -0.2812  0.1302  0.0298
  422TMC3    C3 6294   0.140   1.179  12.920  0.6730 -1.1992  0.6833
  422TMC3    C4 6295   0.152   0.928  12.812 -0.5881  0.1285 -0.5610
  422TMC3    C5 6296   0.055   0.953  12.908 -0.3559  0.8458 -0.2099
  422TMC3    C6 6297   0.048   1.080  12.966 -0.2873  0.0997  0.7926
  422TMC3     C 6298   0.326   1.014  12.666 -0.2178 -0.5111  0.0833
  422TMC3     O 6299   0.366   1.110  12.603 -0.5851 -0.3690 -0.1861
  422TMC3     H 6300   0.301   1.230  12.782 -0.5824 -0.6464 -1.7631
  422TMC3    H1 6301   0.140   0.838  12.753  1.4415 -0.6629  0.2152
  422TMC3    H2 6302   0.000   1.116  13.056  0.6065  0.6064  1.0695
  422TMC3    C7 6303   4.668   0.854  12.923  0.0062 -0.1168 -0.1176
  422TMC3    C8 6304   0.122   1.319  12.946 -0.5179 -0.7880 -0.1106
  422TMC3    O1 6305   4.702   0.741  12.892 -0.5361  0.0736 -0.1149
  422TMC3    O2 6306   0.221   1.394  12.947  0.1591 -0.1993 -0.2250
  423MPD2     C 6307   1.445   1.876   0.775 -0.3669  0.2161 -0.0718
  423MPD2    C1 6308   1.367   1.779   0.713 -0.1849 -0.3205  0.4430
  423MPD2    C2 6309   1.394   1.757   0.574  0.7844 -0.0088 -0.9490
  423MPD2    C3 6310   1.489   1.832   0.509  0.4661  0.0977 -0.2275
  423MPD2    C4 6311   1.545   1.941   0.571  0.6803  0.0240  0.1953
  423MPD2    C5 6312   1.513   1.962   0.699  0.2857 -0.5177 -0.0932
  423MPD2     H 6313   1.344   1.669   0.535 -1.5946  0.2550  1.4326
  423MPD2    H1 6314   1.616   2.006   0.521  0.4179  0.5988  0.5812
  423MPD2    H2 6315   1.431   1.909   0.877 -4.5212 -2.4378  0.2061
  423MPD2    H3 6316   1.563   2.042   0.752  2.1871 -1.1263 -0.9827
  423MPD2     N 6317   1.529   1.802   0.377  0.0578  0.3849  0.5639
  423MPD2    H5 6318   1.615   1.846   0.346 -0.7123  0.6050 -1.2362
  423MPD2    N1 6319   1.281   1.694   0.786  0.3634  0.2118 -0.9742
  423MPD2    H7 6320   1.225   1.621   0.744  0.4479  0.9072 -2.2778
  424TMC3    C1 6321   1.190   1.583   0.957  0.6425  0.3619  0.6319
  424TMC3    C2 6322   1.216   1.514   1.073  0.1736  0.1667  0.0498
  424TMC3    C3 6323   1.117   1.426   1.124  0.4361  0.0977  0.0898
  424TMC3    C4 6324   1.068   1.577   0.898  0.8098  0.0810 -0.2189
  424TMC3    C5 6325   0.981   1.484   0.947  0.2394 -0.0429  0.2162
  424TMC3    C6 6326   0.999   1.401   1.053 -0.4089 -0.5139  0.6254
  424TMC3     C 6327   1.263   1.698   0.920  0.1353  0.3714  0.0460
  424TMC3     O 6328   1.323   1.749   1.012 -0.2199  0.5077 -0.0962
  424TMC3     H 6329   1.308   1.538   1.127 -0.2727  2.1804 -0.1012
  424TMC3    H1 6330   1.044   1.651   0.824  0.4272  0.3643  0.1907
  424TMC3    H2 6331   0.924   1.324   1.073 -0.7988  0.0490  1.3198
  424TMC3    C7 6332   0.848   1.513   0.900 -0.9524 -0.5800 -0.1058
  424TMC3    C8 6333   1.170   1.309   1.196 -0.2126  0.2844 -0.3351
  424TMC3    O1 6334   0.843   1.551   0.781  0.4615  0.4550  0.2025
  424TMC3    O2 6335   1.295   1.306   1.200  0.0977 -0.0817 -0.5346
  425MPD2     C 6336   0.596   1.211  17.587  0.3532  0.1515  0.0431
  425MPD2    C1 6337   0.533   1.164  17.471  0.5210 -0.9751 -0.0541
  425MPD2    C2 6338   0.397   1.176  17.459 -0.5222 -0.4762 -0.4582
  425MPD2    C3 6339   0.327   1.230  17.570  0.1688 -0.5651  0.3211
  425MPD2    C4 6340   0.388   1.284  17.684  1.3033 -0.3498  0.2086
  425MPD2    C5 6341   0.524   1.273  17.686  0.2471 -0.4741  0.0798
  425MPD2     H 6342   0.344   1.135  17.374 -1.2773  2.9026 -1.6144
  425MPD2    H1 6343   0.337   1.334   0.074  1.8116  0.6622 -0.0959
  425MPD2    H2 6344   0.704   1.208  17.597  0.2801  2.2410  1.2788
  425MPD2    H3 6345   0.571   1.314   0.081  1.7808 -0.1445 -0.9042
  425MPD2     N 6346   0.190   1.212  17.564  0.0843 -0.0768  0.2258
  425MPD2    H5 6347   0.158   1.173  17.476  1.4271 -0.0569 -0.2793
  425MPD2    N1 6348   0.609   1.088  17.381  0.2761 -0.2607 -0.3697
  425MPD2    H7 6349   0.707   1.078  17.405  0.4215  0.2987 -0.7056
  426TMC3    C1 6350   0.681   0.944  17.218 -0.1530  0.0406 -0.0302
  426TMC3    C2 6351   0.671   0.924  17.089  0.1982  0.1629 -0.6825
  426TMC3    C3 6352   0.763   0.837  17.036 -0.5271 -0.3094  0.4187
  426TMC3    C4 6353   0.755   0.870  17.309  0.2959  0.0796  0.0895
  426TMC3    C5 6354   0.830   0.769  17.259 -0.5774  0.1156  0.1202
  426TMC3    C6 6355   0.836   0.758  17.115  0.0037  0.3515 -0.5350
  426TMC3     C 6356   0.570   1.032  17.267  0.4417  0.3704  0.5513
  426TMC3     O 6357   0.481   1.064  17.192 -0.3256  0.1885  0.0008
  426TMC3     H 6358   0.614   0.982  17.018 -1.0208 -0.0153  0.1539
  426TMC3    H1 6359   0.739   0.892  17.414  0.1185 -1.1776  0.3283
  426TMC3    H2 6360   0.888   0.672  17.072  1.9276  0.0456  2.3967
  426TMC3    C7 6361   0.897   0.678  17.342 -0.0869  0.5280  0.1424
  426TMC3    C8 6362   0.715   0.775  16.913  0.1161  0.7680 -0.4971
  426TMC3    O1 6363   1.006   0.650  17.296  0.7879 -1.3823  0.4671
  426TMC3    O2 6364   0.792   0.761  16.819  0.6790  0.1216 -1.0583
  427MPD2     C 6365   3.997   3.544  14.879 -0.1257  0.1478 -0.2688
  427MPD2    C1 6366   3.934   3.477  14.987 -0.1528  0.3828 -0.1934
  427MPD2    C2 6367   3.799   3.502  15.020 -0.5495  0.6842 -0.7495
  427MPD2    C3 6368   3.726   3.591  14.945 -0.2215  0.7960  0.6285
  427MPD2    C4 6369   3.789   3.656  14.846 -0.1514  1.0221  0.8330
  427MPD2    C5 6370   3.922   3.642  14.811  0.6148  0.5092 -0.3844
  427MPD2     H 6371   3.753   3.451  15.104 -1.6153  0.3021 -1.5656
  427MPD2    H1 6372   3.736   3.739  14.801 -1.0377  0.8592  1.5835
  427MPD2    H2 6373   4.102   3.531  14.854 -0.7229 -4.2453 -0.5813
  427MPD2    H3 6374   3.969   3.711  14.741  0.4486  2.0782  1.0479
  427MPD2     N 6375   3.594   3.622  14.968  0.1379 -0.5031 -0.1693
  427MPD2    H5 6376   3.552   3.662  14.884  2.4800  1.6927 -0.3003
  427MPD2    N1 6377   4.001   3.376  15.062 -0.3876 -0.1031 -0.2210
  427MPD2    H7 6378   3.948   3.338  15.140 -2.3232  0.2972 -1.3525
  428TMC3    C1 6379   4.166   3.236  15.154  0.2675 -0.9999  0.4506
  428TMC3    C2 6380   4.079   3.127  15.152  0.9065 -0.2175 -0.0990
  428TMC3    C3 6381   4.105   3.022  15.235 -0.0598  0.3587  0.0798
  428TMC3    C4 6382   4.282   3.232  15.218  0.1140 -0.5562  0.1828
  428TMC3    C5 6383   4.303   3.127  15.305 -0.2174  0.0610  0.4099
  428TMC3    C6 6384   4.217   3.020  15.312 -0.0229  0.0946 -0.1790
  428TMC3     C 6385   4.136   3.350  15.066  0.1513  0.3476  0.5834
  428TMC3     O 6386   4.223   3.405  15.002  0.4907  0.4925 -0.0061
  428TMC3     H 6387   4.002   3.118  15.076  1.2259  0.6825 -0.5377
  428TMC3    H1 6388   4.347   3.317  15.232  1.3821 -1.3780 -0.6438
  428TMC3    H2 6389   4.253   2.945  15.382  1.6484  0.6041 -0.4988
  428TMC3    C7 6390   4.405   3.143  15.399  0.6321 -0.3032  0.7323
  428TMC3    C8 6391   3.992   2.930  15.248  0.0830  0.7299 -0.2034
  428TMC3    O1 6392   4.383   3.092  15.507  0.0333  0.0133 -0.5931
  428TMC3    O2 6393   3.879   2.980  15.255  0.3107 -0.6181  0.2826
  429MPD2     C 6394   0.113   3.420   0.245  0.1959 -0.3890 -0.8720
  429MPD2    C1 6395   0.115   3.347   0.130 -0.2040 -0.3508  0.7788
  429MPD2    C2 6396   0.167   3.413   0.017 -0.2181 -0.5965  0.3191
  429MPD2    C3 6397   0.214   3.544   0.021  0.3682  0.0497  0.1832
  429MPD2    C4 6398   0.202   3.619   0.140  1.0365 -0.5187  0.0428
  429MPD2    C5 6399   0.149   3.555   0.247  0.3403 -0.1403  0.6601
  429MPD2     H 6400   0.158   3.364  17.614  2.1445 -1.5162  0.5546
  429MPD2    H1 6401   0.226   3.724   0.150 -0.3953 -0.1983  0.1328
  429MPD2    H2 6402   0.070   3.376   0.334  0.1985  0.3490 -0.5021
  429MPD2    H3 6403   0.133   3.608   0.340  2.2072  0.4735  0.6284
  429MPD2     N 6404   0.272   3.595  17.596 -0.7269 -0.0442 -0.0720
  429MPD2    H5 6405   0.292   3.530  17.520  0.6076  1.2693 -0.8392
  429MPD2    N1 6406   0.064   3.214   0.115  0.3472  0.1365 -0.5185
  429MPD2    H7 6407   0.063   3.174   0.022 -1.5898 -0.6906 -0.1375
  430TMC3    C1 6408   0.347   3.744  17.435 -0.7722  0.1419 -0.2376
  430TMC3    C2 6409   0.347   3.875  17.391  0.1633 -0.1471  0.2207
  430TMC3    C3 6410   0.390   3.909  17.264 -0.5231 -0.0445  0.2257
  430TMC3    C4 6411   0.390   3.641  17.356 -0.4112  0.6438 -0.5214
  430TMC3    C5 6412   0.446   3.678  17.235  0.0477 -0.5016 -0.1987
  430TMC3    C6 6413   0.456   3.810  17.197  0.0457  0.4358  0.3339
  430TMC3     C 6414   0.303   3.725  17.567 -0.4713  0.3587 -0.4586
  430TMC3     O 6415   0.278   3.820  17.642 -0.0589  0.0165  0.3796
  430TMC3     H 6416   0.286   3.944  17.448  1.8895  3.8654 -2.7740
  430TMC3    H1 6417   0.380   3.537  17.388  1.2777  0.4437 -0.6599
  430TMC3    H2 6418   0.470   3.830  17.091 -1.9662 -2.3466 -0.4669
  430TMC3    C7 6419   0.409   3.582  17.133  0.1990 -1.0108  0.3952
  430TMC3    C8 6420   0.401   4.055  17.231 -0.0807 -0.1199 -0.2582
  430TMC3    O1 6421   0.339   3.492  17.174 -0.1394 -0.2896 -0.4532
  430TMC3    O2 6422   0.435   4.114  17.333 -0.0468 -0.0926 -0.3168
  431MPD2     C 6423   1.054   3.570  12.937  0.1275 -0.6168 -0.2435
  431MPD2    C1 6424   1.090   3.548  12.807 -0.0429  0.2192  0.3168
  431MPD2    C2 6425   1.036   3.436  12.749 -0.4071 -0.0523  0.5982
  431MPD2    C3 6426   0.943   3.358  12.813  0.3332 -0.6654 -0.9707
  431MPD2    C4 6427   0.902   3.387  12.939  0.6635  0.9192 -0.4768
  431MPD2    C5 6428   0.958   3.493  13.003  0.3341 -0.1951 -0.3564
  431MPD2     H 6429   1.065   3.419  12.646  0.3871  1.4227  0.5804
  431MPD2    H1 6430   0.824   3.328  12.986  1.9043 -1.4111 -1.3586
  431MPD2    H2 6431   1.092   3.651  12.998 -1.2586  1.2147 -1.8058
  431MPD2    H3 6432   0.929   3.514  13.105 -0.8541 -0.7526 -0.5793
  431MPD2     N 6433   0.893   3.233  12.756 -1.3074  0.2409  0.2763
  431MPD2    H5 6434   0.841   3.174  12.821  0.9570 -2.2721 -0.1825
  431MPD2    N1 6435   1.179   3.631  12.733  0.2756 -0.0942 -0.3225
  431MPD2    H7 6436   1.196   3.605  12.636  1.1762  1.8208 -0.6855
  432TMC3    C1 6437   0.825   3.076  12.608  0.4545  0.1897  0.1141
  432TMC3    C2 6438   0.763   3.070  12.492  0.7797  0.0615 -0.7356
  432TMC3    C3 6439   0.687   2.961  12.463  0.2840  0.2973 -0.4262
  432TMC3    C4 6440   0.803   2.981  12.709  0.5201  0.1029  0.8654
  432TMC3    C5 6441   0.715   2.878  12.682  0.1855  0.1352  0.2189
  432TMC3    C6 6442   0.652   2.871  12.557  0.4857  0.6176 -0.6351
  432TMC3     C 6443   0.908   3.194  12.630 -0.1930  0.6029  0.1997
  432TMC3     O 6444   0.958   3.243  12.529  0.1980 -0.1001  0.4624
  432TMC3     H 6445   0.781   3.149  12.421  0.6495  0.1698 -0.6469
  432TMC3    H1 6446   0.870   2.977  12.794 -1.1587  0.7944  2.2235
  432TMC3    H2 6447   0.600   2.778  12.535 -0.5784  1.0117  0.1847
  432TMC3    C7 6448   0.689   2.770  12.786 -0.6451  0.2537 -0.0888
  432TMC3    C8 6449   0.718   2.895  12.341  0.3345  0.3413  0.1197
  432TMC3    O1 6450   0.661   2.663  12.745 -0.0418  0.0034  0.1895
  432TMC3    O2 6451   0.663   2.787  12.325 -0.1366 -0.0128  0.2740
  433MPD2     C 6452   4.551   2.242  10.966  0.1766  0.2762  0.2850
  433MPD2    C1 6453   4.629   2.136  11.019 -0.3813  0.2111  0.4282
  433MPD2    C2 6454   4.722   2.170  11.112 -0.2526  0.0297 -0.2967
  433MPD2    C3 6455   0.020   2.303  11.147  0.2134 -0.0520  0.9804
  433MPD2    C4 6456   4.660   2.408  11.102  0.2779  0.3597 -0.0327
  433MPD2    C5 6457   4.576   2.373  10.999 -0.6412  0.1908 -0.0218
  433MPD2     H 6458   0.066   2.094  11.151  1.1979  0.9572 -0.9755
  433MPD2    H1 6459   4.671   2.513  11.125 -0.2444  0.8921 -2.2025
  433MPD2    H2 6460   4.474   2.226  10.891  0.5566  0.0634 -0.0629
  433MPD2    H3 6461   4.517   2.449  10.951 -1.6704 -0.9247 -0.5280
  433MPD2     N 6462   0.116   2.330  11.247 -0.7501 -0.4805 -0.1413
  433MPD2    H5 6463   0.165   2.251  11.289 -2.0240  0.0581  2.2944
  433MPD2    N1 6464   4.602   2.003  10.983  1.4213 -0.3417 -0.2810
  433MPD2    H7 6465   4.544   1.989  10.900 -2.9951 -1.0430  2.9159
  434TMC3    C1 6466   4.686   1.771  10.989 -0.4851  0.0592  0.3482
  434TMC3    C2 6467   0.053   1.698  11.056  0.5793 -0.2032  0.0590
  434TMC3    C3 6468   0.143   1.619  10.987  0.1631 -0.4232  0.1466
  434TMC3    C4 6469   4.694   1.774  10.856 -0.6298  0.2089 -0.0813
  434TMC3    C5 6470   0.049   1.691  10.783  0.2037 -0.7689  0.0427
  434TMC3    C6 6471   0.133   1.603  10.850 -0.9265 -0.0430 -0.5784
  434TMC3     C 6472   4.651   1.897  11.058  0.1669 -0.9682 -0.4592
  434TMC3     O 6473   4.695   1.894  11.170 -0.3779 -0.7456 -0.2173
  434TMC3     H 6474   0.048   1.678  11.162 -0.5341 -3.8562 -0.6663
  434TMC3    H1 6475   4.629   1.844  10.804 -0.5466 -0.0092 -0.4824
  434TMC3    H2 6476   0.209   1.553  10.792 -0.0958 -0.3958  0.7926
  434TMC3    C7 6477   0.032   1.681  10.635 -0.3535  0.0892 -0.8679
  434TMC3    C8 6478   0.266   1.579  11.052 -0.3147 -0.5988 -0.3828
  434TMC3    O1 6479   4.693   1.777  10.587  0.4234  0.1653  0.0959
  434TMC3    O2 6480   0.313   1.645  11.143  0.3410 -0.0948 -0.5894
  435MPD2     C 6481   1.591   1.864  15.463 -0.4042 -0.1534 -0.5921
  435MPD2    C1 6482   1.586   1.886  15.594  0.0472 -1.1240  0.3621
  435MPD2    C2 6483   1.707   1.891  15.663  0.0601  0.0242  0.5366
  435MPD2    C3 6484   1.834   1.902  15.600 -0.3786 -0.0853  0.0836
  435MPD2    C4 6485   1.842   1.888  15.460 -0.0656 -0.2931  0.1198
  435MPD2    C5 6486   1.721   1.862  15.399 -0.1698  0.0330  0.1135
  435MPD2     H 6487   1.701   1.916  15.768 -0.9146  0.6146  0.3437
  435MPD2    H1 6488   1.929   1.902  15.397  0.4312 -4.3958 -0.1014
  435MPD2    H2 6489   1.502   1.845  15.403 -1.0512 -0.2803  0.3983
  435MPD2    H3 6490   1.724   1.858  15.290  2.1262  2.8086  0.0706
  435MPD2     N 6491   1.950   1.913  15.682  0.0018 -0.2199  0.0293
  435MPD2    H5 6492   1.929   1.933  15.779  0.1738 -0.8343  0.1949
  435MPD2    N1 6493   1.468   1.884  15.669  0.0133 -0.1490 -0.2062
  435MPD2    H7 6494   1.478   1.885  15.770 -0.3692 -1.0384 -0.1626
  436TMC3    C1 6495   1.171   2.019  15.915 -0.1222 -0.0652 -0.4207
  436TMC3    C2 6496   1.276   1.996  15.831  0.2457  0.4383  0.9146
  436TMC3    C3 6497   1.244   1.946  15.711 -0.8474  1.0003  0.4467
  436TMC3    C4 6498   1.039   2.018  15.876 -0.2606  0.1349  0.4008
  436TMC3    C5 6499   1.010   1.975  15.747 -0.1764 -0.0180  0.5308
  436TMC3    C6 6500   1.114   1.936  15.667  0.5215 -0.5927 -0.3597
  436TMC3     C 6501   1.208   2.073  16.047  0.2238 -0.0839  0.4166
  436TMC3     O 6502   1.317   2.035  16.086 -0.6774  0.2038 -0.4409
  436TMC3     H 6503   1.379   1.997  15.864  0.4887 -1.0123  0.1847
  436TMC3    H1 6504   0.961   2.027  15.951 -1.4532  3.4171 -1.2325
  436TMC3    H2 6505   1.090   1.896  15.569  1.8099 -1.8157 -0.1786
  436TMC3    C7 6506   0.876   1.950  15.697  0.7030 -0.0357  0.5170
  436TMC3    C8 6507   1.343   1.896  15.616 -0.2440  0.5303  0.4451
  436TMC3    O1 6508   0.868   1.931  15.574 -0.5544 -0.0140 -0.1028
  436TMC3    O2 6509   1.302   1.877  15.503 -0.0002  0.8112 -0.3028
  437TMC3    C1 6510   0.515   3.922  13.154  0.3828 -0.2648 -0.4345
  437TMC3    C2 6511   0.388   3.933  13.197  0.4581  0.0012 -0.1377
  437TMC3    C3 6512   0.294   4.005  13.118  0.8654 -0.3823 -0.0873
  437TMC3    C4 6513   0.558   3.989  13.040 -0.3791  0.7048 -0.1776
  437TMC3    C5 6514   0.464   4.050  12.964  0.0308  0.2421  0.0732
  437TMC3    C6 6515   0.333   4.059  13.007 -0.3083 -0.1305  0.3292
  437TMC3     C 6516   0.607   3.888  13.264 -0.0421  0.5016 -0.2498
  437TMC3     O 6517   0.564   3.880  13.379  0.0688  0.1262 -0.3409
  437TMC3     H 6518   0.354   3.885  13.289 -2.9915  1.7988 -0.4968
  437TMC3    H1 6519   0.664   3.991  13.019 -0.2175 -1.2491  0.4388
  437TMC3    H2 6520   0.270   4.130  12.955  0.9736  0.1375 -0.8749
  437TMC3    C7 6521   0.491   4.125  12.844  0.4274 -0.0234  0.5092
  437TMC3    C8 6522   0.152   3.995  13.148  0.4208  0.2278  0.3414
  437TMC3    O1 6523   0.409   4.214  12.815  0.4528 -0.1682  0.1566
  437TMC3    O2 6524   0.129   3.944  13.255  0.0235 -0.4869 -0.3521
  438MPD2     C 6525   3.078   4.143  17.259  0.3626  0.2583 -0.4304
  438MPD2    C1 6526   3.127   4.013  17.242  0.2920 -0.4439  0.8730
  438MPD2    C2 6527   3.064   3.915  17.321 -0.2384  0.9196  0.1908
  438MPD2    C3 6528   2.957   3.947  17.404  0.6447  0.6719  0.9137
  438MPD2    C4 6529   2.901   4.077  17.407  0.4718  0.1005  0.5085
  438MPD2    C5 6530   2.967   4.169  17.339 -0.2600 -0.3884 -0.3519
  438MPD2     H 6531   3.095   3.812  17.309  0.8215  1.3028 -0.3170
  438MPD2    H1 6532   2.828   4.109  17.480  3.0876  0.8835  2.8215
  438MPD2    H2 6533   3.122   4.220  17.197 -0.2910  0.4162 -0.6993
  438MPD2    H3 6534   2.929   4.270  17.333  0.1950 -0.4228 -3.9048
  438MPD2     N 6535   2.885   3.863  17.486 -0.2110 -0.9366  0.1202
  438MPD2    H5 6536   2.800   3.903  17.522  0.0771 -2.1748  2.1794
  438MPD2    N1 6537   3.227   3.977  17.147 -0.8915  0.8005  0.2053
  438MPD2    H7 6538   3.270   3.886  17.157  2.1058  2.2377  0.3210
  439TMC3    C1 6539   3.365   4.000  16.956  0.2089 -0.4938  0.6955
  439TMC3    C2 6540   3.372   4.045  16.822 -0.0212  0.3197 -0.1879
  439TMC3    C3 6541   3.463   3.989  16.731  0.1838  0.0912 -0.2135
  439TMC3    C4 6542   3.454   3.902  16.993  0.0933 -0.4281  0.1873
  439TMC3    C5 6543   3.537   3.843  16.900 -0.1100  0.3055 -0.5997
  439TMC3    C6 6544   3.548   3.892  16.771  0.1157 -0.4720  0.0646
  439TMC3     C 6545   3.258   4.056  17.039 -0.2541 -0.5757  0.2400
  439TMC3     O 6546   3.180   4.125  16.976  0.6768  0.1639 -0.1982
  439TMC3     H 6547   3.314   4.134  16.799  1.5680  1.3944 -0.0012
  439TMC3    H1 6548   3.447   3.861  17.093 -2.8102 -0.5393 -0.0608
  439TMC3    H2 6549   3.619   3.849  16.701  0.8510  1.0968 -0.1495
  439TMC3    C7 6550   3.665   3.801  16.959  0.2259 -0.3998  0.2401
  439TMC3    C8 6551   3.481   4.035  16.596  0.4030 -0.5576 -0.3514
  439TMC3    O1 6552   3.757   3.824  16.889 -0.2787  0.1205  0.0974
  439TMC3    O2 6553   3.586   3.997  16.541  0.0401  0.1020  0.0527
  440MPD2     C 6554   1.961   0.627  14.863 -0.3850  0.8136  0.0854
  440MPD2    C1 6555   1.969   0.564  14.982  0.1941 -0.0374  0.6233
  440MPD2    C2 6556   2.088   0.502  15.019 -0.5737 -0.4441 -0.1325
  440MPD2    C3 6557   2.199   0.518  14.937 -0.6342  0.2474  0.2382
  440MPD2    C4 6558   2.189   0.575  14.815 -0.0329  0.5625  0.3158
  440MPD2    C5 6559   2.065   0.632  14.779 -0.5830 -0.7686 -0.0716
  440MPD2     H 6560   2.098   0.452  15.115 -0.0998 -0.2101 -0.0571
  440MPD2    H1 6561   2.272   0.596  14.748 -0.4718 -1.5415 -0.8900
  440MPD2    H2 6562   1.868   0.673  14.834  0.0233  0.3241 -1.9985
  440MPD2    H3 6563   2.060   0.679  14.682  0.9400 -2.7281 -1.0774
  440MPD2     N 6564   2.317   0.461  14.981  0.3785  0.0487  0.3660
  440MPD2    H5 6565   2.309   0.405  15.065  1.6191  0.0416  0.4765
  440MPD2    N1 6566   1.862   0.558  15.068  0.2791 -0.2023 -0.6728
  440MPD2    H7 6567   1.860   0.487  15.140  1.1419 -0.1140 -0.5638
  441TMC3    C1 6568   2.546   0.407  14.997 -0.4626 -0.0147  0.4509
  441TMC3    C2 6569   2.650   0.489  15.033 -0.0368 -0.3076 -0.3226
  441TMC3    C3 6570   2.704   0.463  15.158 -0.2822 -0.1133  0.5606
  441TMC3    C4 6571   2.519   0.292  15.068  0.2821 -0.1756 -0.0857
  441TMC3    C5 6572   2.603   0.254  15.169  0.1967 -0.6462  0.4893
  441TMC3    C6 6573   2.682   0.345  15.223 -0.5418 -0.2898 -1.2232
  441TMC3     C 6574   2.443   0.469  14.924  0.2694 -0.0138 -0.3303
  441TMC3     O 6575   2.476   0.544  14.833  0.1452 -0.0841 -0.2831
  441TMC3     H 6576   2.662   0.587  14.990  0.6510 -0.6859 -0.9960
  441TMC3    H1 6577   2.442   0.225  15.030  0.6259 -1.6227  1.7837
  441TMC3    H2 6578   2.744   0.334  15.312  0.6974  0.3442 -2.0063
  441TMC3    C7 6579   2.562   0.141  15.256 -0.5227 -0.1241  0.3508
  441TMC3    C8 6580   2.713   0.577  15.241  0.1362 -0.1161 -0.1110
  441TMC3    O1 6581   2.469   0.067  15.214 -0.0368 -0.1189 -1.0237
  441TMC3    O2 6582   2.806   0.599  15.314  0.9078 -0.3353 -0.4542
  442MPD2     C 6583   4.660   0.827  16.647 -0.7841  0.3324  0.1314
  442MPD2    C1 6584   4.628   0.711  16.706 -0.1288  0.2438 -0.7778
  442MPD2    C2 6585   4.673   0.592  16.645  0.2409  0.4388  0.3042
  442MPD2    C3 6586   0.009   0.596  16.520 -0.2744 -0.3870  0.3648
  442MPD2    C4 6587   0.018   0.718  16.451 -0.1101 -0.1093 -0.6455
  442MPD2    C5 6588   4.699   0.830  16.515  0.0822  0.2216  0.2094
  442MPD2     H 6589   4.638   0.502  16.694 -0.1120 -0.0502 -0.8379
  442MPD2    H1 6590   0.057   0.737  16.352 -0.8703 -0.4842 -1.0153
  442MPD2    H2 6591   4.634   0.919  16.697 -1.6164  0.5708 -0.7246
  442MPD2    H3 6592   4.712   0.927  16.468  3.1741  0.4841  1.5735
  442MPD2     N 6593   0.057   0.478  16.457 -0.5307 -0.4454  0.5389
  442MPD2    H5 6594   0.033   0.394  16.509 -1.8498 -1.1453 -1.2484
  442MPD2    N1 6595   4.548   0.703  16.821 -0.0186 -0.1112 -0.4011
  442MPD2    H7 6596   4.508   0.612  16.842  1.7191 -0.5367  1.0317
  443TMC3    C1 6597   4.382   0.768  16.973 -1.0825  0.2642 -0.7192
  443TMC3    C2 6598   4.289   0.872  16.960  0.0554  0.1771  0.1770
  443TMC3    C3 6599   4.156   0.849  16.990 -0.3466 -0.0650  0.2833
  443TMC3    C4 6600   4.347   0.639  16.999  0.0546  0.9077  0.1997
  443TMC3    C5 6601   4.212   0.626  17.033 -0.3267 -0.1585  0.1530
  443TMC3    C6 6602   4.115   0.723  17.027 -0.1221 -0.0894  0.1075
  443TMC3     C 6603   4.507   0.807  16.898 -0.5971  0.1049  0.0312
  443TMC3     O 6604   4.545   0.921  16.900 -0.4153  0.8805  0.3181
  443TMC3     H 6605   4.320   0.972  16.934  0.1910  0.7728  2.5994
  443TMC3    H1 6606   4.416   0.555  16.996  1.0256  1.6950  0.5143
  443TMC3    H2 6607   4.009   0.709  17.046  0.0713  0.9376  1.9818
  443TMC3    C7 6608   4.163   0.498  17.082  0.4638 -0.2410 -0.3944
  443TMC3    C8 6609   4.053   0.951  16.991 -0.4099  0.1437 -0.3330
  443TMC3    O1 6610   4.208   0.396  17.029  0.2720 -0.1502  0.3217
  443TMC3    O2 6611   3.975   0.941  17.083  0.3069  0.2332 -0.3773
  444MPD2     C 6612   0.404   0.341  16.763  0.2296  0.3062  0.6578
  444MPD2    C1 6613   0.333   0.226  16.773 -0.2163  0.1403  0.2072
  444MPD2    C2 6614   0.376   0.121  16.693  0.5024  0.9333  0.0934
  444MPD2    C3 6615   0.487   0.126  16.606  0.1902  0.9020 -0.4615
  444MPD2    C4 6616   0.554   0.251  16.593  0.2068 -0.0400 -0.0222
  444MPD2    C5 6617   0.510   0.354  16.674  0.0037  0.1043 -0.9929
  444MPD2     H 6618   0.304   0.041  16.680  0.3316  0.5278  3.5617
  444MPD2    H1 6619   0.635   0.276  16.527  0.8116  1.3552  1.2351
  444MPD2    H2 6620   0.374   0.422  16.828 -3.1471  0.7505 -1.4568
  444MPD2    H3 6621   0.557   0.451  16.663 -0.9658  0.6882  0.0563
  444MPD2     N 6622   0.522   0.016  16.520 -0.4689 -0.0969  0.0520
  444MPD2    H5 6623   0.469   4.652  16.524 -0.7400  0.0804  0.3491
  444MPD2    N1 6624   0.220   0.204  16.860 -0.0251 -0.3652  0.6179
  444MPD2    H7 6625   0.180   0.111  16.853  0.8144 -0.7180  0.4341
  445TMC3    C1 6626   0.625   4.609  16.370  0.4026  0.3489 -0.1859
  445TMC3    C2 6627   0.506   4.546  16.348 -0.0678 -0.7860  0.3543
  445TMC3    C3 6628   0.513   4.442  16.259 -0.3787 -0.3575 -0.4639
  445TMC3    C4 6629   0.739   4.554  16.338  0.0801 -0.3018  0.2965
  445TMC3    C5 6630   0.737   4.440  16.260 -1.0566 -0.1180 -0.0189
  445TMC3    C6 6631   0.628   4.394  16.198 -0.5611 -0.3312  0.3497
  445TMC3     C 6632   0.627   0.008  16.441  0.3012  0.7361  0.1328
  445TMC3     O 6633   0.727   0.080  16.447 -0.2606  0.3480 -0.3916
  445TMC3     H 6634   0.408   4.574  16.382 -0.4407 -3.2123  1.2655
  445TMC3    H1 6635   0.834   4.587  16.378 -0.6274 -0.7483  2.3503
  445TMC3    H2 6636   0.631   4.315  16.124 -3.0880  0.0946 -0.2372
  445TMC3    C7 6637   0.869   4.394  16.214 -0.6729  0.2517  0.8181
  445TMC3    C8 6638   0.386   4.406  16.197  0.4411 -0.6391  0.4095
  445TMC3    O1 6639   0.976   4.437  16.268  0.0845  0.1341  0.0643
  445TMC3    O2 6640   0.297   4.490  16.192 -0.4532 -0.5894 -0.5707
  446MPD2     C 6641   0.244   1.895  11.604 -0.2221  0.7912  0.4274
  446MPD2    C1 6642   0.199   1.889  11.474 -0.4145  0.2943 -0.2865
  446MPD2    C2 6643   0.292   1.875  11.369  0.6323  0.5148  0.2569
  446MPD2    C3 6644   0.426   1.878  11.395 -0.0921  0.1254 -0.0279
  446MPD2    C4 6645   0.469   1.875  11.525  0.2423 -0.5055 -0.2410
  446MPD2    C5 6646   0.380   1.879  11.626  0.0601 -0.0731  0.2096
  446MPD2     H 6647   0.258   1.873  11.266  1.1135  0.9830  0.0892
  446MPD2    H1 6648   0.572   1.861  11.554  0.1187 -0.1064  0.3833
  446MPD2    H2 6649   0.176   1.911  11.687  1.2093 -0.9972  1.9445
  446MPD2    H3 6650   0.409   1.865  11.730  1.0553 -1.1255 -0.2108
  446MPD2     N 6651   0.511   1.855  11.291  0.1788  0.8619  0.7336
  446MPD2    H5 6652   0.467   1.847  11.200  2.1545 -0.9968 -0.0571
  446MPD2    N1 6653   0.056   1.869  11.446 -0.4340 -0.4429  0.5060
  446MPD2    H7 6654   0.031   1.845  11.351  0.4259 -0.5814  0.3146
  447TMC3    C1 6655   0.709   1.828  11.159 -0.2026 -0.5809  0.4612
  447TMC3    C2 6656   0.637   1.754  11.073  0.0982 -0.0082  0.5265
  447TMC3    C3 6657   0.704   1.690  10.977  0.3905 -0.8992 -0.0334
  447TMC3    C4 6658   0.844   1.833  11.153  0.2574 -0.7678  0.1686
  447TMC3    C5 6659   0.909   1.774  11.050 -0.5264 -0.0285  0.4054
  447TMC3    C6 6660   0.840   1.690  10.966 -0.3509  0.1789 -0.1452
  447TMC3     C 6661   0.651   1.845  11.296 -0.2837 -0.2593  0.3763
  447TMC3     O 6662   0.727   1.843  11.391  0.3741 -0.1357 -0.2363
  447TMC3     H 6663   0.532   1.736  11.091 -0.1253 -0.8201 -1.5928
  447TMC3    H1 6664   0.894   1.887  11.233 -2.3820  2.9248 -0.6858
  447TMC3    H2 6665   0.891   1.656  10.876  0.5328  2.0245 -0.3519
  447TMC3    C7 6666   1.052   1.800  11.023 -0.2733  0.9457  0.0583
  447TMC3    C8 6667   0.625   1.624  10.876  0.0872 -0.2834  0.9666
  447TMC3    O1 6668   1.119   1.744  10.936  0.3044  0.6954 -0.4965
  447TMC3    O2 6669   0.519   1.680  10.848 -0.0262  0.0664 -0.7696
  448TMC3    C1 6670   2.765   0.268  16.982  0.4344  0.2344 -0.0623
  448TMC3    C2 6671   2.812   0.226  16.856 -0.0792 -0.0832 -0.3679
  448TMC3    C3 6672   2.774   0.102  16.819 -0.3661  0.5262 -0.5589
  448TMC3    C4 6673   2.693   0.193  17.069 -0.3248 -0.3871 -0.2356
  448TMC3    C5 6674   2.674   0.065  17.027  0.1181  0.3971  0.7121
  448TMC3    C6 6675   2.718   0.013  16.907 -0.1517  0.6181 -0.3763
  448TMC3     C 6676   2.838   0.388  17.028 -0.5603  0.2496  0.2059
  448TMC3     O 6677   2.945   0.409  16.971 -0.2868 -0.2580 -0.4291
  448TMC3     H 6678   2.870   0.283  16.785 -0.8242  0.1618 -0.7794
  448TMC3    H1 6679   2.673   0.221  17.172 -0.3896 -0.2164 -0.2953
  448TMC3    H2 6680   2.684   4.638  16.876 -0.1655 -0.8519  4.3268
  448TMC3    C7 6681   2.599   4.705  17.112  0.1406  0.8573 -0.5118
  448TMC3    C8 6682   2.839   0.045  16.698  0.3464 -0.2794 -0.7792
  448TMC3    O1 6683   2.615   4.583  17.106 -0.0828 -0.3260  0.1542
  448TMC3    O2 6684   2.907   4.665  16.712  0.0148  0.4236 -0.1846
  449MPD2     C 6685   0.112   0.693  14.190 -0.1234 -0.0242  0.1303
  449MPD2    C1 6686   0.095   0.563  14.147  0.7447  0.0375  0.0897
  449MPD2    C2 6687   0.119   0.457  14.230  0.0563  0.6754  0.2375
  449MPD2    C3 6688   0.157   0.479  14.358  0.1297  0.1243 -0.3696
  449MPD2    C4 6689   0.180   0.604  14.399 -0.5628 -0.6402 -0.5593
  449MPD2    C5 6690   0.160   0.713  14.319 -0.0416 -0.9225 -0.6466
  449MPD2     H 6691   0.084   0.358  14.203 -1.1708  1.1151  0.1979
  449MPD2    H1 6692   0.195   0.626  14.504 -1.0743  0.0887 -0.6413
  449MPD2    H2 6693   0.101   0.776  14.122  0.3562  0.1944  0.3172
  449MPD2    H3 6694   0.193   0.811  14.349  1.0744 -1.5124  0.0530
  449MPD2     N 6695   0.188   0.364  14.434 -0.4598 -0.0809 -0.0252
  449MPD2    H5 6696   0.171   0.274  14.391  0.9705  0.3442 -1.4524
  449MPD2    N1 6697   0.058   0.529  14.018 -0.0626  0.4043 -0.3540
  449MPD2    H7 6698   0.048   0.429  14.004  0.8136  0.1830  0.6150
  450TMC3    C1 6699   0.009   0.528  13.796  0.2488 -0.0936  0.2661
  450TMC3    C2 6700   0.096   0.529  13.688 -0.3591 -0.7506  0.3346
  450TMC3    C3 6701   0.093   0.421  13.600  0.5788  1.0363  0.7231
  450TMC3    C4 6702   4.657   0.417  13.816 -0.0658 -0.9556 -0.1690
  450TMC3    C5 6703   4.682   0.297  13.759 -0.1711  0.3886  0.0606
  450TMC3    C6 6704   0.033   0.299  13.642  0.1589 -0.3140  0.7698
  450TMC3     C 6705   0.040   0.609  13.910 -0.5728 -0.1470 -0.3454
  450TMC3     O 6706   0.059   0.729  13.897  0.1704  0.1679 -0.7157
  450TMC3     H 6707   0.143   0.622  13.658  0.6996 -1.1133  0.8782
  450TMC3    H1 6708   4.595   0.418  13.905 -0.0620 -0.3594 -0.1774
  450TMC3    H2 6709   0.054   0.201  13.600  0.2414  0.2569 -0.5395
  450TMC3    C7 6710   4.719   0.195  13.864  0.2506 -0.1936 -0.3226
  450TMC3    C8 6711   0.160   0.432  13.465 -0.7084 -0.1594 -0.0948
  450TMC3    O1 6712   4.704   0.225  13.981  0.4469 -0.3737 -0.3091
  450TMC3    O2 6713   0.213   0.539  13.438 -0.4490  0.0818  0.6550
  451MPD2     C 6714   0.939   2.889   1.735  0.9205  1.2671 -1.1934
  451MPD2    C1 6715   0.970   2.904   1.603  0.3714 -0.0485  0.4951
  451MPD2    C2 6716   0.976   2.800   1.523 -2.0247  0.3243  0.2976
  451MPD2    C3 6717   0.956   2.675   1.577 -0.2136 -0.7886  0.9252
  451MPD2    C4 6718   0.941   2.663   1.715  0.4790 -0.1119  0.2042
  451MPD2    C5 6719   0.924   2.767   1.794 -1.0729 -0.1330 -0.0139
  451MPD2     H 6720   1.005   2.806   1.419 -0.3312 -5.5396  0.4148
  451MPD2    H1 6721   0.939   2.567   1.765 -1.1651  0.5680  1.4395
  451MPD2    H2 6722   0.935   2.974   1.802  2.3048  0.0048  0.4890
  451MPD2    H3 6723   0.923   2.750   1.901  0.8976 -1.9538 -0.2742
  451MPD2     N 6724   0.972   2.555   1.497 -0.2767 -0.4579  0.0370
  451MPD2    H5 6725   0.999   2.467   1.540  0.3259 -0.9123 -1.2722
  451MPD2    N1 6726   0.968   3.034   1.562 -0.2622 -0.5265  0.4780
  451MPD2    H7 6727   0.947   3.103   1.634  1.0304  1.9278 -1.5094
  452TMC3    C1 6728   0.978   2.429   1.303 -0.1894 -0.4173 -0.1818
  452TMC3    C2 6729   0.979   2.314   1.374 -0.9761  0.7002  0.3371
  452TMC3    C3 6730   0.940   2.199   1.313 -0.7896  0.7236 -0.7191
  452TMC3    C4 6731   0.945   2.422   1.176  0.0198  0.2522  0.2513
  452TMC3    C5 6732   0.900   2.307   1.123  0.0639 -0.1046  0.0270
  452TMC3    C6 6733   0.894   2.193   1.188 -0.6793 -0.2788  0.2772
  452TMC3     C 6734   0.959   2.559   1.362 -0.6334  0.3732  0.2627
  452TMC3     O 6735   0.927   2.653   1.289  0.7759 -0.4148 -0.0905
  452TMC3     H 6736   1.024   2.303   1.472  0.0522 -1.9001 -0.4209
  452TMC3    H1 6737   0.934   2.511   1.115  0.2481 -1.0783 -1.7427
  452TMC3    H2 6738   0.867   2.098   1.143 -2.7360  0.8392 -0.9047
  452TMC3    C7 6739   0.855   2.323   0.994  0.3779 -0.1107 -0.3506
  452TMC3    C8 6740   0.929   2.085   1.400 -0.2453  0.4804  0.3350
  452TMC3    O1 6741   0.890   2.418   0.923  0.5740  0.2695  0.2464
  452TMC3    O2 6742   1.029   2.055   1.469 -0.4464 -0.0428  0.0886
  453TMC3    C1 6743   2.452   0.962  11.648  0.6322  0.0361 -0.5302
  453TMC3    C2 6744   2.335   0.887  11.662 -0.0182  0.6942  0.6398
  453TMC3    C3 6745   2.224   0.937  11.602 -0.3766  0.4876 -0.2190
  453TMC3    C4 6746   2.454   1.071  11.567  0.1978  0.5164 -0.0551
  453TMC3    C5 6747   2.336   1.123  11.518  0.5224 -0.0346  0.3432
  453TMC3    C6 6748   2.215   1.058  11.532 -0.1327 -0.1590  0.0269
  453TMC3     C 6749   2.547   0.968  11.761 -0.0165 -0.8209 -0.4731
  453TMC3     O 6750   2.627   1.064  11.755  0.1207 -0.1032  0.1204
  453TMC3     H 6751   2.335   0.803  11.730  0.8531 -1.4341 -1.9980
  453TMC3    H1 6752   2.545   1.127  11.549  0.4315 -0.2893 -1.3461
  453TMC3    H2 6753   2.117   1.079  11.491 -0.0273 -0.2343 -0.2624
  453TMC3    C7 6754   2.347   1.260  11.491 -0.3354  0.6663 -0.1175
  453TMC3    C8 6755   2.100   0.868  11.615 -0.5378  0.8285 -0.2796
  453TMC3    O1 6756   2.454   1.305  11.449 -0.5809 -0.4220  0.4527
  453TMC3    O2 6757   2.006   0.946  11.630 -0.4821  0.1299  0.5013
  454MPD2     C 6758   1.088   0.124  15.999  0.0258  0.1732  0.2717
  454MPD2    C1 6759   1.025   0.189  15.890  0.0297  0.2865 -0.5128
  454MPD2    C2 6760   0.964   0.307  15.906 -0.1885  0.1217  0.7229
  454MPD2    C3 6761   0.965   0.375  16.026 -0.7008 -0.1451 -0.7227
  454MPD2    C4 6762   1.030   0.314  16.135  0.0004 -0.1280  0.1975
  454MPD2    C5 6763   1.087   0.189  16.122  0.0971  0.0539  0.3329
  454MPD2     H 6764   0.907   0.341  15.821 -0.3270  0.6916  1.0452
  454MPD2    H1 6765   1.046   0.368  16.227  1.0302 -1.5451  0.8671
  454MPD2    H2 6766   1.131   0.025  15.991  1.4626  0.9499 -1.8896
  454MPD2    H3 6767   1.143   0.145  16.204  1.3039  1.0321  0.0289
  454MPD2     N 6768   0.881   0.485  16.055 -0.7622 -0.2506 -0.0894
  454MPD2    H5 6769   0.863   0.499  16.154  0.2368 -0.0471  0.0658
  454MPD2    N1 6770   1.011   0.129  15.767  0.1639  0.2366 -0.3026
  454MPD2    H7 6771   0.961   0.173  15.690  0.2751 -0.0237 -0.5238
  455TMC3    C1 6772   0.676   0.572  16.052 -0.3410  0.8496  0.1376
  455TMC3    C2 6773   0.693   0.623  16.174  0.1014 -0.3495  0.4092
  455TMC3    C3 6774   0.600   0.580  16.268 -0.1048  0.4840 -0.7214
  455TMC3    C4 6775   0.580   0.472  16.020 -0.5292 -0.3062 -0.3831
  455TMC3    C5 6776   0.492   0.439  16.117 -0.4326 -0.2350 -0.1649
  455TMC3    C6 6777   0.499   0.495  16.243  0.1201 -0.1333  0.1111
  455TMC3     C 6778   0.793   0.541  15.968  0.1988 -0.1483  0.5246
  455TMC3     O 6779   0.793   0.544  15.846 -0.0199  0.4887 -0.8944
  455TMC3     H 6780   0.763   0.706  16.177  0.8375 -0.9188 -0.6821
  455TMC3    H1 6781   0.575   0.421  15.924 -0.1213 -1.5168  0.2363
  455TMC3    H2 6782   0.425   0.462  16.314  0.7498 -0.4317  0.6240
  455TMC3    C7 6783   0.485   0.301  16.136 -0.4255  0.7191  0.2944
  455TMC3    C8 6784   0.605   0.647  16.399 -0.6269  0.6180 -0.0002
  455TMC3    O1 6785   0.389   0.253  16.196  0.4859 -0.3741 -0.2608
  455TMC3    O2 6786   0.715   0.698  16.437  0.3692 -0.1438  0.2197
  456MPD2     C 6787   4.097   4.336  15.993 -0.5633 -0.2191  0.5597
  456MPD2    C1 6788   4.093   4.260  16.112 -0.1905  0.5332 -0.0997
  456MPD2    C2 6789   3.995   4.283  16.207 -0.1922  0.2190 -0.6836
  456MPD2    C3 6790   3.892   4.370  16.177 -0.6117  0.1380  0.0765
  456MPD2    C4 6791   3.899   4.449  16.067  0.2302 -0.3888 -0.4048
  456MPD2    C5 6792   4.007   4.441  15.988  0.3520  0.4985 -0.3995
  456MPD2     H 6793   3.991   4.219  16.295 -2.3833  0.8141 -0.3424
  456MPD2    H1 6794   3.829   4.530  16.051 -1.8503 -1.7716  1.7608
  456MPD2    H2 6795   4.168   4.331  15.911 -1.1316 -1.1995  0.1378
  456MPD2    H3 6796   4.021   4.512  15.907  0.3639 -3.0724 -3.5254
  456MPD2     N 6797   3.786   4.375  16.269  0.1468  0.3824 -0.1763
  456MPD2    H5 6798   3.791   4.317  16.352  1.3461 -0.0688 -0.5632
  456MPD2    N1 6799   4.187   4.150  16.131  0.6999 -0.2895  0.2569
  456MPD2    H7 6800   4.173   4.102  16.219 -1.1494  1.6691  1.0486
  457TMC3    C1 6801   3.602   4.467  16.366  0.4272  0.0086 -0.3796
  457TMC3    C2 6802   3.491   4.541  16.349 -0.2245 -0.5760  0.8029
  457TMC3    C3 6803   3.425   4.580  16.464 -0.5585  0.4177  0.4136
  457TMC3    C4 6804   3.655   4.439  16.490  0.1076  0.0118 -0.1929
  457TMC3    C5 6805   3.577   4.469  16.601 -0.2224 -0.2707  0.3562
  457TMC3    C6 6806   3.456   4.534  16.587  0.2521  0.1047  0.0991
  457TMC3     C 6807   3.677   4.451  16.245  0.4864  0.1575  0.2728
  457TMC3     O 6808   3.632   4.495  16.143  0.1131 -0.1240  0.0812
  457TMC3     H 6809   3.445   4.558  16.252  2.5435  0.8073 -0.2699
  457TMC3    H1 6810   3.756   4.402  16.498  0.9603  2.1713 -0.9293
  457TMC3    H2 6811   3.411   4.575  16.676 -1.1964 -0.0420 -0.5600
  457TMC3    C7 6812   3.590   4.412  16.730  0.2065 -0.2320 -0.2981
  457TMC3    C8 6813   3.288   4.622  16.466 -0.0862 -0.0708  0.2159
  457TMC3    O1 6814   3.494   4.424  16.812  0.6389 -0.2433 -0.0962
  457TMC3    O2 6815   3.213   4.555  16.536  0.1317  0.0307 -0.3153
  458MPD2     C 6816   0.827   4.369  12.545 -0.3327  0.7353  0.0428
  458MPD2    C1 6817   0.884   4.259  12.601 -0.7465  0.0791 -0.8750
  458MPD2    C2 6818   0.812   4.164  12.673  0.2229 -0.4050 -0.8323
  458MPD2    C3 6819   0.681   4.184  12.694 -0.6956 -0.1219  1.0010
  458MPD2    C4 6820   0.619   4.290  12.628  0.2446 -0.3990  0.0811
  458MPD2    C5 6821   0.693   4.381  12.560 -0.7549 -0.0860 -0.8342
  458MPD2     H 6822   0.849   4.087  12.739 -0.5265 -0.9865 -1.0911
  458MPD2    H1 6823   0.513   4.304  12.639  0.2177  0.2195 -0.9564
  458MPD2    H2 6824   0.873   4.438  12.475 -0.7713  1.1387  0.1589
  458MPD2    H3 6825   0.650   4.471  12.517  0.4857  0.6952 -0.4238
  458MPD2     N 6826   0.616   4.102  12.791  0.0908  0.0341 -0.3042
  458MPD2    H5 6827   0.682   4.039  12.836  2.2954  2.7465  0.2630
  458MPD2    N1 6828   1.031   4.259  12.597  0.3455 -0.7279 -0.2091
  458MPD2    H7 6829   1.070   4.347  12.567 -2.1877  0.5264  0.1851
  459TMC3    C1 6830   1.254   4.205  12.669 -0.0570  0.0353 -0.0951
  459TMC3    C2 6831   1.312   4.281  12.572  0.5199 -0.2089 -0.1594
  459TMC3    C3 6832   1.436   4.339  12.613  0.1064 -0.2184  0.3429
  459TMC3    C4 6833   1.313   4.175  12.791 -0.2487 -0.0664  0.6282
  459TMC3    C5 6834   1.439   4.225  12.818 -0.4102  0.6546  0.1902
  459TMC3    C6 6835   1.503   4.303  12.730 -0.4214 -0.3265 -0.0715
  459TMC3     C 6836   1.112   4.164  12.657 -0.9470  0.1358 -0.5216
  459TMC3     O 6837   1.074   4.070  12.726 -0.1600  0.2433 -0.3039
  459TMC3     H 6838   1.262   4.292  12.477 -0.5049  2.1941  0.6534
  459TMC3    H1 6839   1.268   4.108  12.864 -0.3169 -0.3575  0.3145
  459TMC3    H2 6840   1.603   4.342  12.747 -0.5696  0.1809 -0.3507
  459TMC3    C7 6841   1.490   4.205  12.950  0.7349 -0.5194 -0.1119
  459TMC3    C8 6842   1.516   4.412  12.512 -0.1162 -0.0609  0.8767
  459TMC3    O1 6843   1.425   4.129  13.022 -0.0209  0.2361  0.0310
  459TMC3    O2 6844   1.634   4.407  12.531  0.3636  0.3928  0.7175
  460MPD2     C 6845   0.680   1.309  10.682 -0.4823  0.1298 -0.1372
  460MPD2    C1 6846   0.640   1.437  10.709  0.1040  0.4627  0.6079
  460MPD2    C2 6847   0.550   1.489  10.619  0.8617 -0.1675  0.3445
  460MPD2    C3 6848   0.520   1.421  10.499  0.0584 -0.2725  0.3227
  460MPD2    C4 6849   0.555   1.289  10.480 -0.2352 -0.2694 -0.1024
  460MPD2    C5 6850   0.632   1.232  10.576  0.0479  0.0714  0.1528
  460MPD2     H 6851   0.501   1.583  10.639  1.4976  0.7081 -2.2784
  460MPD2    H1 6852   0.516   1.225  10.401  1.6403 -1.5439  0.0082
  460MPD2    H2 6853   0.748   1.266  10.754 -0.7816 -0.0416  0.0445
  460MPD2    H3 6854   0.665   1.129  10.569  0.1374  0.1323 -0.3683
  460MPD2     N 6855   0.442   1.494  10.414 -0.3456 -0.0178 -0.1828
  460MPD2    H5 6856   0.425   1.591  10.439 -1.1494 -0.2571  0.2203
  460MPD2    N1 6857   0.685   1.503  10.822 -0.6125  0.8016 -0.4264
  460MPD2    H7 6858   0.762   1.465  10.875 -0.2135  1.1955 -0.7289
  461TMC3    C1 6859   0.311   1.551  10.234  0.2821  0.4604  0.1667
  461TMC3    C2 6860   0.303   1.523  10.099 -0.3357 -0.1090  0.0594
  461TMC3    C3 6861   0.246   1.623  10.026 -0.2616  0.1881 -0.0562
  461TMC3    C4 6862   0.299   1.676  10.295  0.4355 -0.5802 -0.4669
  461TMC3    C5 6863   0.252   1.774  10.212 -0.0548 -0.5030 -0.0888
  461TMC3    C6 6864   0.237   1.754  10.074 -0.3375  0.7093  0.5600
  461TMC3     C 6865   0.391   1.447  10.298 -0.6983 -0.2033  0.0764
  461TMC3     O 6866   0.414   1.340  10.241 -0.4150 -1.0189  0.2128
  461TMC3     H 6867   0.312   1.427  10.049  1.9239  0.0776  0.1464
  461TMC3    H1 6868   0.287   1.682  10.402 -2.3127 -0.7690 -0.7618
  461TMC3    H2 6869   0.191   1.828  10.011 -0.8674  1.4637  1.8304
  461TMC3    C7 6870   0.201   1.901  10.265 -0.1924  0.2693 -0.0383
  461TMC3    C8 6871   0.179   1.581   9.904 -0.2928 -0.0701 -0.1280
  461TMC3    O1 6872   0.147   1.973  10.181  0.1067  0.1152  0.6118
  461TMC3    O2 6873   0.223   1.485   9.842  0.1477  0.1633  0.0219
  462TMC3    C1 6874   0.318   2.343   0.134  0.1851  0.6965  0.9618
  462TMC3    C2 6875   0.244   2.288   0.030  0.5040 -0.0281 -0.6213
  462TMC3    C3 6876   0.187   2.168   0.053 -0.5006  0.1178 -0.7752
  462TMC3    C4 6877   0.351   2.264   0.242  0.1417  0.5977  0.1557
  462TMC3    C5 6878   0.293   2.141   0.257  0.3588  0.1829 -0.0319
  462TMC3    C6 6879   0.205   2.089   0.160 -0.2599 -0.1537 -0.9625
  462TMC3     C 6880   0.396   2.458   0.097 -0.2192 -0.0865  0.5013
  462TMC3     O 6881   0.393   2.492  17.674 -0.1944 -0.2615  0.3535
  462TMC3     H 6882   0.219   2.341  17.631 -0.4527  1.5545  0.5428
  462TMC3    H1 6883   0.425   2.295   0.314 -0.1612 -0.5437  0.9503
  462TMC3    H2 6884   0.140   2.003   0.171  0.6685 -1.0912 -2.8070
  462TMC3    C7 6885   0.279   2.077   0.387  0.0044  0.2158  0.1342
  462TMC3    C8 6886   0.102   2.110  17.647  0.3278  0.2617  0.1095
  462TMC3    O1 6887   0.240   1.963   0.376  0.2575  0.0881  0.2801
  462TMC3    O2 6888   4.709   2.076  17.668  0.2720 -0.1560 -0.0022
  463MPD2     C 6889   0.836   0.934   1.933 -1.2012 -0.0961 -0.1354
  463MPD2    C1 6890   0.766   1.000   1.835 -0.5124 -0.2495 -0.6951
  463MPD2    C2 6891   0.825   1.112   1.781  0.3005 -0.0212  0.4524
  463MPD2    C3 6892   0.951   1.162   1.813 -0.1883 -0.5074 -0.9441
  463MPD2    C4 6893   1.016   1.098   1.918  0.5762 -0.3394 -0.1585
  463MPD2    C5 6894   0.957   0.983   1.974 -0.4037  0.7415  0.3624
  463MPD2     H 6895   0.762   1.167   1.712  0.8921  1.8396  1.3990
  463MPD2    H1 6896   1.107   1.138   1.962 -0.6138  1.4868  0.6212
  463MPD2    H2 6897   0.799   0.856   1.998  0.1858 -2.0269 -1.6460
  463MPD2    H3 6898   1.005   0.940   2.061 -1.9586 -0.7852  0.4779
  463MPD2     N 6899   1.009   1.271   1.748  0.1188 -0.4525  0.1880
  463MPD2    H5 6900   1.103   1.286   1.782  1.0915 -2.3979 -1.7200
  463MPD2    N1 6901   0.632   0.972   1.805  0.0253 -0.1766  0.4491
  463MPD2    H7 6902   0.598   1.026   1.726 -0.5120 -0.5389  0.4334
  464TMC3    C1 6903   0.409   0.893   1.811  0.2365  0.4380 -0.4871
  464TMC3    C2 6904   0.387   0.974   1.701 -0.2065 -0.6021 -1.0232
  464TMC3    C3 6905   0.252   0.991   1.677  0.2242  0.2464  0.4536
  464TMC3    C4 6906   0.311   0.831   1.888 -0.7637 -0.0139 -0.1485
  464TMC3    C5 6907   0.183   0.836   1.848  0.9313 -0.4150 -0.8136
  464TMC3    C6 6908   0.154   0.915   1.739 -0.1361  0.1575 -0.2342
  464TMC3     C 6909   0.545   0.884   1.865 -0.1406  0.5346 -0.0419
  464TMC3     O 6910   0.567   0.822   1.963 -0.8371  0.5877 -0.3430
  464TMC3     H 6911   0.464   1.027   1.647  0.8246 -0.9987  0.0707
  464TMC3    H1 6912   0.334   0.762   1.968 -1.7267 -0.8101 -0.5645
  464TMC3    H2 6913   0.047   0.909   1.720 -0.3624 -2.4353  1.9172
  464TMC3    C7 6914   0.086   0.746   1.917  0.3868  0.3821  0.0781
  464TMC3    C8 6915   0.224   1.041   1.542  0.3028  0.1006 -0.5193
  464TMC3    O1 6916   0.123   0.716   2.030  0.1805  0.0171 -0.0095
  464TMC3    O2 6917   0.316   1.047   1.467  0.0222 -0.2674 -0.2837
  465MPD2     C 6918   2.619   4.335  16.690  0.2832  0.4796  0.2087
  465MPD2    C1 6919   2.489   4.363  16.730 -0.2848  0.8097  0.2412
  465MPD2    C2 6920   2.429   4.466  16.663  0.0770 -0.5599 -0.5281
  465MPD2    C3 6921   2.489   4.535  16.563  0.3026  0.4888 -0.4313
  465MPD2    C4 6922   2.619   4.500  16.523 -0.0205 -0.0996 -1.0477
  465MPD2    C5 6923   2.685   4.400  16.586 -0.0101 -1.0027  0.0189
  465MPD2     H 6924   2.325   4.486  16.689  0.1052  0.9427 -1.5557
  465MPD2    H1 6925   2.665   4.541  16.434 -3.3887  2.3844 -1.6689
  465MPD2    H2 6926   2.662   4.256  16.751  0.7626  1.7721  1.5208
  465MPD2    H3 6927   2.788   4.375  16.562  0.3972 -0.1029  0.8046
  465MPD2     N 6928   2.410   4.625  16.492 -0.0160  0.7982 -0.8587
  465MPD2    H5 6929   2.315   4.641  16.524 -0.1055 -0.1646 -0.6273
  465MPD2    N1 6930   2.415   4.294  16.834  0.5116  0.6654  0.2624
  465MPD2    H7 6931   2.324   4.333  16.852  0.6268  1.6543 -1.3598
  466TMC3    C1 6932   2.163   0.149  16.429 -0.2122  0.1068  0.1393
  466TMC3    C2 6933   2.214   0.279  16.440  0.0753 -0.8099  0.2472
  466TMC3    C3 6934   2.334   0.302  16.378 -0.5069  0.0075  0.3163
  466TMC3    C4 6935   2.240   0.045  16.384 -0.2823  0.4559 -0.4389
  466TMC3    C5 6936   2.366   0.073  16.341 -0.3758 -0.1524 -0.0126
  466TMC3    C6 6937   2.407   0.200  16.318  0.4548 -0.2281 -0.1306
  466TMC3     C 6938   2.069   0.113  16.532 -0.1023 -0.2498  0.2459
  466TMC3     O 6939   2.089   0.006  16.589  0.4968 -0.1608  0.2189
  466TMC3     H 6940   2.148   0.358  16.473 -0.6577 -1.0913 -0.5577
  466TMC3    H1 6941   2.196   4.671  16.406  2.7494 -0.3252  2.2713
  466TMC3    H2 6942   2.506   0.214  16.277 -0.1372  0.2766 -1.3858
  466TMC3    C7 6943   2.465   4.706  16.393  0.7978 -0.7275 -0.0827
  466TMC3    C8 6944   2.408   0.422  16.414  0.3135 -0.2502  0.4893
  466TMC3    O1 6945   2.580   0.008  16.361  0.0980  0.1103 -0.0969
  466TMC3    O2 6946   2.526   0.425  16.393  0.2982 -0.2804  0.3952
  467TMC3    C1 6947   3.155   3.664  13.831  0.1436  0.5246 -0.0042
  467TMC3    C2 6948   3.092   3.705  13.714  0.4006 -0.1575 -0.5597
  467TMC3    C3 6949   2.959   3.736  13.718 -0.7418 -0.3909 -0.1836
  467TMC3    C4 6950   3.084   3.655  13.952 -0.0721  0.2711 -0.1263
  467TMC3    C5 6951   2.960   3.707  13.962 -0.3584  0.4404  0.6035
  467TMC3    C6 6952   2.898   3.749  13.845 -0.4995 -0.0298 -0.2165
  467TMC3     C 6953   3.301   3.685  13.836  0.3065 -0.0596 -0.7125
  467TMC3     O 6954   3.339   3.733  13.941  0.0416  0.1188  0.5507
  467TMC3     H 6955   3.150   3.725  13.625 -0.0112 -0.9441 -1.0047
  467TMC3    H1 6956   3.135   3.620  14.041  3.1001 -4.1313 -3.6278
  467TMC3    H2 6957   2.797   3.788  13.854 -0.9957 -1.1341 -0.9325
  467TMC3    C7 6958   2.877   3.677  14.076 -0.4306  0.0515 -0.0363
  467TMC3    C8 6959   2.918   3.833  13.623 -0.5754 -0.1840 -0.2204
  467TMC3    O1 6960   2.758   3.687  14.058  0.1653  0.2704  0.3206
  467TMC3    O2 6961   2.882   3.942  13.661  0.3454 -0.1463  0.0356
  468MPD2     C 6962   2.772   1.923  10.637 -0.0292 -0.3048 -0.1986
  468MPD2    C1 6963   2.647   1.897  10.691  0.6673 -0.1096  0.2573
  468MPD2    C2 6964   2.617   1.781  10.766  0.3533 -0.7586  0.1066
  468MPD2    C3 6965   2.720   1.683  10.773  0.8606 -0.2821  0.1872
  468MPD2    C4 6966   2.841   1.716  10.715 -0.7735 -0.3065  0.0912
  468MPD2    C5 6967   2.871   1.834  10.656 -0.2311  0.0135 -0.1671
  468MPD2     H 6968   2.519   1.786  10.813  0.2424  0.0877 -0.1983
  468MPD2    H1 6969   2.926   1.648  10.722  1.0471  1.9482 -0.0749
  468MPD2    H2 6970   2.798   2.019  10.594 -0.0047 -0.0991  0.2637
  468MPD2    H3 6971   2.973   1.858  10.630 -0.2958  0.0303 -0.4065
  468MPD2     N 6972   2.715   1.555  10.844 -0.0359 -0.1410  0.0517
  468MPD2    H5 6973   2.796   1.494  10.837 -0.3973 -0.6660  0.4903
  468MPD2    N1 6974   2.548   1.989  10.666 -0.3293 -0.7333  0.7413
  468MPD2    H7 6975   2.464   1.990  10.723 -0.3847  1.4431  0.6309
  469TMC3    C1 6976   2.437   2.181  10.620 -0.0529 -0.5177  0.2635
  469TMC3    C2 6977   2.448   2.239  10.739  0.6595 -0.1995  0.2070
  469TMC3    C3 6978   2.340   2.302  10.793 -0.1835 -0.1854 -0.1332
  469TMC3    C4 6979   2.322   2.169  10.552 -0.0223 -1.0070 -0.0755
  469TMC3    C5 6980   2.209   2.223  10.605 -0.5501 -0.2827 -0.2803
  469TMC3    C6 6981   2.222   2.292  10.721 -0.6388  0.4154  0.9485
  469TMC3     C 6982   2.539   2.089  10.578 -0.0424 -0.3886  0.2115
  469TMC3     O 6983   2.617   2.125  10.489  0.5143  0.4928 -0.1869
  469TMC3     H 6984   2.548   2.234  10.780 -0.4174 -0.2328  2.7996
  469TMC3    H1 6985   2.327   2.126  10.452 -0.6021 -0.1971 -0.4552
  469TMC3    H2 6986   2.131   2.334  10.761 -0.7603  0.9471  0.1126
  469TMC3    C7 6987   2.081   2.178  10.555 -0.0879  0.5762  0.2100
  469TMC3    C8 6988   2.348   2.386  10.915 -0.3289  0.3279 -0.2812
  469TMC3    O1 6989   2.080   2.067  10.498 -0.2991 -0.1530  0.3912
  469TMC3    O2 6990   2.245   2.420  10.967  0.2971 -0.3401 -0.2463
  470TMC3    C1 6991   4.553   2.082   1.161  0.5632 -0.4077  0.1850
  470TMC3    C2 6992   4.618   2.200   1.166  0.4695  0.4515 -0.5250
  470TMC3    C3 6993   4.713   2.227   1.261 -0.1709  0.0567  0.1258
  470TMC3    C4 6994   4.570   1.988   1.267  0.2863  0.2072 -0.1940
  470TMC3    C5 6995   4.667   2.019   1.358  0.0793 -0.1355  0.5797
  470TMC3    C6 6996   0.014   2.135   1.366 -0.1610  0.0801 -0.2636
  470TMC3     C 6997   4.458   2.048   1.057  0.4896  1.0628  0.2766
  470TMC3     O 6998   4.394   1.946   1.085  0.7994  0.1514 -0.0161
  470TMC3     H 6999   4.584   2.280   1.100 -0.5781 -1.1505 -1.9084
  470TMC3    H1 7000   4.528   1.888   1.258  0.1911  0.3888 -1.6713
  470TMC3    H2 7001   0.058   2.169   1.459 -1.1440  0.4195  0.0786
  470TMC3    C7 7002   4.689   1.934   1.471 -0.2001 -0.0918 -0.0912
  470TMC3    C8 7003   0.050   2.361   1.246  0.2543  0.3011  0.5599
  470TMC3    O1 7004   4.595   1.858   1.498  0.2660  0.2011 -0.3201
  470TMC3    O2 7005   0.027   2.425   1.143  0.1510 -0.2851 -0.8807
  471MPD2     C 7006   0.352   3.973  16.716  0.8496  1.0761  0.3205
  471MPD2    C1 7007   0.282   3.907  16.821  0.1193  0.4362  0.0455
  471MPD2    C2 7008   0.295   3.948  16.953 -0.0249  0.1693  0.3826
  471MPD2    C3 7009   0.389   4.049  16.975 -0.3036 -0.1905  0.0406
  471MPD2    C4 7010   0.450   4.113  16.868  0.7287  0.0401 -0.3202
  471MPD2    C5 7011   0.436   4.073  16.741  0.4041  0.6358 -0.6281
  471MPD2     H 7012   0.234   3.898  17.027 -1.2922 -0.5847 -1.1794
  471MPD2    H1 7013   0.509   4.203  16.878 -3.3136  2.4353  1.5350
  471MPD2    H2 7014   0.352   3.938  16.613  1.2917  1.2427  0.2638
  471MPD2    H3 7015   0.479   4.133  16.661 -1.3690  0.1078 -1.9764
  471MPD2     N 7016   0.430   4.100  17.105  0.1058  0.5011  0.6577
  471MPD2    H5 7017   0.477   4.190  17.108 -0.7161  1.0666 -2.5659
  471MPD2    N1 7018   0.205   3.794  16.798 -0.1850  0.2751 -0.2911
  471MPD2    H7 7019   0.157   3.763  16.882  1.3066  0.0786  0.4809
  472TMC3    C1 7020   0.064   3.651  16.678  0.6784 -0.2088 -0.3077
  472TMC3    C2 7021   4.714   3.650  16.567  0.6548 -0.3996  0.6858
  472TMC3    C3 7022   4.642   3.535  16.530  0.1442  0.4969 -0.4945
  472TMC3    C4 7023   0.052   3.552  16.777 -0.0421  0.4660 -0.0564
  472TMC3    C5 7024   4.701   3.443  16.741 -0.7192 -0.2525  0.3422
  472TMC3    C6 7025   4.636   3.427  16.618  0.6569  0.1368  0.1867
  472TMC3     C 7026   0.181   3.732  16.675  0.2051  0.2871  0.2604
  472TMC3     O 7027   0.239   3.756  16.570  0.2229  0.6238 -0.2297
  472TMC3     H 7028   0.000   3.735  16.501  1.8463 -2.5146 -1.8478
  472TMC3    H1 7029   0.117   3.537  16.862 -0.6082 -1.2278  0.0737
  472TMC3    H2 7030   4.602   3.330  16.583 -0.1483 -0.7987  3.4666
  472TMC3    C7 7031   4.704   3.325  16.826  0.2485 -0.2906  0.0274
  472TMC3    C8 7032   4.568   3.539  16.401  0.5441 -0.0203  0.4717
  472TMC3    O1 7033   0.078   3.309  16.902  0.2074  0.0262  0.5721
  472TMC3    O2 7034   4.605   3.617  16.316  0.8385  0.8278  0.2276
  473MPD2     C 7035   0.694   1.629  13.641  0.3082  0.4604 -0.1798
  473MPD2    C1 7036   0.579   1.691  13.662  0.0980 -0.1080  0.4124
  473MPD2    C2 7037   0.566   1.775  13.772  0.1936 -0.1018 -0.0545
  473MPD2    C3 7038   0.660   1.788  13.874 -0.4348  0.1204 -0.1507
  473MPD2    C4 7039   0.779   1.718  13.855 -0.1485 -0.2844 -0.2956
  473MPD2    C5 7040   0.793   1.649  13.736 -0.8868  0.0733 -0.0921
  473MPD2     H 7041   0.470   1.823  13.785  0.9857  1.3950  0.2699
  473MPD2    H1 7042   0.861   1.744  13.922 -0.1294  1.0591 -0.8283
  473MPD2    H2 7043   0.714   1.571  13.552 -2.1884 -1.2438  0.3825
  473MPD2    H3 7044   0.886   1.603  13.704  0.2165  0.2248  2.9035
  473MPD2     N 7045   0.643   1.848  14.003  0.3721 -0.2576 -0.6410
  473MPD2    H5 7046   0.703   1.818  14.078 -1.4341 -0.1343  0.8371
  473MPD2    N1 7047   0.474   1.699  13.561  0.2783  0.3100 -0.1122
  473MPD2    H7 7048   0.390   1.744  13.596 -0.0476 -1.0048  0.8080
  474TMC3    C1 7049   0.545   2.005  14.155  0.8184 -0.0850  0.2333
  474TMC3    C2 7050   0.465   2.118  14.161  0.3315 -0.3985  0.4315
  474TMC3    C3 7051   0.431   2.170  14.281  0.1277 -0.5401  0.0756
  474TMC3    C4 7052   0.589   1.944  14.267 -0.3601 -0.1495 -0.5216
  474TMC3    C5 7053   0.558   2.005  14.384  0.0740  1.9220  0.3244
  474TMC3    C6 7054   0.471   2.109  14.400  0.4632 -0.2000  0.1027
  474TMC3     C 7055   0.552   1.953  14.020 -0.4078  0.4280  0.5757
  474TMC3     O 7056   0.472   1.996  13.934 -0.3624 -0.2562  0.0598
  474TMC3     H 7057   0.438   2.166  14.067 -0.3209  0.5279  1.0984
  474TMC3    H1 7058   0.661   1.864  14.262  0.1205  0.2294  0.2600
  474TMC3    H2 7059   0.435   2.144  14.496  1.8439 -2.6896  1.5356
  474TMC3    C7 7060   0.660   1.978  14.488 -0.1437 -0.6803  0.0464
  474TMC3    C8 7061   0.323   2.260  14.280  0.7835 -0.1993  0.2516
  474TMC3    O1 7062   0.774   1.955  14.450 -0.1754  0.3049  0.0917
  474TMC3    O2 7063   0.228   2.246  14.352  0.0508  0.7100  0.2536
  475MPD2     C 7064   4.107   4.474   9.924  0.2614 -0.5452  0.5752
  475MPD2    C1 7065   4.026   4.559   9.998  0.0610  0.2022  0.4951
  475MPD2    C2 7066   3.915   4.505  10.057 -0.0836 -0.3841  0.2080
  475MPD2    C3 7067   3.883   4.370  10.043  0.8156 -0.2133  0.3930
  475MPD2    C4 7068   3.958   4.290   9.964  0.1017  0.1161 -0.4110
  475MPD2    C5 7069   4.072   4.339   9.913  0.4384  0.8425 -0.6951
  475MPD2     H 7070   3.856   4.565  10.125 -1.6912 -2.3676  0.5869
  475MPD2    H1 7071   3.931   4.187   9.948 -1.6295  0.4904  0.1122
  475MPD2    H2 7072   4.194   4.507   9.869 -0.2914  1.5013  0.8991
  475MPD2    H3 7073   4.142   4.275   9.859 -0.0963  0.6678 -1.1793
  475MPD2     N 7074   3.761   4.318  10.087 -0.1609 -0.1863  0.2394
  475MPD2    H5 7075   3.735   4.224  10.060  0.8391 -1.4117  3.4550
  475MPD2    N1 7076   4.063   4.697  10.012 -0.5035 -0.1099 -0.8383
  475MPD2    H7 7077   4.148   0.005   9.968 -1.8527  0.8176 -2.7978
  476TMC3    C1 7078   4.014   0.203  10.014  0.2569  0.4754 -1.2083
  476TMC3    C2 7079   3.926   0.307   9.993  0.3981  0.3792 -0.5104
  476TMC3    C3 7080   3.973   0.425   9.944 -0.1599 -0.3994  0.2360
  476TMC3    C4 7081   4.150   0.234  10.019  0.4011  0.2229  0.1560
  476TMC3    C5 7082   4.197   0.357   9.985 -0.0939 -0.1127  0.5898
  476TMC3    C6 7083   4.108   0.452   9.945  0.2253  0.6050  0.2899
  476TMC3     C 7084   3.964   0.071  10.037 -0.4948  0.4112 -0.4349
  476TMC3     O 7085   3.848   0.061  10.066 -0.6380  0.0005  0.3247
  476TMC3     H 7086   3.821   0.290  10.011 -0.1011  2.6296 -1.2173
  476TMC3    H1 7087   4.225   0.164  10.056 -1.2295 -0.3819  2.3332
  476TMC3    H2 7088   4.146   0.535   9.886  2.1037 -1.6396 -1.6234
  476TMC3    C7 7089   4.325   0.392  10.047  0.4472 -0.1286  0.1133
  476TMC3    C8 7090   3.918   0.449   9.814  0.2418  0.1597  0.8117
  476TMC3    O1 7091   4.423   0.314  10.031  0.5765 -1.3801 -0.6755
  476TMC3    O2 7092   3.968   0.533   9.739  0.1966 -0.5268  0.6111
  477MPD2     C 7093   1.283   1.325  12.027 -0.4927 -0.0742  0.0054
  477MPD2    C1 7094   1.198   1.258  11.945 -0.2494 -0.2712 -0.6575
  477MPD2    C2 7095   1.198   1.117  11.955  0.0460  0.1968  0.3111
  477MPD2    C3 7096   1.277   1.054  12.051  0.4096  0.2131  0.3835
  477MPD2    C4 7097   1.358   1.130  12.133  0.5102 -0.1116 -0.2377
  477MPD2    C5 7098   1.362   1.263  12.123  0.1526 -0.1898  0.3312
  477MPD2     H 7099   1.125   1.059  11.900 -0.1681  1.1400 -0.3941
  477MPD2    H1 7100   1.429   1.095  12.207  1.5603 -1.0803 -1.7129
  477MPD2    H2 7101   1.292   1.431  12.009  1.2134 -0.6937 -2.8103
  477MPD2    H3 7102   1.430   1.314  12.190 -0.1805  0.5097  0.1447
  477MPD2     N 7103   1.275   0.912  12.068  0.0734  0.4611  0.0127
  477MPD2    H5 7104   1.324   0.877  12.149  0.3209 -1.0533 -0.7780
  477MPD2    N1 7105   1.124   1.341  11.862 -0.0879  0.3104  0.3102
  477MPD2    H7 7106   1.136   1.442  11.855 -0.2836  0.1401 -2.5948
  478TMC3    C1 7107   0.980   1.395  11.682  0.2361 -0.2918  0.7416
  478TMC3    C2 7108   0.974   1.524  11.720  0.6595 -0.3422  0.6187
  478TMC3    C3 7109   0.905   1.616  11.650  0.0980 -0.7680  0.3929
  478TMC3    C4 7110   0.933   1.356  11.563  0.0965 -0.0686  0.0565
  478TMC3    C5 7111   0.869   1.450  11.490  0.1956  0.6359  0.3066
  478TMC3    C6 7112   0.855   1.578  11.534 -0.2682 -0.6759 -0.3433
  478TMC3     C 7113   1.043   1.293  11.766 -0.3838 -0.1556  0.8744
  478TMC3     O 7114   1.031   1.177  11.740 -0.6801 -0.3129  0.0893
  478TMC3     H 7115   0.999   1.550  11.822 -0.0498  0.1891  0.6566
  478TMC3    H1 7116   0.924   1.251  11.537 -0.1176 -0.1057  0.2881
  478TMC3    H2 7117   0.803   1.650  11.471 -1.3273 -0.2104  1.0674
  478TMC3    C7 7118   0.827   1.393  11.357 -0.0985  0.5693  0.3422
  478TMC3    C8 7119   0.930   1.753  11.698 -0.4830 -0.1038 -0.1078
  478TMC3    O1 7120   0.908   1.311  11.308  0.2635  0.2348  0.1157
  478TMC3    O2 7121   0.980   1.760  11.810  0.6822  0.1107 -0.4882
  479MPD2     C 7122   4.700   3.350  15.358  0.0306 -0.2309 -0.5747
  479MPD2    C1 7123   4.605   3.271  15.427  0.0496 -0.2233 -0.6047
  479MPD2    C2 7124   4.602   3.282  15.565  0.0595 -0.0280 -1.0690
  479MPD2    C3 7125   4.681   3.378  15.631 -0.0547 -0.0564  0.2802
  479MPD2    C4 7126   0.040   3.455  15.562  0.1105  0.7379 -0.5628
  479MPD2    C5 7127   0.051   3.435  15.430  0.0432  0.3263  0.1319
  479MPD2     H 7128   4.532   3.211  15.606 -0.9041  1.2586 -0.4852
  479MPD2    H1 7129   0.107   3.532  15.601  1.0010 -0.1243 -0.3844
  479MPD2    H2 7130   0.001   3.347  15.252 -0.7624 -0.7522 -0.7437
  479MPD2    H3 7131   0.118   3.506  15.383  0.6263 -1.4763 -1.7652
  479MPD2     N 7132   4.666   3.404  15.766  0.3208 -0.0457  0.0212
  479MPD2    H5 7133   0.001   3.477  15.806  1.3819 -0.4268 -0.8351
  479MPD2    N1 7134   4.514   3.204  15.347 -0.5460  0.5569 -0.6658
  479MPD2    H7 7135   4.508   3.226  15.248 -2.9857 -1.2181 -0.9067
  480TMC3    C1 7136   4.235   3.236  15.797 -0.1648  0.8208  0.5178
  480TMC3    C2 7137   4.193   3.314  15.692 -0.0468 -0.3036  0.1473
  480TMC3    C3 7138   4.277   3.416  15.651 -0.0082  0.3622  0.4155
  480TMC3    C4 7139   4.356   3.254  15.853  0.8587  0.5104 -0.0603
  480TMC3    C5 7140   4.436   3.359  15.806  0.2489  0.5166 -0.4344
  480TMC3    C6 7141   4.399   3.447  15.714 -0.0378  0.3413  0.5540
  480TMC3     C 7142   4.142   3.133  15.839  0.1285  0.6226 -0.8282
  480TMC3     O 7143   4.201   3.036  15.880  0.6670 -0.1218 -0.7268
  480TMC3     H 7144   4.096   3.301  15.645 -0.2592 -0.7013  0.7018
  480TMC3    H1 7145   4.383   3.197  15.941 -1.6337  0.8129  0.8813
  480TMC3    H2 7146   4.467   3.519  15.672  0.1335 -0.4790 -0.5682
  480TMC3    C7 7147   4.572   3.356  15.852  0.2033  0.0517  0.1735
  480TMC3    C8 7148   4.260   3.460  15.514 -0.1523 -0.1152  0.5866
  480TMC3    O1 7149   4.588   3.334  15.974 -0.7999  0.5271 -0.1412
  480TMC3    O2 7150   4.160   3.403  15.464 -1.3058  0.0479  0.6652
  481MPD2     C 7151   1.952   2.201  14.795 -0.4544 -0.2545 -0.5451
  481MPD2    C1 7152   1.837   2.266  14.803 -0.2639  0.3030  0.2150
  481MPD2    C2 7153   1.793   2.288  14.929 -0.4217 -0.2377 -0.1541
  481MPD2    C3 7154   1.852   2.248  15.043  0.0169 -0.0021 -0.3018
  481MPD2    C4 7155   1.976   2.185  15.029  0.0600 -0.7283 -0.4778
  481MPD2    C5 7156   2.025   2.155  14.906 -0.3160 -0.2118 -0.0552
  481MPD2     H 7157   1.701   2.346  14.926  0.5000  1.2361  0.0325
  481MPD2    H1 7158   2.036   2.162  15.116 -0.2662  0.0110 -0.0610
  481MPD2    H2 7159   1.992   2.173  14.699 -1.0016  1.6006 -1.3070
  481MPD2    H3 7160   2.120   2.105  14.891 -0.1157  0.0087  0.5201
  481MPD2     N 7161   1.784   2.235  15.163 -0.1749  0.6625  0.3521
  481MPD2    H5 7162   1.846   2.206  15.238  1.1461  1.7251 -0.3406
  481MPD2    N1 7163   1.771   2.291  14.689 -0.1772 -0.0380 -0.0548
  481MPD2    H7 7164   1.805   2.256  14.600  1.7952 -2.3960  1.6309
  482TMC3    C1 7165   1.571   2.374  14.580 -0.6109  0.7375 -0.2857
  482TMC3    C2 7166   1.566   2.274  14.496 -0.0492 -0.4968  0.1472
  482TMC3    C3 7167   1.465   2.279  14.399  0.5667 -0.1187  0.6931
  482TMC3    C4 7168   1.481   2.477  14.574 -0.9220  0.4657 -0.2965
  482TMC3    C5 7169   1.388   2.481  14.473  0.6491  0.5774 -0.1988
  482TMC3    C6 7170   1.375   2.380  14.380  0.2001  0.0360  0.7367
  482TMC3     C 7171   1.665   2.381  14.691 -0.2750  0.2882 -0.2115
  482TMC3     O 7172   1.650   2.481  14.764 -0.6598 -0.2165  0.1068
  482TMC3     H 7173   1.629   2.186  14.494  0.0887 -0.3703 -1.1875
  482TMC3    H1 7174   1.493   2.562  14.640 -1.3583  0.7208 -0.5471
  482TMC3    H2 7175   1.299   2.383  14.302  2.9184 -2.0096 -1.9660
  482TMC3    C7 7176   1.311   2.605  14.446  0.0524 -0.7460  0.0507
  482TMC3    C8 7177   1.445   2.178  14.297 -0.0658 -0.4741  0.6400
  482TMC3    O1 7178   1.307   2.685  14.540  0.3923 -0.1865  0.4390
  482TMC3    O2 7179   1.329   2.151  14.269  0.3455 -0.4100 -0.0755
  483TMC3    C1 7180   3.709   0.890   0.759  0.6187 -0.3192  0.0011
  483TMC3    C2 7181   3.745   1.011   0.811 -0.7811  0.0436  0.0524
  483TMC3    C3 7182   3.827   1.007   0.921 -0.1158 -0.0749  0.7099
  483TMC3    C4 7183   3.741   0.767   0.819  0.0888  0.4409 -0.5488
  483TMC3    C5 7184   3.814   0.771   0.937  0.4570 -0.2706  0.0660
  483TMC3    C6 7185   3.866   0.890   0.986  0.3992 -0.5860  0.1993
  483TMC3     C 7186   3.653   0.898   0.629  0.4084  0.5030 -0.3112
  483TMC3     O 7187   3.667   1.000   0.561  0.1986 -0.1176 -0.0377
  483TMC3     H 7188   3.715   1.106   0.768  0.3795 -0.0597 -0.9794
  483TMC3    H1 7189   3.728   0.674   0.764  1.5607 -0.2854  0.3343
  483TMC3    H2 7190   3.905   0.890   1.087  1.3081  0.1011 -0.1485
  483TMC3    C7 7191   3.850   0.641   0.994 -0.1107  0.1461  0.1211
  483TMC3    C8 7192   3.911   1.121   0.936  0.2653 -0.0931  0.2082
  483TMC3    O1 7193   3.938   0.645   1.079  0.4413 -0.8963 -0.1079
  483TMC3    O2 7194   3.911   1.211   0.850 -0.7203 -0.2725 -0.4733
  484MPD2     C 7195   1.392   4.639  12.245  0.1973 -0.4525 -0.7689
  484MPD2    C1 7196   1.486   4.573  12.324 -0.5706  0.1939 -0.0427
  484MPD2    C2 7197   1.619   4.620  12.318 -0.4894  1.0484  0.9339
  484MPD2    C3 7198   1.662   4.718  12.228  0.0579 -0.1405  0.0779
  484MPD2    C4 7199   1.565   0.054  12.152 -1.0170 -0.0209  0.7359
  484MPD2    C5 7200   1.432   0.013  12.156  0.0053 -0.3387  0.4614
  484MPD2     H 7201   1.698   4.567  12.370  1.1610  2.0247 -0.5631
  484MPD2    H1 7202   1.594   0.110  12.064  0.3869 -0.3691  0.9893
  484MPD2    H2 7203   1.291   4.600  12.240 -0.0026  0.1837 -1.7351
  484MPD2    H3 7204   1.354   0.058  12.095  0.0816 -1.6156 -0.5794
  484MPD2     N 7205   1.791   0.037  12.208  0.0560  0.2593 -0.1825
  484MPD2    H5 7206   1.807   0.102  12.132  1.3279 -0.2116 -0.3217
  484MPD2    N1 7207   1.441   4.480  12.423  0.0194  0.2764  0.2522
  484MPD2    H7 7208   1.340   4.471  12.419 -0.0152  0.2557  1.1455
  485TMC3    C1 7209   2.032   0.026  12.210  0.2030  0.5902  0.4569
  485TMC3    C2 7210   2.144   0.000  12.270 -0.1509  0.1432  0.2414
  485TMC3    C3 7211   2.257   0.039  12.207  0.2603 -0.1812  0.3821
  485TMC3    C4 7212   2.023   0.045  12.070 -0.1894  0.3696  0.4989
  485TMC3    C5 7213   2.141   0.078  12.003 -0.0857  0.4190 -0.0706
  485TMC3    C6 7214   2.257   0.073  12.071 -0.0340 -1.1000  0.4361
  485TMC3     C 7215   1.902   4.712  12.274  0.0101 -0.0938  0.5545
  485TMC3     O 7216   1.909   4.642  12.373  0.4358  0.2867  0.1199
  485TMC3     H 7217   2.138   4.679  12.369  0.8802 -1.2104 -0.2949
  485TMC3    H1 7218   1.929   0.056  12.017 -0.0051 -0.8498 -0.0914
  485TMC3    H2 7219   2.348   0.118  12.033 -1.2297  3.2034  2.7354
  485TMC3    C7 7220   2.160   0.055  11.863 -0.5091 -0.6248 -0.2700
  485TMC3    C8 7221   2.374   4.678  12.232 -0.3134 -0.3335 -0.0607
  485TMC3    O1 7222   2.152   4.662  11.813 -0.3953 -0.1723 -0.4525
  485TMC3    O2 7223   2.386   4.637  12.346 -0.0163 -0.2061 -0.0904
  486MPD2     C 7224   3.919   3.610  13.088  0.2254  0.1204 -0.2260
  486MPD2    C1 7225   3.861   3.585  12.969  0.0959 -0.4847  1.3269
  486MPD2    C2 7226   3.831   3.695  12.887  0.4143 -0.1139 -0.7262
  486MPD2    C3 7227   3.836   3.824  12.938  0.7098  0.1615 -0.8523
  486MPD2    C4 7228   3.892   3.846  13.062  0.5550 -0.3350  0.2520
  486MPD2    C5 7229   3.938   3.739  13.133 -0.0970 -0.2687  0.2435
  486MPD2     H 7230   3.785   3.670  12.792  0.7470 -0.7671 -0.7164
  486MPD2    H1 7231   3.888   3.939  13.118 -1.2135 -0.5235  0.4423
  486MPD2    H2 7232   3.938   3.521  13.147  1.5580  0.3968 -0.2284
  486MPD2    H3 7233   3.963   3.755  13.237  1.8268 -1.5712 -0.0173
  486MPD2     N 7234   3.791   3.932  12.856  0.4072 -0.7703  0.2549
  486MPD2    H5 7235   3.747   3.897  12.771 -2.9236  0.1895  1.5902
  486MPD2    N1 7236   3.817   3.450  12.944  0.2283  0.8350  0.8745
  486MPD2    H7 7237   3.847   3.382  13.013  0.3496 -0.9615 -0.9560
  487TMC3    C1 7238   3.689   3.274  12.855 -0.2503  0.1342 -0.0358
  487TMC3    C2 7239   3.573   3.233  12.797  0.0580 -0.1688  0.2931
  487TMC3    C3 7240   3.536   3.103  12.803 -0.0648  0.0433 -0.3987
  487TMC3    C4 7241   3.776   3.180  12.916 -0.4692 -0.4488  0.0936
  487TMC3    C5 7242   3.733   3.050  12.912  0.2775  0.2884  0.1155
  487TMC3    C6 7243   3.615   3.014  12.869  0.6196  0.0621 -0.8711
  487TMC3     C 7244   3.720   3.417  12.848  0.3824 -0.2898 -0.3224
  487TMC3     O 7245   3.656   3.493  12.776 -0.5012 -0.2192 -0.7496
  487TMC3     H 7246   3.503   3.309  12.766  0.2890 -0.4685 -0.9500
  487TMC3    H1 7247   3.878   3.196  12.948 -0.1940 -0.8277 -0.5886
  487TMC3    H2 7248   3.592   2.908  12.860 -0.0898  0.0764  0.7713
  487TMC3    C7 7249   3.754   2.998  13.052  0.3110 -0.0681  0.0153
  487TMC3    C8 7250   3.397   3.068  12.835  0.7045  0.3049  0.0261
  487TMC3    O1 7251   3.845   3.037  13.125 -0.2283  0.1419  0.0463
  487TMC3    O2 7252   3.386   2.997  12.934  0.2397  0.4798  0.9050
  488MPD2     C 7253   4.461   4.694  16.509  0.8215 -0.7716 -0.4544
  488MPD2    C1 7254   4.360   0.060  16.542  0.8816  0.4114 -0.5236
  488MPD2    C2 7255   4.262   0.014  16.627  0.1018  0.1301  0.6062
  488MPD2    C3 7256   4.252   4.606  16.673  0.8537 -0.5462  0.5037
  488MPD2    C4 7257   4.348   4.515  16.635 -0.1168  0.6334 -0.1300
  488MPD2    C5 7258   4.450   4.568  16.554  0.5100 -0.3237 -0.1445
  488MPD2     H 7259   4.184   0.084  16.653 -2.0385 -1.3972 -1.6963
  488MPD2    H1 7260   4.350   4.409  16.657 -0.8199  0.6631  0.0854
  488MPD2    H2 7261   4.554   4.720  16.460  0.8945 -0.8885 -0.3767
  488MPD2    H3 7262   4.537   4.506  16.537 -0.4950 -1.8882  0.3995
  488MPD2     N 7263   4.140   4.566  16.757 -0.5759 -0.4924  0.2115
  488MPD2    H5 7264   4.078   4.640  16.791  1.0956  1.3748 -0.8279
  488MPD2    N1 7265   4.342   0.191  16.480  0.0432 -0.2902  1.3441
  488MPD2    H7 7266   4.275   0.260  16.513 -0.7810 -0.3819 -0.0912
  489TMC3    C1 7267   4.007   4.442  16.901  0.1548 -0.3656 -0.5514
  489TMC3    C2 7268   3.913   4.552  16.890 -0.3886  0.1283  0.0269
  489TMC3    C3 7269   3.874   4.607  17.014 -1.1601 -0.0023  0.2277
  489TMC3    C4 7270   4.016   4.366  17.015 -0.1930 -0.4054 -0.7415
  489TMC3    C5 7271   3.960   4.420  17.130  0.7941  0.5536 -0.2438
  489TMC3    C6 7272   3.895   4.543  17.130 -0.3176  0.2679 -0.1177
  489TMC3     C 7273   4.117   4.440  16.811 -0.0718  0.0422  0.7485
  489TMC3     O 7274   4.177   4.336  16.787 -0.1719  0.1159  0.2939
  489TMC3     H 7275   3.882   4.608  16.802 -2.0832  1.1760  1.2816
  489TMC3    H1 7276   4.071   4.272  17.019 -1.4568 -1.1025  0.4581
  489TMC3    H2 7277   3.870   4.578  17.230  1.2316  1.6066 -0.2138
  489TMC3    C7 7278   4.018   4.380  17.255  0.0031  0.6309  0.6546
  489TMC3    C8 7279   3.901   0.023  17.022 -0.0777 -0.4965  0.0944
  489TMC3    O1 7280   4.022   4.461  17.348 -0.0032 -0.4688 -0.3947
  489TMC3    O2 7281   3.968   0.073  16.933 -0.0995 -0.2077  0.0574
  490MPD2     C 7282   0.430   4.699  17.027 -0.6249 -0.0464 -0.1860
  490MPD2    C1 7283   0.367   4.687  17.142  0.2424 -0.1791  0.4062
  490MPD2    C2 7284   0.367   0.061  17.245 -0.4170 -0.3024 -0.1114
  490MPD2    C3 7285   0.455   0.169  17.226 -0.1106 -0.1561  1.1246
  490MPD2    C4 7286   0.529   0.175  17.107 -0.7203 -0.7524 -1.0307
  490MPD2    C5 7287   0.517   0.081  17.008  0.2229  0.4717 -0.2304
  490MPD2     H 7288   0.300   0.053  17.329 -0.6527 -0.2530 -0.2937
  490MPD2    H1 7289   0.596   0.259  17.094 -2.6863  0.7443 -1.5695
  490MPD2    H2 7290   0.410   4.630  16.946 -1.4566 -3.0478  2.5541
  490MPD2    H3 7291   0.572   0.094  16.915 -0.1820  1.4190 -0.3362
  490MPD2     N 7292   0.488   0.271  17.320 -0.1233 -1.1859 -0.0278
  490MPD2    H5 7293   0.566   0.330  17.293 -0.7633  0.3089  1.3720
  490MPD2    N1 7294   0.283   4.574  17.163 -0.2213 -0.2893 -0.3029
  490MPD2    H7 7295   0.271   4.560  17.263  0.6247 -0.1624 -0.1864
  491TMC3    C1 7296   0.168   4.371  17.127  0.0209 -0.4913 -0.0371
  491TMC3    C2 7297   0.179   4.352  17.264  0.7658 -0.2265  0.6360
  491TMC3    C3 7298   0.134   4.224  17.305 -0.0245  0.2488  0.0729
  491TMC3    C4 7299   0.110   4.284  17.041 -0.3735 -0.6572  0.7912
  491TMC3    C5 7300   0.067   4.166  17.088  0.1610  0.2939 -0.5495
  491TMC3    C6 7301   0.084   4.129  17.221  0.2240  0.2567  0.6867
  491TMC3     C 7302   0.223   4.490  17.068  0.1324 -0.7436 -0.4890
  491TMC3     O 7303   0.208   4.517  16.949 -0.1978  0.0877  0.3984
  491TMC3     H 7304   0.219   4.424  17.334  2.6444  0.3037 -1.0007
  491TMC3    H1 7305   0.114   4.305  16.935  3.0710 -1.7619  0.7160
  491TMC3    H2 7306   0.049   4.029  17.243  0.4598 -0.4925 -2.4154
  491TMC3    C7 7307   4.698   4.087  17.011 -0.1844  0.0974 -0.2711
  491TMC3    C8 7308   0.137   4.183  17.443  0.2033  0.2484 -0.4763
  491TMC3    O1 7309   4.678   3.973  17.053  0.5307  0.1952 -0.1109
  491TMC3    O2 7310   0.082   4.076  17.464  0.3830  0.2053  0.2416
  492MPD2     C 7311   0.008   4.088  10.666 -1.0661 -0.4339  0.4266
  492MPD2    C1 7312   4.647   4.198  10.688 -0.4773  0.1378  0.7964
  492MPD2    C2 7313   4.583   4.209  10.812  0.1374  0.4159 -0.3435
  492MPD2    C3 7314   4.597   4.106  10.909  0.2885 -0.0837 -0.0157
  492MPD2    C4 7315   4.662   3.986  10.873  0.5060  0.7880  0.6798
  492MPD2    C5 7316   0.005   3.980  10.752 -0.4872  0.4553 -0.1718
  492MPD2     H 7317   4.530   4.300  10.835 -0.1382  0.1518  0.0564
  492MPD2    H1 7318   4.662   3.897  10.934  1.2132  0.1054 -0.3331
  492MPD2    H2 7319   0.057   4.073  10.570 -1.9850 -0.6329 -0.0136
  492MPD2    H3 7320   0.041   3.882  10.721 -0.5541 -0.1361  1.6076
  492MPD2     N 7321   4.549   4.129  11.036  0.2641 -0.0895 -0.0422
  492MPD2    H5 7322   4.558   4.050  11.100  2.0085  1.3005  1.4489
  492MPD2    N1 7323   4.659   4.307  10.598  0.4756  0.0987  0.3472
  492MPD2    H7 7324   0.017   4.297  10.537 -0.6487  2.9030 -1.6001
  493TMC3    C1 7325   4.598   4.504  10.478 -0.0732  0.1959 -0.2431
  493TMC3    C2 7326   4.720   4.492  10.410 -0.2125 -0.1351  0.2022
  493TMC3    C3 7327   0.049   4.610  10.370  0.3816 -0.2304  0.2477
  493TMC3    C4 7328   4.516   4.615  10.477  0.1814  1.0470 -0.2388
  493TMC3    C5 7329   4.576   0.002  10.426 -0.4434 -0.0371 -0.0530
  493TMC3    C6 7330   4.704   0.007  10.373  0.1445 -0.0551  0.1491
  493TMC3     C 7331   4.576   4.413  10.590 -0.1906 -1.2296  0.9076
  493TMC3     O 7332   4.476   4.437  10.656 -0.3428 -0.0158 -0.1849
  493TMC3     H 7333   0.050   4.398  10.399  0.5084  0.2390  0.4314
  493TMC3    H1 7334   4.436   4.630  10.548  0.6614 -0.6781  0.6598
  493TMC3    H2 7335   0.024   0.100  10.337 -1.2251  0.9293  1.0662
  493TMC3    C7 7336   4.505   0.128  10.417  0.5963 -0.3246 -0.0885
  493TMC3    C8 7337   0.192   4.602  10.326  0.6990 -0.7650  0.4291
  493TMC3    O1 7338   4.571   0.228  10.422  0.0408 -0.1921  0.8031
  493TMC3    O2 7339   0.261   4.513  10.387 -0.4957 -0.6143 -0.3487
  494TMC3    C1 7340   1.080   1.172   0.472 -0.1267 -0.2657  0.1092
  494TMC3    C2 7341   1.135   1.046   0.472 -1.2133 -0.2969 -0.6036
  494TMC3    C3 7342   1.216   1.028   0.365 -0.5252  0.6966 -0.2371
  494TMC3    C4 7343   1.075   1.267   0.369 -0.1042 -0.3796  0.5279
  494TMC3    C5 7344   1.177   1.238   0.275  0.4395  0.2278 -0.9654
  494TMC3    C6 7345   1.241   1.119   0.270 -0.4074  0.2387  0.4812
  494TMC3     C 7346   0.948   1.158   0.543  0.1193 -0.1341 -0.3408
  494TMC3     O 7347   0.847   1.214   0.495 -0.2377  0.0579 -0.7893
  494TMC3     H 7348   1.116   0.971   0.547 -0.5316  0.0062 -0.1292
  494TMC3    H1 7349   1.040   1.367   0.392  0.4237  0.1687 -1.0068
  494TMC3    H2 7350   1.303   1.103   0.182 -0.5994 -0.7684  0.5380
  494TMC3    C7 7351   1.201   1.342   0.177  0.4961 -0.7869 -0.4231
  494TMC3    C8 7352   1.267   0.898   0.351 -0.5424 -0.5841 -0.4523
  494TMC3    O1 7353   1.293   1.319   0.097 -0.2650  0.0751 -0.3123
  494TMC3    O2 7354   1.304   0.842   0.450 -0.3021 -0.2085 -0.2194
  495TMC3    C1 7355   0.203   3.741  14.827  0.0751 -0.3759 -0.6368
  495TMC3    C2 7356   0.153   3.827  14.735 -0.4598 -0.1185 -0.0443
  495TMC3    C3 7357   0.026   3.871  14.758  0.3011 -0.5179 -0.3612
  495TMC3    C4 7358   0.161   3.733  14.953 -0.4236  0.5324 -0.9541
  495TMC3    C5 7359   0.050   3.804  14.990  0.3397 -0.3565 -0.2752
  495TMC3    C6 7360   4.706   3.882  14.891 -0.1158  0.6758 -0.0491
  495TMC3     C 7361   0.212   3.608  14.765 -0.5889  0.3781 -0.1523
  495TMC3     O 7362   0.221   3.604  14.643  0.2898 -0.3092  0.0169
  495TMC3     H 7363   0.202   3.844  14.640  0.6290  0.7412  0.6715
  495TMC3    H1 7364   0.221   3.670  15.017 -3.3483 -1.6068 -0.3193
  495TMC3    H2 7365   4.613   3.934  14.909 -1.3435 -1.8903  0.9580
  495TMC3    C7 7366   4.695   3.744  15.104 -0.1001  0.7514 -0.4184
  495TMC3    C8 7367   4.649   3.840  14.657  0.2385  0.1888  0.3007
  495TMC3    O1 7368   0.034   3.674  15.180 -0.1173  0.1082 -0.2051
  495TMC3    O2 7369   4.536   3.876  14.682  0.3525 -0.3355 -0.0385
  496MPD2     C 7370   1.275   3.188  14.994  0.5063 -0.4993 -0.1919
  496MPD2    C1 7371   1.304   3.111  15.103 -0.5347  0.7180  0.1202
  496MPD2    C2 7372   1.258   3.158  15.228  0.2946  0.9797 -0.0709
  496MPD2    C3 7373   1.190   3.282  15.233  0.0826 -0.5897 -0.5009
  496MPD2    C4 7374   1.152   3.350  15.120  0.5960 -0.6792  0.5656
  496MPD2    C5 7375   1.200   3.302  15.002 -0.2883 -0.0169  0.4878
  496MPD2     H 7376   1.290   3.099  15.313 -0.5650  1.4601  0.5884
  496MPD2    H1 7377   1.104   3.446  15.113 -0.8710 -1.5606 -1.3906
  496MPD2    H2 7378   1.301   3.158  14.893  1.9874  1.6093 -0.4327
  496MPD2    H3 7379   1.174   3.370  14.922 -2.6180 -1.4973 -0.0199
  496MPD2     N 7380   1.139   3.340  15.352  0.3274 -0.1454 -1.0178
  496MPD2    H5 7381   1.089   3.427  15.344 -0.8273 -0.8623 -1.5862
  496MPD2    N1 7382   1.387   3.002  15.085  0.2625 -0.5981  0.4530
  496MPD2    H7 7383   1.400   2.973  14.988 -0.8449  0.3536  0.0117
  497TMC3    C1 7384   1.095   3.355  15.581 -0.3078 -0.3008 -0.0086
  497TMC3    C2 7385   0.960   3.343  15.558 -0.7101  0.3238 -0.2205
  497TMC3    C3 7386   0.874   3.339  15.663 -0.4958 -0.0103  0.3531
  497TMC3    C4 7387   1.145   3.352  15.711  0.2261  0.6217  0.1216
  497TMC3    C5 7388   1.057   3.334  15.816 -0.1251 -0.0058 -0.0753
  497TMC3    C6 7389   0.919   3.334  15.794 -0.6761 -0.0827  0.2378
  497TMC3     C 7390   1.181   3.299  15.477 -0.5241  0.1304 -0.0780
  497TMC3     O 7391   1.250   3.203  15.500  0.1251 -0.0982  0.0904
  497TMC3     H 7392   0.914   3.347  15.460 -1.0398 -1.3671 -0.1343
  497TMC3    H1 7393   1.251   3.335  15.721  0.1779  0.5120  0.4551
  497TMC3    H2 7394   0.857   3.330  15.882  2.1906 -1.4149  2.2101
  497TMC3    C7 7395   1.086   3.399  15.941 -0.4670 -0.6174 -0.3915
  497TMC3    C8 7396   0.731   3.343  15.640  1.1945  0.0652 -0.4750
  497TMC3    O1 7397   1.001   3.470  15.993 -0.2011  0.6870 -0.3466
  497TMC3    O2 7398   0.690   3.362  15.527  0.2931 -0.4243 -0.0381
  498MPD2     C 7399   2.562   3.940   9.104 -0.6526 -0.2513 -0.2006
  498MPD2    C1 7400   2.629   3.848   9.188 -0.3649  0.3058  0.1389
  498MPD2    C2 7401   2.557   3.744   9.253 -0.6414  0.6603 -0.4524
  498MPD2    C3 7402   2.421   3.723   9.217  0.3198 -0.4098  0.4091
  498MPD2    C4 7403   2.369   3.805   9.113 -0.0183 -0.5251  0.0359
  498MPD2    C5 7404   2.434   3.920   9.068  0.1951  0.2466 -0.6640
  498MPD2     H 7405   2.605   3.675   9.321  0.1174  0.9956 -0.6460
  498MPD2    H1 7406   2.269   3.782   9.077 -0.2858  2.6841 -1.2470
  498MPD2    H2 7407   2.617   4.015   9.049  0.2621 -0.6307  0.1947
  498MPD2    H3 7408   2.392   3.989   8.996 -0.9441 -0.9552 -1.1490
  498MPD2     N 7409   2.343   3.619   9.283 -0.1719 -0.0692  0.0079
  498MPD2    H5 7410   2.386   3.577   9.365 -0.1261  2.3110  1.2096
  498MPD2    N1 7411   2.766   3.849   9.203  0.1005 -0.0176  0.0216
  498MPD2    H7 7412   2.802   3.769   9.253 -2.9389 -0.9622  0.7169
  499TMC3    C1 7413   2.995   3.915   9.211 -0.3245  0.5619  0.5807
  499TMC3    C2 7414   3.016   3.830   9.319  0.4096  0.0059  0.3082
  499TMC3    C3 7415   3.138   3.833   9.378 -0.3896 -0.3620  0.2812
  499TMC3    C4 7416   3.091   3.998   9.166 -0.2832 -0.4431  0.2151
  499TMC3    C5 7417   3.212   3.995   9.230  0.3108  0.2465 -0.1676
  499TMC3    C6 7418   3.239   3.909   9.339  0.2686 -0.4641 -0.1570
  499TMC3     C 7419   2.861   3.937   9.158 -0.1548  0.0838 -0.2023
  499TMC3     O 7420   2.847   4.026   9.075 -0.8707 -0.2027  0.0640
  499TMC3     H 7421   2.940   3.776   9.374 -0.6629  1.3197  0.1254
  499TMC3    H1 7422   3.068   4.079   9.098  0.1520  0.3519  1.0025
  499TMC3    H2 7423   3.336   3.920   9.387  0.2078 -0.2010 -0.0947
  499TMC3    C7 7424   3.298   4.112   9.207 -0.0935 -1.1312  0.7953
  499TMC3    C8 7425   3.172   3.719   9.463  0.0146 -0.2581 -0.6377
  499TMC3    O1 7426   3.256   4.209   9.142 -0.3423  0.5327  0.3929
  499TMC3    O2 7427   3.088   3.678   9.541 -0.8696  0.0078  0.0162
  500MPD2     C 7428   4.721   0.600   9.809 -0.0421 -0.6104  0.0881
  500MPD2    C1 7429   4.654   0.676   9.907  0.3450  0.0484 -0.6273
  500MPD2    C2 7430   4.519   0.687   9.886  0.2309  0.3813  0.3297
  500MPD2    C3 7431   4.456   0.642   9.770 -0.2668 -0.4288  0.1119
  500MPD2    C4 7432   4.525   0.567   9.679 -0.5070  0.4631  0.3267
  500MPD2    C5 7433   4.658   0.548   9.702 -0.0100 -0.0917 -0.1124
  500MPD2     H 7434   4.462   0.741   9.960  1.3983 -1.2389  2.4062
  500MPD2    H1 7435   4.477   0.530   9.589 -0.3771  1.2033 -0.0448
  500MPD2    H2 7436   0.103   0.581   9.824  0.1852  1.1076  0.7555
  500MPD2    H3 7437   4.704   0.492   9.621  0.1286  1.3249 -1.0322
  500MPD2     N 7438   4.330   0.688   9.726 -0.0369  0.7643 -0.0994
  500MPD2    H5 7439   4.309   0.658   9.632 -2.0415  0.1232  0.5399
  500MPD2    N1 7440   4.707   0.747  10.019  0.5981 -0.0872 -0.4480
  500MPD2    H7 7441   4.659   0.804  10.088 -2.8107 -1.2275 -1.9210
  501TMC3    C1 7442   0.147   0.805  10.173  0.9510 -0.5771 -0.9730
  501TMC3    C2 7443   0.138   0.943  10.160 -0.6927  0.7815 -0.3261
  501TMC3    C3 7444   0.228   1.021  10.229 -0.1987  0.2307  0.3030
  501TMC3    C4 7445   0.240   0.743  10.258 -0.8973 -0.2278  0.3949
  501TMC3    C5 7446   0.336   0.824  10.308  0.6069  0.1792  0.0747
  501TMC3    C6 7447   0.326   0.962  10.306  0.1522 -0.4827  0.3723
  501TMC3     C 7448   0.117   0.737  10.051  0.3655  0.2578 -0.1927
  501TMC3     O 7449   0.205   0.667  10.004  0.5988  0.1694 -0.1988
  501TMC3     H 7450   0.073   0.988  10.086 -1.5749  1.0926  0.6213
  501TMC3    H1 7451   0.242   0.637  10.280 -0.0608 -0.7224 -2.1251
  501TMC3    H2 7452   0.391   1.024  10.366 -1.6180  1.2380  0.5418
  501TMC3    C7 7453   0.422   0.774  10.411  0.1949 -0.4485 -0.2857
  501TMC3    C8 7454   0.175   1.137  10.307 -0.1252  0.9884 -0.1499
  501TMC3    O1 7455   0.369   0.689  10.475  0.0681 -0.1287 -0.0495
  501TMC3    O2 7456   0.198   1.133  10.429  0.7272 -0.3841  0.2521
  502TMC3    C1 7457   4.077   4.556  15.097  0.0838 -0.3802 -0.8009
  502TMC3    C2 7458   4.044   4.685  15.114 -0.5313 -0.4570  0.1757
  502TMC3    C3 7459   3.908   4.715  15.128  0.3255  0.0082  0.6425
  502TMC3    C4 7460   3.979   4.461  15.087  0.2641 -0.4285 -1.1904
  502TMC3    C5 7461   3.849   4.499  15.113  0.1717  0.0037 -0.5166
  502TMC3    C6 7462   3.803   4.627  15.128 -1.0604 -0.2951  0.4101
  502TMC3     C 7463   4.164   4.512  15.206 -0.4548  0.2849 -0.0743
  502TMC3     O 7464   4.276   4.563  15.214  0.2207 -0.4638 -0.2076
  502TMC3     H 7465   4.123   0.035  15.131 -0.0285 -0.6571 -1.3166
  502TMC3    H1 7466   4.004   4.356  15.076  4.0830  0.3833 -0.4083
  502TMC3    H2 7467   3.704   4.657  15.160 -0.5894 -1.3958  2.8693
  502TMC3    C7 7468   3.774   4.388  15.171 -0.5638 -0.0862 -0.3674
  502TMC3    C8 7469   3.873   0.130  15.102 -0.3120  0.4867 -0.0877
  502TMC3    O1 7470   3.836   4.290  15.218 -0.2901  0.2683 -0.2366
  502TMC3    O2 7471   3.963   0.207  15.129  0.0473  0.2128 -0.4717
  503MPD2     C 7472   1.250   0.383  16.719 -0.5860  0.1750  0.2385
  503MPD2    C1 7473   1.259   0.389  16.855  0.1324 -0.1641  0.2630
  503MPD2    C2 7474   1.271   0.274  16.928 -0.0313 -0.0982 -0.8020
  503MPD2    C3 7475   1.299   0.150  16.874  0.1525  0.4334 -0.0979
  503MPD2    C4 7476   1.287   0.138  16.730  0.2681 -0.6621 -0.2234
  503MPD2    C5 7477   1.265   0.259  16.663  0.0884 -0.2385 -0.1417
  503MPD2     H 7478   1.285   0.291  17.034  0.5407  0.4824 -0.9768
  503MPD2    H1 7479   1.309   0.043  16.683  0.6118  0.2001 -1.8177
  503MPD2    H2 7480   1.226   0.471  16.660 -1.6163 -0.2380  0.0429
  503MPD2    H3 7481   1.247   0.262  16.556 -1.3216 -0.4629  0.0917
  503MPD2     N 7482   1.317   0.041  16.961 -0.0846 -0.6442 -0.5749
  503MPD2    H5 7483   1.331   0.069  17.057 -0.7881 -1.3330 -0.2778
  503MPD2    N1 7484   1.240   0.504  16.935  0.0737  0.0077  0.4324
  503MPD2    H7 7485   1.242   0.485  17.035 -0.1880 -1.4155  0.1660
  504TMC3    C1 7486   1.370   4.540  17.033 -0.2478 -0.2822  0.6112
  504TMC3    C2 7487   1.341   4.561  17.162 -0.3841 -0.7653  0.2253
  504TMC3    C3 7488   1.405   4.482  17.257  0.2564  0.4165 -0.1130
  504TMC3    C4 7489   1.452   4.435  16.996  0.4007 -0.2150  0.2275
  504TMC3    C5 7490   1.519   4.361  17.093 -0.8581  0.1824  0.1600
  504TMC3    C6 7491   1.501   4.388  17.223  0.2760  0.1078  0.5386
  504TMC3     C 7492   1.339   4.631  16.921 -0.5379 -0.6846  0.0813
  504TMC3     O 7493   1.344   4.585  16.805  0.1021  0.5029 -0.2839
  504TMC3     H 7494   1.267   4.636  17.187 -1.4482 -1.4641 -0.8410
  504TMC3    H1 7495   1.485   4.436  16.893 -1.6264 -2.4776 -0.4479
  504TMC3    H2 7496   1.551   4.324  17.295  0.6964 -0.8209 -0.5875
  504TMC3    C7 7497   1.635   4.299  17.043 -0.5990 -0.0907  0.0001
  504TMC3    C8 7498   1.367   4.502  17.394  0.5104 -0.4337 -0.2107
  504TMC3    O1 7499   1.672   4.321  16.928  0.4662 -0.2372  0.4175
  504TMC3    O2 7500   1.324   4.612  17.427 -0.1913  0.7471  0.0697
  505MPD2     C 7501   1.264   3.262  10.001 -0.0886  0.7287 -0.7965
  505MPD2    C1 7502   1.317   3.133  10.005  0.2502  0.0235 -0.3866
  505MPD2    C2 7503   1.418   3.107  10.095  0.3579 -0.0600  0.6223
  505MPD2    C3 7504   1.458   3.204  10.190  0.4141 -0.0722  0.9339
  505MPD2    C4 7505   1.407   3.330  10.188  0.1892 -0.3027 -0.2621
  505MPD2    C5 7506   1.314   3.353  10.093  0.3863  0.0155  0.4544
  505MPD2     H 7507   1.463   3.008  10.089 -1.7640 -0.8514 -2.2954
  505MPD2    H1 7508   1.429   3.406  10.262  0.3594 -0.4093 -0.2005
  505MPD2    H2 7509   1.182   3.293   9.938 -1.1061  0.4954  0.4228
  505MPD2    H3 7510   1.268   3.452  10.091  0.8727  0.2026 -1.3832
  505MPD2     N 7511   1.573   3.180  10.268 -0.5083 -0.3640  0.0904
  505MPD2    H5 7512   1.601   3.259  10.325  0.0098 -0.7935  0.4333
  505MPD2    N1 7513   1.270   3.034   9.912  0.2403 -0.5361  0.0469
  505MPD2    H7 7514   1.216   3.061   9.831 -1.0041  1.0002  1.3953
  506TMC3    C1 7515   1.244   2.812   9.818  0.0006 -0.2375 -0.0081
  506TMC3    C2 7516   1.291   2.850   9.694  0.6528  0.5196  0.7759
  506TMC3    C3 7517   1.309   2.747   9.604 -0.7582  0.0192  0.6731
  506TMC3    C4 7518   1.230   2.678   9.855  0.0208 -0.0555  0.0489
  506TMC3    C5 7519   1.279   2.587   9.767  1.1699 -0.2182 -0.4742
  506TMC3    C6 7520   1.308   2.615   9.640 -0.3527  0.7352  0.2967
  506TMC3     C 7521   1.293   2.896   9.921 -0.2752 -0.3076 -0.0322
  506TMC3     O 7522   1.349   2.830  10.009 -0.2364  0.0502 -0.0001
  506TMC3     H 7523   1.310   2.953   9.665  0.4442 -0.4304 -2.6341
  506TMC3    H1 7524   1.200   2.651   9.955 -0.0607  0.6393  0.2101
  506TMC3    H2 7525   1.345   2.540   9.571 -2.1908  0.7171 -0.6569
  506TMC3    C7 7526   1.399   2.523   9.823 -0.0509  0.0364 -0.5451
  506TMC3    C8 7527   1.371   2.774   9.478 -0.0982  0.5234  0.8759
  506TMC3    O1 7528   1.454   2.438   9.759  0.5655  0.4041 -0.2306
  506TMC3    O2 7529   1.346   2.699   9.383 -0.3377  0.3221  0.4116
  507TMC3    C1 7530   2.602   4.713  14.805  0.0599 -0.2165  0.1300
  507TMC3    C2 7531   2.573   4.595  14.740 -0.1276 -0.6734 -0.6246
  507TMC3    C3 7532   2.631   4.571  14.616  0.5167  0.2638  0.2463
  507TMC3    C4 7533   2.706   0.061  14.770  0.6854  0.4837  0.0656
  507TMC3    C5 7534   2.758   0.042  14.646 -0.1286  0.5276 -0.1059
  507TMC3    C6 7535   2.726   4.652  14.568 -0.0191 -0.3829 -0.0759
  507TMC3     C 7536   2.482   0.065  14.810  0.1647 -0.0979 -0.5395
  507TMC3     O 7537   2.489   0.177  14.759 -0.0081  0.3432 -0.1627
  507TMC3     H 7538   2.483   4.536  14.756 -0.3909  0.3572  1.6468
  507TMC3    H1 7539   2.724   0.154  14.824  0.6430  1.2986 -1.3329
  507TMC3    H2 7540   2.778   4.639  14.474 -0.9942 -1.7590 -0.4193
  507TMC3    C7 7541   2.757   0.157  14.562 -0.3911  0.0179 -0.0607
  507TMC3    C8 7542   2.519   4.550  14.522  1.0655 -0.2654 -1.1065
  507TMC3    O1 7543   2.724   0.136  14.445  0.5346  0.5148 -0.1682
  507TMC3    O2 7544   2.449   4.450  14.537  0.4334 -0.1774 -0.3797
  508MPD2     C 7545   2.794   2.022  15.796  0.8354 -0.0300  0.1803
  508MPD2    C1 7546   2.847   2.135  15.844 -0.2176 -0.3117  0.1102
  508MPD2    C2 7547   2.839   2.242  15.755  0.5134  0.0150  0.4985
  508MPD2    C3 7548   2.783   2.233  15.631  0.6412  0.2264  0.1750
  508MPD2    C4 7549   2.738   2.117  15.578 -0.3454 -0.2295  0.0196
  508MPD2    C5 7550   2.747   2.014  15.669 -0.5863  0.2480  1.2038
  508MPD2     H 7551   2.882   2.334  15.793  2.2508 -1.2807  1.6684
  508MPD2    H1 7552   2.708   2.099  15.475  2.8774 -1.2298 -0.7341
  508MPD2    H2 7553   2.793   1.927  15.848 -0.8611 -0.4009 -0.5548
  508MPD2    H3 7554   2.720   1.912  15.642 -0.5126  1.0160 -1.7079
  508MPD2     N 7555   2.789   2.355  15.554  0.6847 -0.3016  0.2546
  508MPD2    H5 7556   2.843   2.433  15.591 -0.4894  1.4582 -1.7123
  508MPD2    N1 7557   2.892   2.143  15.976 -0.0314  0.3643 -0.3482
  508MPD2    H7 7558   2.901   2.059  16.031 -0.2257 -0.1100 -1.0392
  509TMC3    C1 7559   2.848   2.672  15.245 -0.0427 -0.4054  0.1105
  509TMC3    C2 7560   2.982   2.673  15.281 -0.3707 -0.7588 -0.0206
  509TMC3    C3 7561   3.033   2.560  15.344  0.1132 -0.6154  0.5468
  509TMC3    C4 7562   2.764   2.568  15.277  0.2731 -0.1706  0.5751
  509TMC3    C5 7563   2.817   2.457  15.341 -0.1173 -0.0062 -0.0895
  509TMC3    C6 7564   2.950   2.453  15.372  0.7234  0.1431  0.3497
  509TMC3     C 7565   2.779   2.786  15.182 -0.4155  0.1856  0.0781
  509TMC3     O 7566   2.661   2.768  15.148 -0.1404  0.8014 -0.4211
  509TMC3     H 7567   3.028   2.771  15.274 -1.0843 -0.2728  2.1196
  509TMC3    H1 7568   2.662   2.556  15.241  0.5042 -0.7435  0.1119
  509TMC3    H2 7569   2.987   2.368  15.427 -0.5024  1.0947  2.6329
  509TMC3    C7 7570   2.734   2.370  15.425 -0.1075  0.2100  0.1096
  509TMC3    C8 7571   3.168   2.557  15.396  0.1040  0.1096 -0.1047
  509TMC3    O1 7572   2.641   2.313  15.370 -0.2191 -0.0018  0.5599
  509TMC3    O2 7573   3.192   2.453  15.458 -0.5968  0.2073 -0.0275
  510MPD2     C 7574   1.267   4.182  14.665  0.4601 -0.1982 -0.2909
  510MPD2    C1 7575   1.289   4.055  14.718 -0.6542  0.3081 -0.0388
  510MPD2    C2 7576   1.400   3.982  14.676 -0.5515 -0.4392 -0.2394
  510MPD2    C3 7577   1.496   4.045  14.602 -0.0568  0.0884 -0.3744
  510MPD2    C4 7578   1.475   4.173  14.562  0.4684 -0.8757 -0.3169
  510MPD2    C5 7579   1.359   4.235  14.579 -0.4584  0.0693 -0.4231
  510MPD2     H 7580   1.408   3.878  14.704  1.0696  0.5376  2.8891
  510MPD2    H1 7581   1.541   4.232  14.499 -0.1392  0.4227  0.2625
  510MPD2    H2 7582   1.184   4.248  14.688 -1.0007 -1.3146 -2.2766
  510MPD2    H3 7583   1.346   4.337  14.545  2.1506  0.3515 -0.5840
  510MPD2     N 7584   1.615   3.973  14.571  0.0211 -0.1913  0.5199
  510MPD2    H5 7585   1.622   3.882  14.617 -1.6932 -1.3227 -1.4345
  510MPD2    N1 7586   1.196   3.984  14.802  0.4156 -0.5177  0.7761
  510MPD2    H7 7587   1.223   3.889  14.825 -0.2341 -1.1551 -1.1739
  511TMC3    C1 7588   1.006   3.920  14.934  0.3559 -0.2828 -0.1094
  511TMC3    C2 7589   0.913   3.957  15.023  0.0818 -0.1704 -0.5305
  511TMC3    C3 7590   0.838   3.862  15.083 -0.1432 -0.0475 -0.4431
  511TMC3    C4 7591   1.016   3.786  14.892  0.4195 -0.0101  0.3142
  511TMC3    C5 7592   0.929   3.698  14.942 -0.2779  0.7000 -0.1472
  511TMC3    C6 7593   0.839   3.733  15.037 -0.5824 -0.0025  0.3895
  511TMC3     C 7594   1.084   4.030  14.867 -0.4150  0.4024  0.6033
  511TMC3     O 7595   1.057   4.148  14.890 -0.1242 -0.0421  0.2225
  511TMC3     H 7596   0.906   4.058  15.063 -1.1430 -0.5328  0.1629
  511TMC3    H1 7597   1.079   3.753  14.810 -1.3405 -3.7643  0.4574
  511TMC3    H2 7598   0.757   3.666  15.060 -0.5305 -0.3089 -0.3068
  511TMC3    C7 7599   0.927   3.574  14.876 -0.6134 -0.1733 -0.1206
  511TMC3    C8 7600   0.756   3.912  15.196 -0.8139 -0.1320 -0.4082
  511TMC3    O1 7601   0.983   3.560  14.768 -0.5087 -0.1008  0.5446
  511TMC3    O2 7602   0.731   4.029  15.212 -0.2111  0.3926 -0.0403
  512TMC3    C1 7603   0.180   3.454  13.168  0.2875  0.8950  0.0632
  512TMC3    C2 7604   0.272   3.418  13.270 -0.3333  0.1424 -0.1070
  512TMC3    C3 7605   0.278   3.281  13.311 -0.1957  0.5529  0.2909
  512TMC3    C4 7606   0.117   3.358  13.093  0.0473  0.3722 -0.1543
  512TMC3    C5 7607   0.127   3.227  13.132 -0.0163  0.2238  0.3396
  512TMC3    C6 7608   0.204   3.186  13.242  0.5529  0.4590  0.4097
  512TMC3     C 7609   0.210   3.580  13.111  0.2986 -0.2409 -0.1329
  512TMC3     O 7610   0.311   3.642  13.138 -0.2182 -0.0654  0.2188
  512TMC3     H 7611   0.335   3.494  13.315  0.0766  0.4365 -1.1731
  512TMC3    H1 7612   0.049   3.380  13.011  0.6071 -3.4126 -1.6402
  512TMC3    H2 7613   0.191   3.087  13.282  0.4243  0.4872  0.4381
  512TMC3    C7 7614   0.049   3.125  13.053  0.0991  0.1295  0.1833
  512TMC3    C8 7615   0.369   3.238  13.410  0.5172 -0.7646  0.4810
  512TMC3    O1 7616   4.669   3.160  12.997  0.2373  0.3222  0.7674
  512TMC3    O2 7617   0.382   3.117  13.429  0.6661 -0.0354  0.4053
  513MPD2     C 7618   2.231   4.027  12.838 -0.7362 -0.0006 -1.0991
  513MPD2    C1 7619   2.161   3.925  12.896  0.3952 -0.2895  0.2245
  513MPD2    C2 7620   2.181   3.898  13.029 -0.5167  1.6967  0.4184
  513MPD2    C3 7621   2.272   3.959  13.105  0.1854  0.5647 -0.7913
  513MPD2    C4 7622   2.344   4.060  13.048 -0.1685 -0.3059  0.9688
  513MPD2    C5 7623   2.322   4.097  12.915  0.3170 -0.2837  0.4292
  513MPD2     H 7624   2.135   3.806  13.065 -0.9360  0.9835 -1.9319
  513MPD2    H1 7625   2.428   4.109  13.095  0.5467 -1.5401  0.9653
  513MPD2    H2 7626   2.213   4.049  12.733 -1.9524 -1.4240 -1.1955
  513MPD2    H3 7627   2.376   4.183  12.875  0.3661 -1.3682 -1.7958
  513MPD2     N 7628   2.292   3.905  13.231 -0.5213  0.3603 -0.8406
  513MPD2    H5 7629   2.240   3.821  13.256  0.3000 -0.1221 -0.7544
  513MPD2    N1 7630   2.065   3.861  12.818  0.9245 -0.6051  0.1905
  513MPD2    H7 7631   2.058   3.898  12.724 -3.0086  2.3639  1.6269
  514TMC3    C1 7632   1.897   3.698  12.767 -0.0212 -0.1356  0.4853
  514TMC3    C2 7633   1.947   3.683  12.641  0.4898  0.1762 -0.2902
  514TMC3    C3 7634   1.913   3.565  12.573 -0.0679 -0.2118  0.0822
  514TMC3    C4 7635   1.814   3.606  12.823 -0.2767 -0.5429  0.1006
  514TMC3    C5 7636   1.797   3.483  12.760 -0.7427 -0.2819 -0.2358
  514TMC3    C6 7637   1.830   3.467  12.629 -0.4744  0.2750  0.0818
  514TMC3     C 7638   1.981   3.768  12.864 -0.2293 -0.0833 -0.3841
  514TMC3     O 7639   1.959   3.722  12.978  0.4888 -0.3210 -0.1904
  514TMC3     H 7640   2.021   3.752  12.602  0.1975 -0.0564 -1.2658
  514TMC3    H1 7641   1.765   3.626  12.918 -0.6999  2.3353 -0.7222
  514TMC3    H2 7642   1.822   3.367  12.589  0.2844  0.0630  0.4767
  514TMC3    C7 7643   1.833   3.382  12.856 -0.4257  0.0909  0.7763
  514TMC3    C8 7644   1.964   3.556  12.439 -0.1604 -0.0727 -0.0546
  514TMC3    O1 7645   1.816   3.266  12.819  0.1169  0.1315 -0.0670
  514TMC3    O2 7646   2.073   3.610  12.419  0.4865 -0.2924 -0.4020
  515MPD2     C 7647   4.621   0.704  14.657  0.6290 -0.5238  0.2400
  515MPD2    C1 7648   4.645   0.577  14.693  0.3413 -0.0785 -0.2246
  515MPD2    C2 7649   4.715   0.548  14.812  0.6081  0.2461  0.2666
  515MPD2    C3 7650   0.037   0.654  14.891  0.1769 -0.3669 -0.2663
  515MPD2    C4 7651   4.719   0.782  14.860 -0.6140  0.2276 -0.1105
  515MPD2    C5 7652   4.650   0.803  14.743 -0.1554  0.0510  0.0192
  515MPD2     H 7653   0.013   0.444  14.833  1.9538  0.4792  0.1554
  515MPD2    H1 7654   0.017   0.869  14.921 -1.6481  2.4467 -2.8931
  515MPD2    H2 7655   4.582   0.729  14.559 -3.1156 -0.4769  1.7428
  515MPD2    H3 7656   4.626   0.907  14.723 -0.7652  0.1653  1.3630
  515MPD2     N 7657   0.114   0.630  15.011 -0.2577 -0.0374  0.2194
  515MPD2    H5 7658   0.146   0.712  15.062  0.5277  0.0445 -0.3990
  515MPD2    N1 7659   4.590   0.479  14.605 -0.3320 -0.2847  0.7271
  515MPD2    H7 7660   4.539   0.522  14.528  1.1481 -0.8504 -0.5652
  516TMC3    C1 7661   4.494   0.265  14.547 -0.6212 -0.3647  0.0242
  516TMC3    C2 7662   4.424   0.316  14.439 -0.5311 -0.9546  0.2275
  516TMC3    C3 7663   4.334   0.229  14.373  0.1663 -0.4995 -0.4579
  516TMC3    C4 7664   4.466   0.142  14.604  0.4140  0.2192 -0.2819
  516TMC3    C5 7665   4.372   0.069  14.537 -0.8268 -0.0187  0.7761
  516TMC3    C6 7666   4.312   0.112  14.419 -0.7648  0.6170  1.1895
  516TMC3     C 7667   4.592   0.341  14.620 -0.4766  0.0328 -0.6418
  516TMC3     O 7668   4.649   0.280  14.707 -0.6426  0.1920  0.1621
  516TMC3     H 7669   4.454   0.405  14.384 -2.6552 -1.3134 -1.5585
  516TMC3    H1 7670   4.512   0.111  14.697  2.0835 -0.5199 -1.3357
  516TMC3    H2 7671   4.232   0.053  14.376  0.5720 -1.1098  1.0504
  516TMC3    C7 7672   4.335   4.665  14.600 -0.2515  1.2861 -0.5038
  516TMC3    C8 7673   4.318   0.255  14.231  0.2267 -0.9174  0.6024
  516TMC3    O1 7674   4.429   4.602  14.638  0.1803  0.2824  0.3471
  516TMC3    O2 7675   4.261   0.171  14.163  0.0534 -1.0594  0.3022
  517MPD2     C 7676   4.225   1.531   0.184 -0.0749 -0.9253 -0.8388
  517MPD2    C1 7677   4.340   1.480   0.238 -0.2828  0.2275 -0.7668
  517MPD2    C2 7678   4.369   1.519   0.366 -0.0962 -0.3899  0.7702
  517MPD2    C3 7679   4.298   1.615   0.432  0.8490  0.2626 -0.1262
  517MPD2    C4 7680   4.177   1.650   0.383  0.1616  0.4370 -0.2647
  517MPD2    C5 7681   4.140   1.614   0.255  1.0311  0.3293 -0.3719
  517MPD2     H 7682   4.454   1.475   0.417  0.5938 -0.8479 -0.7760
  517MPD2    H1 7683   4.108   1.718   0.431  3.5223  3.3635  0.3993
  517MPD2    H2 7684   4.200   1.515   0.080  0.6278  1.8232 -1.4416
  517MPD2    H3 7685   4.047   1.646   0.211  1.0079  1.5890  0.6012
  517MPD2     N 7686   4.342   1.666   0.549  0.5494  1.1736  0.5981
  517MPD2    H5 7687   4.275   1.722   0.601 -1.7803 -1.2994  0.2456
  517MPD2    N1 7688   4.413   1.393   0.162  0.0514 -0.6038  0.1839
  517MPD2    H7 7689   4.505   1.371   0.198  0.0636  0.9686  1.1157
  518TMC3    C1 7690   4.468   1.232  17.689 -0.0590 -0.2872  0.4931
  518TMC3    C2 7691   4.431   1.115  17.623  0.2124 -0.3292 -0.2365
  518TMC3    C3 7692   4.521   1.051  17.547 -0.6173  0.4517 -0.4187
  518TMC3    C4 7693   4.592   1.277  17.690 -0.5248 -0.0422 -0.1433
  518TMC3    C5 7694   4.682   1.208  17.620  0.3494 -0.3769 -0.1437
  518TMC3    C6 7695   4.656   1.097  17.543 -0.2267  0.1055  0.2246
  518TMC3     C 7696   4.369   1.309   0.063  0.0631  0.0993  0.3009
  518TMC3     O 7697   4.256   1.288   0.025 -0.2193 -0.5876  0.1440
  518TMC3     H 7698   4.339   1.063  17.648 -0.8897  1.2562 -1.0096
  518TMC3    H1 7699   4.624   1.369   0.045  0.2243 -0.1731 -0.3921
  518TMC3    H2 7700   0.015   1.053  17.487  0.5766 -0.4243  1.8331
  518TMC3    C7 7701   0.098   1.245  17.660 -0.1793 -1.2393 -0.4051
  518TMC3    C8 7702   4.503   0.912  17.495 -0.3438 -0.4929 -0.1084
  518TMC3    O1 7703   0.109   1.311   0.066 -0.9299  0.2045 -0.0973
  518TMC3    O2 7704   4.611   0.856  17.480 -0.0235  0.3905  0.1129
  519MPD2     C 7705   1.595   0.429  14.233  0.2970  0.2524 -0.2711
  519MPD2    C1 7706   1.487   0.356  14.187  0.0314 -0.1196 -0.3956
  519MPD2    C2 7707   1.504   0.231  14.136  0.5697 -0.5458  0.2272
  519MPD2    C3 7708   1.626   0.169  14.147  0.0805 -0.1524 -0.3829
  519MPD2    C4 7709   1.727   0.234  14.215 -0.0615  0.1802 -0.2915
  519MPD2    C5 7710   1.716   0.364  14.254 -0.7151 -0.1044  0.2067
  519MPD2     H 7711   1.427   0.184  14.077  0.0253  1.0936 -0.3695
  519MPD2    H1 7712   1.823   0.184  14.218  0.1071  0.5886  1.0106
  519MPD2    H2 7713   1.585   0.529  14.272 -1.8583 -0.2993  0.5573
  519MPD2    H3 7714   1.802   0.418  14.292  1.6307 -1.6200 -2.9130
  519MPD2     N 7715   1.647   0.044  14.083 -0.9897  0.1552  0.0626
  519MPD2    H5 7716   1.730   4.716  14.114 -1.0998 -0.0640  0.0007
  519MPD2    N1 7717   1.364   0.421  14.169  1.0326  0.1554  0.6900
  519MPD2    H7 7718   1.355   0.521  14.186 -0.4261  0.1838 -0.2173
  520TMC3    C1 7719   1.623   4.591  13.928 -0.2851  0.1309 -0.1744
  520TMC3    C2 7720   1.541   4.517  13.853  0.4706 -0.4027 -0.0874
  520TMC3    C3 7721   1.597   4.412  13.789 -0.6350  0.0732  0.1270
  520TMC3    C4 7722   1.757   4.578  13.947 -0.2990  0.4936 -0.2837
  520TMC3    C5 7723   1.806   4.473  13.875  0.5814 -0.6934  0.9349
  520TMC3    C6 7724   1.729   4.395  13.794 -0.5285 -0.2680 -0.9157
  520TMC3     C 7725   1.565   4.705  13.987  0.2198  0.3169  0.2013
  520TMC3     O 7726   1.462   0.023  13.932  0.2083 -0.4145  0.3824
  520TMC3     H 7727   1.434   4.537  13.857  0.9376  2.2828 -0.9595
  520TMC3    H1 7728   1.831   4.644  13.992  2.3736 -1.1724 -2.2196
  520TMC3    H2 7729   1.780   4.322  13.731  2.7391 -0.0127  1.4276
  520TMC3    C7 7730   1.952   4.449  13.886 -0.6305 -0.3539 -0.0365
  520TMC3    C8 7731   1.519   4.351  13.684  0.4386 -0.4559  0.2749
  520TMC3    O1 7732   1.981   4.335  13.866 -0.0246 -0.3124 -0.2690
  520TMC3    O2 7733   1.561   4.248  13.638  0.4778 -0.7067  0.3356
  521MPD2     C 7734   1.682   2.689  17.415 -0.0542 -0.1116  0.4339
  521MPD2    C1 7735   1.665   2.677  17.277  0.3485  0.4681  0.2110
  521MPD2    C2 7736   1.774   2.701  17.193  0.0980 -0.8791  0.0546
  521MPD2    C3 7737   1.903   2.718  17.239  0.0835 -0.5376 -0.5077
  521MPD2    C4 7738   1.920   2.710  17.378 -0.0304  0.0339  0.2549
  521MPD2    C5 7739   1.814   2.706  17.463  0.8530  0.3949  0.6498
  521MPD2     H 7740   1.750   2.712  17.088  0.8710  1.0485  0.0828
  521MPD2    H1 7741   2.018   2.704  17.424 -0.1105  2.3429  0.7185
  521MPD2    H2 7742   1.598   2.685  17.483 -1.2886 -0.1515 -1.0821
  521MPD2    H3 7743   1.840   2.719  17.568 -0.1371 -1.3209  1.1053
  521MPD2     N 7744   2.009   2.719  17.139 -0.0105 -0.5782 -0.6952
  521MPD2    H5 7745   1.985   2.726  17.040 -0.0654 -0.5746 -0.6816
  521MPD2    N1 7746   1.530   2.667  17.225  0.5112 -0.0618 -0.1813
  521MPD2    H7 7747   1.450   2.687  17.284  1.1579  2.0278 -0.0130
  522TMC3    C1 7748   2.236   2.716  17.058  0.4320 -0.1353 -0.5820
  522TMC3    C2 7749   2.369   2.675  17.081  0.1401  0.0449  0.0348
  522TMC3    C3 7750   2.458   2.705  16.985  0.2589 -0.4629  0.1770
  522TMC3    C4 7751   2.194   2.777  16.943  0.2414 -0.1712  0.2908
  522TMC3    C5 7752   2.287   2.792  16.848 -0.5909  0.1284 -0.5236
  522TMC3    C6 7753   2.418   2.769  16.865 -0.7358 -0.7257  0.2319
  522TMC3     C 7754   2.143   2.724  17.172  0.0019  0.3228 -0.5513
  522TMC3     O 7755   2.194   2.721  17.280 -0.8698  0.0539 -0.1703
  522TMC3     H 7756   2.393   2.614  17.167 -1.2547  0.0193  0.4044
  522TMC3    H1 7757   2.091   2.807  16.927  0.5065  0.3639 -0.3837
  522TMC3    H2 7758   2.496   2.789  16.793 -0.4065 -0.5445  0.6412
  522TMC3    C7 7759   2.246   2.823  16.715 -0.4392  0.2698  0.5318
  522TMC3    C8 7760   2.590   2.651  17.016  0.9771  0.5653 -0.1427
  522TMC3    O1 7761   2.335   2.809  16.629  0.1184  0.4159  0.5166
  522TMC3    O2 7762   2.615   2.613  17.128 -0.2873 -0.5495 -0.3936
  523MPD2     C 7763   0.190   2.022  10.624  0.1934 -0.3712 -0.2680
  523MPD2    C1 7764   0.170   2.034  10.481  0.5893  0.3067  0.2473
  523MPD2    C2 7765   0.101   2.142  10.428 -0.3836 -0.4157 -0.4699
  523MPD2    C3 7766   0.049   2.239  10.506  0.3661 -0.4182 -0.2876
  523MPD2    C4 7767   0.083   2.232  10.639 -0.3535  0.2510 -0.5306
  523MPD2    C5 7768   0.141   2.126  10.699 -0.4386  0.3330  0.0747
  523MPD2     H 7769   0.078   2.146  10.322 -0.1857  1.7191 -0.4196
  523MPD2    H1 7770   0.050   2.312  10.705 -4.7409 -0.3315 -2.0720
  523MPD2    H2 7771   0.248   1.942  10.668  1.2318  0.8652  0.6039
  523MPD2    H3 7772   0.159   2.110  10.805  2.9530 -1.8871 -0.8636
  523MPD2     N 7773   4.700   2.345  10.460 -0.6135  0.2666  0.3479
  523MPD2    H5 7774   4.677   2.421  10.524  0.9898 -1.1523  2.6002
  523MPD2    N1 7775   0.225   1.929  10.399  0.6415 -0.2795 -0.6521
  523MPD2    H7 7776   0.286   1.866  10.450 -0.7437 -1.2950 -0.2630
  524TMC3    C1 7777   4.664   2.503  10.287 -0.5413  0.3955 -0.5040
  524TMC3    C2 7778   4.715   2.529  10.160 -0.8265  0.4989 -0.1991
  524TMC3    C3 7779   0.014   2.665  10.130 -0.3228  0.0757 -0.2414
  524TMC3    C4 7780   4.654   2.592  10.389  0.0907 -0.3090  0.4955
  524TMC3    C5 7781   4.688   2.721  10.355 -0.4669  0.2046  0.6643
  524TMC3    C6 7782   0.007   2.755  10.228 -0.8994  0.9915  0.4691
  524TMC3     C 7783   4.664   2.366  10.333 -0.9709 -0.5268  0.3092
  524TMC3     O 7784   4.650   2.285  10.239  0.5614 -0.1065 -0.0092
  524TMC3     H 7785   4.697   2.455  10.084  1.8080 -0.9268  0.5812
  524TMC3    H1 7786   4.594   2.564  10.476 -1.4501 -3.1062 -1.4663
  524TMC3    H2 7787   0.027   2.856  10.195  1.1584  0.0051 -1.3333
  524TMC3    C7 7788   4.675   2.823  10.460  0.1808  0.1213 -0.2358
  524TMC3    C8 7789   0.030   2.709   9.992  0.6884  0.2217 -0.5529
  524TMC3    O1 7790   4.632   2.787  10.571 -0.0645  0.3512 -0.3778
  524TMC3    O2 7791   0.031   2.829   9.959 -0.0285  0.1098 -0.4640
  525MPD2     C 7792   2.952   4.309  14.400 -0.0663  0.5202 -1.0044
  525MPD2    C1 7793   3.008   4.371  14.509  0.2214 -0.1374  0.6730
  525MPD2    C2 7794   3.063   4.498  14.492  0.0903  0.2508  0.4502
  525MPD2    C3 7795   3.071   4.556  14.368 -0.6928 -0.5810 -0.5857
  525MPD2    C4 7796   3.027   4.487  14.257  0.1377 -0.1571  0.8126
  525MPD2    C5 7797   2.968   4.363  14.279  0.0166 -0.6598  0.1334
  525MPD2     H 7798   3.100   4.553  14.577  1.2574  3.0638 -1.8779
  525MPD2    H1 7799   3.013   4.543  14.165  3.4785  1.2968  1.1923
  525MPD2    H2 7800   2.890   4.220  14.403 -2.6988  2.3650  0.0444
  525MPD2    H3 7801   2.929   4.304  14.197  3.3460 -1.4170 -0.9071
  525MPD2     N 7802   3.128   4.684  14.378  0.4327  0.4986  0.2193
  525MPD2    H5 7803   3.145   0.004  14.468  0.1705  0.8492  0.1051
  525MPD2    N1 7804   3.022   4.313  14.634 -0.0592 -0.5274 -0.5471
  525MPD2    H7 7805   3.079   4.361  14.703 -0.3688 -2.1152  0.8166
  526TMC3    C1 7806   2.999   4.146  14.799 -0.7290 -0.1113 -0.2024
  526TMC3    C2 7807   2.913   4.085  14.882  0.1992  0.9469 -0.3896
  526TMC3    C3 7808   2.973   4.046  15.002 -0.0593 -0.3557  0.9526
  526TMC3    C4 7809   3.139   4.140  14.814  0.5410  0.6638 -0.4848
  526TMC3    C5 7810   3.196   4.079  14.919  0.1943 -0.8279 -0.2599
  526TMC3    C6 7811   3.111   4.037  15.017  0.6474 -0.3981  0.5026
  526TMC3     C 7812   2.945   4.204  14.678  0.3925  0.4038  0.4372
  526TMC3     O 7813   2.848   4.150  14.628 -0.3380 -0.4437  0.3525
  526TMC3     H 7814   2.805   4.088  14.876  0.1961  0.2198 -0.7568
  526TMC3    H1 7815   3.199   4.193  14.741  0.6677  1.1477 -0.0248
  526TMC3    H2 7816   3.142   3.979  15.103 -0.9798 -1.6803  0.2369
  526TMC3    C7 7817   3.338   4.051  14.939 -0.3374 -0.5941 -0.2683
  526TMC3    C8 7818   2.900   4.013  15.123 -1.0583  0.8200 -0.3055
  526TMC3    O1 7819   3.365   4.022  15.053  0.3553  0.1884  0.4921
  526TMC3    O2 7820   2.958   4.027  15.231  0.5582  0.0466  0.7522
  527MPD2     C 7821   0.358   1.626   0.991  0.1488 -0.1520 -0.1203
  527MPD2    C1 7822   0.400   1.550   1.097 -0.3052  0.0239 -0.1381
  527MPD2    C2 7823   0.524   1.499   1.090  0.2046  0.2382 -0.3091
  527MPD2    C3 7824   0.614   1.521   0.987  0.2914  0.0805  0.4840
  527MPD2    C4 7825   0.566   1.586   0.875  0.8275  0.6071  0.3743
  527MPD2    C5 7826   0.438   1.649   0.882 -0.3817 -0.2409 -0.3685
  527MPD2     H 7827   0.564   1.457   1.181  1.3942 -2.1178 -1.8964
  527MPD2    H1 7828   0.620   1.628   0.791  2.9690  2.0321  2.4687
  527MPD2    H2 7829   0.258   1.669   0.995  0.1691  0.0632 -2.0573
  527MPD2    H3 7830   0.391   1.708   0.805 -0.6853 -0.0915 -0.0704
  527MPD2     N 7831   0.749   1.486   0.995  0.0736  0.2656  0.0800
  527MPD2    H5 7832   0.778   1.432   1.076 -0.0370  1.4508  0.9169
  527MPD2    N1 7833   0.322   1.516   1.216 -0.1214 -0.8401  0.6277
  527MPD2    H7 7834   0.360   1.436   1.265 -0.8132 -0.2570  2.0895
  528TMC3    C1 7835   0.155   1.517   1.388  0.1717  0.2371  0.0051
  528TMC3    C2 7836   0.248   1.468   1.471 -0.2363 -0.2217  0.1919
  528TMC3    C3 7837   0.205   1.419   1.590 -0.4555 -0.3958  0.9332
  528TMC3    C4 7838   0.023   1.543   1.424  0.6633  0.1781 -0.1864
  528TMC3    C5 7839   4.707   1.488   1.542 -0.9919  0.5817 -0.9999
  528TMC3    C6 7840   0.074   1.423   1.627  0.3731 -0.4422 -0.7421
  528TMC3     C 7841   0.208   1.578   1.264  0.1039  0.6079 -0.0919
  528TMC3     O 7842   0.147   1.671   1.214  1.3393  0.5652  0.0100
  528TMC3     H 7843   0.355   1.465   1.452 -0.2236 -1.7833  0.4722
  528TMC3    H1 7844   4.667   1.580   1.358 -0.9772 -0.4037  1.4598
  528TMC3    H2 7845   0.040   1.376   1.719  2.8682 -0.5240  0.1240
  528TMC3    C7 7846   4.567   1.486   1.583 -0.7722  0.0624 -0.3756
  528TMC3    C8 7847   0.310   1.388   1.681 -0.0314 -0.4700 -0.3923
  528TMC3    O1 7848   4.531   1.384   1.645 -0.1829 -0.5048 -0.0600
  528TMC3    O2 7849   0.420   1.441   1.658  0.2319  0.0478  0.3379
  529MPD2     C 7850   2.380   0.310   0.775  0.3290  0.3358  0.6013
  529MPD2    C1 7851   2.398   0.209   0.683  0.3639  0.4975  0.4844
  529MPD2    C2 7852   2.357   0.230   0.554  0.7852  0.5669  0.0710
  529MPD2    C3 7853   2.306   0.357   0.522  0.0325  0.0736  0.1399
  529MPD2    C4 7854   2.293   0.458   0.612 -0.6450 -0.2205  1.0782
  529MPD2    C5 7855   2.321   0.432   0.739 -0.1513 -0.3359  0.7761
  529MPD2     H 7856   2.361   0.158   0.473  0.2901 -1.0675  1.4947
  529MPD2    H1 7857   2.241   0.552   0.593  1.4733  0.9482  1.0885
  529MPD2    H2 7858   2.411   0.302   0.879 -0.3736 -0.0754  0.7810
  529MPD2    H3 7859   2.316   0.515   0.809  0.4957  0.1048  0.3000
  529MPD2     N 7860   2.297   0.385   0.385  0.5763 -0.3073 -0.3455
  529MPD2    H5 7861   2.320   0.310   0.321 -2.0629 -0.7723 -0.7582
  529MPD2    N1 7862   2.457   0.089   0.721 -0.2900 -0.3359 -0.0140
  529MPD2    H7 7863   2.479   0.086   0.820 -1.8313  0.1574  0.3350
  530TMC3    C1 7864   2.554   4.591   0.703 -0.2072  0.6121  0.1518
  530TMC3    C2 7865   2.623   4.606   0.822  0.2053 -0.0729 -0.7895
  530TMC3    C3 7866   2.679   4.501   0.887  0.3838  0.1740  0.2471
  530TMC3    C4 7867   2.566   4.467   0.643  0.2696 -0.2560 -0.7283
  530TMC3    C5 7868   2.624   4.368   0.712  0.0145 -0.4723  0.0949
  530TMC3    C6 7869   2.674   4.380   0.834  0.5000 -0.2602  0.0542
  530TMC3     C 7870   2.499   4.705   0.637  0.1522  0.5220  0.1606
  530TMC3     O 7871   2.487   4.696   0.515  0.0769  0.2389 -0.0112
  530TMC3     H 7872   2.623   4.702   0.872 -0.6440 -0.7997  0.5828
  530TMC3    H1 7873   2.535   4.467   0.539 -1.1650 -0.4813 -0.2909
  530TMC3    H2 7874   2.721   4.296   0.883  0.7220  0.2428  0.6923
  530TMC3    C7 7875   2.628   4.235   0.650  0.2584 -0.2967  0.3397
  530TMC3    C8 7876   2.678   4.518   1.030  0.4858  0.6273 -0.6634
  530TMC3    O1 7877   2.634   4.231   0.527  0.2727  0.1170  0.2616
  530TMC3    O2 7878   2.609   4.607   1.077  0.2396  0.2317  0.1403
  531MPD2     C 7879   2.116   3.235  13.276  0.5982  0.4486 -0.5063
  531MPD2    C1 7880   2.107   3.376  13.276 -0.2142 -0.9720  0.2077
  531MPD2    C2 7881   2.036   3.431  13.170  0.3937  0.4455 -0.4739
  531MPD2    C3 7882   1.969   3.360  13.073 -0.1434  0.6307  0.0441
  531MPD2    C4 7883   1.967   3.224  13.079  0.1604  0.0768  0.0698
  531MPD2    C5 7884   2.044   3.166  13.173  0.7524  0.5294 -0.8971
  531MPD2     H 7885   2.005   3.535  13.177  3.8803  1.3871  1.2320
  531MPD2    H1 7886   1.902   3.168  13.012  0.2816  2.0599 -1.7276
  531MPD2    H2 7887   2.175   3.178  13.347 -0.0908  0.1081 -0.2137
  531MPD2    H3 7888   2.047   3.057  13.169 -2.7471  0.4273 -0.9537
  531MPD2     N 7889   1.903   3.432  12.967  0.6599 -0.1554  1.0702
  531MPD2    H5 7890   1.921   3.532  12.970 -1.2634  0.2095  0.3976
  531MPD2    N1 7891   2.179   3.447  13.370  0.7087  0.6839  0.1034
  531MPD2    H7 7892   2.256   3.398  13.413  1.0802 -0.0833 -1.4395
  532TMC3    C1 7893   2.299   3.638  13.445  0.0355  0.4302 -0.1947
  532TMC3    C2 7894   2.302   3.771  13.436 -0.5457 -0.2287 -0.6123
  532TMC3    C3 7895   2.415   3.834  13.416  0.3951 -0.4330  0.4807
  532TMC3    C4 7896   2.408   3.560  13.444  0.2734 -0.3781 -0.0516
  532TMC3    C5 7897   2.526   3.620  13.420 -0.2520 -0.1774 -0.1579
  532TMC3    C6 7898   2.523   3.755  13.402  0.1727 -0.1807 -0.4896
  532TMC3     C 7899   2.181   3.581  13.380 -0.1781 -0.5152  0.2087
  532TMC3     O 7900   2.108   3.669  13.334  0.0939 -0.3785 -0.1576
  532TMC3     H 7901   2.211   3.827  13.454  0.1562  0.5359  0.6294
  532TMC3    H1 7902   2.401   3.453  13.458  1.0267 -0.3226  0.7635
  532TMC3    H2 7903   2.620   3.800  13.390  0.5883 -0.5379  1.5262
  532TMC3    C7 7904   2.646   3.561  13.478  0.1856 -0.8839  0.3159
  532TMC3    C8 7905   2.403   3.932  13.313  0.6399 -0.4815 -0.2516
  532TMC3    O1 7906   2.755   3.604  13.447  0.3856 -0.5226  0.3080
  532TMC3    O2 7907   2.499   4.000  13.297 -0.0746  0.2605 -0.1486
  533TMC3    C1 7908   3.183   0.178  14.297  0.1181 -0.4280  0.3153
  533TMC3    C2 7909   3.315   0.223  14.285 -0.4858  0.0986  0.4098
  533TMC3    C3 7910   3.344   0.314  14.380  0.7868  0.5700  0.2192
  533TMC3    C4 7911   3.096   0.225  14.388 -0.2307 -1.1123  0.0469
  533TMC3    C5 7912   3.135   0.323  14.473 -1.0030 -0.2592 -0.0240
  533TMC3    C6 7913   3.256   0.368  14.466  0.0127 -0.0489  0.1346
  533TMC3     C 7914   3.175   0.038  14.272  0.2208 -0.4612 -0.6906
  533TMC3     O 7915   3.191   4.721  14.156 -0.7462  0.3612  0.4149
  533TMC3     H 7916   3.378   0.171  14.214 -1.3249 -1.6959  0.9981
  533TMC3    H1 7917   2.992   0.192  14.391  0.0563 -2.1146 -1.2420
  533TMC3    H2 7918   3.289   0.440  14.540 -0.0819  1.1476 -0.9741
  533TMC3    C7 7919   3.108   0.274  14.605 -0.1853  0.2651 -0.3725
  533TMC3    C8 7920   3.484   0.360  14.397  0.6027 -0.0789 -0.0438
  533TMC3    O1 7921   3.104   0.153  14.609 -0.2123 -0.3909  0.4235
  533TMC3    O2 7922   3.520   0.417  14.500  0.1510  0.0202  0.9782
  534MPD2     C 7923   4.573   0.586   2.029 -0.7509 -0.1183 -0.2948
  534MPD2    C1 7924   4.617   0.592   1.895 -0.1993 -0.4427 -0.4345
  534MPD2    C2 7925   4.571   0.499   1.803  0.0740  0.3821 -0.6830
  534MPD2    C3 7926   4.489   0.392   1.849 -0.2495  0.4348  0.4391
  534MPD2    C4 7927   4.430   0.407   1.976 -0.5946  0.0358 -1.0292
  534MPD2    C5 7928   4.471   0.499   2.065  0.6168  0.2216  0.2084
  534MPD2     H 7929   4.580   0.519   1.697 -1.1032  0.8489 -0.7032
  534MPD2    H1 7930   4.363   0.333   2.017  0.2677 -1.4567 -2.3166
  534MPD2    H2 7931   4.595   0.661   2.104  1.9348 -0.7053 -0.4844
  534MPD2    H3 7932   4.430   0.494   2.165  1.8341 -2.7243  0.5620
  534MPD2     N 7933   4.442   0.288   1.760 -0.5871 -0.8019  0.1591
  534MPD2    H5 7934   4.365   0.230   1.791 -3.0244  1.9653 -0.7625
  534MPD2    N1 7935   4.702   0.695   1.842 -0.4044 -0.2758  0.1948
  534MPD2    H7 7936   4.709   0.705   1.741 -2.2132  3.3034  0.4483
  535TMC3    C1 7937   4.439   0.140   1.580  0.2602  0.7465  0.0996
  535TMC3    C2 7938   4.306   0.113   1.598 -0.0706 -0.0671  0.0607
  535TMC3    C3 7939   4.257   4.720   1.544  0.2552  0.4497 -0.7006
  535TMC3    C4 7940   4.512   0.060   1.498  0.3144  0.5036  0.0130
  535TMC3    C5 7941   4.465   4.667   1.451  0.2012  0.0170  0.9879
  535TMC3    C6 7942   4.330   4.628   1.471 -0.6077 -0.1004  0.2516
  535TMC3     C 7943   4.510   0.251   1.645  0.3402 -0.1069 -0.4030
  535TMC3     O 7944   4.621   0.287   1.608 -0.0194  0.0236 -0.1884
  535TMC3     H 7945   4.239   0.191   1.634 -1.0931 -0.3094 -1.3122
  535TMC3    H1 7946   4.616   0.082   1.474  0.0183 -1.5407 -3.0221
  535TMC3    H2 7947   4.290   4.542   1.420 -0.1769 -0.4112  0.4401
  535TMC3    C7 7948   4.551   4.598   1.361  0.4508  0.2833 -0.1061
  535TMC3    C8 7949   4.117   4.687   1.567 -0.1576 -0.7945 -0.3338
  535TMC3    O1 7950   4.653   4.654   1.319  0.3389 -0.1876 -0.0380
  535TMC3    O2 7951   4.071   4.588   1.508  0.3026 -0.3614  0.3493
  536MPD2     C 7952   3.829   3.400  16.280  0.0582 -0.0747 -0.4597
  536MPD2    C1 7953   3.908   3.502  16.319  0.1595 -0.0402 -0.4848
  536MPD2    C2 7954   3.935   3.609  16.229  0.1792  0.7418 -0.8283
  536MPD2    C3 7955   3.849   3.622  16.123 -0.4531  0.3589 -0.6124
  536MPD2    C4 7956   3.754   3.527  16.098 -0.3986 -0.4442 -0.1341
  536MPD2    C5 7957   3.755   3.408  16.165 -0.3481  0.4233 -1.3064
  536MPD2     H 7958   4.006   3.684  16.261 -1.2800  1.2449  1.2403
  536MPD2    H1 7959   3.689   3.533  16.012 -1.5278  2.7763  0.9446
  536MPD2    H2 7960   3.808   3.307  16.331  1.6862 -1.4269 -2.2411
  536MPD2    H3 7961   3.675   3.339  16.141 -0.3551  0.7044 -2.0916
  536MPD2     N 7962   3.840   3.745  16.046 -0.3304  0.1686 -0.4546
  536MPD2    H5 7963   3.758   3.772  15.994 -0.5585  0.1663 -0.0944
  536MPD2    N1 7964   3.965   3.489  16.448  0.6688  0.0520 -0.5767
  536MPD2    H7 7965   3.933   3.415  16.509  1.5681 -0.4691 -0.7284
  537TMC3    C1 7966   4.116   3.537  16.628  0.1307 -0.5923 -0.1540
  537TMC3    C2 7967   4.241   3.586  16.654 -0.4892 -0.7270 -0.1775
  537TMC3    C3 7968   4.267   3.596  16.787  1.0182  0.0578  0.1784
  537TMC3    C4 7969   4.024   3.491  16.718 -0.3491 -0.6358  0.6222
  537TMC3    C5 7970   4.058   3.503  16.845 -0.2761  0.1494  0.1964
  537TMC3    C6 7971   4.177   3.560  16.883 -0.0838  0.1898  0.6969
  537TMC3     C 7972   4.069   3.572  16.493  0.2664 -0.0197  0.4567
  537TMC3     O 7973   4.131   3.664  16.443 -0.4889 -0.4166 -0.6447
  537TMC3     H 7974   4.308   3.591  16.568 -1.4403 -0.6159 -0.9152
  537TMC3    H1 7975   3.925   3.464  16.683  0.1754 -2.7817  0.8054
  537TMC3    H2 7976   4.190   3.563  16.991 -1.9608 -1.5759  0.9697
  537TMC3    C7 7977   3.967   3.449  16.949 -0.8331 -0.3507 -0.4081
  537TMC3    C8 7978   4.367   3.693  16.818 -0.0346  0.3899  0.0827
  537TMC3    O1 7979   3.844   3.452  16.927  0.1280 -0.2330  0.0008
  537TMC3    O2 7980   4.419   3.688  16.927  0.0301  0.3724 -0.6558
  538TMC3    C1 7981   0.880   2.502  11.224 -0.3272 -1.0264 -0.1234
  538TMC3    C2 7982   0.893   2.439  11.107  0.3105 -0.0291 -0.1069
  538TMC3    C3 7983   0.803   2.460  11.019  0.9412  0.6558  0.2728
  538TMC3    C4 7984   0.783   2.586  11.256  0.3652 -0.0512 -0.1889
  538TMC3    C5 7985   0.696   2.614  11.158 -0.2828  0.0049  0.7609
  538TMC3    C6 7986   0.697   2.539  11.040  0.0209 -0.1913  0.1266
  538TMC3     C 7987   0.941   2.433  11.337 -0.7473 -0.1021 -0.3425
  538TMC3     O 7988   0.872   2.418  11.435  0.1120  0.3255 -0.0079
  538TMC3     H 7989   0.962   2.357  11.092  0.5587  0.5458 -2.1316
  538TMC3    H1 7990   0.780   2.632  11.354 -1.5648  2.8505 -1.6015
  538TMC3    H2 7991   0.616   2.551  10.968 -0.0736  2.6972  0.6937
  538TMC3    C7 7992   0.569   2.667  11.193  0.7574  0.2307  0.0119
  538TMC3    C8 7993   0.836   2.410  10.886  0.1304 -0.0695 -0.0942
  538TMC3    O1 7994   0.473   2.627  11.129 -0.0732 -0.3819  0.0774
  538TMC3    O2 7995   0.912   2.317  10.873  0.3431 -0.6926 -0.2165
  539MPD2     C 7996   0.923   2.034  11.786  0.2883 -0.5691  0.2073
  539MPD2    C1 7997   0.841   1.985  11.682 -0.1344 -0.5080 -0.2975
  539MPD2    C2 7998   0.750   2.067  11.615  0.1409 -0.3610 -0.5082
  539MPD2    C3 7999   0.749   2.201  11.650  0.4952 -0.1273 -0.4336
  539MPD2    C4 8000   0.826   2.249  11.756  0.1046 -0.0417 -0.8990
  539MPD2    C5 8001   0.902   2.161  11.825 -0.0822 -0.1734  0.4322
  539MPD2     H 8002   0.691   2.019  11.538  0.5160 -1.4763 -0.1016
  539MPD2    H1 8003   0.810   2.348  11.796  1.4977 -0.4519  0.6880
  539MPD2    H2 8004   1.004   1.985  11.838 -0.7197  1.0389  3.2651
  539MPD2    H3 8005   0.959   2.201  11.908  1.9070 -0.4670 -0.8034
  539MPD2     N 8006   0.654   2.284  11.602  0.0895  0.9034  0.0826
  539MPD2    H5 8007   0.664   2.381  11.631 -1.2158  1.5958 -1.7225
  539MPD2    N1 8008   0.862   1.854  11.630 -0.4577  0.4118 -0.0367
  539MPD2    H7 8009   0.814   1.828  11.544 -0.8514  3.1323 -0.6583
  540TMC3    C1 8010   0.458   2.374  11.499 -0.4588 -0.2493  0.5474
  540TMC3    C2 8011   0.366   2.356  11.395 -0.5870  0.3997 -0.2929
  540TMC3    C3 8012   0.254   2.435  11.410  0.1020  0.3425  0.0501
  540TMC3    C4 8013   0.448   2.459  11.610  0.2947 -1.0497 -0.0359
  540TMC3    C5 8014   0.332   2.528  11.606 -0.4566 -0.1699  0.7505
  540TMC3    C6 8015   0.232   2.523  11.511 -0.9417  0.0751 -0.3025
  540TMC3     C 8016   0.562   2.272  11.499 -0.2330 -0.4986  0.9392
  540TMC3     O 8017   0.569   2.200  11.399 -0.2288 -0.0262 -0.0735
  540TMC3     H 8018   0.385   2.290  11.311 -3.7193 -2.8231  1.5229
  540TMC3    H1 8019   0.522   2.470  11.689 -1.1415 -0.4340  1.2372
  540TMC3    H2 8020   0.136   2.568  11.532 -0.5444  0.7060  0.1762
  540TMC3    C7 8021   0.324   2.636  11.711  0.1041 -0.2667 -0.2122
  540TMC3    C8 8022   0.153   2.450  11.306  0.0661 -0.1173 -0.6677
  540TMC3    O1 8023   0.429   2.680  11.750 -0.2191 -0.2670  0.0401
  540TMC3    O2 8024   0.112   2.562  11.291 -0.0850  0.0080 -0.0452
  541MPD2     C 8025   3.289   3.412  13.191  0.4855 -0.0274  0.5902
  541MPD2    C1 8026   3.159   3.411  13.144 -0.1232 -0.4066  0.5069
  541MPD2    C2 8027   3.142   3.471  13.016  0.2164  0.7550  0.4002
  541MPD2    C3 8028   3.246   3.542  12.953 -0.2491 -0.2898  0.1543
  541MPD2    C4 8029   3.374   3.530  13.006  0.0848  0.0380  0.2158
  541MPD2    C5 8030   3.396   3.470  13.127 -0.5279  0.6337  0.0306
  541MPD2     H 8031   3.051   3.483  12.958  0.2608 -0.2399  0.1151
  541MPD2    H1 8032   3.454   3.578  12.952 -0.1280 -0.8361 -0.8897
  541MPD2    H2 8033   3.319   3.350  13.274 -0.4358 -2.2635 -0.7550
  541MPD2    H3 8034   3.497   3.452  13.163 -1.6384 -0.0911  2.8021
  541MPD2     N 8035   3.230   3.622  12.835 -0.3261  0.3061  0.2720
  541MPD2    H5 8036   3.312   3.650  12.783  0.3565 -0.6560  0.8295
  541MPD2    N1 8037   3.053   3.333  13.193 -0.5673 -0.1470 -0.0331
  541MPD2    H7 8038   2.965   3.344  13.143  0.4934  2.4791 -1.3471
  542TMC3    C1 8039   3.110   3.721  12.655  0.4650  0.4232 -0.4471
  542TMC3    C2 8040   3.206   3.672  12.570  0.1499 -0.7604 -0.0617
  542TMC3    C3 8041   3.209   3.715  12.438 -0.0202 -0.0346 -0.0675
  542TMC3    C4 8042   3.013   3.806  12.620  0.0111  0.0675  0.0695
  542TMC3    C5 8043   3.018   3.846  12.490  0.1959  0.5486 -0.0097
  542TMC3    C6 8044   3.111   3.803  12.403 -0.2184 -0.3169  0.1117
  542TMC3     C 8045   3.110   3.667  12.786  0.2846 -0.0965  0.6028
  542TMC3     O 8046   2.999   3.664  12.836  0.1824 -0.3329  0.2612
  542TMC3     H 8047   3.277   3.598  12.606  0.6791 -0.5397 -0.6583
  542TMC3    H1 8048   2.947   3.855  12.690 -0.7647  0.8334 -1.1978
  542TMC3    H2 8049   3.109   3.836  12.300  1.0602  0.6767  0.4040
  542TMC3    C7 8050   2.945   3.977  12.456  0.3612 -0.2986  0.6848
  542TMC3    C8 8051   3.302   3.672  12.334  0.7332  0.7479 -0.7822
  542TMC3    O1 8052   2.862   3.981  12.370 -0.3510 -0.3021 -0.3241
  542TMC3    O2 8053   3.258   3.682  12.220 -0.2650  0.2794 -0.1555
  543TMC3    C1 8054   2.798   3.654  17.561  0.3137 -0.7126  0.5066
  543TMC3    C2 8055   2.825   3.522  17.562 -0.0272  0.0600  0.4326
  543TMC3    C3 8056   2.726   3.444  17.615  0.4214  0.4085  0.1736
  543TMC3    C4 8057   2.681   3.712  17.584 -0.0333 -0.0274  0.3436
  543TMC3    C5 8058   2.587   3.626  17.635  0.2467 -0.3590  0.2794
  543TMC3    C6 8059   2.604   3.497  17.652  0.2673 -1.0654  0.0146
  543TMC3     C 8060   2.906   3.730  17.502 -0.0269  0.1959  0.7024
  543TMC3     O 8061   3.011   3.673  17.470 -0.3064 -0.3105 -0.0025
  543TMC3     H 8062   2.924   3.483  17.539  0.3809  1.2204  0.1992
  543TMC3    H1 8063   2.660   3.814  17.553  2.0258 -0.5098 -2.5977
  543TMC3    H2 8064   2.531   3.433   0.008 -1.6529  1.1143  0.0072
  543TMC3    C7 8065   2.451   3.668  17.670  0.3740  0.6388 -0.3930
  543TMC3    C8 8066   2.722   3.312  17.555  0.2963  0.2604 -0.3168
  543TMC3    O1 8067   2.375   3.583   0.024  0.1630  0.0440  0.0398
  543TMC3    O2 8068   2.828   3.284  17.495  0.8589 -0.1801  0.2944
  544MPD2     C 8069   2.523   2.879  17.370  0.2967 -0.4770  0.4970
  544MPD2    C1 8070   2.632   2.946  17.333  0.1237 -0.4643 -0.9201
  544MPD2    C2 8071   2.661   3.063  17.398 -0.1532 -0.0315  0.9940
  544MPD2    C3 8072   2.576   3.125  17.485  0.3558  0.1586 -0.5316
  544MPD2    C4 8073   2.454   3.067  17.502 -0.3815 -0.0535  0.3225
  544MPD2    C5 8074   2.433   2.942  17.446  0.4180  0.0524  0.2013
  544MPD2     H 8075   2.760   3.106  17.388 -0.4190  0.1397 -0.7391
  544MPD2    H1 8076   2.382   3.117  17.565  1.2013  2.7480 -0.0689
  544MPD2    H2 8077   2.498   2.783  17.327 -2.1532  0.2652  0.2913
  544MPD2    H3 8078   2.339   2.897  17.477  1.1126 -0.1466  2.0281
  544MPD2     N 8079   2.598   3.249  17.550  0.0434  0.1566  0.1894
  544MPD2    H5 8080   2.520   3.286  17.604 -0.2711 -0.4810  0.1693
  544MPD2    N1 8081   2.727   2.878  17.255  0.8007 -0.4622 -0.0139
  544MPD2    H7 8082   2.694   2.784  17.235  0.4043 -0.7260  1.8329
  545TMC3    C1 8083   2.927   2.817  17.159  0.4660 -0.4012 -0.2235
  545TMC3    C2 8084   3.040   2.853  17.088 -0.1580  0.4277  0.7455
  545TMC3    C3 8085   3.157   2.790  17.100 -0.4136  0.5153  0.3248
  545TMC3    C4 8086   2.936   2.720  17.258  0.6869  0.0637 -0.5307
  545TMC3    C5 8087   3.061   2.665  17.268  0.7259  0.1461  0.1565
  545TMC3    C6 8088   3.171   2.692  17.193  1.4980  0.2252 -0.3511
  545TMC3     C 8089   2.841   2.933  17.197  0.2729 -0.0005  0.2763
  545TMC3     O 8090   2.905   3.040  17.220 -0.7714 -0.1265 -0.0823
  545TMC3     H 8091   3.024   2.935  17.019 -2.0443 -0.4636  0.1364
  545TMC3    H1 8092   2.874   2.706  17.345  0.0363  2.5591 -0.6002
  545TMC3    H2 8093   3.264   2.636  17.198  0.6218 -1.2468 -0.5916
  545TMC3    C7 8094   3.075   2.552  17.359 -1.0904  0.1399  0.2288
  545TMC3    C8 8095   3.274   2.868  17.060 -0.4144  0.0255 -0.1033
  545TMC3    O1 8096   2.977   2.482  17.374 -0.1032  0.0294  0.3336
  545TMC3    O2 8097   3.259   2.984  17.023 -0.2029 -0.3190 -0.5097
  546MPD2     C 8098   4.558   4.356  17.600 -0.2962 -0.2649  0.6164
  546MPD2    C1 8099   4.542   4.339  17.465  0.0811 -0.6955 -0.0629
  546MPD2    C2 8100   4.587   4.439  17.380  0.2222 -0.2121 -0.3702
  546MPD2    C3 8101   4.643   4.560  17.430  0.2178  0.8329  0.8369
  546MPD2    C4 8102   4.658   4.569  17.567 -0.5106 -0.4682 -1.0108
  546MPD2    C5 8103   4.617   4.468  17.653 -1.0232  0.9669 -0.6147
  546MPD2     H 8104   4.594   4.415  17.274  0.5216 -0.9785 -0.1829
  546MPD2    H1 8105   4.710   4.655  17.609  0.8135 -1.8564  0.1795
  546MPD2    H2 8106   4.531   4.284  17.676  0.7645 -0.5531  0.7227
  546MPD2    H3 8107   4.629   4.481   0.068 -2.5245  0.6691 -0.4064
  546MPD2     N 8108   4.692   4.668  17.354  0.3068  0.1880  0.1453
  546MPD2    H5 8109   4.721   0.029  17.404  1.2337 -0.5043  0.7547
  546MPD2    N1 8110   4.498   4.210  17.420  0.3840 -0.1434  0.1266
  546MPD2    H7 8111   4.479   4.139  17.491 -0.7159 -0.5446 -0.5699
  547TMC3    C1 8112   4.436   4.036  17.281  0.4163 -0.2444 -0.3412
  547TMC3    C2 8113   4.360   4.000  17.174  0.1154  0.4411  0.2924
  547TMC3    C3 8114   4.339   3.870  17.149 -0.2279  0.4240  0.3239
  547TMC3    C4 8115   4.495   3.937  17.357  0.5140 -0.5089 -0.4303
  547TMC3    C5 8116   4.481   3.801  17.320  0.5787 -0.3023 -0.0843
  547TMC3    C6 8117   4.402   3.768  17.212  0.5558  0.4262  0.2062
  547TMC3     C 8118   4.461   4.179  17.295 -0.4264  0.1310  0.4184
  547TMC3     O 8119   4.449   4.251  17.197  0.1530 -0.1467 -0.1691
  547TMC3     H 8120   4.309   4.076  17.116  0.8790  1.6416  1.1970
  547TMC3    H1 8121   4.545   3.954  17.451 -0.6723 -1.1774  0.3174
  547TMC3    H2 8122   4.397   3.667  17.172 -1.5694  0.3451  0.6657
  547TMC3    C7 8123   4.426   3.715  17.428 -0.5470 -0.0690  0.0015
  547TMC3    C8 8124   4.196   3.853  17.110 -0.5780  0.3956  0.8616
  547TMC3    O1 8125   4.324   3.652  17.401 -0.4013 -0.5690  0.4143
  547TMC3    O2 8126   4.134   3.910  17.020  0.3513  0.0556  0.2299
  548MPD2     C 8127   4.261   0.601  12.519  0.9386 -0.5815 -0.5122
  548MPD2    C1 8128   4.195   0.499  12.595  0.1401  0.5819 -0.4177
  548MPD2    C2 8129   4.248   0.374  12.585  0.8592  0.0406  0.1310
  548MPD2    C3 8130   4.357   0.346  12.499 -0.3815  0.2249  0.1653
  548MPD2    C4 8131   4.420   0.451  12.428  0.0358  0.7435  0.3971
  548MPD2    C5 8132   4.371   0.581  12.443 -0.6033  0.5839 -1.0941
  548MPD2     H 8133   4.196   0.292  12.634  1.5818  0.4043  1.5168
  548MPD2    H1 8134   4.504   0.430  12.364 -1.5594  0.2537 -1.5122
  548MPD2    H2 8135   4.228   0.705  12.523  1.3687 -0.5283  1.8492
  548MPD2    H3 8136   4.422   0.660  12.389  0.9229  0.6904  0.4904
  548MPD2     N 8137   4.381   0.209  12.477 -0.2247  0.4180  0.6290
  548MPD2    H5 8138   4.322   0.149  12.534 -1.5587  1.8428  0.7241
  548MPD2    N1 8139   4.075   0.537  12.666 -0.3140  0.4548  0.1321
  548MPD2    H7 8140   4.045   0.633  12.652 -1.9734 -0.0446  0.2408
  549TMC3    C1 8141   3.868   0.502  12.784  0.6598  0.0069  0.2958
  549TMC3    C2 8142   3.807   0.592  12.699 -0.2662 -0.4390  0.0815
  549TMC3    C3 8143   3.677   0.625  12.717 -0.1332  0.2907 -0.1640
  549TMC3    C4 8144   3.793   0.430  12.875 -0.8048 -0.7239 -0.4154
  549TMC3    C5 8145   3.667   0.473  12.899 -0.2649  0.5554 -0.1987
  549TMC3    C6 8146   3.612   0.575  12.822 -0.4452 -0.0981 -0.1672
  549TMC3     C 8147   4.006   0.455  12.752 -0.0249 -1.1116 -0.0476
  549TMC3     O 8148   4.035   0.346  12.800  0.1812  0.0870 -0.1263
  549TMC3     H 8149   3.851   0.623  12.605 -3.2948 -0.9184 -1.4932
  549TMC3    H1 8150   3.845   0.366  12.945  0.6452  0.8542 -0.0750
  549TMC3    H2 8151   3.508   0.599  12.841 -1.1154 -2.0470 -1.3274
  549TMC3    C7 8152   3.576   0.371  12.927  0.1589 -0.4464  0.1771
  549TMC3    C8 8153   3.618   0.737  12.655  0.3334 -0.0732  0.2501
  549TMC3    O1 8154   3.461   0.397  12.954 -0.6118  0.0206 -0.1834
  549TMC3    O2 8155   3.498   0.734  12.633 -0.2176  0.1874 -0.9095
  550TMC3    C1 8156   2.568   3.294  11.506 -0.6455 -0.0761  0.2640
  550TMC3    C2 8157   2.602   3.360  11.627  0.0318 -0.2512 -0.0816
  550TMC3    C3 8158   2.505   3.408  11.707 -0.1221  0.0912 -0.3592
  550TMC3    C4 8159   2.435   3.283  11.475  0.1428  0.5136  0.0211
  550TMC3    C5 8160   2.345   3.329  11.564 -0.5476 -0.2863  0.7749
  550TMC3    C6 8161   2.374   3.404  11.675  0.3029 -0.3956 -0.1729
  550TMC3     C 8162   2.672   3.237  11.429 -0.2748  0.0897  0.3311
  550TMC3     O 8163   2.784   3.230  11.473  0.4179  0.1520  0.1850
  550TMC3     H 8164   2.707   3.375  11.648 -0.2814  0.6176  0.8545
  550TMC3    H1 8165   2.389   3.218  11.401 -0.1493  1.0014 -0.2203
  550TMC3    H2 8166   2.304   3.424  11.755 -0.5865  0.5829 -1.2016
  550TMC3    C7 8167   2.204   3.305  11.550 -0.4009 -0.3434  0.0459
  550TMC3    C8 8168   2.533   3.484  11.829  0.7558  0.0596 -0.2498
  550TMC3    O1 8169   2.139   3.330  11.650  0.5437 -0.3418 -0.0838
  550TMC3    O2 8170   2.446   3.532  11.895  0.0886 -0.0294 -0.1535
  551TMC3    C1 8171   0.258   1.031  13.398  0.4225 -0.3249 -0.2778
  551TMC3    C2 8172   0.339   1.100  13.315 -0.8920 -0.6825 -0.1224
  551TMC3    C3 8173   0.447   1.164  13.369  0.0238 -0.4733 -0.2505
  551TMC3    C4 8174   0.281   1.025  13.530 -0.5572  0.0133  0.5842
  551TMC3    C5 8175   0.396   1.088  13.575  0.3243  0.2691 -0.3946
  551TMC3    C6 8176   0.478   1.170  13.499  0.4447  0.1490 -0.1888
  551TMC3     C 8177   0.175   0.931  13.327  0.5801 -0.1117 -0.0617
  551TMC3     O 8178   0.169   0.926  13.203  0.8268 -0.2790 -0.4510
  551TMC3     H 8179   0.343   1.072  13.210 -0.2846 -1.4072  0.0964
  551TMC3    H1 8180   0.224   0.960  13.596  1.6125 -0.9798  1.5043
  551TMC3    H2 8181   0.567   1.221  13.531  2.7075 -2.0765 -2.9275
  551TMC3    C7 8182   0.432   1.075  13.718 -0.2145  0.6872 -0.7411
  551TMC3    C8 8183   0.560   1.163  13.280  0.5758 -0.3070 -0.0843
  551TMC3    O1 8184   0.515   1.149  13.768 -0.0775 -0.5109  0.1473
  551TMC3    O2 8185   0.628   1.264  13.260  0.0213 -0.0269 -0.1925
  552MPD2     C 8186   2.619   3.180  14.117 -0.7408 -0.4579  0.4804
  552MPD2    C1 8187   2.606   3.057  14.171 -0.0959  0.0673 -0.0669
  552MPD2    C2 8188   2.727   3.015  14.222  0.4057  0.1625  0.0964
  552MPD2    C3 8189   2.848   3.081  14.210 -0.1969  0.6689 -0.2143
  552MPD2    C4 8190   2.849   3.206  14.161 -0.4261  0.7819 -0.2027
  552MPD2    C5 8191   2.734   3.250  14.107 -0.3944  0.8848  0.3001
  552MPD2     H 8192   2.721   2.912  14.257  0.7682  0.8511  2.1798
  552MPD2    H1 8193   2.944   3.257  14.147  0.2376  0.6824  3.7769
  552MPD2    H2 8194   2.538   3.222  14.058 -1.5254  0.9252  2.5178
  552MPD2    H3 8195   2.736   3.345  14.056  0.0092  0.8305  0.2134
  552MPD2     N 8196   2.964   3.024  14.265  0.3262  0.2961  0.3834
  552MPD2    H5 8197   3.040   3.091  14.276  0.0070  0.9071 -1.2117
  552MPD2    N1 8198   2.489   2.987  14.183 -0.5284  0.4875 -0.0818
  552MPD2    H7 8199   2.501   2.892  14.217 -1.3835  0.3296 -0.2451
  553TMC3    C1 8200   2.246   2.939  14.186  0.3668 -0.0348 -0.6130
  553TMC3    C2 8201   2.123   2.975  14.156  0.2608  0.1848 -0.1984
  553TMC3    C3 8202   2.021   2.880  14.152 -0.0818 -0.5745  0.0840
  553TMC3    C4 8203   2.274   2.809  14.231  0.5668 -0.0920  0.3258
  553TMC3    C5 8204   2.173   2.717  14.229  0.1838  0.2412 -0.2367
  553TMC3    C6 8205   2.041   2.753  14.197  0.4114  0.0111  0.1192
  553TMC3     C 8206   2.355   3.032  14.158 -0.1802  0.0490  0.0531
  553TMC3     O 8207   2.319   3.144  14.124  0.5656  0.6750  0.3462
  553TMC3     H 8208   2.114   3.068  14.101  1.6379  0.0821 -0.6015
  553TMC3    H1 8209   2.373   2.798  14.276  0.7958 -0.0596 -0.1677
  553TMC3    H2 8210   1.960   2.682  14.182 -0.2348  1.0089 -1.0949
  553TMC3    C7 8211   2.207   2.589  14.172  0.0536  0.4799 -0.4425
  553TMC3    C8 8212   1.899   2.922  14.084 -0.1205 -0.1109  0.1992
  553TMC3    O1 8213   2.117   2.503  14.160 -0.0441  0.0415  0.4164
  553TMC3    O2 8214   1.843   3.025  14.122 -0.4999 -0.0878 -0.3625
  554TMC3    C1 8215   3.820   1.751  11.827 -0.0436 -0.7888 -0.1758
  554TMC3    C2 8216   3.785   1.768  11.690  0.0323  0.6462  0.5494
  554TMC3    C3 8217   3.816   1.891  11.633  0.4960  0.1084 -0.2166
  554TMC3    C4 8218   3.874   1.851  11.909  0.0765  0.0885 -0.0511
  554TMC3    C5 8219   3.893   1.976  11.847 -0.0524 -0.7571  0.0381
  554TMC3    C6 8220   3.884   1.991  11.709 -0.6031  0.7925 -0.4345
  554TMC3     C 8221   3.824   1.619  11.882 -0.1092  0.7707  0.4016
  554TMC3     O 8222   3.770   1.532  11.819 -0.8005 -0.6682 -0.0197
  554TMC3     H 8223   3.748   1.684  11.632  1.6748 -0.3959  0.9751
  554TMC3    H1 8224   3.873   1.853  12.018  0.1768  0.9335 -0.0664
  554TMC3    H2 8225   3.884   2.092  11.670  0.9197  0.1275 -2.1663
  554TMC3    C7 8226   3.966   2.073  11.918 -0.0130  0.5959  0.3616
  554TMC3    C8 8227   3.803   1.912  11.485 -0.4762  0.2812  0.4992
  554TMC3    O1 8228   3.953   2.076  12.037 -0.0648 -0.1064 -0.2912
  554TMC3    O2 8229   3.870   2.008  11.454 -0.6254 -0.2362 -0.3264
  555TMC3    C1 8230   3.472   1.453  15.314 -0.3068  0.0105 -0.2107
  555TMC3    C2 8231   3.473   1.516  15.434  0.4729 -0.5143  0.3303
  555TMC3    C3 8232   3.466   1.441  15.544 -0.1784  0.4391  0.4773
  555TMC3    C4 8233   3.442   1.319  15.305  0.0636  0.6852 -0.0607
  555TMC3    C5 8234   3.431   1.248  15.417  0.0059 -0.4931  0.0918
  555TMC3    C6 8235   3.449   1.309  15.541  0.4663  0.0254  0.0689
  555TMC3     C 8236   3.505   1.530  15.205  0.2810  0.0568 -0.2513
  555TMC3     O 8237   3.612   1.586  15.210 -0.2991 -0.0915  0.5010
  555TMC3     H 8238   3.497   1.622  15.430 -1.3244 -0.1075  0.1356
  555TMC3    H1 8239   3.429   1.278  15.206 -1.4567 -2.0873  1.2862
  555TMC3    H2 8240   3.438   1.254  15.634  1.1505  1.2871  0.8909
  555TMC3    C7 8241   3.423   1.100  15.421 -0.3691 -0.1473  1.0078
  555TMC3    C8 8242   3.478   1.508  15.662 -0.4591 -0.0745 -0.2316
  555TMC3    O1 8243   3.396   1.051  15.529  0.5224  0.2417  0.2340
  555TMC3    O2 8244   3.443   1.626  15.666 -0.0625  0.2815  0.0562
  556MPD2     C 8245   1.227   3.483  10.515 -0.1766 -0.0033  0.3016
  556MPD2    C1 8246   1.217   3.363  10.586 -0.2772 -0.5604 -0.0567
  556MPD2    C2 8247   1.134   3.270  10.533 -0.3611 -0.5803 -0.0196
  556MPD2    C3 8248   1.084   3.280  10.406 -0.5643 -0.5659 -0.3969
  556MPD2    C4 8249   1.108   3.395  10.331 -0.8142 -0.6232  0.3799
  556MPD2    C5 8250   1.176   3.494  10.392 -0.4020  0.4141  1.1534
  556MPD2     H 8251   1.109   3.183  10.592  2.2556  0.2286  2.2764
  556MPD2    H1 8252   1.078   3.417  10.229 -2.3587 -2.7691  0.3778
  556MPD2    H2 8253   1.275   3.567  10.565  0.4850  0.4695 -1.1458
  556MPD2    H3 8254   1.191   3.582  10.330  0.2089  0.0948  0.8486
  556MPD2     N 8255   1.006   3.168  10.351  0.5099  0.5893 -0.0448
  556MPD2    H5 8256   1.003   3.078  10.399  0.4262  0.1521 -0.8751
  556MPD2    N1 8257   1.285   3.330  10.703 -0.6262  0.2789  0.4146
  556MPD2    H7 8258   1.261   3.238  10.740  2.5196 -1.2986 -1.4951
  557TMC3    C1 8259   0.899   3.045  10.179  0.8075  0.6901  0.4695
  557TMC3    C2 8260   0.903   3.003  10.048  0.0866 -0.0985 -0.3451
  557TMC3    C3 8261   0.871   2.872  10.026 -0.3088  0.7510 -0.3888
  557TMC3    C4 8262   0.833   2.977  10.276  0.2796  0.6686 -0.7560
  557TMC3    C5 8263   0.816   2.845  10.252  0.5033  0.6559  0.7224
  557TMC3    C6 8264   0.829   2.789  10.126 -0.1631  0.2421  0.2970
  557TMC3     C 8265   0.976   3.163  10.214  0.1658 -0.1143  0.0786
  557TMC3     O 8266   0.992   3.244  10.120 -0.2262  0.1428  0.2800
  557TMC3     H 8267   0.936   3.074   9.974  1.1276  1.7533  1.9217
  557TMC3    H1 8268   0.813   3.022  10.373  0.1879 -2.5821  0.7476
  557TMC3    H2 8269   0.798   2.691  10.091  0.8009 -0.7085  2.0634
  557TMC3    C7 8270   0.791   2.758  10.361  0.1690 -0.2010 -0.6720
  557TMC3    C8 8271   0.897   2.822   9.895 -0.1201  0.1025 -0.3288
  557TMC3    O1 8272   0.744   2.815  10.459 -0.4989  0.2073 -0.1834
  557TMC3    O2 8273   0.930   2.905   9.813  0.1773  0.2340 -0.7444
  558TMC3    C1 8274   4.181   0.857   9.683 -0.2064 -0.1067 -0.2682
  558TMC3    C2 8275   4.093   0.944   9.736 -1.1500 -0.1672  0.0885
  558TMC3    C3 8276   4.024   1.029   9.656  1.1277 -0.5839 -0.6132
  558TMC3    C4 8277   4.185   0.832   9.547 -0.2852 -0.2635 -0.1038
  558TMC3    C5 8278   4.118   0.916   9.469 -0.0921 -0.3051 -0.7931
  558TMC3    C6 8279   4.046   1.018   9.519  0.4974  0.2438 -0.2446
  558TMC3     C 8280   4.269   0.798   9.778 -0.3927 -0.6201  0.0239
  558TMC3     O 8281   4.295   0.867   9.877 -0.0652  0.0687  0.1104
  558TMC3     H 8282   4.070   0.939   9.842 -0.6197 -3.0398  0.0505
  558TMC3    H1 8283   4.259   0.770   9.497  0.9672  0.4944  0.7835
  558TMC3    H2 8284   3.998   1.089   9.453  2.0731  0.7498 -0.8544
  558TMC3    C7 8285   4.099   0.882   9.331 -0.1933 -1.2469 -0.3489
  558TMC3    C8 8286   4.007   1.163   9.706 -0.6400  0.4770  0.5933
  558TMC3    O1 8287   4.062   0.979   9.262  0.3572  0.0442  0.1127
  558TMC3    O2 8288   3.970   1.252   9.630  0.0702  0.0397 -0.2006
  559MPD2     C 8289   4.101   2.037  10.820 -0.4170 -0.1704  0.1154
  559MPD2    C1 8290   4.034   1.927  10.874 -0.2202 -0.1020 -0.8322
  559MPD2    C2 8291   4.058   1.905  11.010  0.1236 -0.5045  0.2496
  559MPD2    C3 8292   4.153   1.970  11.084  0.2366  0.0134  0.1657
  559MPD2    C4 8293   4.225   2.077  11.025  0.1700  0.0574 -0.5448
  559MPD2    C5 8294   4.192   2.108  10.896 -0.3586  0.0526  1.0467
  559MPD2     H 8295   4.000   1.831  11.065 -1.4963 -0.1274 -0.9617
  559MPD2    H1 8296   4.311   2.122  11.073  0.8301 -0.3706 -1.3361
  559MPD2    H2 8297   4.094   2.057  10.714  1.2345  1.5812  0.3293
  559MPD2    H3 8298   4.255   2.176  10.840  2.0739 -3.5242 -0.5421
  559MPD2     N 8299   4.173   1.920  11.214  0.0676 -0.3373 -0.1195
  559MPD2    H5 8300   4.120   1.836  11.236  0.8500 -0.9363 -0.5494
  559MPD2    N1 8301   3.948   1.848  10.795  0.2835  0.2028  0.0644
  559MPD2    H7 8302   3.906   1.883  10.709  0.1013  2.4233  1.0417
  560TMC3    C1 8303   4.354   1.865  11.376 -0.2324  0.1367 -0.2931
  560TMC3    C2 8304   4.366   1.739  11.323 -0.0791 -0.3489  0.7040
  560TMC3    C3 8305   4.478   1.661  11.345  0.1504 -0.2216 -0.6418
  560TMC3    C4 8306   4.453   1.907  11.459 -0.0311  0.6928  0.3765
  560TMC3    C5 8307   4.560   1.822  11.483  0.0468 -0.0893 -0.6284
  560TMC3    C6 8308   4.580   1.710  11.415  0.0380  0.6875  0.0353
  560TMC3     C 8309   4.280   1.970  11.303  0.3472  0.0349  0.9495
  560TMC3     O 8310   4.339   2.079  11.317  0.7862  0.6543 -0.2533
  560TMC3     H 8311   4.286   1.700  11.261 -0.2251 -0.4499  0.9548
  560TMC3    H1 8312   4.453   2.010  11.492 -1.4821  0.6340  0.5795
  560TMC3    H2 8313   4.670   1.652  11.429  0.5380  1.4494 -0.0525
  560TMC3    C7 8314   4.679   1.880  11.537 -0.5153 -0.4183 -0.0055
  560TMC3    C8 8315   4.507   1.564  11.239  0.5143  0.3621  0.3806
  560TMC3    O1 8316   4.679   1.920  11.655  0.4869  0.0225  0.3477
  560TMC3    O2 8317   4.427   1.565  11.146 -0.2224 -0.1748 -0.0504
  561TMC3    C1 8318   1.909   0.466  10.958  0.3272 -0.2264 -0.0224
  561TMC3    C2 8319   1.856   0.372  11.039 -0.5222  0.4341  0.5527
  561TMC3    C3 8320   1.851   0.396  11.167 -0.1524 -0.4541 -0.3516
  561TMC3    C4 8321   1.967   0.583  11.016 -0.5730  0.6301  0.6113
  561TMC3    C5 8322   1.956   0.597  11.144 -0.1505 -0.3048  0.1648
  561TMC3    C6 8323   1.893   0.510  11.225 -0.6505  0.0151  0.6943
  561TMC3     C 8324   1.942   0.430  10.821 -0.1598  0.4735 -0.1129
  561TMC3     O 8325   1.865   0.351  10.768 -0.0588 -0.6762 -0.5125
  561TMC3     H 8326   1.821   0.279  10.998  3.1504 -0.4553 -0.5473
  561TMC3    H1 8327   1.997   0.664  10.950 -0.3522  0.9272  1.0808
  561TMC3    H2 8328   1.891   0.522  11.332  1.4628 -0.0309  0.7464
  561TMC3    C7 8329   1.940   0.727  11.199  0.8156 -0.3391  0.1517
  561TMC3    C8 8330   1.775   0.297  11.245  0.4857  0.3641 -1.5399
  561TMC3    O1 8331   1.836   0.745  11.262 -0.1931 -0.8503  0.4317
  561TMC3    O2 8332   1.760   0.184  11.202  0.0167 -0.6419  0.2566
  562TMC3    C1 8333   3.318   1.568  16.222 -0.7964  0.1707 -0.4475
  562TMC3    C2 8334   3.289   1.693  16.183 -0.7393  0.2042  0.7522
  562TMC3    C3 8335   3.226   1.717  16.063 -0.9762 -0.0824 -0.2536
  562TMC3    C4 8336   3.295   1.465  16.140  0.9223 -0.3521  0.4110
  562TMC3    C5 8337   3.223   1.483  16.031 -0.0001  0.0029  0.7483
  562TMC3    C6 8338   3.189   1.612  15.981 -0.2750  0.0911  0.1676
  562TMC3     C 8339   3.352   1.539  16.359  0.4452  0.1109  0.2458
  562TMC3     O 8340   3.415   1.432  16.369  0.4313 -0.1946 -0.3741
  562TMC3     H 8341   3.313   1.769  16.257 -2.3937 -0.0830  1.5737
  562TMC3    H1 8342   3.324   1.368  16.177 -0.1195 -0.4060  1.0825
  562TMC3    H2 8343   3.122   1.632  15.897 -0.5675 -2.3275 -0.1558
  562TMC3    C7 8344   3.213   1.376  15.933  0.3293  0.6556 -0.1566
  562TMC3    C8 8345   3.245   1.854  16.018  0.0976  0.7114 -0.0015
  562TMC3    O1 8346   3.159   1.405  15.824  0.1325  0.1551  0.5726
  562TMC3    O2 8347   3.313   1.919  16.093 -0.1892 -0.4632  1.0409
  563MPD2     C 8348   4.572   2.659  15.693 -0.7041 -0.1952  0.0250
  563MPD2    C1 8349   4.583   2.758  15.787  0.6569  0.4326 -0.8755
  563MPD2    C2 8350   4.697   2.766  15.870 -0.0439 -0.3735 -0.1489
  563MPD2    C3 8351   0.079   2.676  15.849  0.1901  0.2153  0.2235
  563MPD2    C4 8352   0.065   2.570  15.751  0.2173  0.1896  0.0064
  563MPD2    C5 8353   4.672   2.567  15.679 -0.0585 -0.0427  0.4705
  563MPD2     H 8354   4.714   2.845  15.942  1.0246 -2.2647  1.6797
  563MPD2    H1 8355   0.150   2.509  15.723  0.0721  0.4465 -0.9671
  563MPD2    H2 8356   4.487   2.648  15.627  0.9095 -0.1678 -2.0604
  563MPD2    H3 8357   4.651   2.491  15.606 -2.3519  2.1671 -1.1662
  563MPD2     N 8358   0.196   2.690  15.928 -0.5356  0.3440  0.4198
  563MPD2    H5 8359   0.196   2.784  15.967 -0.7503  0.2667  0.6006
  563MPD2    N1 8360   4.480   2.842  15.817 -0.0268  0.7714  0.0196
  563MPD2    H7 8361   4.392   2.840  15.766 -0.5434  0.3778  0.9281
  564TMC3    C1 8362   4.401   2.891  16.039  0.2276  0.4464 -0.1409
  564TMC3    C2 8363   4.316   2.787  16.020  0.4212  0.2776  0.4033
  564TMC3    C3 8364   4.275   2.711  16.128  0.2508 -1.4323 -0.4525
  564TMC3    C4 8365   4.461   2.914  16.162 -0.1085 -0.1157  0.7938
  564TMC3    C5 8366   4.431   2.826  16.270 -0.2167 -0.1969  0.1552
  564TMC3    C6 8367   4.332   2.727  16.256  0.3118 -1.0095 -0.3665
  564TMC3     C 8368   4.482   2.934  15.921 -0.3038  0.5166  0.3216
  564TMC3     O 8369   4.577   3.008  15.949  0.6557 -0.3574  0.0538
  564TMC3     H 8370   4.286   2.768  15.918 -0.5650  0.1724  0.7146
  564TMC3    H1 8371   4.528   2.998  16.165 -0.0280 -0.1638  0.2477
  564TMC3    H2 8372   4.301   2.666  16.339  0.8903 -2.4119 -1.1753
  564TMC3    C7 8373   4.558   2.784  16.319  0.2920  1.0444  0.1158
  564TMC3    C8 8374   4.246   2.570  16.109 -0.4933  0.1873 -0.3366
  564TMC3    O1 8375   4.632   2.866  16.363  0.2181 -0.0067 -0.1565
  564TMC3    O2 8376   4.175   2.513  16.190 -0.2457  0.2566  0.4219
  565TMC3    C1 8377   1.025   3.934  10.364  0.0755  0.6793  0.0076
  565TMC3    C2 8378   1.061   3.866  10.476 -0.6228 -0.3624 -0.1274
  565TMC3    C3 8379   0.995   3.753  10.504 -0.0956  0.2914  0.5814
  565TMC3    C4 8380   0.945   3.869  10.280 -0.2282  0.5593 -0.1771
  565TMC3    C5 8381   0.874   3.758  10.309  0.2455 -0.1762  0.2785
  565TMC3    C6 8382   0.908   3.686  10.417 -0.4027 -0.1659  0.0217
  565TMC3     C 8383   1.096   4.052  10.318 -0.2996  0.0678  0.5687
  565TMC3     O 8384   1.077   4.089  10.205  0.0529 -0.4586 -0.4377
  565TMC3     H 8385   1.123   3.900  10.559  0.3188 -0.1013 -0.9369
  565TMC3    H1 8386   0.929   3.901  10.177  1.2613 -2.7996 -1.4834
  565TMC3    H2 8387   0.834   3.625  10.467 -0.7748  0.2613 -0.0032
  565TMC3    C7 8388   0.781   3.694  10.220  0.4146  0.3550  0.0946
  565TMC3    C8 8389   0.988   3.718  10.644 -0.2239  0.3459 -0.9931
  565TMC3    O1 8390   0.732   3.754  10.127  0.2179 -0.3566 -0.0904
  565TMC3    O2 8391   0.989   3.817  10.714  0.4228  0.0754  0.4364
  566MPD2     C 8392   2.803   1.055  14.278 -0.1381 -0.0758  0.2721
  566MPD2    C1 8393   2.854   1.184  14.242  0.9585 -0.2342 -0.1531
  566MPD2    C2 8394   2.824   1.230  14.116 -0.1612  0.1751  0.5288
  566MPD2    C3 8395   2.746   1.162  14.033  0.2842  0.3830  0.3634
  566MPD2    C4 8396   2.710   1.030  14.061  1.0713 -0.0693  0.3881
  566MPD2    C5 8397   2.737   0.982  14.179  0.5669  0.0063 -0.5481
  566MPD2     H 8398   2.869   1.322  14.079 -0.2322  0.7680  1.9252
  566MPD2    H1 8399   2.655   0.967  13.992 -0.1087 -0.7505  1.9550
  566MPD2    H2 8400   2.819   1.000  14.371  0.7570 -1.7310 -0.8630
  566MPD2    H3 8401   2.703   0.882  14.205 -0.8366  0.7691  0.5879
  566MPD2     N 8402   2.707   1.224  13.909 -0.4010 -0.9215  0.0179
  566MPD2    H5 8403   2.664   1.166  13.837  1.6565 -1.4093 -0.8160
  566MPD2    N1 8404   2.936   1.255  14.331  0.4228  0.5054 -0.3058
  566MPD2    H7 8405   2.976   1.199  14.406 -1.8390  0.2488  0.7328
  567TMC3    C1 8406   3.076   1.430  14.393  0.0699  0.5701  0.4005
  567TMC3    C2 8407   3.156   1.527  14.333 -0.1807 -0.3943 -0.1518
  567TMC3    C3 8408   3.280   1.534  14.381  1.3338  0.6834 -0.9985
  567TMC3    C4 8409   3.115   1.359  14.504  0.9790  0.9777 -0.1691
  567TMC3    C5 8410   3.242   1.373  14.548  0.4024  0.6055  0.1348
  567TMC3    C6 8411   3.330   1.457  14.488  0.2593  0.0164 -1.0385
  567TMC3     C 8412   2.954   1.392  14.319  0.3043 -0.5529 -0.3125
  567TMC3     O 8413   2.905   1.468  14.238  0.1092  0.3308 -0.0865
  567TMC3     H 8414   3.124   1.592  14.252  1.8171  2.3518  1.2970
  567TMC3    H1 8415   3.050   1.278  14.538 -0.9056  2.6920  0.2897
  567TMC3    H2 8416   3.410   1.484  14.556  2.3990 -3.5280 -2.1725
  567TMC3    C7 8417   3.288   1.295  14.662 -0.2964  0.7548  0.3257
  567TMC3    C8 8418   3.355   1.638  14.314 -0.5227  1.1565  0.8261
  567TMC3    O1 8419   3.408   1.293  14.687  0.2675 -0.1000  0.1417
  567TMC3    O2 8420   3.317   1.661  14.200 -0.3207  0.2943  0.0054
  568MPD2     C 8421   4.522   1.247  16.817  0.6648 -0.5467  0.0503
  568MPD2    C1 8422   4.567   1.365  16.864 -0.0311 -0.1822 -0.5674
  568MPD2    C2 8423   4.537   1.489  16.812  0.2185 -0.0661  0.1762
  568MPD2    C3 8424   4.465   1.494  16.692 -0.2071  0.6309 -0.1011
  568MPD2    C4 8425   4.407   1.372  16.652  0.7635 -0.4718 -0.3823
  568MPD2    C5 8426   4.438   1.256  16.710 -1.2539  0.2518 -0.4503
  568MPD2     H 8427   4.579   1.583  16.846 -0.9562  0.6118 -0.2675
  568MPD2    H1 8428   4.337   1.366  16.570  1.2852 -1.0088 -0.7857
  568MPD2    H2 8429   4.547   1.156  16.869  0.1442 -0.8426 -0.2221
  568MPD2    H3 8430   4.396   1.165  16.668 -3.7899 -0.1665  3.0587
  568MPD2     N 8431   4.429   1.622  16.639 -0.3207  0.0287  0.3239
  568MPD2    H5 8432   4.481   1.703  16.671 -0.1113  0.1670 -0.3708
  568MPD2    N1 8433   4.674   1.356  16.957 -0.0325  0.0833  0.4269
  568MPD2    H7 8434   0.001   1.268  16.969  1.1118  0.4618 -1.5092
  569TMC3    C1 8435   4.365   1.778  16.481 -0.1562  0.5340  0.3428
  569TMC3    C2 8436   4.378   1.881  16.567 -0.6681 -0.7900 -0.4275
  569TMC3    C3 8437   4.438   1.996  16.522  0.3188  0.6947  0.1941
  569TMC3    C4 8438   4.391   1.782  16.347  0.1862  0.1971 -0.4357
  569TMC3    C5 8439   4.441   1.904  16.305  0.8563 -0.3812 -0.3636
  569TMC3    C6 8440   4.456   2.012  16.387 -0.2143  1.4269 -0.2415
  569TMC3     C 8441   4.357   1.644  16.524  0.0979 -0.6357 -0.5085
  569TMC3     O 8442   4.293   1.561  16.469 -0.2453  0.0684 -0.5400
  569TMC3     H 8443   4.348   1.876  16.671  4.4407  1.3318  1.1347
  569TMC3    H1 8444   4.390   1.698  16.279  1.6585  0.6346 -1.0061
  569TMC3    H2 8445   4.508   2.102  16.358 -0.2976  1.9996  1.3609
  569TMC3    C7 8446   4.448   1.935  16.158 -0.2814 -0.4849 -0.5443
  569TMC3    C8 8447   4.388   2.112  16.586 -0.0053 -0.0916 -0.0512
  569TMC3    O1 8448   4.524   1.869  16.087 -0.2248  0.6810  0.1707
  569TMC3    O2 8449   4.300   2.096  16.666  0.0980 -0.0880 -0.1127
  570TMC3    C1 8450   4.412   0.379  16.364 -0.6201 -0.6004  0.6146
  570TMC3    C2 8451   4.461   0.431  16.248 -0.2869  0.3486 -0.4857
  570TMC3    C3 8452   4.466   0.565  16.239  0.4136 -0.4886 -0.5302
  570TMC3    C4 8453   4.353   0.453  16.461  0.1717 -0.1158  0.2361
  570TMC3    C5 8454   4.357   0.589  16.446 -0.0815 -0.0990 -0.1090
  570TMC3    C6 8455   4.411   0.649  16.331  0.0235 -0.3320  0.1524
  570TMC3     C 8456   4.419   0.233  16.372 -0.0474  0.4263 -0.4872
  570TMC3     O 8457   4.502   0.178  16.298 -0.1775  0.4227  0.3649
  570TMC3     H 8458   4.494   0.358  16.175  1.1347  1.0381 -0.5362
  570TMC3    H1 8459   4.317   0.415  16.556 -0.7071 -0.8066 -0.3736
  570TMC3    H2 8460   4.422   0.755  16.313 -1.9529  0.1400  1.7395
  570TMC3    C7 8461   4.294   0.678  16.551 -0.8088 -0.2696 -0.1196
  570TMC3    C8 8462   4.537   0.624  16.125 -0.0953 -0.5108 -0.0448
  570TMC3    O1 8463   4.275   0.638  16.665 -0.0582 -0.4155  0.1430
  570TMC3    O2 8464   4.565   0.742  16.137  0.6474  0.1548 -0.4199
  571MPD2     C 8465   2.164   2.461  16.781  0.0053  0.0412 -0.3291
  571MPD2    C1 8466   2.252   2.408  16.885 -0.2999 -0.5439  0.7741
  571MPD2    C2 8467   2.210   2.384  17.014 -0.4735  0.3593 -0.7099
  571MPD2    C3 8468   2.076   2.406  17.047 -0.6224 -0.0156 -0.0502
  571MPD2    C4 8469   1.990   2.439  16.938 -0.8048 -0.3722 -0.2544
  571MPD2    C5 8470   2.037   2.470  16.815  1.2047 -0.4885 -0.1221
  571MPD2     H 8471   2.279   2.350  17.090 -0.2163  1.7624 -0.3213
  571MPD2    H1 8472   1.884   2.458  16.950 -0.4641  1.6428 -0.4465
  571MPD2    H2 8473   2.189   2.478  16.677 -3.1838  0.2388 -1.0583
  571MPD2    H3 8474   1.966   2.491  16.736  0.6264  1.3878  0.8951
  571MPD2     N 8475   2.024   2.358  17.164 -0.1583  0.1168 -0.2155
  571MPD2    H5 8476   1.923   2.361  17.174 -0.3109  1.9962 -2.5449
  571MPD2    N1 8477   2.385   2.380  16.836 -0.6147 -0.3020  0.2465
  571MPD2    H7 8478   2.398   2.381  16.736  1.2752  1.1281  0.5022
  572TMC3    C1 8479   2.027   2.325  17.401  0.4712 -0.4679 -0.0113
  572TMC3    C2 8480   1.930   2.225  17.411  0.6681  0.6745 -0.6318
  572TMC3    C3 8481   1.879   2.217  17.536  0.4007 -0.3463  0.2759
  572TMC3    C4 8482   2.083   2.383  17.517 -0.5184 -0.4388  0.6641
  572TMC3    C5 8483   2.033   2.358  17.636 -0.6273  0.0962 -0.4466
  572TMC3    C6 8484   1.931   2.270  17.650  0.5086 -0.6961  0.2473
  572TMC3     C 8485   2.101   2.335  17.275  0.3701 -0.2220  0.0411
  572TMC3     O 8486   2.220   2.351  17.300  0.5566  0.4767 -0.4750
  572TMC3     H 8487   1.874   2.203  17.321 -0.2070 -0.6103  0.2265
  572TMC3    H1 8488   2.163   2.455  17.502  1.0486 -1.7807  2.5600
  572TMC3    H2 8489   1.898   2.241   0.057 -0.5329  2.5026  0.8351
  572TMC3    C7 8490   2.023   2.472   0.029  0.3651  0.9871  0.4205
  572TMC3    C8 8491   1.761   2.132  17.543 -0.2034  0.0854 -0.7879
  572TMC3    O1 8492   1.910   2.500   0.065  0.2049  0.1800 -0.0277
  572TMC3    O2 8493   1.729   2.071  17.442 -0.3558  0.3518 -0.1185
  573MPD2     C 8494   3.518   2.990   0.983 -0.6386 -0.0368  0.5677
  573MPD2    C1 8495   3.612   2.894   1.000  1.1285 -1.1001  0.7688
  573MPD2    C2 8496   3.653   2.829   0.882 -0.9047  0.2010  0.2384
  573MPD2    C3 8497   3.610   2.868   0.756 -0.2015 -0.8957  0.6550
  573MPD2    C4 8498   3.526   2.976   0.746  0.3480  0.2708  0.4912
  573MPD2    C5 8499   3.480   3.028   0.860 -0.4724  0.2331  0.0012
  573MPD2     H 8500   3.717   2.743   0.894 -1.0426  0.2947  1.5872
  573MPD2    H1 8501   3.485   3.015   0.654  1.2307 -2.3719 -1.0467
  573MPD2    H2 8502   3.470   3.043   1.064  1.4225 -2.1538  3.1582
  573MPD2    H3 8503   3.400   3.101   0.863  0.9124  1.7728 -0.1679
  573MPD2     N 8504   3.651   2.798   0.638  0.3090 -0.1887  0.0316
  573MPD2    H5 8505   3.630   2.841   0.548 -1.4234 -1.3414 -0.1172
  573MPD2    N1 8506   3.649   2.860   1.134 -0.5255  0.0715 -0.2413
  573MPD2    H7 8507   3.597   2.908   1.207  0.1448  1.9479 -1.0049
  574TMC3    C1 8508   3.720   2.619   0.500 -0.1329 -0.3859  0.5941
  574TMC3    C2 8509   3.624   2.537   0.439  0.1570 -0.2869 -0.8169
  574TMC3    C3 8510   3.609   2.547   0.307 -0.8491  0.1752 -0.5307
  574TMC3    C4 8511   3.803   2.699   0.429 -0.6639 -0.1757 -0.0501
  574TMC3    C5 8512   3.783   2.703   0.292 -0.0515 -0.1549  0.2886
  574TMC3    C6 8513   3.694   2.625   0.227  0.0710  0.2251  0.5314
  574TMC3     C 8514   3.689   2.671   0.639 -0.3591 -0.2561 -0.1003
  574TMC3     O 8515   3.699   2.593   0.734 -0.6313  0.0553 -0.3722
  574TMC3     H 8516   3.543   2.491   0.494 -0.0113 -0.1338 -0.9365
  574TMC3    H1 8517   3.852   2.776   0.487 -2.9866  0.4019  1.1350
  574TMC3    H2 8518   3.709   2.614   0.120  1.3630  1.0759  0.6226
  574TMC3    C7 8519   3.884   2.770   0.208  0.1119 -0.4137  0.1511
  574TMC3    C8 8520   3.496   2.474   0.254 -0.2453 -0.0076 -0.0755
  574TMC3    O1 8521   3.855   2.787   0.091 -0.1005  0.3623  0.2511
  574TMC3    O2 8522   3.475   2.366   0.305 -0.4164 -0.1168 -0.2617
  575TMC3    C1 8523   0.962   4.042  11.423  0.5443 -1.1204 -1.0032
  575TMC3    C2 8524   1.020   3.994  11.539 -0.8633  0.9615 -0.0920
  575TMC3    C3 8525   1.077   3.872  11.527 -0.0338  0.1949 -0.2548
  575TMC3    C4 8526   0.968   3.981  11.301 -0.2649 -0.2839 -0.5616
  575TMC3    C5 8527   1.012   3.851  11.297  0.4340 -0.5693 -0.1767
  575TMC3    C6 8528   1.070   3.797  11.408 -0.1402 -0.3041 -0.6598
  575TMC3     C 8529   0.893   4.165  11.433 -0.7127 -0.2530 -0.1737
  575TMC3     O 8530   0.866   4.215  11.541  0.6124  0.5715  0.5226
  575TMC3     H 8531   1.016   4.044  11.634 -0.1921  0.9194 -0.0374
  575TMC3    H1 8532   0.903   4.004  11.218 -0.2823  0.7146 -0.2776
  575TMC3    H2 8533   1.098   3.692  11.418  1.6229  0.2770  0.4364
  575TMC3    C7 8534   0.991   3.779  11.169  0.1396  0.0889 -0.1733
  575TMC3    C8 8535   1.128   3.798  11.641  0.5489  0.7849  0.1215
  575TMC3    O1 8536   1.007   3.859  11.075 -0.1885 -0.1908 -0.7134
  575TMC3    O2 8537   1.178   3.686  11.626 -0.7706  0.4253 -0.9974
  576MPD2     C 8538   1.195   0.428  12.581  0.5878  0.2601 -0.1252
  576MPD2    C1 8539   1.214   0.555  12.533 -0.6775  0.2432  0.3649
  576MPD2    C2 8540   1.177   0.658  12.608  0.0306  0.8323 -0.3570
  576MPD2    C3 8541   1.125   0.642  12.736  0.2889 -0.3036  0.4482
  576MPD2    C4 8542   1.118   0.517  12.786  0.7180 -0.0088  0.8228
  576MPD2    C5 8543   1.154   0.409  12.716 -0.6872  0.2684  0.1578
  576MPD2     H 8544   1.186   0.758  12.568 -1.0039  0.7356 -0.8189
  576MPD2    H1 8545   1.085   0.498  12.888  2.4902 -1.5224  1.1090
  576MPD2    H2 8546   1.231   0.339  12.531  0.8355 -1.2229  2.7038
  576MPD2    H3 8547   1.146   0.310  12.760 -1.0315 -1.0848 -2.9280
  576MPD2     N 8548   1.092   0.757  12.812 -0.9322  0.6865 -0.2696
  576MPD2    H5 8549   1.089   0.847  12.764  0.2061 -0.1599 -1.9202
  576MPD2    N1 8550   1.263   0.578  12.406 -0.1387  0.5925 -0.6240
  576MPD2    H7 8551   1.274   0.676  12.381 -1.0290  0.6904 -0.6070
  577TMC3    C1 8552   1.320   0.535  12.179  0.4439  0.4064  0.5701
  577TMC3    C2 8553   1.366   0.440  12.086  0.4593  0.3107  0.3519
  577TMC3    C3 8554   1.361   0.481  11.952  0.3022 -0.8389  0.4293
  577TMC3    C4 8555   1.264   0.651  12.145  0.8263 -0.4283  0.0038
  577TMC3    C5 8556   1.259   0.680  12.011 -0.3837  0.2196  0.0467
  577TMC3    C6 8557   1.302   0.599  11.908  0.6075  0.1693  0.1022
  577TMC3     C 8558   1.299   0.486  12.314  0.8629  0.5672 -0.1706
  577TMC3     O 8559   1.324   0.368  12.331 -0.9103 -0.1940 -0.1299
  577TMC3     H 8560   1.420   0.349  12.110  2.9394  2.1529  1.8255
  577TMC3    H1 8561   1.209   0.718  12.210  0.8107 -1.2207  0.8047
  577TMC3    H2 8562   1.293   0.633  11.806  0.8651  0.2653  0.1117
  577TMC3    C7 8563   1.224   0.824  11.983  0.2322 -0.1137 -0.2921
  577TMC3    C8 8564   1.430   0.394  11.865 -0.2132  0.1860  0.0120
  577TMC3    O1 8565   1.161   0.837  11.877  0.2339  0.0881  1.1859
  577TMC3    O2 8566   1.504   0.309  11.916  0.3662 -0.4184 -0.4195
  578MPD2     C 8567   2.828   0.141   0.993  0.4326 -0.2270 -0.2313
  578MPD2    C1 8568   2.931   0.069   0.933 -0.3423 -0.1327  0.8518
  578MPD2    C2 8569   3.010   4.705   1.008 -0.1172 -0.8615  0.1964
  578MPD2    C3 8570   2.992   4.699   1.143 -0.3417  0.7075 -0.7454
  578MPD2    C4 8571   2.891   0.048   1.205 -0.1907 -0.0018 -0.3312
  578MPD2    C5 8572   2.806   0.119   1.126 -0.1841 -0.2044  0.0077
  578MPD2     H 8573   3.086   4.648   0.954 -0.7988  0.5689 -2.2684
  578MPD2    H1 8574   2.875   0.042   1.312 -0.6069  2.0564 -0.2844
  578MPD2    H2 8575   2.757   0.199   0.935  0.1641 -0.2069  0.1226
  578MPD2    H3 8576   2.722   0.175   1.164 -0.4512  0.7506 -1.9624
  578MPD2     N 8577   3.078   4.618   1.221 -0.1301 -0.2144  0.2304
  578MPD2    H5 8578   3.159   4.574   1.178 -0.1569  0.6524 -0.6918
  578MPD2    N1 8579   2.949   0.096   0.792 -0.0807 -0.3413 -0.7410
  578MPD2    H7 8580   2.895   0.168   0.746 -0.1326 -1.2132 -2.0502
  579TMC3    C1 8581   3.187   4.531   1.416 -0.2534 -0.2563 -0.5604
  579TMC3    C2 8582   3.245   4.581   1.534  0.0466 -0.3413  0.1395
  579TMC3    C3 8583   3.378   4.549   1.555  0.4249  0.4166 -0.1876
  579TMC3    C4 8584   3.234   4.418   1.342  0.1737 -0.3993 -0.1776
  579TMC3    C5 8585   3.362   4.386   1.373 -0.4827 -0.0426  0.4162
  579TMC3    C6 8586   3.434   4.449   1.472 -0.2117 -0.4813 -0.5188
  579TMC3     C 8587   3.086   4.619   1.360 -0.3040 -0.4457 -0.0293
  579TMC3     O 8588   3.026   4.679   1.447 -0.1416  0.1181  0.3730
  579TMC3     H 8589   3.193   4.660   1.588 -2.0751 -0.3811 -1.7882
  579TMC3    H1 8590   3.178   4.389   1.254  0.6440  0.3289 -0.7171
  579TMC3    H2 8591   3.540   4.430   1.470 -0.4552 -1.8899 -0.0904
  579TMC3    C7 8592   3.443   4.324   1.264 -0.1917 -0.2270 -0.1619
  579TMC3    C8 8593   3.459   4.636   1.646  0.6964 -0.1635 -0.1802
  579TMC3    O1 8594   3.568   4.336   1.255 -0.0987 -0.2967 -0.7060
  579TMC3    O2 8595   3.398   4.711   1.723  0.2090 -0.0099  0.1918
  580TMC3    C1 8596   2.878   4.709  12.119 -1.1281 -0.4517  0.9547
  580TMC3    C2 8597   2.918   0.002  11.992 -0.4610 -0.6894 -0.1002
  580TMC3    C3 8598   2.989   4.625  11.926  0.4810  0.0378 -0.2806
  580TMC3    C4 8599   2.916   4.595  12.184 -0.5909 -0.2870 -0.4970
  580TMC3    C5 8600   2.986   4.497  12.115  0.6488 -0.8158  0.0458
  580TMC3    C6 8601   3.018   4.511  11.990 -0.0744 -0.3670 -0.3701
  580TMC3     C 8602   2.880   0.099  12.210  0.5832  0.0468 -0.5117
  580TMC3     O 8603   2.838   0.089  12.324 -0.8706  0.8854  0.2997
  580TMC3     H 8604   2.897   0.089  11.932 -0.1932  0.8996  2.1423
  580TMC3    H1 8605   2.903   4.582  12.291 -1.4859 -1.5746 -0.7627
  580TMC3    H2 8606   3.081   4.441  11.936 -0.0919  0.7287 -1.8044
  580TMC3    C7 8607   3.065   4.413  12.200  0.3199  0.0412  0.0802
  580TMC3    C8 8608   3.055   4.671  11.811 -0.3785 -0.6557 -0.5995
  580TMC3    O1 8609   3.132   4.473  12.283  0.6552  0.2290  0.6234
  580TMC3    O2 8610   2.990   0.017  11.734  0.3968 -0.1014  0.5025
  581MPD2     C 8611   2.020   0.019  14.598 -0.4093  0.2557 -0.3598
  581MPD2    C1 8612   1.918   4.665  14.646 -0.4299  0.1460 -0.1984
  581MPD2    C2 8613   1.782   4.713  14.636 -0.0076  0.7023  0.3734
  581MPD2    C3 8614   1.751   0.111  14.575 -1.0017 -0.0343  0.0818
  581MPD2    C4 8615   1.861   0.183  14.522  0.5564 -0.3649  0.7939
  581MPD2    C5 8616   1.986   0.130  14.529 -0.1799  0.3316  0.6238
  581MPD2     H 8617   1.705   4.655  14.685  0.2813  1.2331  1.4720
  581MPD2    H1 8618   1.841   0.279  14.477 -1.9377 -1.4952 -0.5439
  581MPD2    H2 8619   2.124   4.712  14.604 -0.5718 -0.8490 -3.0974
  581MPD2    H3 8620   2.071   0.180  14.484 -1.2559  1.7058  0.1134
  581MPD2     N 8621   1.620   0.168  14.561 -0.1614  0.1007 -0.0691
  581MPD2    H5 8622   1.613   0.255  14.509 -1.9382 -0.8389 -1.3844
  581MPD2    N1 8623   1.952   4.537  14.708 -0.6458 -0.0746 -0.0980
  581MPD2    H7 8624   2.047   4.506  14.695 -0.6604 -0.1288 -0.0744
  582TMC3    C1 8625   1.910   4.327  14.814 -0.2763 -0.6484  0.1211
  582TMC3    C2 8626   1.987   4.354  14.923 -0.0903  0.7776  0.1472
  582TMC3    C3 8627   1.999   4.262  15.023 -0.2060  0.1729  0.0979
  582TMC3    C4 8628   1.850   4.208  14.796  0.0709 -0.8423 -0.2138
  582TMC3    C5 8629   1.871   4.114  14.889  0.7217 -0.4922 -0.3994
  582TMC3    C6 8630   1.945   4.138  15.001 -0.0175  0.7990  0.5237
  582TMC3     C 8631   1.859   4.444  14.751  0.4328  0.0788  0.2228
  582TMC3     O 8632   1.742   4.434  14.718  0.0681 -0.2053  0.5679
  582TMC3     H 8633   2.013   4.454  14.954 -2.3722  1.1499  0.8851
  582TMC3    H1 8634   1.773   4.202  14.720  0.7199  0.8505 -1.0177
  582TMC3    H2 8635   1.941   4.063  15.080  0.2948 -0.5313 -0.7278
  582TMC3    C7 8636   1.764   4.016  14.910 -0.0043 -0.2421  0.5719
  582TMC3    C8 8637   1.988   4.306  15.162 -0.4174 -0.1929  0.0900
  582TMC3    O1 8638   1.799   3.912  14.964 -0.3823 -0.6484 -0.6882
  582TMC3    O2 8639   1.931   4.412  15.183  0.9230 -0.3452 -1.2377
  583MPD2     C 8640   1.685   0.933  16.776 -0.7243 -0.1499  0.1160
  583MPD2    C1 8641   1.708   1.054  16.716 -0.2245 -0.0807  0.0699
  583MPD2    C2 8642   1.649   1.166  16.763  0.0513 -0.2539  1.1566
  583MPD2    C3 8643   1.567   1.162  16.879 -0.0465  0.4770  0.2068
  583MPD2    C4 8644   1.548   1.035  16.941  0.6903  0.0248 -0.5521
  583MPD2    C5 8645   1.600   0.926  16.882 -0.0543 -0.3113  0.3585
  583MPD2     H 8646   1.660   1.264  16.718  0.1051 -0.8565 -0.1307
  583MPD2    H1 8647   1.487   1.021  17.030  0.8093  0.5367 -0.3909
  583MPD2    H2 8648   1.730   0.835  16.766  0.7433  0.6867 -1.4087
  583MPD2    H3 8649   1.600   0.829  16.929 -0.5456 -1.2252 -1.5166
  583MPD2     N 8650   1.495   1.278  16.917  0.4616  0.1627  0.5016
  583MPD2    H5 8651   1.516   1.361  16.863 -0.4120  1.0667  1.5745
  583MPD2    N1 8652   1.802   1.065  16.611  0.3024 -0.0661  0.1473
  583MPD2    H7 8653   1.813   1.159  16.572 -1.9608  0.0966 -0.1211
  584TMC3    C1 8654   1.419   1.427  17.066 -0.2967  0.0333 -0.4656
  584TMC3    C2 8655   1.358   1.512  16.975  0.7379 -0.8929  0.2696
  584TMC3    C3 8656   1.310   1.633  17.027  0.8043 -0.3553 -0.0433
  584TMC3    C4 8657   1.415   1.451  17.201  0.3302  0.1771 -0.0761
  584TMC3    C5 8658   1.352   1.562  17.251  0.1991  1.0345 -0.2347
  584TMC3    C6 8659   1.310   1.660  17.164 -0.2621  0.4729  0.5881
  584TMC3     C 8660   1.435   1.287  17.034  0.4583  0.1177  0.1053
  584TMC3     O 8661   1.430   1.210  17.130 -0.2121  0.6184 -0.5391
  584TMC3     H 8662   1.352   1.485  16.870 -2.2846  0.5135  0.1001
  584TMC3    H1 8663   1.456   1.380  17.271 -1.6163 -0.7305  0.1502
  584TMC3    H2 8664   1.285   1.755  17.209 -0.0725  0.6373  0.3431
  584TMC3    C7 8665   1.324   1.564  17.395  0.0454  0.1179 -0.4261
  584TMC3    C8 8666   1.248   1.723  16.933 -0.2742  0.0762 -0.7361
  584TMC3    O1 8667   1.386   1.486  17.469  0.0385  0.3798 -0.0293
  584TMC3    O2 8668   1.234   1.686  16.819  0.4868  0.2408 -0.0162
  585MPD2     C 8669   0.627   4.323   0.310 -0.0791 -0.4807  0.5371
  585MPD2    C1 8670   0.587   4.440   0.370 -0.0271  0.7136 -0.3846
  585MPD2    C2 8671   0.593   4.559   0.298  0.3621  0.0781 -0.1748
  585MPD2    C3 8672   0.618   4.556   0.162  0.9433 -0.0772 -0.1278
  585MPD2    C4 8673   0.646   4.435   0.102  0.1010 -0.2420 -0.1963
  585MPD2    C5 8674   0.644   4.312   0.174  0.6205  0.4713  0.5590
  585MPD2     H 8675   0.558   4.648   0.347  2.4827 -0.6279  2.6573
  585MPD2    H1 8676   0.643   4.421  17.687  2.2856  1.7829 -0.5148
  585MPD2    H2 8677   0.648   4.231   0.362  0.7293 -0.5140  0.1554
  585MPD2    H3 8678   0.667   4.221   0.120  0.2419  1.1030 -0.6764
  585MPD2     N 8679   0.621   4.675   0.082  0.1416  0.2744 -0.1403
  585MPD2    H5 8680   0.643   4.657  17.677  0.1550  0.2168 -0.1264
  585MPD2    N1 8681   0.549   4.448   0.509 -0.1022 -0.7964 -0.0073
  585MPD2    H7 8682   0.550   4.543   0.545  0.5613 -0.0641 -1.9619
  586TMC3    C1 8683   0.616   0.181   0.026 -1.0951 -0.4520  0.0276
  586TMC3    C2 8684   0.742   0.167  17.656  0.3875  0.7618  0.2202
  586TMC3    C3 8685   0.761   0.236  17.539 -0.1594  0.0258  0.9430
  586TMC3    C4 8686   0.513   0.257  17.668 -0.2371 -0.2683 -0.6089
  586TMC3    C5 8687   0.536   0.318  17.545  0.3616 -0.5034  0.2642
  586TMC3    C6 8688   0.661   0.316  17.493  0.0192  0.4323 -0.0704
  586TMC3     C 8689   0.574   0.075   0.117 -0.3018 -0.3347  0.0659
  586TMC3     O 8690   0.493   0.123   0.193  0.1017  0.4409  0.0012
  586TMC3     H 8691   0.822   0.116   0.017  0.8825 -0.0182 -1.2741
  586TMC3    H1 8692   0.414   0.260   0.020  1.0018  0.4944  2.0930
  586TMC3    H2 8693   0.687   0.396  17.425 -2.0937  1.2920  0.1165
  586TMC3    C7 8694   0.438   0.272  17.450  0.1617 -0.8377 -0.0928
  586TMC3    C8 8695   0.829   0.163  17.434  1.2956 -0.6131  0.5256
  586TMC3    O1 8696   0.354   0.196  17.499 -0.2312  0.5012  0.2008
  586TMC3    O2 8697   0.885   0.062  17.476 -0.3936 -0.0018 -0.3556
  587TMC3    C1 8698   2.784   3.067  16.814  0.3069  0.3459 -0.3593
  587TMC3    C2 8699   2.814   3.182  16.739  0.0669 -0.0832  0.2046
  587TMC3    C3 8700   2.923   3.187  16.667 -0.4204 -0.2298  0.5182
  587TMC3    C4 8701   2.866   2.954  16.811  0.5103 -0.8026  0.3259
  587TMC3    C5 8702   2.976   2.969  16.727 -0.2739  0.1582  0.3756
  587TMC3    C6 8703   3.007   3.083  16.651  0.4710  0.7965  0.4332
  587TMC3     C 8704   2.660   3.052  16.888  0.5695  0.4061 -0.3262
  587TMC3     O 8705   2.650   2.952  16.956  0.1385 -1.1111  0.2980
  587TMC3     H 8706   2.735   3.255  16.726 -0.5342 -0.6836  0.5145
  587TMC3    H1 8707   2.851   2.866  16.871 -0.5642 -1.8716 -1.4814
  587TMC3    H2 8708   3.104   3.085  16.603 -0.7776  0.4374 -2.1453
  587TMC3    C7 8709   3.056   2.849  16.717  0.3946  1.0675  1.0085
  587TMC3    C8 8710   2.957   3.302  16.584  0.1067 -0.0031  0.2770
  587TMC3    O1 8711   2.994   2.744  16.741  0.4565 -0.5292  0.5017
  587TMC3    O2 8712   3.066   3.299  16.526 -0.4467 -0.6172 -0.4096
  588TMC3    C1 8713   0.539   1.611   9.652 -0.0917 -0.3413 -0.2853
  588TMC3    C2 8714   0.436   1.524   9.625 -0.2983 -0.0198  0.0923
  588TMC3    C3 8715   0.448   1.395   9.677  0.0365  0.3901 -0.1883
  588TMC3    C4 8716   0.647   1.575   9.731 -0.1846  0.4330  0.2413
  588TMC3    C5 8717   0.640   1.456   9.796 -1.0363  0.4426 -0.3536
  588TMC3    C6 8718   0.548   1.361   9.763  0.5697  0.4470  0.7680
  588TMC3     C 8719   0.507   1.747   9.690 -0.5525 -0.2735  0.6106
  588TMC3     O 8720   0.585   1.796   9.774 -0.3150 -0.2918  0.1020
  588TMC3     H 8721   0.348   1.551   9.568 -0.3685  0.5932  0.4845
  588TMC3    H1 8722   0.732   1.642   9.739 -1.4596  2.2569 -1.4441
  588TMC3    H2 8723   0.562   1.262   9.805 -0.4353  0.3608  0.9241
  588TMC3    C7 8724   0.665   1.470   9.938  0.1856  0.2824 -0.2435
  588TMC3    C8 8725   0.366   1.292   9.620 -0.5177  0.5257 -0.6311
  588TMC3    O1 8726   0.656   1.371  10.005  0.1323  0.4089  0.3175
  588TMC3    O2 8727   0.271   1.342   9.561 -0.0498 -0.0491 -0.4421
  589TMC3    C1 8728   4.555   3.172   1.246  0.0008 -0.1576  0.9183
  589TMC3    C2 8729   4.633   3.272   1.296 -0.0608 -0.1672  0.2778
  589TMC3    C3 8730   0.048   3.256   1.296  0.8235 -0.5572 -0.4098
  589TMC3    C4 8731   4.612   3.051   1.209 -0.0449 -0.0240 -0.7248
  589TMC3    C5 8732   0.025   3.036   1.229 -0.1431  0.2089 -0.6202
  589TMC3    C6 8733   0.110   3.135   1.274  0.1019 -0.3130 -0.3627
  589TMC3     C 8734   4.429   3.195   1.185 -0.1012  0.2573  0.2940
  589TMC3     O 8735   4.395   3.128   1.087 -0.5012 -0.1512 -0.2755
  589TMC3     H 8736   4.592   3.372   1.289  0.4851 -0.0431 -1.1612
  589TMC3    H1 8737   4.544   2.980   1.165  0.9279 -0.6981 -1.1427
  589TMC3    H2 8738   0.211   3.136   1.234  0.5679  0.6932  0.8542
  589TMC3    C7 8739   0.071   2.907   1.218 -0.0780  0.0039 -0.0298
  589TMC3    C8 8740   0.132   3.372   1.330  0.5625  0.1133  0.1718
  589TMC3    O1 8741   0.003   2.828   1.152 -0.5044 -0.2130 -0.1608
  589TMC3    O2 8742   0.079   3.480   1.333 -0.0477 -0.2257  0.1122
  590MPD2     C 8743   3.446   1.931  16.438 -0.0884  0.1904  0.0080
  590MPD2    C1 8744   3.400   2.051  16.381 -0.2253 -0.1246  0.1123
  590MPD2    C2 8745   3.494   2.139  16.324 -0.3379  0.2556 -0.0873
  590MPD2    C3 8746   3.624   2.108  16.316  0.3831 -0.7013 -0.1735
  590MPD2    C4 8747   3.666   1.981  16.358 -0.7573 -0.0715  0.3421
  590MPD2    C5 8748   3.579   1.904  16.429  0.0015  0.1784 -0.0303
  590MPD2     H 8749   3.450   2.231  16.288  0.6868  1.4881  1.8089
  590MPD2    H1 8750   3.768   1.952  16.339 -0.2848  0.4738  2.0424
  590MPD2    H2 8751   3.380   1.859  16.486 -0.5301  1.0654  0.7156
  590MPD2    H3 8752   3.605   1.803  16.458  1.1914 -0.3581 -2.9911
  590MPD2     N 8753   3.712   2.199  16.254  0.6913  0.5021  0.0107
  590MPD2    H5 8754   3.673   2.282  16.211 -0.5198 -0.7882 -1.3626
  590MPD2    N1 8755   3.265   2.089  16.364  0.2001  0.2637  0.0102
  590MPD2    H7 8756   3.251   2.185  16.333  1.9650  0.2955 -0.7090
  591TMC3    C1 8757   3.896   2.293  16.143  0.2316  0.5066  0.4269
  591TMC3    C2 8758   3.967   2.270  16.029 -0.2087  0.0761  0.7941
  591TMC3    C3 8759   3.994   2.359  15.936  0.6661  0.2486 -0.2030
  591TMC3    C4 8760   3.844   2.418  16.159 -0.1648  0.3058  0.4641
  591TMC3    C5 8761   3.859   2.504  16.051 -0.2962  0.2417  0.4193
  591TMC3    C6 8762   3.935   2.484  15.939 -0.3588  0.3124 -0.3524
  591TMC3     C 8763   3.833   2.181  16.210  0.7466  0.6047  0.1663
  591TMC3     O 8764   3.894   2.076  16.212 -0.4678 -0.2208 -0.3651
  591TMC3     H 8765   4.011   2.171  16.024 -2.5001 -0.7086 -3.2566
  591TMC3    H1 8766   3.769   2.439  16.235 -0.6194 -0.5656  0.2519
  591TMC3    H2 8767   3.922   2.541  15.847 -0.0541 -0.7831 -1.0780
  591TMC3    C7 8768   3.801   2.640  16.072  0.1050  0.3730 -0.2915
  591TMC3    C8 8769   4.064   2.317  15.820 -0.6650  1.0095  0.7748
  591TMC3    O1 8770   3.714   2.658  16.158  0.0805  0.2206 -0.0348
  591TMC3    O2 8771   4.064   2.195  15.800 -0.0458  0.0549  0.4183
  592MPD2     C 8772   4.295   4.562  11.416 -0.6778 -0.7561  0.0895
  592MPD2    C1 8773   4.315   4.529  11.548  0.0783  0.3832 -0.0355
  592MPD2    C2 8774   4.216   4.450  11.617 -0.6695  0.1788 -0.3022
  592MPD2    C3 8775   4.110   4.395  11.539 -0.0240 -0.0306  0.4570
  592MPD2    C4 8776   4.090   4.436  11.408  0.4755  1.2347 -0.0730
  592MPD2    C5 8777   4.187   4.521  11.348  0.3981  0.1876 -0.3901
  592MPD2     H 8778   4.229   4.429  11.722  2.2172  0.6657 -0.5761
  592MPD2    H1 8779   4.009   4.402  11.344 -1.3760  0.0749  2.9153
  592MPD2    H2 8780   4.375   4.611  11.360  0.3885 -0.8587  1.5242
  592MPD2    H3 8781   4.181   4.547  11.243  1.1492  2.8544  0.2304
  592MPD2     N 8782   4.026   4.305  11.611 -0.4263  0.2425  0.2836
  592MPD2    H5 8783   4.060   4.265  11.697 -1.2887 -1.6073 -0.2407
  592MPD2    N1 8784   4.439   4.581  11.598 -0.2532  0.4428  0.2190
  592MPD2    H7 8785   4.480   4.655  11.542 -2.2886  2.1679  1.0394
  593TMC3    C1 8786   4.637   4.609  11.734 -0.0340  0.3114 -0.2347
  593TMC3    C2 8787   4.691   4.608  11.857 -0.1071 -0.1017 -0.0490
  593TMC3    C3 8788   0.087   4.662  11.883 -0.0341  0.5009 -0.3019
  593TMC3    C4 8789   4.708   4.658  11.627  0.5112  0.7478  0.4529
  593TMC3    C5 8790   0.112   4.702  11.654  0.3101 -0.2048  0.3129
  593TMC3    C6 8791   0.168   4.701  11.780 -0.4076  0.1727 -0.3969
  593TMC3     C 8792   4.497   4.557  11.722 -0.1355  0.4694  0.2785
  593TMC3     O 8793   4.454   4.500  11.819  0.0913  0.0493  0.6477
  593TMC3     H 8794   4.638   4.580  11.947 -0.9957 -1.0150 -0.8568
  593TMC3    H1 8795   4.663   4.670  11.529  0.0952  1.8081  0.7772
  593TMC3    H2 8796   0.270   0.011  11.801 -0.8166  2.1089 -1.3933
  593TMC3    C7 8797   0.200   0.018  11.542 -0.8933  0.8229  0.0805
  593TMC3    C8 8798   0.123   4.696  12.021  0.3013  0.8011 -0.2401
  593TMC3    O1 8799   0.303   0.077  11.570 -0.2308 -0.1610 -0.0080
  593TMC3    O2 8800   0.045   4.664  12.112 -0.0232 -0.4670 -0.3459
  594MPD2     C 8801   3.486   3.208  14.013 -0.3373 -0.0813 -0.7858
  594MPD2    C1 8802   3.506   3.203  14.155 -0.7182 -0.4982  0.4870
  594MPD2    C2 8803   3.579   3.300  14.213 -0.7101 -0.9094 -1.1469
  594MPD2    C3 8804   3.654   3.386  14.133  0.1823  0.2942  0.8429
  594MPD2    C4 8805   3.647   3.384  14.000 -0.3417  0.1902  0.2955
  594MPD2    C5 8806   3.556   3.299  13.940 -0.5924  0.0819  0.1269
  594MPD2     H 8807   3.597   3.307  14.320 -0.4117 -1.2864 -1.1707
  594MPD2    H1 8808   3.697   3.455  13.936 -0.6543 -0.2251 -0.4064
  594MPD2    H2 8809   3.438   3.128  13.958  3.1457 -1.9900 -1.0967
  594MPD2    H3 8810   3.557   3.295  13.832  2.6372 -0.8552  0.1781
  594MPD2     N 8811   3.722   3.486  14.201  0.3723 -0.4066  0.1535
  594MPD2    H5 8812   3.699   3.506  14.298  1.9371 -1.0074  0.6603
  594MPD2    N1 8813   3.425   3.112  14.227 -0.2515 -0.0731  0.2121
  594MPD2    H7 8814   3.368   3.043  14.179  0.2485 -0.1383 -0.2911
  595TMC3    C1 8815   4.058   3.782  14.328 -0.2045 -0.1272 -0.0010
  595TMC3    C2 8816   4.020   3.679  14.243  0.1573 -0.1325 -0.3791
  595TMC3    C3 8817   3.888   3.644  14.250  0.3369 -0.0559 -0.0575
  595TMC3    C4 8818   3.981   3.856  14.404  0.3070  0.3496 -0.6041
  595TMC3    C5 8819   3.849   3.827  14.402 -0.1145 -0.3040 -0.1115
  595TMC3    C6 8820   3.803   3.722  14.331 -0.1127  0.3041 -0.3164
  595TMC3     C 8821   4.204   3.805  14.349  0.4166  0.1265  0.0069
  595TMC3     O 8822   4.242   3.901  14.416  0.3947 -0.1716 -0.0357
  595TMC3     H 8823   4.086   3.624  14.178 -0.0235 -3.1088  1.9652
  595TMC3    H1 8824   4.024   3.938  14.461  3.2565 -1.1399 -0.7164
  595TMC3    H2 8825   3.696   3.705  14.335 -0.1466  0.3752 -0.8680
  595TMC3    C7 8826   3.756   3.903  14.479 -0.0820  0.3572 -0.4467
  595TMC3    C8 8827   3.825   3.561  14.149  0.2955 -0.0910  0.7118
  595TMC3    O1 8828   3.637   3.896  14.458  0.0899 -0.5192 -0.0507
  595TMC3    O2 8829   3.884   3.553  14.045 -0.2273  0.6207 -0.3643
  596MPD2     C 8830   2.643   1.253  16.745  0.0189  0.1862  0.1746
  596MPD2    C1 8831   2.579   1.352  16.669 -0.1114 -0.4144  0.4395
  596MPD2    C2 8832   2.570   1.352  16.533  0.3942 -0.4777 -0.0575
  596MPD2    C3 8833   2.617   1.241  16.463 -0.6043 -0.2954  0.8241
  596MPD2    C4 8834   2.676   1.138  16.539  0.7902  0.5998  0.0445
  596MPD2    C5 8835   2.698   1.147  16.674  0.2218  0.1086  0.3020
  596MPD2     H 8836   2.534   1.444  16.487  0.8207  0.0390  0.6456
  596MPD2    H1 8837   2.710   1.051  16.485 -0.9198  0.4827 -0.8485
  596MPD2    H2 8838   2.652   1.245  16.852 -0.7822 -0.2987  0.2033
  596MPD2    H3 8839   2.753   1.069  16.725 -2.3689 -0.6172  1.9568
  596MPD2     N 8840   2.612   1.222  16.320  0.1423  0.1708 -0.2643
  596MPD2    H5 8841   2.639   1.129  16.290  0.8912  1.1988 -2.7582
  596MPD2    N1 8842   2.529   1.473  16.726 -0.1324 -0.0913 -0.2352
  596MPD2    H7 8843   2.483   1.543  16.669  1.7922  0.1673 -1.4868
  597TMC3    C1 8844   2.462   1.617  16.906  0.1869  0.1156 -0.5953
  597TMC3    C2 8845   2.491   1.730  16.831 -0.2104  0.4137  0.8151
  597TMC3    C3 8846   2.429   1.843  16.878  0.0908  0.1013  0.2693
  597TMC3    C4 8847   2.396   1.619  17.027  0.8838 -0.0767  0.1166
  597TMC3    C5 8848   2.347   1.736  17.072 -0.0542 -0.6690  0.2871
  597TMC3    C6 8849   2.363   1.844  16.997 -0.7334  0.3143  0.4171
  597TMC3     C 8850   2.520   1.492  16.860  0.0355 -0.7109  0.1724
  597TMC3     O 8851   2.544   1.415  16.953 -0.4962 -0.1132  0.2637
  597TMC3     H 8852   2.573   1.732  16.760 -0.8024  1.2984  0.1602
  597TMC3    H1 8853   2.373   1.531  17.085  1.8672  0.9075  2.0037
  597TMC3    H2 8854   2.312   1.936  17.022  0.9761  2.4599 -3.8730
  597TMC3    C7 8855   2.252   1.740  17.173  0.3905 -0.8545  0.1444
  597TMC3    C8 8856   2.374   1.920  16.757 -0.2846  0.2671 -0.0339
  597TMC3    O1 8857   2.188   1.644  17.210  0.0915 -0.1252  0.0295
  597TMC3    O2 8858   2.422   1.891  16.647  0.6910  0.1668 -0.5575
  598TMC3    C1 8859   0.614   2.872  15.348  0.2720  0.6762 -0.4288
  598TMC3    C2 8860   0.485   2.839  15.317 -0.2095  0.0963  0.7670
  598TMC3    C3 8861   0.459   2.795  15.189  0.4454 -0.1912  0.0070
  598TMC3    C4 8862   0.715   2.864  15.253  0.4561  0.3315  0.0850
  598TMC3    C5 8863   0.685   2.812  15.131  0.2781  0.7001 -0.3492
  598TMC3    C6 8864   0.556   2.776  15.093 -0.2023 -0.2196  0.1655
  598TMC3     C 8865   0.632   2.900  15.490 -0.8860  0.5345 -0.1248
  598TMC3     O 8866   0.534   2.932  15.555 -0.0761  0.8509 -0.4935
  598TMC3     H 8867   0.408   2.853  15.392 -1.4652 -0.7588 -0.3561
  598TMC3    H1 8868   0.822   2.876  15.265  0.5790  0.8375 -1.5754
  598TMC3    H2 8869   0.535   2.731  14.997 -0.7908 -2.1945  1.2064
  598TMC3    C7 8870   0.734   2.883  15.013  0.0266  0.1247  0.3479
  598TMC3    C8 8871   0.324   2.760  15.152  0.6702  0.1565  0.6877
  598TMC3    O1 8872   0.723   2.831  14.905  0.0055  0.4442 -0.9900
  598TMC3    O2 8873   0.297   2.749  15.038 -0.5518  0.4129  0.6942
  599MPD2     C 8874   0.521   0.354  15.648  0.3813 -0.1285 -0.1605
  599MPD2    C1 8875   0.498   0.217  15.677 -0.1359  0.1531 -0.2816
  599MPD2    C2 8876   0.382   0.186  15.750 -0.4460  0.6681  0.2179
  599MPD2    C3 8877   0.310   0.288  15.822 -0.3246 -0.1027 -0.1106
  599MPD2    C4 8878   0.338   0.424  15.791  0.2785  0.4394 -0.1542
  599MPD2    C5 8879   0.438   0.448  15.696 -0.0645 -0.0736 -0.5577
  599MPD2     H 8880   0.360   0.081  15.767 -0.1379  0.4575 -0.7116
  599MPD2    H1 8881   0.286   0.500  15.849 -0.5064  0.4615 -0.8878
  599MPD2    H2 8882   0.606   0.390  15.590  1.2959 -2.4856 -0.3171
  599MPD2    H3 8883   0.477   0.549  15.690  1.7884 -0.6505  1.7933
  599MPD2     N 8884   0.204   0.267  15.920 -0.4962  0.2205  0.0279
  599MPD2    H5 8885   0.180   0.348  15.977  0.5862 -0.7747  1.8817
  599MPD2    N1 8886   0.589   0.125  15.630  0.0291  0.1662  0.5068
  599MPD2    H7 8887   0.674   0.158  15.585  0.0563 -1.6543 -0.7936
  600TMC3    C1 8888   0.101   0.173  16.104  0.3339  1.0802 -0.4388
  600TMC3    C2 8889   0.121   0.067  16.185  0.5241  0.0507  0.9060
  600TMC3    C3 8890   0.113   0.098  16.315 -0.3845  0.2227 -0.2392
  600TMC3    C4 8891   0.094   0.305  16.151 -0.3673  0.1182 -0.4971
  600TMC3    C5 8892   0.102   0.325  16.283 -0.5762 -0.4265  0.4481
  600TMC3    C6 8893   0.108   0.224  16.374  0.1448  0.7759 -0.5185
  600TMC3     C 8894   0.165   0.152  15.977  0.5781  0.5035 -0.4177
  600TMC3     O 8895   0.200   0.040  15.940  0.0608  0.2782 -0.9937
  600TMC3     H 8896   0.154   4.693  16.147 -0.3617 -0.4195  1.3287
  600TMC3    H1 8897   0.078   0.390  16.086  1.5720  0.4181 -0.5656
  600TMC3    H2 8898   0.123   0.235  16.480  2.6160 -1.8187 -0.5762
  600TMC3    C7 8899   0.104   0.465  16.328  0.0621 -0.1579 -0.4978
  600TMC3    C8 8900   0.125   4.712  16.406  0.2433 -0.0703 -0.0655
  600TMC3    O1 8901   0.135   0.551  16.243 -0.1965  0.8334 -0.7687
  600TMC3    O2 8902   0.131   0.017  16.524 -0.1977 -0.1394  0.5638
  601MPD2     C 8903   2.204   2.953   0.029 -0.1481 -0.2350  0.0021
  601MPD2    C1 8904   2.077   2.907   0.032  0.2167 -0.8915 -0.1935
  601MPD2    C2 8905   2.047   2.771   0.042  0.1420 -1.0232 -0.1525
  601MPD2    C3 8906   2.156   2.684   0.044 -0.0061  0.5409 -0.6805
  601MPD2    C4 8907   2.289   2.737   0.055 -0.0654  0.4228 -0.1729
  601MPD2    C5 8908   2.310   2.874   0.040 -0.3296  0.4787 -0.1471
  601MPD2     H 8909   1.944   2.738   0.032  0.6565 -2.2536 -1.3532
  601MPD2    H1 8910   2.374   2.670   0.053 -0.8798 -0.5849 -1.3177
  601MPD2    H2 8911   2.231   3.056   0.050  0.0006 -0.2277 -0.2378
  601MPD2    H3 8912   2.412   2.907   0.054 -0.3588  1.0033 -1.1409
  601MPD2     N 8913   2.135   2.545   0.018  0.1520  0.2307  0.5939
  601MPD2    H5 8914   2.215   2.505  17.663  0.0868  1.5522 -0.6358
  601MPD2    N1 8915   1.982   3.014   0.010  0.0634  0.9053 -0.8215
  601MPD2    H7 8916   2.014   3.108  17.681  0.6930  0.4917 -1.6900
  602TMC3    C1 8917   1.781   3.105  17.636  0.4284  0.7562  0.1614
  602TMC3    C2 8918   1.830   3.233  17.652  0.6871  0.4755  0.0353
  602TMC3    C3 8919   1.779   3.328  17.572  0.7255  0.7562  0.3886
  602TMC3    C4 8920   1.678   3.066  17.557 -0.2069 -0.6680  0.2061
  602TMC3    C5 8921   1.633   3.166  17.479 -0.4499 -0.0957  0.1745
  602TMC3    C6 8922   1.681   3.291  17.483 -0.4341  0.1497 -0.1518
  602TMC3     C 8923   1.844   3.000   0.011 -0.1634 -0.1477 -0.2346
  602TMC3     O 8924   1.780   2.898   0.031 -0.0627 -0.0801 -0.3153
  602TMC3     H 8925   1.903   3.258   0.036  0.5906  2.2891 -0.4591
  602TMC3    H1 8926   1.648   2.962  17.557 -1.7137 -0.2371 -2.0235
  602TMC3    H2 8927   1.648   3.362  17.408 -1.0488  1.2344  1.1510
  602TMC3    C7 8928   1.514   3.137  17.408 -0.3339 -0.0114 -0.0198
  602TMC3    C8 8929   1.796   3.469  17.612 -0.4576 -0.4796 -0.1066
  602TMC3    O1 8930   1.496   3.022  17.374 -0.2598 -0.0420 -0.4538
  602TMC3    O2 8931   1.897   3.514  17.662 -0.5383  0.6608 -0.1811
  603TMC3    C1 8932   0.634   3.776  10.762  0.0279  0.0104  0.1657
  603TMC3    C2 8933   0.594   3.783  10.895 -0.3767  0.0559  1.3165
  603TMC3    C3 8934   0.608   3.907  10.956  0.1051 -0.0886  0.4481
  603TMC3    C4 8935   0.698   3.878  10.699 -0.5963  0.3046  0.2429
  603TMC3    C5 8936   0.708   4.000  10.763  0.1549  0.5264  0.5092
  603TMC3    C6 8937   0.680   4.012  10.903 -1.0525 -0.4157  0.2966
  603TMC3     C 8938   0.605   3.663  10.679 -0.1463  0.3778  0.2884
  603TMC3     O 8939   0.632   3.670  10.562 -0.4391  0.0790  0.2992
  603TMC3     H 8940   0.536   3.704  10.941 -0.4527 -0.3457  0.5397
  603TMC3    H1 8941   0.736   3.868  10.598  0.4191 -0.8198  0.7266
  603TMC3    H2 8942   0.682   4.111  10.947  0.7890  0.3501 -1.5372
  603TMC3    C7 8943   0.792   4.096  10.699  0.3734 -0.1176  0.2223
  603TMC3    C8 8944   0.630   3.889  11.104 -0.0085 -0.1813 -0.1957
  603TMC3    O1 8945   0.869   4.160  10.770  0.3762 -1.1102  0.0046
  603TMC3    O2 8946   0.689   3.786  11.138 -0.4703 -0.1922  0.0559
  604MPD2     C 8947   1.146   2.337  16.481  0.2540 -0.2875  0.1426
  604MPD2    C1 8948   1.028   2.344  16.414 -0.0463 -0.8097 -0.8642
  604MPD2    C2 8949   1.020   2.286  16.289 -0.0388 -0.4025 -0.4497
  604MPD2    C3 8950   1.126   2.224  16.235 -0.1066 -0.1299 -0.2386
  604MPD2    C4 8951   1.242   2.217  16.306 -0.9666 -1.2915 -0.2943
  604MPD2    C5 8952   1.252   2.274  16.428 -0.0169  0.7557 -0.6099
  604MPD2     H 8953   0.926   2.293  16.235 -1.1458 -1.3634  1.3346
  604MPD2    H1 8954   1.337   2.178  16.271 -0.0199  0.0932  0.7266
  604MPD2    H2 8955   1.166   2.368  16.583  1.2648  0.0184 -0.1481
  604MPD2    H3 8956   1.350   2.272  16.476  0.1820 -2.4049 -1.1280
  604MPD2     N 8957   1.109   2.158  16.107  0.3551 -0.0587 -0.4949
  604MPD2    H5 8958   1.017   2.174  16.067  1.5510  3.6564 -1.7285
  604MPD2    N1 8959   0.926   2.417  16.481  0.3253 -0.3095  0.8138
  604MPD2    H7 8960   0.960   2.465  16.564  3.4641  1.6401 -1.5724
  605TMC3    C1 8961   0.713   2.509  16.509 -0.2794 -0.0525 -0.5078
  605TMC3    C2 8962   0.768   2.608  16.583  0.1247 -0.8922  0.3414
  605TMC3    C3 8963   0.698   2.732  16.602 -0.6423 -0.4993 -0.3188
  605TMC3    C4 8964   0.583   2.524  16.462  0.4636 -0.0962 -0.5307
  605TMC3    C5 8965   0.519   2.645  16.473 -0.3167  0.2960 -0.1325
  605TMC3    C6 8966   0.579   2.750  16.540 -0.0893  0.9667  0.3119
  605TMC3     C 8967   0.792   2.409  16.445 -0.3332 -0.2725  0.5138
  605TMC3     O 8968   0.737   2.327  16.373 -0.0028  0.1618 -0.0783
  605TMC3     H 8969   0.867   2.602  16.627  0.5412 -4.4718 -1.1066
  605TMC3    H1 8970   0.547   2.445  16.397 -1.6591 -1.5790  2.4475
  605TMC3    H2 8971   0.514   2.834  16.562  0.4342  1.0096  1.7384
  605TMC3    C7 8972   0.379   2.660  16.428 -0.2694 -0.8365 -0.1069
  605TMC3    C8 8973   0.788   2.849  16.612  0.4445  0.7318 -0.0697
  605TMC3    O1 8974   0.323   2.763  16.457 -0.3829  0.6759  0.2719
  605TMC3    O2 8975   0.906   2.825  16.639 -0.3935  0.3542  0.1848
  606TMC3    C1 8976   2.664   0.880  16.969 -0.1671 -0.3599 -0.3722
  606TMC3    C2 8977   2.566   0.946  17.040 -0.2574  0.9442  0.2362
  606TMC3    C3 8978   2.447   0.883  17.035  0.0568  0.5891 -0.9923
  606TMC3    C4 8979   2.650   0.766  16.893  0.5819  0.4145 -0.1597
  606TMC3    C5 8980   2.533   0.705  16.902  0.8579  0.3844  0.4452
  606TMC3    C6 8981   2.429   0.767  16.964  0.7335 -0.6342  0.0039
  606TMC3     C 8982   2.795   0.941  16.953  0.4278  0.0811 -0.3393
  606TMC3     O 8983   2.863   0.905  16.855  0.5153 -0.7195  0.3786
  606TMC3     H 8984   2.584   1.021  17.116  1.4248  2.2576 -1.4418
  606TMC3    H1 8985   2.738   0.711  16.864  0.9895 -0.1894  2.1994
  606TMC3    H2 8986   2.331   0.723  16.949 -0.2366  1.6501 -0.3223
  606TMC3    C7 8987   2.514   0.570  16.853  0.3570  0.1599  0.3326
  606TMC3    C8 8988   2.356   0.889  17.146 -0.7476  0.2252 -0.0617
  606TMC3    O1 8989   2.599   0.529  16.778 -0.4661  0.3397  0.1122
  606TMC3    O2 8990   2.274   0.801  17.147 -0.0892 -0.5449 -0.3054
  607MPD2     C 8991   4.324   3.764  11.692  0.6983  0.3783 -0.1606
  607MPD2    C1 8992   4.371   3.890  11.716 -0.8478  0.1207 -0.5957
  607MPD2    C2 8993   4.407   3.928  11.842  0.1754 -0.4247  0.2675
  607MPD2    C3 8994   4.397   3.837  11.946 -0.1900 -0.3886  0.2594
  607MPD2    C4 8995   4.338   3.712  11.921 -0.0094 -0.9763  0.3676
  607MPD2    C5 8996   4.297   3.681  11.795 -0.3883  0.0694  0.1118
  607MPD2     H 8997   4.449   4.027  11.859 -0.2499 -0.3181  0.6888
  607MPD2    H1 8998   4.328   3.638  11.999  0.4582 -1.5570 -0.1293
  607MPD2    H2 8999   4.317   3.730  11.590  1.1499  0.8299 -0.3478
  607MPD2    H3 9000   4.253   3.583  11.785 -0.1081 -0.0391 -0.0437
  607MPD2     N 9001   4.466   3.873  12.064  0.8262  0.6190 -0.0736
  607MPD2    H5 9002   4.506   3.966  12.070 -1.0833  1.4506 -0.4043
  607MPD2    N1 9003   4.401   3.982  11.611  0.4416 -0.2380 -0.0776
  607MPD2    H7 9004   4.443   4.072  11.633  0.5688 -0.1302 -0.7329
  608TMC3    C1 9005   4.449   4.069  11.400 -0.6239  0.0441  0.7376
  608TMC3    C2 9006   4.551   4.129  11.469  0.1054  0.3929 -0.5609
  608TMC3    C3 9007   4.594   4.256  11.425  0.1545 -0.0509 -0.9332
  608TMC3    C4 9008   4.408   4.104  11.277  0.0510 -0.1676  0.2172
  608TMC3    C5 9009   4.456   4.222  11.227  0.3213  0.5790 -0.3630
  608TMC3    C6 9010   4.541   4.302  11.305  0.3558  0.3504 -0.1082
  608TMC3     C 9011   4.374   3.971  11.479 -0.7353 -0.2106  0.8648
  608TMC3     O 9012   4.295   3.898  11.421  0.3819 -0.1057  0.1604
  608TMC3     H 9013   4.602   4.068  11.542  0.7860  0.0319 -1.3364
  608TMC3    H1 9014   4.345   4.040  11.216 -0.2134  0.3183 -0.0217
  608TMC3    H2 9015   4.571   4.396  11.261 -1.4790  0.4400 -1.1622
  608TMC3    C7 9016   4.490   4.239  11.088  0.1616  0.2810  0.6940
  608TMC3    C8 9017   4.706   4.321  11.481 -0.0137  0.0165  0.0662
  608TMC3    O1 9018   4.481   4.354  11.047  0.4217 -0.3881 -0.3378
  608TMC3    O2 9019   0.050   4.409  11.418  0.1167  0.0113 -0.1572
  609TMC3    C1 9020   3.766   2.978   9.093  0.3368 -0.2865 -0.1229
  609TMC3    C2 9021   3.772   3.114   9.086 -1.2112 -0.4275  0.4219
  609TMC3    C3 9022   3.865   3.180   9.163  0.1995 -0.8074  0.3590
  609TMC3    C4 9023   3.867   2.911   9.162 -0.6147 -1.4136 -0.1051
  609TMC3    C5 9024   3.962   2.981   9.228  0.1285  0.5945  0.2808
  609TMC3    C6 9025   3.960   3.117   9.234  0.8215 -0.0524 -0.6169
  609TMC3     C 9026   3.680   2.905   8.995  0.6519 -0.0250 -0.4017
  609TMC3     O 9027   3.706   2.787   8.985  0.1856  0.4803  0.0767
  609TMC3     H 9028   3.705   3.168   9.020 -1.6667 -1.0730  0.3561
  609TMC3    H1 9029   3.863   2.803   9.157  0.1185 -1.5580  2.1983
  609TMC3    H2 9030   4.046   3.161   9.284  2.2857 -1.1560 -2.1286
  609TMC3    C7 9031   4.027   2.920   9.341  0.2824 -0.2385 -0.1001
  609TMC3    C8 9032   3.817   3.317   9.193  0.8962 -0.2037  0.0746
  609TMC3    O1 9033   4.070   3.000   9.427 -0.2599  0.1656 -0.8702
  609TMC3    O2 9034   3.720   3.355   9.128  0.2248 -0.2873  0.2791
  610TMC3    C1 9035   0.451   3.410  12.931  0.1841 -0.4003 -0.4021
  610TMC3    C2 9036   0.499   3.524  12.870  0.7753 -0.4504  1.1518
  610TMC3    C3 9037   0.599   3.593  12.930  0.5549  0.3916 -0.4250
  610TMC3    C4 9038   0.506   3.359  13.041  0.4981 -0.7024 -0.5457
  610TMC3    C5 9039   0.599   3.435  13.102 -0.0519 -0.0607  0.3246
  610TMC3    C6 9040   0.636   3.563  13.058 -0.1884  0.8959 -0.4369
  610TMC3     C 9041   0.347   3.329  12.865 -0.4030  0.6247  0.4476
  610TMC3     O 9042   0.331   3.213  12.901 -0.0975 -0.3071 -0.3661
  610TMC3     H 9043   0.462   3.556  12.774 -0.7794 -0.8593  1.6135
  610TMC3    H1 9044   0.475   3.263  13.082 -1.4894  0.2513  0.1613
  610TMC3    H2 9045   0.716   3.618  13.105 -1.0891  1.9170 -0.0891
  610TMC3    C7 9046   0.661   3.375  13.214 -0.4268 -0.2046  0.0355
  610TMC3    C8 9047   0.699   3.651  12.847 -0.1194  0.7624  0.2205
  610TMC3    O1 9048   0.693   3.257  13.199 -0.0256 -1.0991 -0.4085
  610TMC3    O2 9049   0.760   3.746  12.895  0.3264 -0.0443 -0.3067
  611MPD2     C 9050   4.404   4.597  10.101  0.2323 -0.0269 -0.0371
  611MPD2    C1 9051   4.471   4.474  10.107 -0.3803  0.0884 -0.5939
  611MPD2    C2 9052   4.603   4.464  10.060 -0.0221  0.3407 -0.4406
  611MPD2    C3 9053   4.673   4.576  10.014  0.3280 -0.0932 -0.4088
  611MPD2    C4 9054   4.609   4.696  10.023  0.2511 -0.2540 -0.4912
  611MPD2    C5 9055   4.475   4.705  10.049  0.3128 -0.3323 -0.1704
  611MPD2     H 9056   4.658   4.371  10.053  2.2518  1.7462 -0.8627
  611MPD2    H1 9057   4.663   0.061   9.991  0.0879  0.3069  0.7622
  611MPD2    H2 9058   4.306   4.608  10.146 -0.1140  0.6900 -0.9617
  611MPD2    H3 9059   4.427   0.079  10.057  1.7423  0.2247  2.0039
  611MPD2     N 9060   0.089   4.578   9.984 -0.0259  0.2039 -0.2037
  611MPD2    H5 9061   0.124   4.667   9.951 -1.0136  0.2570 -1.1231
  611MPD2    N1 9062   4.391   4.375  10.171 -0.0334 -0.2648  0.8073
  611MPD2    H7 9063   4.293   4.384  10.193 -0.8293 -1.6945 -2.1743
  612TMC3    C1 9064   0.311   4.505   9.946 -0.4390  0.1759 -0.2238
  612TMC3    C2 9065   0.410   4.441  10.020  0.1222 -0.1899 -0.3599
  612TMC3    C3 9066   0.538   4.470   9.979 -0.0520  0.3328 -0.1275
  612TMC3    C4 9067   0.327   4.600   9.847 -0.5908 -0.5547 -0.5122
  612TMC3    C5 9068   0.463   4.627   9.817 -0.1746 -0.0120  0.3306
  612TMC3    C6 9069   0.567   4.562   9.882 -0.5428  0.0386 -0.0921
  612TMC3     C 9070   0.177   4.468   9.986  0.8260 -0.7080 -0.6071
  612TMC3     O 9071   0.158   4.355  10.031 -0.1895 -0.0043  0.2049
  612TMC3     H 9072   0.379   4.372  10.097 -1.0295  0.3398 -0.3410
  612TMC3    H1 9073   0.246   4.635   9.784 -1.4012 -0.6540  0.4617
  612TMC3    H2 9074   0.671   4.578   9.854 -1.0564 -0.4826 -2.3427
  612TMC3    C7 9075   0.504   4.702   9.701  0.0178  0.8392  0.2785
  612TMC3    C8 9076   0.653   4.408  10.045 -0.1259  0.3126  0.3408
  612TMC3    O1 9077   0.620   4.695   9.656  0.2417 -0.5148  0.1025
  612TMC3    O2 9078   0.761   4.440  10.007  0.4086  0.2896 -0.2910
  613MPD2     C 9079   3.383   0.951  16.820 -0.5473 -0.1584 -0.1367
  613MPD2    C1 9080   3.454   0.912  16.707 -0.1163 -0.0811  0.0607
  613MPD2    C2 9081   3.399   0.820  16.626  0.6688 -0.0110  0.1261
  613MPD2    C3 9082   3.278   0.758  16.651  0.2262  0.6144  0.6087
  613MPD2    C4 9083   3.212   0.791  16.771 -0.4445 -0.1017 -0.4818
  613MPD2    C5 9084   3.264   0.894  16.848 -0.0336  0.0162 -0.5041
  613MPD2     H 9085   3.458   0.799  16.537 -0.3910 -0.6186 -0.4285
  613MPD2    H1 9086   3.122   0.736  16.797  0.6108 -1.1481  0.9393
  613MPD2    H2 9087   3.425   1.026  16.885 -0.0889 -1.2392  0.8073
  613MPD2    H3 9088   3.217   0.932  16.938 -0.4642 -2.0447  0.1391
  613MPD2     N 9089   3.210   0.672  16.556  0.5323 -0.0632  0.6166
  613MPD2    H5 9090   3.130   0.620  16.592  1.0366 -1.1755  0.1153
  613MPD2    N1 9091   3.580   0.974  16.671 -0.2133  0.0470  0.3193
  613MPD2    H7 9092   3.620   0.940  16.585 -0.6824 -3.1429  1.3442
  614TMC3    C1 9093   3.740   1.123  16.618  0.3826 -0.1868 -0.6934
  614TMC3    C2 9094   3.799   1.013  16.561  1.0474 -0.5406 -0.2411
  614TMC3    C3 9095   3.820   1.006  16.427 -0.3232  0.9719 -0.0840
  614TMC3    C4 9096   3.722   1.235  16.544 -0.8661  0.3507  0.0120
  614TMC3    C5 9097   3.756   1.226  16.409  0.9282  0.0326  0.5105
  614TMC3    C6 9098   3.806   1.119  16.347  0.3507 -1.0175 -0.0216
  614TMC3     C 9099   3.629   1.094  16.707 -0.4971  0.4646 -0.3213
  614TMC3     O 9100   3.580   1.177  16.782 -0.3666  0.2432  0.8731
  614TMC3     H 9101   3.806   0.923  16.620  1.7485  1.2302  2.3662
  614TMC3    H1 9102   3.670   1.313  16.598 -1.3007 -0.1305  0.2809
  614TMC3    H2 9103   3.806   1.120  16.239 -0.0134  1.0728 -0.0024
  614TMC3    C7 9104   3.726   1.353  16.339 -0.4722  0.5061  0.1765
  614TMC3    C8 9105   3.780   0.880  16.361 -0.7573  0.0655  0.0647
  614TMC3    O1 9106   3.733   1.453  16.405 -0.0197  0.1032  0.7392
  614TMC3    O2 9107   3.701   0.815  16.426 -0.4344 -0.4857 -0.1032
  615MPD2     C 9108   2.460   3.124  16.178  0.0643 -0.3141 -0.4567
  615MPD2    C1 9109   2.553   3.142  16.080 -0.4286 -0.1840 -0.7341
  615MPD2    C2 9110   2.557   3.062  15.966 -0.5787 -0.5476  0.1615
  615MPD2    C3 9111   2.460   2.968  15.937  1.1871  0.2552  0.1542
  615MPD2    C4 9112   2.367   2.953  16.038  0.7616 -0.0767 -0.2568
  615MPD2    C5 9113   2.363   3.033  16.155 -0.4709 -0.3418 -0.2086
  615MPD2     H 9114   2.639   3.073  15.895 -0.3327 -0.3214  0.4857
  615MPD2    H1 9115   2.283   2.887  16.019  0.6160  0.4666 -1.5622
  615MPD2    H2 9116   2.456   3.175  16.273 -1.6155 -3.0938  0.9681
  615MPD2    H3 9117   2.287   3.021  16.232  0.8680  0.6723  1.2545
  615MPD2     N 9118   2.454   2.885  15.822 -0.1955 -0.3339 -0.7627
  615MPD2    H5 9119   2.383   2.814  15.810 -1.6827  0.6091  2.2412
  615MPD2    N1 9120   2.663   3.235  16.084  0.0761 -0.0675  0.2589
  615MPD2    H7 9121   2.721   3.242  16.001 -0.3605  0.7022  0.0213
  616TMC3    C1 9122   2.805   3.380  16.186 -0.0371  0.0005 -0.6323
  616TMC3    C2 9123   2.915   3.317  16.246 -0.7508  0.1150 -0.1015
  616TMC3    C3 9124   3.037   3.349  16.190  0.8909  0.2684 -0.6811
  616TMC3    C4 9125   2.807   3.460  16.076  0.0550 -0.4173 -0.0576
  616TMC3    C5 9126   2.933   3.481  16.019  0.3852  0.4362 -1.0425
  616TMC3    C6 9127   3.042   3.429  16.082 -0.0451  0.5279 -0.0982
  616TMC3     C 9128   2.692   3.303  16.195  0.0018 -0.3273  0.1896
  616TMC3     O 9129   2.639   3.306  16.305  0.5381  0.3338 -0.6084
  616TMC3     H 9130   2.901   3.256  16.335  2.3346 -0.6053 -0.1258
  616TMC3    H1 9131   2.715   3.486  16.025  0.0632  0.0924  0.1819
  616TMC3    H2 9132   3.135   3.438  16.027  1.4205  0.2880  2.3329
  616TMC3    C7 9133   2.949   3.509  15.877  0.1853 -0.1908 -0.3816
  616TMC3    C8 9134   3.147   3.264  16.212  0.1760  0.3352 -0.4356
  616TMC3    O1 9135   3.057   3.485  15.822  0.0199 -0.7508  0.2674
  616TMC3    O2 9136   3.259   3.310  16.183 -0.2481 -0.0689 -0.8782
  617MPD2     C 9137   0.979   1.374  14.100 -1.0319  0.1063  0.1390
  617MPD2    C1 9138   1.043   1.261  14.062  0.4717  0.5268 -0.0227
  617MPD2    C2 9139   0.990   1.186  13.961 -0.6263  0.1201  0.9963
  617MPD2    C3 9140   0.867   1.216  13.907 -0.3562  0.9247 -0.8235
  617MPD2    C4 9141   0.804   1.330  13.951 -0.6473  0.4859 -0.3159
  617MPD2    C5 9142   0.868   1.412  14.037 -0.3155  0.0725 -0.8309
  617MPD2     H 9143   1.037   1.091  13.938 -0.7990  0.1584  0.4888
  617MPD2    H1 9144   0.711   1.363  13.906  0.2189  1.2661 -1.5182
  617MPD2    H2 9145   1.022   1.441  14.173  0.4837 -2.7078  1.8479
  617MPD2    H3 9146   0.825   1.506  14.072  0.7066  0.0820  0.3976
  617MPD2     N 9147   0.793   1.130  13.828 -0.5179 -0.1601 -0.1898
  617MPD2    H5 9148   0.691   1.132  13.828 -0.4973  0.6670 -0.2292
  617MPD2    N1 9149   1.155   1.235  14.135 -0.3827 -0.3896  0.5944
  617MPD2    H7 9150   1.185   1.300  14.208 -1.4474 -1.3832  1.9156
  618TMC3    C1 9151   1.367   1.131  14.164 -0.5376  0.8539  0.1739
  618TMC3    C2 9152   1.421   1.003  14.161  0.8564 -0.2336 -0.4558
  618TMC3    C3 9153   1.553   0.986  14.187  0.5494  0.3932 -0.4605
  618TMC3    C4 9154   1.448   1.240  14.202  0.0681 -0.1923  0.3401
  618TMC3    C5 9155   1.583   1.220  14.234  0.0166  0.2881  0.3035
  618TMC3    C6 9156   1.633   1.096  14.217 -0.6883  0.5426 -0.4946
  618TMC3     C 9157   1.239   1.134  14.102 -0.5140  0.0238  0.1397
  618TMC3     O 9158   1.226   1.046  14.018 -0.5976 -0.2992 -0.5366
  618TMC3     H 9159   1.363   0.916  14.135  0.3026 -0.6788  2.2763
  618TMC3    H1 9160   1.394   1.334  14.197  1.2445  0.6939  3.9425
  618TMC3    H2 9161   1.737   1.090  14.248 -0.0126  0.7136 -2.7582
  618TMC3    C7 9162   1.631   1.309  14.337  0.3514 -0.1506  0.5477
  618TMC3    C8 9163   1.613   0.853  14.161  0.2104 -0.1803 -0.0021
  618TMC3    O1 9164   1.540   1.368  14.394 -0.4077  0.2019  0.3003
  618TMC3    O2 9165   1.540   0.753  14.165 -0.0712 -0.1949  0.1035
  619MPD2     C 9166   2.735   2.202  13.653 -0.4810  0.6412 -0.1516
  619MPD2    C1 9167   2.634   2.291  13.631 -0.0619 -0.1511 -0.0199
  619MPD2    C2 9168   2.512   2.238  13.609 -0.2683 -0.0467  0.1049
  619MPD2    C3 9169   2.483   2.106  13.610 -0.1092  0.0712  0.6594
  619MPD2    C4 9170   2.583   2.016  13.638  0.4125  0.4808 -0.0272
  619MPD2    C5 9171   2.706   2.064  13.659  0.8026 -0.0893 -0.4856
  619MPD2     H 9172   2.432   2.310  13.601 -0.3266  0.0088  1.2479
  619MPD2    H1 9173   2.564   1.909  13.635 -0.8063  0.7155 -0.6932
  619MPD2    H2 9174   2.838   2.231  13.670 -0.3935  0.5018 -0.4355
  619MPD2    H3 9175   2.786   1.993  13.677  1.4259  0.3957 -1.3407
  619MPD2     N 9176   2.351   2.058  13.609 -0.1758  0.2963  0.0476
  619MPD2    H5 9177   2.339   1.959  13.624 -0.3311  0.4692  1.0654
  619MPD2    N1 9178   2.635   2.432  13.659 -0.2749  0.1636  0.5083
  619MPD2    H7 9179   2.546   2.477  13.642 -0.6210 -0.8576 -0.4325
  620TMC3    C1 9180   2.682   2.612  13.801  0.1125 -0.1901  0.2169
  620TMC3    C2 9181   2.544   2.618  13.814  0.3945  1.0135  1.0988
  620TMC3    C3 9182   2.501   2.749  13.845  0.0782  0.1074  0.2709
  620TMC3    C4 9183   2.765   2.717  13.839  0.0948 -0.2142 -0.2687
  620TMC3    C5 9184   2.716   2.837  13.878 -0.9766 -0.2887  0.4386
  620TMC3    C6 9185   2.582   2.857  13.878  0.2843 -0.3977 -0.3843
  620TMC3     C 9186   2.736   2.502  13.732  0.0202 -0.3179  0.0577
  620TMC3     O 9187   2.847   2.462  13.763 -0.0146  0.0387  0.4254
  620TMC3     H 9188   2.475   2.535  13.817  1.3559  0.2196  1.3169
  620TMC3    H1 9189   2.872   2.706  13.825  0.3534 -1.0524  2.4535
  620TMC3    H2 9190   2.541   2.946  13.924  0.3355 -1.1408  1.0754
  620TMC3    C7 9191   2.798   2.952  13.851 -0.1480  0.0032  0.0608
  620TMC3    C8 9192   2.363   2.784  13.858  0.6074 -0.1648 -0.2563
  620TMC3    O1 9193   2.916   2.932  13.875 -0.5339 -0.1682  0.3498
  620TMC3    O2 9194   2.334   2.895  13.893  0.3134 -0.1904  0.4898
  621MPD2     C 9195   3.019   2.207   8.816 -0.0114 -0.1956 -0.3932
  621MPD2    C1 9196   3.132   2.214   8.896 -0.2667  0.6294 -0.0610
  621MPD2    C2 9197   3.156   2.341   8.950  0.3577 -0.2890  0.3670
  621MPD2    C3 9198   3.089   2.451   8.922  0.4224 -0.0702  0.5339
  621MPD2    C4 9199   2.983   2.439   8.832 -0.5810  0.2213 -0.7570
  621MPD2    C5 9200   2.947   2.317   8.782  0.0102 -0.5508  0.5513
  621MPD2     H 9201   3.242   2.347   9.016  0.4250  0.7127  0.1795
  621MPD2    H1 9202   2.924   2.525   8.802 -3.1535 -1.6347 -1.0125
  621MPD2    H2 9203   2.983   2.114   8.773 -2.4626  1.1714 -1.3267
  621MPD2    H3 9204   2.860   2.313   8.718  0.6141 -1.8137 -0.1921
  621MPD2     N 9205   3.144   2.574   8.979 -0.4879  0.0597  0.2740
  621MPD2    H5 9206   3.211   2.570   9.055  0.3248  0.8380 -0.4006
  621MPD2    N1 9207   3.202   2.106   8.942  0.4888  0.4659 -0.1300
  621MPD2    H7 9208   3.256   2.134   9.024  1.5714  0.6595 -0.9233
  622TMC3    C1 9209   3.262   1.901   9.007 -0.6130  0.0410 -0.1836
  622TMC3    C2 9210   3.273   1.768   8.967  0.0011 -0.5241 -0.0469
  622TMC3    C3 9211   3.302   1.676   9.059 -0.2103  0.2544  0.1227
  622TMC3    C4 9212   3.254   1.931   9.137  0.4400  1.0756  0.6239
  622TMC3    C5 9213   3.271   1.832   9.229  0.2640  0.0154  0.6965
  622TMC3    C6 9214   3.292   1.704   9.190 -0.2142 -0.2869 -0.1488
  622TMC3     C 9215   3.199   1.982   8.902  0.6885  0.0967 -0.3459
  622TMC3     O 9216   3.173   1.939   8.790 -0.2480  0.2737 -0.4298
  622TMC3     H 9217   3.303   1.749   8.864  0.6523  3.6316 -0.6401
  622TMC3    H1 9218   3.232   2.034   9.163  1.8500  1.4621  0.2816
  622TMC3    H2 9219   3.307   1.632   9.270 -1.1913  0.4351  0.6904
  622TMC3    C7 9220   3.244   1.864   9.369  1.3003 -0.0348 -0.3401
  622TMC3    C8 9221   3.280   1.541   9.023 -0.6447  0.1341  0.3169
  622TMC3    O1 9222   3.267   1.982   9.395  0.1756  0.0835  0.2749
  622TMC3    O2 9223   3.315   1.455   9.107  0.1891  0.2560 -0.0062
  623MPD2     C 9224   1.040   2.506  16.065 -0.1574  0.3562 -0.7870
  623MPD2    C1 9225   1.000   2.635  16.101 -0.0974 -0.4904 -0.1530
  623MPD2    C2 9226   1.091   2.732  16.125  0.5634  0.6951 -0.2567
  623MPD2    C3 9227   1.221   2.699  16.143  0.2400  0.5592  0.5142
  623MPD2    C4 9228   1.262   2.579  16.095  0.0361 -0.1361  0.4166
  623MPD2    C5 9229   1.174   2.484  16.053  0.4628  0.2552 -0.2863
  623MPD2     H 9230   1.062   2.831  16.159 -1.0029  1.4476 -3.8340
  623MPD2    H1 9231   1.363   2.539  16.103 -0.0776 -0.1839  1.6689
  623MPD2    H2 9232   0.975   2.433  16.019 -2.0815  0.3441  1.9342
  623MPD2    H3 9233   1.217   2.390  16.022 -0.4503  0.7254 -2.9136
  623MPD2     N 9234   1.316   2.796  16.198 -0.0048  0.3129 -0.2478
  623MPD2    H5 9235   1.383   2.761  16.265 -0.3087 -2.0638 -1.1909
  623MPD2    N1 9236   0.864   2.668  16.114  0.4604  0.0108  0.1623
  623MPD2    H7 9237   0.845   2.762  16.147  0.2603 -0.0279  0.1526
  624TMC3    C1 9238   1.498   3.013  16.476  0.3320 -0.6676 -0.7428
  624TMC3    C2 9239   1.416   3.112  16.531  0.4274 -0.3679  0.1086
  624TMC3    C3 9240   1.313   3.157  16.455 -0.0519  0.2299 -0.0417
  624TMC3    C4 9241   1.460   2.947  16.362 -0.8327  0.2226 -0.0852
  624TMC3    C5 9242   1.361   3.005  16.289 -0.8552 -0.5885  0.0013
  624TMC3    C6 9243   1.278   3.103  16.334  0.0124 -0.0115 -0.1556
  624TMC3     C 9244   1.636   3.006  16.525 -0.1710 -0.0050 -0.6807
  624TMC3     O 9245   1.660   3.056  16.633  0.2611 -0.2521 -0.3592
  624TMC3     H 9246   1.444   3.155  16.626  1.7610  0.5960 -0.7168
  624TMC3    H1 9247   1.523   2.875  16.310 -0.9269 -0.0016  0.1075
  624TMC3    H2 9248   1.192   3.136  16.276  0.7571 -0.7738 -1.6951
  624TMC3    C7 9249   1.299   2.932  16.186 -0.2785 -0.9965 -0.5508
  624TMC3    C8 9250   1.198   3.191  16.527 -0.3885 -0.3993  0.1797
  624TMC3    O1 9251   1.231   2.997  16.103 -0.8931 -0.2134 -0.2397
  624TMC3    O2 9252   1.192   3.173  16.648 -0.9283 -0.6817 -0.2475
  625MPD2     C 9253   1.326   3.295   0.421 -0.2457  0.0736  0.4938
  625MPD2    C1 9254   1.382   3.406   0.481 -0.2519 -1.0090 -0.2611
  625MPD2    C2 9255   1.480   3.393   0.568 -0.5840 -0.0404 -0.0938
  625MPD2    C3 9256   1.521   3.268   0.609 -0.2283  1.0951 -0.1595
  625MPD2    C4 9257   1.457   3.161   0.555  0.4111 -0.3673 -1.1246
  625MPD2    C5 9258   1.359   3.174   0.466  0.0110  0.4314  0.0799
  625MPD2     H 9259   1.532   3.484   0.596  0.9299 -0.7617 -0.5666
  625MPD2    H1 9260   1.490   3.061   0.584  2.0370  0.8527  1.2102
  625MPD2    H2 9261   1.240   3.301   0.355 -0.0116  0.1981  0.2014
  625MPD2    H3 9262   1.307   3.089   0.422  1.6104  0.1314 -1.2127
  625MPD2     N 9263   1.635   3.254   0.688  0.0035 -0.3106  0.2452
  625MPD2    H5 9264   1.685   3.338   0.714 -1.0760  1.1702 -2.4127
  625MPD2    N1 9265   1.336   3.529   0.457  0.3574 -0.8332 -0.2300
  625MPD2    H7 9266   1.380   3.604   0.510 -1.3693 -1.4603  2.1275
  626TMC3    C1 9267   1.228   3.717   0.387 -0.0602  0.3486 -0.7845
  626TMC3    C2 9268   1.232   3.781   0.266 -0.3241 -0.5878  0.3779
  626TMC3    C3 9269   1.288   3.902   0.256  0.0436  0.6799  0.4490
  626TMC3    C4 9270   1.274   3.769   0.502  0.1550  0.0225  0.1060
  626TMC3    C5 9271   1.340   3.889   0.488 -0.2897  0.2325  0.9954
  626TMC3    C6 9272   1.351   3.949   0.365 -0.2185  0.3872 -0.5445
  626TMC3     C 9273   1.236   3.574   0.381  0.0707 -0.6104 -0.2221
  626TMC3     O 9274   1.177   3.520   0.286  0.1243 -0.5848  0.0327
  626TMC3     H 9275   1.188   3.740   0.176 -0.4132  1.8324 -0.6700
  626TMC3    H1 9276   1.278   3.713   0.595 -2.2151  2.6391  1.7803
  626TMC3    H2 9277   1.414   4.036   0.356 -0.5560  0.5374 -1.4804
  626TMC3    C7 9278   1.466   3.874   0.555 -0.6732  0.8891 -0.5640
  626TMC3    C8 9279   1.276   3.993   0.140 -1.0334  0.3850  0.1906
  626TMC3    O1 9280   1.507   3.760   0.572 -0.2013  0.5361 -0.5073
  626TMC3    O2 9281   1.264   3.942   0.033 -0.1925 -0.1726  0.4781
  627MPD2     C 9282   0.855   0.015  14.209 -0.1841  0.3108  0.3748
  627MPD2    C1 9283   0.898   4.698  14.339  0.1166  0.5631 -0.0227
  627MPD2    C2 9284   0.874   4.570  14.383 -0.2603 -0.0608  0.1248
  627MPD2    C3 9285   0.805   4.483  14.303 -0.4158  0.0325 -0.0892
  627MPD2    C4 9286   0.778   4.510  14.171 -0.1336  0.3049 -0.4934
  627MPD2    C5 9287   0.804   4.640  14.131  0.8008  0.6432 -0.3502
  627MPD2     H 9288   0.893   4.531  14.482 -1.6465  0.0909  0.4536
  627MPD2    H1 9289   0.711   4.462  14.101 -0.2183  0.2865 -0.3995
  627MPD2    H2 9290   0.868   0.112  14.161  0.8318 -0.0911 -0.1701
  627MPD2    H3 9291   0.773   4.668  14.031  2.6810 -1.1333 -1.4327
  627MPD2     N 9292   0.766   4.361  14.361 -0.2791 -0.5815 -0.6428
  627MPD2    H5 9293   0.788   4.351  14.460 -0.8780 -1.4362 -0.5981
  627MPD2    N1 9294   0.981   0.066  14.415  0.2402  0.4263 -0.1059
  627MPD2    H7 9295   1.018   0.148  14.369  0.0195  0.3470 -0.4271
  628TMC3    C1 9296   1.154   0.139  14.552 -0.1738  0.7243 -0.4153
  628TMC3    C2 9297   1.277   0.099  14.600  0.0164  0.3518 -0.2915
  628TMC3    C3 9298   1.388   0.170  14.565 -0.5449 -0.3349 -0.3470
  628TMC3    C4 9299   1.138   0.261  14.496  0.0160 -0.7749  0.3878
  628TMC3    C5 9300   1.248   0.341  14.484 -0.0232  0.2063 -0.5598
  628TMC3    C6 9301   1.379   0.290  14.496 -0.2203 -0.1251  0.4158
  628TMC3     C 9302   1.053   0.042  14.532  0.3806 -0.2588  0.1771
  628TMC3     O 9303   1.040   4.669  14.609 -0.2264  0.4606 -0.5733
  628TMC3     H 9304   1.277   0.001  14.647 -0.8495  0.8906  0.8405
  628TMC3    H1 9305   1.036   0.292  14.477  0.3035 -0.7718 -1.1153
  628TMC3    H2 9306   1.463   0.359  14.490  0.3834 -0.8252  0.9979
  628TMC3    C7 9307   1.235   0.482  14.455 -0.0229  0.3555  0.2559
  628TMC3    C8 9308   1.507   0.117  14.621 -0.0699  0.1014 -0.7089
  628TMC3    O1 9309   1.338   0.552  14.456 -0.0193 -0.4725 -0.1841
  628TMC3    O2 9310   1.493   0.027  14.701  0.2858 -0.4742  0.1888
  629MPD2     C 9311   3.323   2.819  16.400  0.1705 -0.7131 -0.1315
  629MPD2    C1 9312   3.389   2.929  16.351 -0.6096 -0.6236  0.0170
  629MPD2    C2 9313   3.320   3.042  16.306 -0.0263 -0.5119 -0.1173
  629MPD2    C3 9314   3.182   3.032  16.294 -0.1265  0.7690  0.7151
  629MPD2    C4 9315   3.124   2.922  16.345  0.8275  0.4679  0.2694
  629MPD2    C5 9316   3.187   2.812  16.395 -0.2103 -0.3519 -0.7500
  629MPD2     H 9317   3.377   3.125  16.267 -0.8262  0.1451  0.0890
  629MPD2    H1 9318   3.016   2.907  16.339  0.7271  0.6958  1.4833
  629MPD2    H2 9319   3.380   2.731  16.430 -0.1237 -0.9928 -0.3889
  629MPD2    H3 9320   3.143   2.718  16.428  0.4510 -0.9084 -1.4293
  629MPD2     N 9321   3.102   3.136  16.246  0.3322  0.1935  0.6340
  629MPD2    H5 9322   3.002   3.124  16.259  0.1157 -0.2402 -1.4888
  629MPD2    N1 9323   3.531   2.919  16.348 -0.2722 -0.5497  0.3263
  629MPD2    H7 9324   3.565   2.824  16.356 -0.5766 -0.6483  0.4407
  630TMC3    C1 9325   3.760   2.962  16.337 -0.4011 -0.0289 -0.0033
  630TMC3    C2 9326   3.863   3.039  16.283 -0.6306 -0.1328  0.0300
  630TMC3    C3 9327   3.996   3.001  16.295 -0.0774  0.3097 -0.4909
  630TMC3    C4 9328   3.783   2.840  16.404  0.5408  0.4906  0.2751
  630TMC3    C5 9329   3.914   2.816  16.430  0.2056 -0.1331 -0.6134
  630TMC3    C6 9330   4.017   2.884  16.367  0.7827 -0.2925  0.2305
  630TMC3     C 9331   3.626   3.018  16.330  0.1911 -0.2547 -0.9257
  630TMC3     O 9332   3.606   3.137  16.301 -0.0719  0.1533 -0.0323
  630TMC3     H 9333   3.838   3.136  16.243 -1.3808  0.1864  1.2918
  630TMC3    H1 9334   3.704   2.809  16.472  0.9362 -2.0628 -0.4501
  630TMC3    H2 9335   4.120   2.852  16.378  1.2350  0.0749 -2.7156
  630TMC3    C7 9336   3.957   2.692  16.483  0.1677 -0.3390 -0.7966
  630TMC3    C8 9337   4.112   3.086  16.286  0.0655  0.8006  0.2337
  630TMC3    O1 9338   4.074   2.682  16.509 -0.0200  0.0812 -0.1738
  630TMC3    O2 9339   4.204   3.063  16.357 -0.2153 -0.1794  0.1640
  631MPD2     C 9340   1.757   2.555  15.648  0.5451  0.1394  0.5240
  631MPD2    C1 9341   1.801   2.568  15.518  0.2550 -0.2025  0.5068
  631MPD2    C2 9342   1.939   2.564  15.504 -0.4297  0.8125  0.1607
  631MPD2    C3 9343   2.023   2.566  15.612  0.6236  0.4596 -0.6605
  631MPD2    C4 9344   1.974   2.547  15.741  0.5697 -0.0073 -0.1887
  631MPD2    C5 9345   1.839   2.534  15.755  0.2451 -0.3256  0.1675
  631MPD2     H 9346   1.991   2.578  15.410  0.1918 -1.4663  0.1611
  631MPD2    H1 9347   2.047   2.541  15.821 -1.0944  2.1613  1.4749
  631MPD2    H2 9348   1.650   2.548  15.666 -0.0918 -0.8834 -3.5833
  631MPD2    H3 9349   1.808   2.521  15.858 -0.8577  2.0478  0.1405
  631MPD2     N 9350   2.164   2.578  15.580  0.0485  0.0714 -0.1793
  631MPD2    H5 9351   2.187   2.574  15.481  2.1453  0.1960  0.3236
  631MPD2    N1 9352   1.715   2.586  15.407  0.1053  0.1172  0.2477
  631MPD2    H7 9353   1.616   2.596  15.430  0.2397  0.8063  0.5141
  632TMC3    C1 9354   1.659   2.625  15.175 -0.2129  0.3826  0.5738
  632TMC3    C2 9355   1.566   2.719  15.205 -0.0747  0.9139  0.6012
  632TMC3    C3 9356   1.528   2.813  15.120  0.1640  0.1089  0.1574
  632TMC3    C4 9357   1.711   2.627  15.048 -0.3916 -0.3128  0.2477
  632TMC3    C5 9358   1.673   2.729  14.962  0.1930 -0.1919  0.4637
  632TMC3    C6 9359   1.586   2.822  14.999  0.1827 -0.1107 -0.0882
  632TMC3     C 9360   1.758   2.589  15.279  0.2294  0.2187  0.4213
  632TMC3     O 9361   1.865   2.551  15.228 -0.1072 -0.5619  0.1758
  632TMC3     H 9362   1.519   2.702  15.301 -1.4164 -1.0405 -0.4076
  632TMC3    H1 9363   1.779   2.548  15.018  0.0175  0.1011  0.0898
  632TMC3    H2 9364   1.545   2.898  14.934  1.3119  1.4556  1.0198
  632TMC3    C7 9365   1.767   2.778  14.868  0.2881 -0.5928 -0.0986
  632TMC3    C8 9366   1.454   2.926  15.179  0.5756 -0.1412 -0.0368
  632TMC3    O1 9367   1.745   2.895  14.839  0.4917  0.3106 -0.5326
  632TMC3    O2 9368   1.471   2.939  15.300 -0.2393  0.5109  0.6816
  633MPD2     C 9369   1.856   0.748  17.435 -0.3817 -0.1267 -0.2652
  633MPD2    C1 9370   1.881   0.699  17.308 -0.6166  0.1427 -0.1325
  633MPD2    C2 9371   1.884   0.558  17.290  0.2138 -0.2165  0.5184
  633MPD2    C3 9372   1.845   0.476  17.398 -0.0506  0.2924 -0.3762
  633MPD2    C4 9373   1.817   0.527  17.523 -0.5040  0.2736  0.3231
  633MPD2    C5 9374   1.835   0.662  17.542 -0.6188 -1.0305 -0.2308
  633MPD2     H 9375   1.893   0.507  17.195  0.0743  0.6182  0.0599
  633MPD2    H1 9376   1.779   0.462  17.601 -0.9163 -0.2754 -0.3354
  633MPD2    H2 9377   1.858   0.853  17.459  2.1341  0.1659 -1.7886
  633MPD2    H3 9378   1.829   0.704  17.642  1.2740 -1.4853  0.0706
  633MPD2     N 9379   1.847   0.337  17.395 -0.0708 -0.2647 -0.4460
  633MPD2    H5 9380   1.814   0.277  17.470 -1.1747  0.5786 -0.2699
  633MPD2    N1 9381   1.915   0.787  17.201 -0.2644  0.0098 -0.0153
  633MPD2    H7 9382   1.922   0.746  17.108  0.2722 -1.5226  0.6977
  634TMC3    C1 9383   1.941   0.979  17.069  0.0569  0.1750  0.2010
  634TMC3    C2 9384   2.023   0.906  16.987  0.1776  0.2792 -0.1415
  634TMC3    C3 9385   2.081   0.969  16.883  0.2629  0.2642  0.1651
  634TMC3    C4 9386   1.902   1.110  17.041  0.9524  0.6718 -0.0343
  634TMC3    C5 9387   1.964   1.167  16.931  0.1222 -0.7592  0.2987
  634TMC3    C6 9388   2.056   1.099  16.856 -1.1395  0.0851 -0.5135
  634TMC3     C 9389   1.904   0.924  17.202  0.1245 -0.4205 -0.7792
  634TMC3     O 9390   1.864   1.005  17.286  0.5455 -0.2411 -0.1591
  634TMC3     H 9391   2.066   0.814  17.023 -0.1344  1.2538  2.7485
  634TMC3    H1 9392   1.834   1.164  17.105  1.2971 -0.2988  1.1552
  634TMC3    H2 9393   2.105   1.128  16.763  1.6868  2.0068  1.5941
  634TMC3    C7 9394   1.923   1.300  16.885  0.4917 -0.4512 -0.3109
  634TMC3    C8 9395   2.150   0.873  16.799  0.2294  0.2825 -0.5971
  634TMC3    O1 9396   1.978   1.338  16.787  0.4826 -0.0045 -0.1147
  634TMC3    O2 9397   2.129   0.752  16.823 -0.2513 -0.2378 -0.7003
  635TMC3    C1 9398   2.582   2.264  16.812 -0.0984  0.5432  0.2113
  635TMC3    C2 9399   2.673   2.178  16.873  0.5575 -0.3324  0.0825
  635TMC3    C3 9400   2.750   2.097  16.783  0.3312  0.2318  0.3199
  635TMC3    C4 9401   2.559   2.258  16.670  0.1060 -0.0197 -0.4860
  635TMC3    C5 9402   2.631   2.163  16.597 -0.3074  0.2040  0.0070
  635TMC3    C6 9403   2.725   2.091  16.653  0.2301  0.7543  0.0121
  635TMC3     C 9404   2.486   2.324  16.899  0.2713  0.0095  0.2059
  635TMC3     O 9405   2.494   2.305  17.022 -0.5818 -0.6964 -0.0008
  635TMC3     H 9406   2.683   2.173  16.981  1.1428  3.1099  0.1850
  635TMC3    H1 9407   2.471   2.300  16.623  1.7230  0.6412 -2.9061
  635TMC3    H2 9408   2.776   2.019  16.590 -1.3787  0.1694 -0.6077
  635TMC3    C7 9409   2.604   2.148  16.455  0.0886 -0.3219 -0.2676
  635TMC3    C8 9410   2.882   2.054  16.819 -0.4535  0.5687 -0.0116
  635TMC3    O1 9411   2.677   2.067  16.396 -0.0704 -0.2044  0.0719
  635TMC3    O2 9412   2.943   1.982  16.738 -0.3661 -0.0022 -0.3911
  636MPD2     C 9413   3.186   1.115  15.797 -0.1668 -0.0375  0.0799
  636MPD2    C1 9414   3.180   1.124  15.927  0.1443 -0.2166  0.2962
  636MPD2    C2 9415   3.165   1.010  16.003 -0.0296 -1.3550 -0.2013
  636MPD2    C3 9416   3.148   0.889  15.942 -0.1531  0.9460  0.4701
  636MPD2    C4 9417   3.130   0.880  15.805 -0.2917 -0.3474  0.1699
  636MPD2    C5 9418   3.164   0.996  15.735 -0.1624  0.3066  0.3603
  636MPD2     H 9419   3.170   1.010  16.111 -0.5145 -0.8631 -0.1791
  636MPD2    H1 9420   3.116   0.790  15.746 -2.0420  0.1750 -0.2027
  636MPD2    H2 9421   3.226   1.197  15.740  2.7326 -1.5084  0.0209
  636MPD2    H3 9422   3.164   0.980  15.628  0.9438  0.9704  0.2670
  636MPD2     N 9423   3.141   0.773  16.026  0.5938  0.6772 -0.1940
  636MPD2    H5 9424   3.153   0.784  16.127 -0.2212 -0.8212  0.0657
  636MPD2    N1 9425   3.213   1.248  15.992  0.1020  0.5229 -0.4170
  636MPD2    H7 9426   3.218   1.256  16.093 -0.1689 -2.3313 -0.1801
  637TMC3    C1 9427   3.151   0.574  16.107  0.1808 -0.2258  0.2585
  637TMC3    C2 9428   3.109   0.623  16.226 -0.6341 -0.4276 -0.6105
  637TMC3    C3 9429   3.169   0.570  16.338 -0.1460 -0.3119  0.1883
  637TMC3    C4 9430   3.245   0.482  16.086 -0.4403  0.3205 -0.2326
  637TMC3    C5 9431   3.318   0.450  16.193 -0.1979 -0.3990 -0.1559
  637TMC3    C6 9432   3.263   0.474  16.322  0.1632 -0.3116 -0.2473
  637TMC3     C 9433   3.127   0.648  15.980  0.4986 -0.3075 -0.1095
  637TMC3     O 9434   3.123   0.594  15.872  0.2975  0.0616 -0.1294
  637TMC3     H 9435   3.066   0.721  16.246  0.2637 -0.1512 -0.0328
  637TMC3    H1 9436   3.280   0.457  15.987 -2.0463 -1.1239 -0.4378
  637TMC3    H2 9437   3.322   0.455  16.411 -0.0390  1.5729  0.2791
  637TMC3    C7 9438   3.456   0.505  16.199  0.0640  0.4602 -0.3232
  637TMC3    C8 9439   3.230   0.676  16.418  0.0244 -0.8247 -0.0173
  637TMC3    O1 9440   3.516   0.503  16.304  0.9070  0.1476  0.4314
  637TMC3    O2 9441   3.300   0.749  16.349  0.0895  0.2897  0.4314
  638MPD2     C 9442   3.106   0.454  14.925 -0.2400  0.3676 -0.5024
  638MPD2    C1 9443   3.098   0.350  14.838  0.4947 -0.7858 -0.4821
  638MPD2    C2 9444   3.074   0.229  14.899  0.2696  0.4615  0.0661
  638MPD2    C3 9445   3.047   0.213  15.028  0.0843 -0.6233 -0.3277
  638MPD2    C4 9446   3.066   0.321  15.110 -0.5627 -0.0995  0.0378
  638MPD2    C5 9447   3.094   0.442  15.057 -0.0377 -0.3004  0.1477
  638MPD2     H 9448   3.048   0.141  14.840  1.9994 -0.3638  0.5600
  638MPD2    H1 9449   3.065   0.317  15.219  0.5017 -0.5562  0.0338
  638MPD2    H2 9450   3.122   0.557  14.895  1.5692  0.1797 -0.2046
  638MPD2    H3 9451   3.134   0.517  15.124 -0.2261 -0.3561  0.3196
  638MPD2     N 9452   3.003   0.092  15.078  0.4548  0.2482  0.6998
  638MPD2    H5 9453   3.011   0.015  15.012 -0.2887 -0.4469  1.4261
  638MPD2    N1 9454   3.112   0.369  14.698 -0.1448 -0.0355  0.1219
  638MPD2    H7 9455   3.115   0.465  14.664  2.3848 -0.8576 -2.0049
  639TMC3    C1 9456   2.912   4.659  15.210 -0.6244 -0.4971  0.1631
  639TMC3    C2 9457   2.820   4.602  15.130  0.1528  0.3363  0.0310
  639TMC3    C3 9458   2.810   4.464  15.153 -0.1181  0.5029  0.8406
  639TMC3    C4 9459   2.988   4.593  15.301 -0.3683 -0.0254  0.0936
  639TMC3    C5 9460   2.993   4.455  15.300 -0.0370  0.5882  0.6202
  639TMC3    C6 9461   2.896   4.391  15.231  0.4303  0.3071 -1.2004
  639TMC3     C 9462   2.944   0.076  15.196 -0.3039  0.5114 -0.3521
  639TMC3     O 9463   2.937   0.148  15.295 -0.1344 -0.1415 -0.7094
  639TMC3     H 9464   2.765   4.658  15.056 -0.7008 -0.0026  0.4090
  639TMC3    H1 9465   3.065   4.651  15.351 -1.5812  0.5727  1.2595
  639TMC3    H2 9466   2.911   4.285  15.212 -0.3119  0.0134 -0.2030
  639TMC3    C7 9467   3.127   4.428  15.241 -0.1695 -0.3616 -0.1948
  639TMC3    C8 9468   2.764   4.392  15.044  0.1555 -0.1831 -0.1154
  639TMC3    O1 9469   3.162   4.484  15.137  0.1189  0.5313 -0.2267
  639TMC3    O2 9470   2.776   4.441  14.933 -0.4784 -0.2785  0.1595
  640MPD2     C 9471   3.706   3.826   9.725  0.1855  0.3384  0.0018
  640MPD2    C1 9472   3.776   3.939   9.706  0.1477 -0.0182  0.1701
  640MPD2    C2 9473   3.705   4.056   9.691  0.7983 -0.0365 -0.2939
  640MPD2    C3 9474   3.561   4.055   9.670 -0.5111 -0.1904  0.1258
  640MPD2    C4 9475   3.496   3.937   9.680 -0.8837  0.0152 -0.4400
  640MPD2    C5 9476   3.567   3.826   9.709  0.3045 -0.0574  0.2565
  640MPD2     H 9477   3.758   4.150   9.682 -2.8372  2.0278 -0.2068
  640MPD2    H1 9478   3.388   3.941   9.666 -0.9398 -3.6791 -1.0588
  640MPD2    H2 9479   3.755   3.729   9.724 -1.1819 -0.3669  0.5411
  640MPD2    H3 9480   3.522   3.728   9.704 -2.7670  1.4061 -0.7915
  640MPD2     N 9481   3.484   4.171   9.649  0.2895  0.3333 -0.1779
  640MPD2    H5 9482   3.383   4.162   9.644  0.2265  0.4958  0.8570
  640MPD2    N1 9483   3.914   3.932   9.724  0.2902 -0.5427  0.2258
  640MPD2    H7 9484   3.950   3.839   9.745  3.9942  0.4438 -1.6300
  641TMC3    C1 9485   4.134   3.964   9.670 -0.1463  0.4889 -0.5290
  641TMC3    C2 9486   4.163   3.845   9.733  0.5897  0.3174 -0.4563
  641TMC3    C3 9487   4.284   3.785   9.711 -0.5162  0.6752  0.0664
  641TMC3    C4 9488   4.215   4.023   9.583 -0.7630  0.5541 -0.2557
  641TMC3    C5 9489   4.342   3.964   9.576 -0.6863  0.5796  0.9734
  641TMC3    C6 9490   4.376   3.842   9.629 -0.3018 -0.1569 -0.6577
  641TMC3     C 9491   4.000   4.029   9.685  0.3043  0.2446  0.8002
  641TMC3     O 9492   3.982   4.140   9.634 -0.6236 -0.1892  0.2980
  641TMC3     H 9493   4.100   3.815   9.816 -1.1432 -0.9424 -2.2379
  641TMC3    H1 9494   4.187   4.108   9.521 -1.9425  0.5991  0.3404
  641TMC3    H2 9495   4.480   3.814   9.640 -0.9114 -2.6837 -1.3035
  641TMC3    C7 9496   4.450   4.024   9.502 -0.7151  0.3045  0.5119
  641TMC3    C8 9497   4.306   3.661   9.779  0.1913 -0.6333 -1.2131
  641TMC3    O1 9498   4.553   3.962   9.491 -0.2504  0.1990 -0.2688
  641TMC3    O2 9499   4.208   3.591   9.790 -0.0573 -0.0252  0.0825
  642TMC3    C1 9500   4.467   0.011  12.389  0.4296 -0.1591 -0.0059
  642TMC3    C2 9501   4.577   4.655  12.396  0.2232  0.2668  0.2269
  642TMC3    C3 9502   4.544   4.521  12.390  0.4145 -0.5540  0.0437
  642TMC3    C4 9503   4.341   4.685  12.367  0.2961 -0.3198  0.2156
  642TMC3    C5 9504   4.325   4.553  12.365 -0.0681 -1.1037 -0.2640
  642TMC3    C6 9505   4.425   4.463  12.378  0.0831 -0.0279 -0.7808
  642TMC3     C 9506   4.489   0.156  12.407  0.4858  0.0199  0.2601
  642TMC3     O 9507   4.598   0.204  12.377  0.2363  0.0166 -0.4349
  642TMC3     H 9508   4.663   4.701  12.443  0.5490  0.6066 -0.6915
  642TMC3    H1 9509   4.254   0.026  12.357 -0.6677 -1.6167  0.3576
  642TMC3    H2 9510   4.413   4.358  12.357 -1.6617  0.2095 -1.0152
  642TMC3    C7 9511   4.199   4.499  12.327  1.0028  0.4221  0.3951
  642TMC3    C8 9512   4.660   4.427  12.396  0.4215  0.4272  0.6090
  642TMC3    O1 9513   4.135   4.564  12.249  0.2376 -0.2750 -0.5011
  642TMC3    O2 9514   4.631   4.312  12.428 -0.4695 -0.0438 -0.0836
  643TMC3    C1 9515   3.877   3.218   0.268  1.3356  1.1676  0.1772
  643TMC3    C2 9516   3.795   3.161   0.167 -0.3862 -0.3848 -0.2197
  643TMC3    C3 9517   3.820   3.178   0.037  0.2275  0.3605 -0.8352
  643TMC3    C4 9518   3.994   3.290   0.238 -0.7523  0.4634  0.2739
  643TMC3    C5 9519   4.011   3.307   0.105 -0.1536 -0.9983  0.2759
  643TMC3    C6 9520   3.929   3.256   0.004 -0.1493 -0.4937  0.0798
  643TMC3     C 9521   3.802   3.240   0.391  0.1739 -0.3472 -0.3884
  643TMC3     O 9522   3.691   3.188   0.405  0.6242  0.1195  0.4086
  643TMC3     H 9523   3.700   3.116   0.193 -0.7664 -0.7140 -2.1518
  643TMC3    H1 9524   4.055   3.338   0.313 -3.0792  1.1404  1.7586
  643TMC3    H2 9525   3.941   3.291  17.595  1.0802  0.1470  0.4416
  643TMC3    C7 9526   4.119   3.386   0.060  0.1079  0.1011  0.4391
  643TMC3    C8 9527   3.700   3.205  17.655  0.2907 -0.0563 -0.0953
  643TMC3    O1 9528   4.104   3.428  17.638  0.2891  0.0642  0.2832
  643TMC3    O2 9529   3.652   3.106  17.596  0.3737  0.4629 -0.1661
  644MPD2     C 9530   0.554   3.989   9.948 -0.0443 -0.0757  0.1391
  644MPD2    C1 9531   0.439   3.916   9.975 -0.0914 -0.9159  0.5287
  644MPD2    C2 9532   0.321   3.954   9.916 -0.6114  0.8996 -0.0334
  644MPD2    C3 9533   0.321   4.057   9.828 -0.5587  0.3361 -0.2283
  644MPD2    C4 9534   0.434   4.136   9.812 -0.5553  0.3452  0.4944
  644MPD2    C5 9535   0.557   4.095   9.864  0.4026  0.6378  1.0877
  644MPD2     H 9536   0.226   3.903   9.924 -0.9918  1.3464 -1.6562
  644MPD2    H1 9537   0.438   4.226   9.751 -1.9395  0.7353  0.9862
  644MPD2    H2 9538   0.651   3.965   9.989  0.1517 -1.1946 -0.9709
  644MPD2    H3 9539   0.650   4.146   9.840 -0.0039  1.2776  0.8786
  644MPD2     N 9540   0.195   4.085   9.766  0.3819  0.2090 -0.1540
  644MPD2    H5 9541   0.125   4.017   9.796  0.3036  1.3349  2.2708
  644MPD2    N1 9542   0.443   3.806  10.067  0.2821  0.2705 -0.3865
  644MPD2    H7 9543   0.534   3.794  10.110 -0.7602  0.1643  1.7873
  645TMC3    C1 9544   0.012   4.218   9.700  0.6923 -0.4400  0.7511
  645TMC3    C2 9545   4.656   4.140   9.787 -0.5069 -0.1259  0.0093
  645TMC3    C3 9546   4.531   4.190   9.823 -0.0049  0.4802  0.3037
  645TMC3    C4 9547   4.700   4.345   9.660 -0.1536 -0.3205  0.3354
  645TMC3    C5 9548   4.581   4.395   9.710 -0.8361  0.3318  0.1040
  645TMC3    C6 9549   4.491   4.317   9.779 -0.4708  0.2035 -1.1395
  645TMC3     C 9550   0.160   4.201   9.703  0.2035 -0.2155  1.0852
  645TMC3     O 9551   0.235   4.297   9.680 -0.9919  0.1991  0.0625
  645TMC3     H 9552   4.685   4.037   9.807 -0.5614  0.3343  2.4348
  645TMC3    H1 9553   0.045   4.398   9.594 -0.9535 -1.2523 -1.2213
  645TMC3    H2 9554   4.392   4.356   9.802  0.1274  1.4816 -0.7574
  645TMC3    C7 9555   4.551   4.531   9.690 -0.5851  0.1462  0.2401
  645TMC3    C8 9556   4.442   4.107   9.907  0.3377 -0.1633 -0.5354
  645TMC3    O1 9557   4.654   4.592   9.658 -0.4758  0.0712 -0.4651
  645TMC3    O2 9558   4.325   4.140   9.916 -0.5512  0.3546 -0.3090
  646MPD2     C 9559   3.313   3.819  14.491  0.4472  0.0535 -0.4478
  646MPD2    C1 9560   3.215   3.813  14.582 -0.1224 -1.2884 -0.0941
  646MPD2    C2 9561   3.091   3.868  14.548 -0.9782 -0.6221  0.1519
  646MPD2    C3 9562   3.066   3.910  14.422 -0.0973  0.5661  0.8164
  646MPD2    C4 9563   3.165   3.911  14.332 -0.0136  0.0614 -0.4846
  646MPD2    C5 9564   3.286   3.856  14.366  0.6466  0.1077 -0.1943
  646MPD2     H 9565   3.003   3.873  14.611 -2.9798  1.3850 -2.8729
  646MPD2    H1 9566   3.154   3.959  14.235 -2.3352  1.3132  0.4025
  646MPD2    H2 9567   3.417   3.808  14.521  0.4723 -0.0086 -0.5577
  646MPD2    H3 9568   3.366   3.859  14.293  1.2732 -3.4537  0.3451
  646MPD2     N 9569   2.932   3.958  14.388  0.8053  1.0990 -0.1715
  646MPD2    H5 9570   2.860   3.950  14.460 -0.4794  0.6517 -1.5112
  646MPD2    N1 9571   3.248   3.770  14.713 -0.4931  0.0455 -0.2385
  646MPD2    H7 9572   3.345   3.740  14.719 -0.1231  1.3238  0.1344
  647TMC3    C1 9573   3.204   3.661  14.915 -0.1408  0.0901 -0.4638
  647TMC3    C2 9574   3.131   3.550  14.950 -0.2068  0.0595  0.2792
  647TMC3    C3 9575   3.189   3.465  15.036 -0.5254  0.0840  0.0015
  647TMC3    C4 9576   3.331   3.681  14.951 -0.2048  0.2121 -0.4159
  647TMC3    C5 9577   3.376   3.588  15.040 -0.7957  0.4048  0.7656
  647TMC3    C6 9578   3.315   3.478  15.079  1.1796 -0.2762 -0.2491
  647TMC3     C 9579   3.150   3.738  14.809  0.4338 -0.3268 -0.2103
  647TMC3     O 9580   3.028   3.737  14.796 -0.3405  1.0103  0.6747
  647TMC3     H 9581   3.029   3.536  14.917  0.2511  2.8046 -2.3624
  647TMC3    H1 9582   3.381   3.774  14.925 -2.0379  1.0291 -0.9907
  647TMC3    H2 9583   3.348   3.426  15.168 -1.0029 -1.0538  0.0953
  647TMC3    C7 9584   3.517   3.591  15.072  0.7873 -0.3806  0.2554
  647TMC3    C8 9585   3.117   3.347  15.082  0.2801 -0.3854 -0.0075
  647TMC3    O1 9586   3.562   3.536  15.171  0.6499  0.4837  0.4662
  647TMC3    O2 9587   3.191   3.265  15.132 -0.4905 -0.3473  0.0928
  648TMC3    C1 9588   2.593   1.292  16.102  0.5877  0.3319 -0.7870
  648TMC3    C2 9589   2.620   1.165  16.071 -0.8393  0.6251  0.9809
  648TMC3    C3 9590   2.565   1.107  15.960  0.6114 -0.2964 -0.1749
  648TMC3    C4 9591   2.496   1.352  16.032 -0.4328  0.0694  0.0446
  648TMC3    C5 9592   2.437   1.288  15.926  0.0436 -0.7717 -0.1402
  648TMC3    C6 9593   2.466   1.165  15.883 -0.7031 -0.1400  0.1255
  648TMC3     C 9594   2.589   1.334  16.243  0.3080  0.0757  0.7660
  648TMC3     O 9595   2.541   1.442  16.268 -0.6958 -0.5327  0.3508
  648TMC3     H 9596   2.689   1.111  16.135 -0.4693  0.5580  0.5307
  648TMC3    H1 9597   2.484   1.459  16.044  0.5841 -0.2193  3.4870
  648TMC3    H2 9598   2.412   1.126  15.797  1.2057 -0.5034 -0.8944
  648TMC3    C7 9599   2.319   1.346  15.872 -0.6635  0.0212 -0.8235
  648TMC3    C8 9600   2.604   0.973  15.921  0.2422  0.2433 -0.7084
  648TMC3    O1 9601   2.284   1.313  15.760  1.1792 -0.8095  0.5230
  648TMC3    O2 9602   2.712   0.925  15.960  0.0712  0.9280 -0.1088
  649TMC3    C1 9603   1.123   2.430  12.706 -0.0650 -0.1673  0.7699
  649TMC3    C2 9604   1.212   2.525  12.681 -1.6832  0.7399 -0.0742
  649TMC3    C3 9605   1.332   2.521  12.753 -0.7762 -0.0455  0.9770
  649TMC3    C4 9606   1.144   2.323  12.787 -0.3523 -0.0889 -0.4084
  649TMC3    C5 9607   1.269   2.309  12.844  0.1382 -0.5377 -0.2940
  649TMC3    C6 9608   1.366   2.409  12.832  0.1308 -1.8205  0.1253
  649TMC3     C 9609   1.001   2.430  12.640  0.2335  0.2117  0.4562
  649TMC3     O 9610   0.963   2.543  12.613  1.1162  0.6089 -0.4406
  649TMC3     H 9611   1.194   2.598  12.603 -4.2066  0.1941  0.0038
  649TMC3    H1 9612   1.070   2.247  12.811 -1.0621 -0.2012 -2.9874
  649TMC3    H2 9613   1.460   2.392  12.883  0.4963  0.0379  0.0554
  649TMC3    C7 9614   1.283   2.196  12.941  0.2286 -0.0865  0.0121
  649TMC3    C8 9615   1.438   2.615  12.708 -0.4323 -0.6783  0.1708
  649TMC3    O1 9616   1.339   2.208  13.049 -0.1085 -0.5139  0.0944
  649TMC3    O2 9617   1.411   2.685  12.609  0.9554  0.5851 -0.0157
  650TMC3    C1 9618   3.744   4.153  12.781  0.3623 -0.3474  0.2663
  650TMC3    C2 9619   3.776   4.287  12.763 -0.3566 -0.1438  0.5223
  650TMC3    C3 9620   3.723   4.359  12.668  0.7310  0.0152  0.2138
  650TMC3    C4 9621   3.659   4.094  12.687  0.3235 -0.1940 -0.2624
  650TMC3    C5 9622   3.606   4.172  12.586  0.5908 -0.7767  0.4436
  650TMC3    C6 9623   3.640   4.304  12.577  1.4399 -0.1381 -0.0100
  650TMC3     C 9624   3.811   4.070  12.882 -0.1645  0.1845  0.6485
  650TMC3     O 9625   3.872   4.128  12.971 -0.5153  1.0034 -0.2369
  650TMC3     H 9626   3.826   4.343  12.841  0.7241 -0.4496  0.0329
  650TMC3    H1 9627   3.632   3.989  12.685  0.3991 -0.1953 -1.2302
  650TMC3    H2 9628   3.592   4.365  12.501 -0.9625  0.0134  1.6090
  650TMC3    C7 9629   3.548   4.103  12.469  0.7275 -0.1942  0.0859
  650TMC3    C8 9630   3.707   4.495  12.708  0.5426  0.1275 -0.5934
  650TMC3    O1 9631   3.592   3.995  12.434  0.1654 -0.1949 -0.3252
  650TMC3    O2 9632   3.809   4.559  12.721  0.5136  0.1458 -0.1731
  651MPD2     C 9633   3.178   1.114  11.095  0.3765  0.1066  0.4858
  651MPD2    C1 9634   3.129   1.231  11.032 -0.0765 -0.0271 -0.1809
  651MPD2    C2 9635   3.212   1.312  10.959  0.1467 -0.2852  0.5239
  651MPD2    C3 9636   3.346   1.286  10.964 -0.6096  0.7878  0.2073
  651MPD2    C4 9637   3.397   1.178  11.026 -0.9944  0.2707  0.0320
  651MPD2    C5 9638   3.309   1.083  11.068 -0.2759 -0.1504 -0.2976
  651MPD2     H 9639   3.174   1.402  10.910 -0.7881 -0.8058  0.2937
  651MPD2    H1 9640   3.499   1.143  11.014 -0.8552  0.5154  0.4988
  651MPD2    H2 9641   3.113   1.041  11.142  0.4482 -0.8711 -0.9595
  651MPD2    H3 9642   3.352   0.988  11.099 -1.2561  0.0766  1.7940
  651MPD2     N 9643   3.431   1.373  10.888 -0.6285 -0.6953 -0.5625
  651MPD2    H5 9644   3.379   1.441  10.834  2.9130  2.1097 -0.4151
  651MPD2    N1 9645   2.990   1.249  11.026 -0.1305  0.2921 -0.4163
  651MPD2    H7 9646   2.963   1.306  10.947  0.7513  2.1335  0.6297
  652TMC3    C1 9647   3.780   1.668  10.796 -1.1919  0.3694 -0.2506
  652TMC3    C2 9648   3.740   1.550  10.859 -0.0146 -0.5599  0.5054
  652TMC3    C3 9649   3.618   1.499  10.822 -0.3940 -0.7144 -0.4364
  652TMC3    C4 9650   3.711   1.727  10.692 -0.0110 -0.9850 -0.3289
  652TMC3    C5 9651   3.591   1.676  10.658 -0.8740  0.5984  0.5454
  652TMC3    C6 9652   3.542   1.564  10.730  0.3531 -0.3348  0.2562
  652TMC3     C 9653   3.905   1.729  10.854  0.8018  0.0446  0.6715
  652TMC3     O 9654   3.966   1.655  10.927 -0.0206  0.1789 -0.5736
  652TMC3     H 9655   3.808   1.501  10.928  0.1919 -0.4945  0.3464
  652TMC3    H1 9656   3.762   1.807  10.640 -2.1974  1.0792  0.7095
  652TMC3    H2 9657   3.451   1.519  10.693 -0.7313  2.6635 -0.7875
  652TMC3    C7 9658   3.523   1.710  10.533 -0.5415  0.0070  0.0016
  652TMC3    C8 9659   3.568   1.378  10.901  0.2001  0.5600 -0.2185
  652TMC3    O1 9660   3.415   1.649  10.506  0.1723 -0.1017  0.4212
  652TMC3    O2 9661   3.650   1.320  10.960 -0.3793 -0.3208  0.0234
  653MPD2     C 9662   1.661   1.098  17.649  0.2860 -0.8038  0.1657
  653MPD2    C1 9663   1.576   1.180  17.579  0.3290  0.1335  0.8523
  653MPD2    C2 9664   1.500   1.130  17.476  0.1312  0.3361  0.3518
  653MPD2    C3 9665   1.486   0.998  17.447 -0.3759 -0.8226 -0.1700
  653MPD2    C4 9666   1.562   0.912  17.530  0.0679  0.0920  0.5955
  653MPD2    C5 9667   1.650   0.961  17.625 -0.0081 -0.3451  0.1003
  653MPD2     H 9668   1.432   1.200  17.429  0.6392 -0.4471 -1.5457
  653MPD2    H1 9669   1.551   0.805  17.512  1.0055 -0.2672  2.2582
  653MPD2    H2 9670   1.716   1.133   0.043 -1.0551  1.1230  0.2357
  653MPD2    H3 9671   1.702   0.891  17.688  0.0494  0.1614  0.6155
  653MPD2     N 9672   1.407   0.962  17.339 -0.3536 -0.0084 -0.2888
  653MPD2    H5 9673   1.373   1.036  17.279  0.8802  1.0059  0.2554
  653MPD2    N1 9674   1.568   1.322  17.600 -0.7815  0.3432 -0.1262
  653MPD2    H7 9675   1.498   1.374  17.548 -0.2786  0.8189 -0.3274
  654TMC3    C1 9676   1.304   0.839  17.183  0.7030  0.9145 -0.0877
  654TMC3    C2 9677   1.232   0.952  17.149 -0.5158  0.0564  0.2635
  654TMC3    C3 9678   1.153   0.946  17.038  0.3809 -0.5242 -0.0451
  654TMC3    C4 9679   1.298   0.727  17.106 -0.2198  0.7695 -0.6602
  654TMC3    C5 9680   1.216   0.728  16.994 -0.0302  0.1008  0.3022
  654TMC3    C6 9681   1.145   0.837  16.960  0.5122  0.6226 -0.0033
  654TMC3     C 9682   1.394   0.835  17.296 -0.1841  0.2652 -0.4453
  654TMC3     O 9683   1.459   0.730  17.324 -0.4761 -0.7135 -0.6040
  654TMC3     H 9684   1.225   1.043  17.209  1.9266 -0.6583  1.6175
  654TMC3    H1 9685   1.356   0.638  17.126 -0.6867  0.8903  1.1777
  654TMC3    H2 9686   1.086   0.850  16.869 -0.6909  1.3637  0.8844
  654TMC3    C7 9687   1.225   0.628  16.887  0.6274  0.3737 -0.7640
  654TMC3    C8 9688   1.046   1.034  17.040  0.8129  0.1919 -0.4223
  654TMC3    O1 9689   1.193   0.674  16.773  0.6784  0.3459 -0.0226
  654TMC3    O2 9690   0.983   1.058  17.140 -0.4020  0.4142  0.2304
  655MPD2     C 9691   2.718   1.589  15.816 -0.7120  0.3146 -0.3812
  655MPD2    C1 9692   2.615   1.608  15.733  0.1793 -0.2237 -0.0926
  655MPD2    C2 9693   2.604   1.537  15.619 -0.2584 -0.2178 -0.2594
  655MPD2    C3 9694   2.696   1.438  15.585 -0.0524  0.1061  0.1620
  655MPD2    C4 9695   2.799   1.416  15.670 -0.4635 -0.0036  0.1103
  655MPD2    C5 9696   2.802   1.486  15.789  0.2076  0.4279  0.0020
  655MPD2     H 9697   2.514   1.554  15.560 -1.4955 -2.3293  1.0099
  655MPD2    H1 9698   2.860   1.330  15.647 -0.0682  0.2755  0.1138
  655MPD2    H2 9699   2.741   1.638  15.910 -0.2056  1.4794 -1.1154
  655MPD2    H3 9700   2.877   1.461  15.863  0.1856  0.1209 -0.0781
  655MPD2     N 9701   2.688   1.357  15.469 -0.1803  0.1153 -0.2440
  655MPD2    H5 9702   2.763   1.290  15.455 -3.8529 -3.5009 -2.2247
  655MPD2    N1 9703   2.518   1.707  15.756 -0.0863 -0.7045  0.0401
  655MPD2    H7 9704   2.437   1.704  15.694  0.7632  0.0622 -1.0909
  656TMC3    C1 9705   2.387   1.858  15.872  0.6514  0.9031  0.5996
  656TMC3    C2 9706   2.348   1.894  16.001  0.0530 -0.6779  0.2252
  656TMC3    C3 9707   2.213   1.928  16.016  0.5487  0.0217  0.6141
  656TMC3    C4 9708   2.293   1.840  15.766 -0.1550  1.1414  0.4140
  656TMC3    C5 9709   2.165   1.889  15.775 -1.1423  0.7174  0.4919
  656TMC3    C6 9710   2.117   1.932  15.904 -0.6635 -0.2051  0.1804
  656TMC3     C 9711   2.513   1.793  15.863 -0.0834  0.3842 -0.2914
  656TMC3     O 9712   2.583   1.799  15.961 -0.1633 -0.0615  1.0571
  656TMC3     H 9713   2.419   1.888  16.082 -0.0490 -2.2924  0.1947
  656TMC3    H1 9714   2.310   1.814  15.662  0.0512  1.2964  0.4075
  656TMC3    H2 9715   2.018   1.973  15.918  0.2362  1.7374  1.0084
  656TMC3    C7 9716   2.078   1.883  15.652 -1.3497  0.3579 -0.6547
  656TMC3    C8 9717   2.153   1.909  16.146  0.2672 -0.4311  0.1765
  656TMC3    O1 9718   2.122   1.839  15.546  0.8870  0.5225  0.1770
  656TMC3    O2 9719   2.054   1.971  16.172  0.4770  0.1081  0.2204
  657TMC3    C1 9720   1.664   0.594  15.178 -0.2907  0.7227  0.6164
  657TMC3    C2 9721   1.713   0.523  15.285  0.3139  0.4061  0.0269
  657TMC3    C3 9722   1.628   0.478  15.382  0.1769 -0.3657  0.5488
  657TMC3    C4 9723   1.535   0.636  15.172  0.4571  0.8469  0.3008
  657TMC3    C5 9724   1.455   0.583  15.272 -0.0123  0.0396  0.1071
  657TMC3    C6 9725   1.500   0.515  15.386  0.0225  0.9949 -0.3779
  657TMC3     C 9726   1.750   0.636  15.070  0.1382  1.0217  0.2770
  657TMC3     O 9727   1.712   0.717  14.989  0.2953 -0.6357  0.2382
  657TMC3     H 9728   1.819   0.510  15.298  0.3002  0.5218  0.2497
  657TMC3    H1 9729   1.498   0.677  15.078  1.6610  0.3791 -0.3683
  657TMC3    H2 9730   1.445   0.490  15.476  1.4673 -1.6794 -0.2499
  657TMC3    C7 9731   1.310   0.595  15.264 -0.1123  0.2306  0.2079
  657TMC3    C8 9732   1.696   0.470  15.514 -0.0098  0.2775 -0.3571
  657TMC3    O1 9733   1.245   0.525  15.334 -0.6793  0.4849  0.2469
  657TMC3    O2 9734   1.676   0.559  15.597  0.4713 -0.6519 -0.0942
  658MPD2     C 9735   3.156   1.085  15.118  0.2752  0.2629 -0.1173
  658MPD2    C1 9736   3.046   1.115  15.044  0.1790 -0.5653  0.4723
  658MPD2    C2 9737   3.062   1.169  14.926 -0.1724  0.2589 -0.0445
  658MPD2    C3 9738   3.190   1.196  14.873 -0.1465  0.2795 -0.1521
  658MPD2    C4 9739   3.304   1.163  14.940 -0.0991  0.8694  0.0467
  658MPD2    C5 9740   3.287   1.106  15.063 -0.6267  0.0124  0.5120
  658MPD2     H 9741   2.979   1.203  14.865  0.0635 -1.2258 -1.1787
  658MPD2    H1 9742   3.404   1.184  14.905  0.2857 -0.1142  0.5647
  658MPD2    H2 9743   3.141   1.032  15.211 -0.3127  2.5761  1.1135
  658MPD2    H3 9744   3.382   1.077  15.106 -0.8207  0.1974  1.0691
  658MPD2     N 9745   3.183   1.262  14.740  0.7231 -0.2117 -0.0297
  658MPD2    H5 9746   3.091   1.284  14.705  0.3426 -0.2360  0.9621
  658MPD2    N1 9747   2.914   1.089  15.099  0.3757 -0.1382  0.3053
  658MPD2    H7 9748   2.912   1.052  15.194 -1.9580  0.7242  0.6040
  659TMC3    C1 9749   2.685   1.123  15.124  0.1924  0.8035  0.0658
  659TMC3    C2 9750   2.687   1.196  15.241  0.2118  0.0392 -0.4314
  659TMC3    C3 9751   2.575   1.259  15.281 -0.7900  0.3077 -0.4629
  659TMC3    C4 9752   2.568   1.123  15.051 -0.4523  0.3817 -0.2328
  659TMC3    C5 9753   2.459   1.193  15.096  0.0152  0.1359 -0.7601
  659TMC3    C6 9754   2.456   1.258  15.214 -0.3856  0.2393 -0.1995
  659TMC3     C 9755   2.801   1.120  15.035 -0.7652 -0.7112  0.2979
  659TMC3     O 9756   2.776   1.177  14.926 -0.8171  0.0422 -0.1923
  659TMC3     H 9757   2.785   1.204  15.287  0.0516  1.0565 -0.2606
  659TMC3    H1 9758   2.572   1.071  14.956 -2.6333 -2.7700  1.3977
  659TMC3    H2 9759   2.371   1.313  15.252 -0.4322 -0.6147  0.9141
  659TMC3    C7 9760   2.329   1.189  15.027  0.0326  0.4359  0.3088
  659TMC3    C8 9761   2.577   1.362  15.386 -0.2162  0.5027 -0.6314
  659TMC3    O1 9762   2.240   1.247  15.087  0.4701 -0.1357  0.0819
  659TMC3    O2 9763   2.487   1.447  15.380 -0.5088 -0.0658 -0.4044
  660MPD2     C 9764   1.114   4.635  12.702  0.1018  0.8087  0.5133
  660MPD2    C1 9765   0.993   4.695  12.682  0.1014 -0.3325  0.4579
  660MPD2    C2 9766   0.888   4.641  12.747  0.1154 -0.1603  0.4503
  660MPD2    C3 9767   0.894   4.526  12.825 -0.2570 -0.1864  0.6358
  660MPD2    C4 9768   1.015   4.467  12.840  0.3619 -0.2072  0.7458
  660MPD2    C5 9769   1.126   4.526  12.785  0.0528  0.0381 -0.0862
  660MPD2     H 9770   0.791   4.684  12.723  0.8226  1.5831  0.7507
  660MPD2    H1 9771   1.030   4.377  12.898  2.9409  0.6312  1.3855
  660MPD2    H2 9772   1.208   4.679  12.670  1.2991 -2.0631  0.1149
  660MPD2    H3 9773   1.228   4.499  12.810  0.1181 -1.5977 -2.0901
  660MPD2     N 9774   0.777   4.470  12.892 -0.0253 -0.1893  0.0243
  660MPD2    H5 9775   0.789   4.381  12.939 -1.7847 -0.6722 -0.4276
  660MPD2    N1 9776   0.973   0.083  12.600 -0.1033 -0.2412  0.1446
  660MPD2    H7 9777   0.891   0.142  12.603 -0.4109 -0.6439 -0.3073
  661TMC3    C1 9778   1.012   0.223  12.407  0.1629 -0.3062  0.5999
  661TMC3    C2 9779   1.058   0.216  12.276  0.1397  0.9892 -0.2271
  661TMC3    C3 9780   0.985   0.279  12.180  0.1780  0.5506 -0.3235
  661TMC3    C4 9781   0.890   0.278  12.438 -0.0304 -0.5409  0.4156
  661TMC3    C5 9782   0.816   0.332  12.334 -0.0293  1.2086 -0.1718
  661TMC3    C6 9783   0.862   0.330  12.204  0.3622 -0.5933  0.3961
  661TMC3     C 9784   1.059   0.117  12.494 -0.3054 -0.2264  0.1917
  661TMC3     O 9785   1.154   0.055  12.453 -0.1432  0.0599 -0.5040
  661TMC3     H 9786   1.156   0.186  12.242 -0.2678  1.4695 -1.8304
  661TMC3    H1 9787   0.851   0.312  12.533  0.8921  0.1676  0.5307
  661TMC3    H2 9788   0.798   0.384  12.136  0.8443 -0.7171 -0.1531
  661TMC3    C7 9789   0.669   0.341  12.356 -0.5387  0.7491 -0.4700
  661TMC3    C8 9790   1.033   0.279  12.040 -0.1896  0.3057 -0.0319
  661TMC3    O1 9791   0.638   0.345  12.473 -0.1328  0.0135 -0.3230
  661TMC3    O2 9792   1.128   0.205  12.003  0.1864 -0.5260  0.2235
  662MPD2     C 9793   0.936   4.717  16.969 -0.1662 -0.5597  0.6730
  662MPD2    C1 9794   0.929   4.660  17.089  0.1792  0.2383  0.3139
  662MPD2    C2 9795   0.908   0.015  17.202 -0.1430 -0.0761 -0.3978
  662MPD2    C3 9796   0.875   0.149  17.188  0.1165  0.2616  0.3247
  662MPD2    C4 9797   0.884   0.209  17.069 -0.2993  0.1992 -0.0436
  662MPD2    C5 9798   0.919   0.129  16.958 -0.2792  0.5080  0.1379
  662MPD2     H 9799   0.932   4.689  17.296 -1.6398 -0.5555 -0.2686
  662MPD2    H1 9800   0.874   0.316  17.060 -1.6441  0.2557  2.2838
  662MPD2    H2 9801   0.967   4.662  16.881  1.4002  1.7550 -0.2331
  662MPD2    H3 9802   0.923   0.159  16.854  0.1676  0.3697  0.1113
  662MPD2     N 9803   0.828   0.220  17.303 -0.3904  0.5263 -0.7663
  662MPD2    H5 9804   0.784   0.309  17.285  2.2142  2.0648  0.4215
  662MPD2    N1 9805   0.939   4.521  17.115  0.7224  0.3291  0.3010
  662MPD2    H7 9806   0.946   4.495  17.212 -1.6526  0.1686  0.4140
  663TMC3    C1 9807   0.983   4.302  17.088 -0.5893  0.3302  0.2577
  663TMC3    C2 9808   1.068   4.323  17.198 -0.4449 -0.3216 -0.2602
  663TMC3    C3 9809   1.041   4.254  17.316 -0.1849 -0.6666 -0.2234
  663TMC3    C4 9810   0.902   4.199  17.088 -0.4714 -0.3383 -0.4791
  663TMC3    C5 9811   0.890   4.118  17.199 -1.1994 -0.2190 -0.3133
  663TMC3    C6 9812   0.951   4.151  17.316  0.3004 -0.9154  0.2077
  663TMC3     C 9813   0.941   4.423  17.021  0.5454 -0.0330 -0.1314
  663TMC3     O 9814   0.898   4.421  16.908 -0.6595 -0.0582 -0.1728
  663TMC3     H 9815   1.128   4.413  17.196 -0.4194 -0.3956 -2.9064
  663TMC3    H1 9816   0.834   4.187  17.004 -0.2459  1.8824 -0.9788
  663TMC3    H2 9817   0.900   4.122  17.407 -0.7268  1.2492  0.3160
  663TMC3    C7 9818   0.839   3.981  17.181  0.0039  0.8561  0.8011
  663TMC3    C8 9819   1.008   4.352  17.420 -0.6982  0.5797  0.0326
  663TMC3    O1 9820   0.831   3.951  17.063  0.9302 -0.3011  0.1630
  663TMC3    O2 9821   0.988   4.466  17.384  0.3347  0.1713  0.6358
  664MPD2     C 9822   3.756   2.344  17.637 -0.2648  0.1895 -0.0873
  664MPD2    C1 9823   3.881   2.413  17.641  0.4775 -0.3863 -1.0552
  664MPD2    C2 9824   3.949   2.410   0.065 -0.0638  0.2091  0.2179
  664MPD2    C3 9825   3.920   2.321   0.173  0.2819 -0.0205  0.1264
  664MPD2    C4 9826   3.801   2.256   0.164 -0.0146 -0.7637 -0.4175
  664MPD2    C5 9827   3.723   2.265   0.053  0.1396 -0.4393 -0.3105
  664MPD2     H 9828   4.044   2.462   0.072 -0.6731  1.4746 -0.8373
  664MPD2    H1 9829   3.773   2.197   0.250 -0.8910 -0.3023 -0.3833
  664MPD2    H2 9830   3.692   2.331  17.551 -0.4596 -0.7352  0.2017
  664MPD2    H3 9831   3.634   2.205   0.038 -0.1473 -0.0125 -0.3081
  664MPD2     N 9832   3.991   2.319   0.299  0.2730 -0.2494 -0.2625
  664MPD2    H5 9833   4.059   2.394   0.304  1.9072 -1.8196  1.1330
  664MPD2    N1 9834   3.936   2.490  17.541  0.0690  0.1079 -0.8745
  664MPD2    H7 9835   4.023   2.539  17.560  0.4960 -0.9828 -0.0002
  665TMC3    C1 9836   4.031   2.309   0.533 -0.7015  0.9036 -0.4130
  665TMC3    C2 9837   4.046   2.238   0.647 -0.6817  1.0843 -0.7269
  665TMC3    C3 9838   4.108   2.302   0.756  0.1481 -0.3725 -0.4086
  665TMC3    C4 9839   4.062   2.438   0.527 -0.6230 -0.9392 -1.5150
  665TMC3    C5 9840   4.121   2.498   0.634  0.3577  0.0988 -0.2663
  665TMC3    C6 9841   4.143   2.433   0.755  0.0553  0.6759  0.2553
  665TMC3     C 9842   3.967   2.248   0.414 -0.2135 -0.0745 -1.0421
  665TMC3     O 9843   3.894   2.153   0.439 -0.1016 -0.1870 -0.3696
  665TMC3     H 9844   4.012   2.136   0.663  0.6367  0.5895 -1.0447
  665TMC3    H1 9845   4.047   2.493   0.434 -0.9859  2.2134  0.3939
  665TMC3    H2 9846   4.198   2.478   0.837  0.1109 -2.5769  2.0019
  665TMC3    C7 9847   4.095   2.638   0.634 -0.3097 -0.1459  0.3024
  665TMC3    C8 9848   4.101   2.237   0.884 -0.3688  0.2257  0.4324
  665TMC3    O1 9849   4.075   2.697   0.528 -0.1119 -0.1778  0.7863
  665TMC3    O2 9850   4.012   2.151   0.901 -0.3340 -0.8794  0.7277
  666TMC3    C1 9851   3.159   2.795   9.032 -0.0029 -0.3833 -0.3511
  666TMC3    C2 9852   3.280   2.764   9.094 -0.0056 -0.5872 -0.9480
  666TMC3    C3 9853   3.334   2.859   9.176 -0.6849 -0.3551 -0.0187
  666TMC3    C4 9854   3.090   2.908   9.054 -0.0811 -0.3689  0.1637
  666TMC3    C5 9855   3.145   2.996   9.142 -0.3148 -0.3057 -0.2197
  666TMC3    C6 9856   3.271   2.976   9.197  0.1550  0.0313 -0.0964
  666TMC3     C 9857   3.093   2.695   8.953 -0.3334  0.2786  0.6974
  666TMC3     O 9858   3.001   2.728   8.877  0.6366 -0.3709 -0.2073
  666TMC3     H 9859   3.331   2.670   9.073 -1.6575 -1.8275  0.5677
  666TMC3    H1 9860   2.991   2.924   9.013  0.1153 -0.9339 -0.5183
  666TMC3    H2 9861   3.314   3.055   9.258  0.9392  0.2165 -0.8684
  666TMC3    C7 9862   3.060   3.086   9.212 -0.0370 -0.0372  0.9444
  666TMC3    C8 9863   3.432   2.827   9.274  0.0006  0.3755 -0.2075
  666TMC3    O1 9864   3.090   3.109   9.328  0.2487 -0.6253  0.0699
  666TMC3    O2 9865   3.434   2.894   9.377 -0.3165 -0.8121  0.2437
  667MPD2     C 9866   0.405   2.900  14.521  0.3492 -0.1417  0.0072
  667MPD2    C1 9867   0.304   2.929  14.604  0.0001  0.7843  0.3170
  667MPD2    C2 9868   0.188   2.850  14.610  0.0237 -0.8671  0.2293
  667MPD2    C3 9869   0.174   2.738  14.530  0.2362 -0.1920  0.3887
  667MPD2    C4 9870   0.279   2.715  14.440 -0.4442 -0.6896  0.5023
  667MPD2    C5 9871   0.385   2.798  14.436 -0.2105  0.3605  0.3956
  667MPD2     H 9872   0.107   2.882  14.675 -1.2236  0.5528 -2.0126
  667MPD2    H1 9873   0.276   2.634  14.368  3.9428 -0.8142  0.4055
  667MPD2    H2 9874   0.486   2.972  14.513  0.8490 -0.9742 -2.4673
  667MPD2    H3 9875   0.460   2.774  14.362 -0.7366 -0.5829  0.1654
  667MPD2     N 9876   0.064   2.646  14.535 -0.1404 -0.2212  0.0507
  667MPD2    H5 9877   0.077   2.555  14.492 -1.7941 -0.6671  0.5190
  667MPD2    N1 9878   0.314   3.034  14.693  0.6512 -0.9363 -0.2315
  667MPD2    H7 9879   0.247   3.030  14.769 -1.9891  1.1997 -2.4774
  668TMC3    C1 9880   0.409   3.211  14.829 -0.2979 -0.9148  0.4013
  668TMC3    C2 9881   0.470   3.330  14.827  0.2169 -0.0011 -0.2061
  668TMC3    C3 9882   0.484   3.399  14.941  0.8368  0.6000  0.3279
  668TMC3    C4 9883   0.363   3.161  14.947  0.1009 -0.2932 -0.6386
  668TMC3    C5 9884   0.374   3.239  15.059  0.2245 -0.3011  0.7575
  668TMC3    C6 9885   0.430   3.359  15.061 -0.4079 -0.2923 -0.9304
  668TMC3     C 9886   0.414   3.130  14.704 -0.0672 -0.9877  0.1312
  668TMC3     O 9887   0.497   3.162  14.620 -0.3053  0.0091 -1.1476
  668TMC3     H 9888   0.526   3.360  14.739  0.4222  0.7099  0.1628
  668TMC3    H1 9889   0.341   3.056  14.964  0.4198 -0.8410 -3.5041
  668TMC3    H2 9890   0.440   3.413  15.155  2.0377 -1.2932 -0.6302
  668TMC3    C7 9891   0.319   3.200  15.189 -0.4909  0.2089 -0.4083
  668TMC3    C8 9892   0.515   3.540  14.939 -0.5069 -0.3951 -0.7851
  668TMC3    O1 9893   0.376   3.238  15.290  0.1612  0.1164  0.1200
  668TMC3    O2 9894   0.517   3.596  15.046 -0.4243  0.9342 -0.2933
  669TMC3    C1 9895   3.254   2.830  14.534  0.2840 -0.5374 -0.1943
  669TMC3    C2 9896   3.155   2.795  14.445 -0.7485 -0.2244  0.3437
  669TMC3    C3 9897   3.125   2.892  14.350  0.0329  0.1963 -1.0291
  669TMC3    C4 9898   3.337   2.938  14.514  0.6771 -1.0027  0.0366
  669TMC3    C5 9899   3.315   3.012  14.405  0.1870 -0.1500  0.2518
  669TMC3    C6 9900   3.210   2.995  14.314 -0.6250  0.0874  0.6178
  669TMC3     C 9901   3.260   2.734  14.646  0.4341 -0.2695 -0.4754
  669TMC3     O 9902   3.154   2.677  14.664 -0.0653 -0.2307 -0.2725
  669TMC3     H 9903   3.086   2.715  14.466  1.9146 -2.9188 -1.2839
  669TMC3    H1 9904   3.419   2.956  14.582  0.0005 -0.7079  0.7741
  669TMC3    H2 9905   3.191   3.046  14.221  1.6253 -0.5610 -0.1879
  669TMC3    C7 9906   3.419   3.101  14.365  0.2521  0.1247 -0.4836
  669TMC3    C8 9907   2.990   2.895  14.305 -0.5591 -0.2795  0.2537
  669TMC3    O1 9908   3.477   3.163  14.458 -0.2313  0.3363 -0.4210
  669TMC3    O2 9909   2.916   2.794  14.297 -0.1882  0.2488  0.1307
  670MPD2     C 9910   1.638   0.700  13.419 -0.5293 -0.0663 -0.4553
  670MPD2    C1 9911   1.647   0.753  13.549 -0.4220 -0.4044 -0.4459
  670MPD2    C2 9912   1.548   0.711  13.644 -0.3164 -0.2116  0.3001
  670MPD2    C3 9913   1.452   0.614  13.615 -0.6882 -0.3550 -0.3396
  670MPD2    C4 9914   1.445   0.557  13.489 -0.1921 -0.5601  0.2619
  670MPD2    C5 9915   1.535   0.606  13.391 -0.6828 -0.1336  0.5278
  670MPD2     H 9916   1.564   0.754  13.742  3.1836 -2.7997  0.8816
  670MPD2    H1 9917   1.374   0.480  13.461  0.9565 -1.5987  0.1669
  670MPD2    H2 9918   1.703   0.732  13.339 -0.8675  2.3493  0.2490
  670MPD2    H3 9919   1.531   0.560  13.293  0.7975 -0.7728  0.7674
  670MPD2     N 9920   1.355   0.593  13.715 -0.0529 -0.3361 -0.3160
  670MPD2    H5 9921   1.363   0.648  13.800  1.2211  1.5886 -1.6885
  670MPD2    N1 9922   1.745   0.843  13.600  0.4137 -0.6704 -0.1560
  670MPD2    H7 9923   1.714   0.891  13.684  0.2871 -1.8857  0.4818
  671TMC3    C1 9924   1.160   0.512  13.821  0.9302 -0.3993  0.8714
  671TMC3    C2 9925   1.224   0.520  13.939 -1.0534  0.4254  0.7204
  671TMC3    C3 9926   1.166   0.459  14.054 -0.6923 -0.5825  0.9655
  671TMC3    C4 9927   1.037   0.458  13.809  0.0939  0.1526  0.5036
  671TMC3    C5 9928   0.981   0.399  13.915 -0.3776  0.7888  0.2907
  671TMC3    C6 9929   1.038   0.408  14.039  0.3977 -0.9884  0.4088
  671TMC3     C 9930   1.237   0.520  13.702 -0.2282 -0.0503  0.3126
  671TMC3     O 9931   1.191   0.484  13.593  0.0543 -0.1412  0.1150
  671TMC3     H 9932   1.331   0.539  13.933 -1.0670 -0.1383 -1.2030
  671TMC3    H1 9933   0.990   0.441  13.713 -2.2284 -0.0116  1.6744
  671TMC3    H2 9934   0.987   0.345  14.111 -4.6632  1.1946 -1.2070
  671TMC3    C7 9935   0.890   0.298  13.879  0.0363 -0.1871  0.4362
  671TMC3    C8 9936   1.251   0.364  14.117  0.2759 -0.0140 -0.7716
  671TMC3    O1 9937   0.909   0.251  13.769  0.2716 -0.1272 -0.5781
  671TMC3    O2 9938   1.217   0.247  14.110 -0.3527  1.2013 -0.5615
  672MPD2     C 9939   1.982   0.772   0.819 -0.1031  0.5476  0.7471
  672MPD2    C1 9940   1.920   0.648   0.828 -0.5234 -0.1875  0.0205
  672MPD2    C2 9941   1.847   0.615   0.934 -0.6512  0.4480  0.4638
  672MPD2    C3 9942   1.841   0.714   1.039  0.2088 -0.0784 -0.5385
  672MPD2    C4 9943   1.914   0.831   1.040 -0.4863  0.0582  0.0275
  672MPD2    C5 9944   1.981   0.857   0.924  0.2209  0.1705 -0.2137
  672MPD2     H 9945   1.785   0.527   0.930  0.2935 -0.1854 -0.3727
  672MPD2    H1 9946   1.921   0.897   1.126  0.1472 -0.2606  0.2195
  672MPD2    H2 9947   2.059   0.797   0.747 -0.2902  1.4471  0.8615
  672MPD2    H3 9948   2.039   0.949   0.919  1.1033 -0.3753  0.0452
  672MPD2     N 9949   1.762   0.702   1.161  0.3126 -0.0824  0.2864
  672MPD2    H5 9950   1.768   0.775   1.231  0.5650 -0.3487  0.5428
  672MPD2    N1 9951   1.928   0.556   0.715  0.1310 -0.1906  0.1536
  672MPD2    H7 9952   1.877   0.471   0.734  0.8925 -0.9781 -1.3462
  673TMC3    C1 9953   1.934   0.477   0.493  0.8796 -0.1949  0.6540
  673TMC3    C2 9954   1.968   0.350   0.522  0.5240 -0.0965 -0.5970
  673TMC3    C3 9955   1.926   0.255   0.431  0.1434  0.5004 -0.7077
  673TMC3    C4 9956   1.852   0.508   0.387 -0.7138 -0.0733  0.2097
  673TMC3    C5 9957   1.795   0.406   0.312  0.1436  0.4960 -0.5581
  673TMC3    C6 9958   1.848   0.285   0.321  0.6902 -0.6207  0.4023
  673TMC3     C 9959   1.958   0.585   0.588 -0.4529  0.1704  0.1823
  673TMC3     O 9960   1.985   0.693   0.536 -0.0059  0.5394 -0.7831
  673TMC3     H 9961   2.014   0.338   0.620  0.4107  1.2588 -0.3726
  673TMC3    H1 9962   1.818   0.610   0.378 -0.3571 -0.0117 -0.4201
  673TMC3    H2 9963   1.798   0.209   0.262  0.9256 -1.0050  0.6950
  673TMC3    C7 9964   1.692   0.430   0.214 -0.0676 -0.0717 -0.2785
  673TMC3    C8 9965   1.974   0.118   0.437 -0.0075  0.0010  0.1019
  673TMC3    O1 9966   1.666   0.350   0.127  0.0655  0.2552 -0.3673
  673TMC3    O2 9967   1.928   0.044   0.352  0.1186 -0.0269 -0.1442
  674MPD2     C 9968   0.606   0.451   0.857 -0.4352  0.1609 -0.1991
  674MPD2    C1 9969   0.702   0.367   0.809  0.5860  0.1166  0.4884
  674MPD2    C2 9970   0.688   0.231   0.821  0.6358  1.0529 -0.8340
  674MPD2    C3 9971   0.580   0.175   0.886 -0.0484  0.0720  0.1780
  674MPD2    C4 9972   0.487   0.263   0.949  0.1372  0.0639  0.4356
  674MPD2    C5 9973   0.500   0.399   0.925  0.1039  0.2329  0.4209
  674MPD2     H 9974   0.759   0.164   0.774 -0.6545 -0.2514 -0.9069
  674MPD2    H1 9975   0.412   0.226   1.018 -0.9497  0.4551 -0.5396
  674MPD2    H2 9976   0.603   0.559   0.848  2.2582  0.3864  1.4043
  674MPD2    H3 9977   0.428   0.473   0.958  0.2198  0.0757  1.0180
  674MPD2     N 9978   0.578   0.033   0.887  0.3414  0.3224  0.0934
  674MPD2    H5 9979   0.647   4.703   0.834  0.5142 -0.7243  1.3400
  674MPD2    N1 9980   0.812   0.420   0.743  0.4652  0.4125  0.3549
  674MPD2    H7 9981   0.823   0.521   0.746 -0.5187  0.5123  0.8141
  675TMC3    C1 9982   0.998   0.445   0.600 -0.3365  0.0976  0.1404
  675TMC3    C2 9983   1.107   0.385   0.540 -0.4336 -0.1401 -1.0051
  675TMC3    C3 9984   1.160   0.445   0.432 -0.5854  0.3460  0.1606
  675TMC3    C4 9985   0.937   0.558   0.550 -0.2896 -0.1811 -0.0604
  675TMC3    C5 9986   0.993   0.610   0.434  0.1650 -0.4789 -0.2030
  675TMC3    C6 9987   1.111   0.558   0.383  0.1518 -0.2338 -0.2375
  675TMC3     C 9988   0.922   0.359   0.684 -0.3461 -0.0418 -0.2942
  675TMC3     O 9989   0.933   0.242   0.669 -0.0545  0.1643  0.4097
  675TMC3     H 9990   1.139   0.287   0.572 -3.5974 -0.8707 -0.0583
  675TMC3    H1 9991   0.839   0.595   0.580 -0.7662 -2.2866  1.0289
  675TMC3    H2 9992   1.159   0.594   0.293  1.2403  2.0562  1.2825
  675TMC3    C7 9993   0.927   0.726   0.373 -0.2668 -0.3785 -0.5896
  675TMC3    C8 9994   1.270   0.377   0.358  0.0346  0.6344  0.2948
  675TMC3    O1 9995   0.844   0.781   0.444  0.2039 -0.1978 -0.2023
  675TMC3    O2 9996   1.281   0.394   0.237  0.2720  0.4926  0.2373
  676MPD2     C 9997   3.612   4.399  11.117 -0.3887 -0.0569 -0.0570
  676MPD2    C1 9998   3.536   4.301  11.163 -0.2053 -0.4897 -0.1533
  676MPD2    C2 9999   3.558   4.178  11.107 -0.0833  0.8237 -0.3545
  676MPD2    C310000   3.665   4.149  11.016  0.0962 -0.9325 -0.2090
  676MPD2    C410001   3.755   4.248  10.985  0.2847  0.0153 -0.2970
  676MPD2    C510002   3.722   4.372  11.034  0.5533  0.1440  0.5963
  676MPD2     H10003   3.494   4.101  11.149  0.5827  0.4144 -0.0883
  676MPD2    H110004   3.848   4.243  10.929  1.3668  0.5916  1.4100
  676MPD2    H210005   3.598   4.502  11.150 -1.4048 -0.4655  0.8106
  676MPD2    H310006   3.800   4.446  11.025  0.2185  0.0795 -2.5598
  676MPD2     N10007   3.683   4.022  10.957 -0.0837  0.3374 -0.0575
  676MPD2    H510008   3.762   4.003  10.896  1.4221  1.9705  1.3949
  676MPD2    N110009   3.430   4.314  11.258  0.5624  0.2894 -0.5688
  676MPD2    H710010   3.384   4.227  11.284 -1.2846  1.2661 -0.6078
  677TMC3    C110011   3.294   4.393  11.421  0.4968  0.2257  0.2196
  677TMC3    C210012   3.203   4.297  11.390 -0.2441  0.1893  0.3486
  677TMC3    C310013   3.119   4.253  11.485  0.1058 -0.3026  0.5597
  677TMC3    C410014   3.316   4.433  11.551  0.4878 -0.1423  0.6124
  677TMC3    C510015   3.238   4.376  11.649  0.2965 -0.3510 -0.5875
  677TMC3    C610016   3.131   4.304  11.614 -0.0958  0.5655 -0.4546
  677TMC3     C10017   3.398   4.428  11.327  0.5261 -0.3550  0.0771
  677TMC3     O10018   3.444   4.542  11.334  0.2889  0.1846 -0.2098
  677TMC3     H10019   3.200   4.276  11.284  1.1568 -0.8281  0.5102
  677TMC3    H110020   3.393   4.506  11.571 -0.1219  0.3488  1.1566
  677TMC3    H210021   3.064   4.264  11.690 -1.2591  1.8270 -0.8334
  677TMC3    C710022   3.305   4.348  11.776  0.5484  0.0019  0.3201
  677TMC3    C810023   3.012   4.170  11.441 -0.1438 -0.8293 -0.6198
  677TMC3    O110024   3.230   4.299  11.862  0.2214  0.1336 -0.0527
  677TMC3    O210025   2.956   4.204  11.338 -0.2587 -0.3797  0.6296
  678MPD2     C10026   0.557   3.635   1.453 -0.8623  0.3295 -0.0378
  678MPD2    C110027   0.577   3.495   1.470  0.7273 -0.0857 -0.1173
  678MPD2    C210028   0.480   3.404   1.446  0.1738 -0.6142  0.2010
  678MPD2    C310029   0.357   3.441   1.397  0.3555 -0.2140 -0.1274
  678MPD2    C410030   0.341   3.576   1.379  0.3545  0.1729 -0.7727
  678MPD2    C510031   0.436   3.668   1.406  0.0767 -0.3926 -0.5052
  678MPD2     H10032   0.507   3.300   1.462  0.2010 -0.7505 -0.7861
  678MPD2    H110033   0.254   3.609   1.324 -0.4952 -0.9553 -0.1020
  678MPD2    H210034   0.629   3.715   1.461  2.6961 -2.7023 -1.9910
  678MPD2    H310035   0.419   3.773   1.385 -0.6159 -0.7508 -1.7506
  678MPD2     N10036   0.262   3.344   1.367 -0.0884  0.1468  0.5356
  678MPD2    H510037   0.295   3.249   1.357  2.8193  1.1195  0.7610
  678MPD2    N110038   0.712   3.444   1.490 -0.8716  0.4454  0.1397
  678MPD2    H710039   0.727   3.347   1.464 -1.6276  0.0431  1.2278
  679TMC3    C110040   1.018   3.230   1.443 -0.7699  0.7572  0.3888
  679TMC3    C210041   0.937   3.304   1.518 -0.1478 -0.0678  0.7459
  679TMC3    C310042   0.950   3.441   1.507  0.4415 -0.0631 -1.4442
  679TMC3    C410043   1.084   3.280   1.331  0.2621  0.2492 -0.1592
  679TMC3    C510044   1.094   3.414   1.319 -0.2760  0.7628  0.5006
  679TMC3    C610045   1.036   3.490   1.416 -0.1540  0.4363 -0.0968
  679TMC3     C10046   1.016   3.086   1.451 -0.2603 -0.2668 -0.2012
  679TMC3     O10047   1.085   3.023   1.374 -0.3429  0.2258 -0.0090
  679TMC3     H10048   0.864   3.252   1.579  2.1836 -1.7672  2.1066
  679TMC3    H110049   1.146   3.227   1.260 -0.6844 -0.9519 -0.0904
  679TMC3    H210050   1.042   3.597   1.400  0.5188  0.6747  1.6639
  679TMC3    C710051   1.106   3.480   1.188 -0.4055  0.2297  0.4016
  679TMC3    C810052   0.828   3.519   1.510  0.5061  1.0163  0.2028
  679TMC3    O110053   1.108   3.605   1.200  0.5348  0.4694 -0.2709
  679TMC3    O210054   0.839   3.642   1.508 -0.1269 -0.7279  0.7976
  680MPD2     C10055   1.632   1.876  13.919 -0.2637 -0.4738 -0.0041
  680MPD2    C110056   1.503   1.910  13.950  0.6640 -0.0771  0.5183
  680MPD2    C210057   1.474   1.988  14.056 -0.0516  0.3393 -0.1640
  680MPD2    C310058   1.578   2.033  14.143 -0.4206  0.6410 -0.0886
  680MPD2    C410059   1.707   1.992  14.108  0.3520  0.4003  0.1739
  680MPD2    C510060   1.731   1.909  14.007 -0.1136  0.5156 -0.7230
  680MPD2     H10061   1.369   2.011  14.073 -0.0674 -0.4287  0.7909
  680MPD2    H110062   1.784   2.015  14.181  0.9820  0.3441 -0.4697
  680MPD2    H210063   1.659   1.824  13.827  3.7881  1.9991 -0.2144
  680MPD2    H310064   1.835   1.881  13.992 -0.4766 -0.1508 -2.0008
  680MPD2     N10065   1.564   2.118  14.257  0.1901  0.1633 -0.7886
  680MPD2    H510066   1.645   2.162  14.298 -0.4954  0.9412 -0.2716
  680MPD2    N110067   1.390   1.879  13.864  0.4009 -0.6379  0.1878
  680MPD2    H710068   1.300   1.902  13.904 -0.0739 -0.4805 -0.9789
  681TMC3    C110069   1.281   1.807  13.676 -0.1826  0.4160 -0.3704
  681TMC3    C210070   1.177   1.893  13.703 -0.6280  0.3964 -0.7251
  681TMC3    C310071   1.070   1.896  13.621  0.3264 -0.5429  0.7473
  681TMC3    C410072   1.279   1.727  13.562  0.7609 -0.8797  0.5045
  681TMC3    C510073   1.169   1.727  13.485 -0.3451  0.0457  0.2406
  681TMC3    C610074   1.067   1.814  13.508  0.2727  0.2094 -0.6742
  681TMC3     C10075   1.398   1.797  13.757  0.1167 -0.4096  0.6741
  681TMC3     O10076   1.485   1.722  13.717 -0.8371 -0.3212  0.0108
  681TMC3     H10077   1.188   1.982  13.764  0.3586 -0.0330 -0.2727
  681TMC3    H110078   1.364   1.664  13.539 -1.2629 -2.9357 -1.2014
  681TMC3    H210079   0.971   1.808  13.458 -0.7991  4.1507  0.9218
  681TMC3    C710080   1.186   1.693  13.347  0.8737 -0.3088 -0.3890
  681TMC3    C810081   0.956   1.984  13.639 -0.4655  1.0394  0.1785
  681TMC3    O110082   1.163   1.577  13.314 -0.0369 -0.2114  0.1162
  681TMC3    O210083   0.865   1.991  13.558 -0.2297 -0.1825 -0.1762
  682MPD2     C10084   2.570   3.916  10.117  0.1332  0.9572 -0.4422
  682MPD2    C110085   2.523   3.792  10.145 -0.3830  0.2060 -0.3947
  682MPD2    C210086   2.451   3.771  10.265  0.3016 -0.7462 -0.6083
  682MPD2    C310087   2.404   3.882  10.348 -0.1733  0.5670 -0.9810
  682MPD2    C410088   2.454   4.004  10.311  0.1699  0.5555  0.3677
  682MPD2    C510089   2.537   4.013  10.206 -0.0096  0.3457  0.1589
  682MPD2     H10090   2.429   3.670  10.299 -0.0774 -0.8862 -1.2902
  682MPD2    H110091   2.434   4.092  10.370 -0.0035  1.7477 -1.4638
  682MPD2    H210092   2.629   3.942  10.030  2.5319  0.3279  0.9940
  682MPD2    H310093   2.581   4.109  10.180 -0.0607  0.2499 -0.2805
  682MPD2     N10094   2.317   3.869  10.462  0.2656  0.9464  0.0308
  682MPD2    H510095   2.305   3.953  10.518  0.5759  1.3465 -0.5093
  682MPD2    N110096   2.540   3.679  10.058 -0.1305  0.3989  0.1758
  682MPD2    H710097   2.513   3.591  10.101 -2.0546  1.0616  0.3387
  683TMC3    C110098   2.177   3.805  10.850  0.1108 -0.7971  0.4146
  683TMC3    C210099   2.089   3.708  10.878 -0.2418  0.7221 -0.6635
  683TMC3    C310100   2.053   3.621  10.775  0.0271 -0.2066  0.0622
  683TMC3    C410101   2.219   3.832  10.719 -0.2420  0.1039  0.1524
  683TMC3    C510102   2.176   3.748  10.619  0.3841 -0.5997 -0.0628
  683TMC3    C610103   2.099   3.638  10.647  0.5269 -0.5891 -0.3347
  683TMC3     C10104   2.255   3.854  10.962  0.5160  0.4269  0.1359
  683TMC3     O10105   2.320   3.957  10.942  0.1025 -0.0253 -0.7312
  683TMC3     H10106   2.040   3.684  10.972  2.4532  2.2739  1.1505
  683TMC3    H110107   2.288   3.915  10.714  1.2505 -0.9876  2.4861
  683TMC3    H210108   2.069   3.577  10.563  3.4150 -0.1026 -1.7233
  683TMC3    C710109   2.263   3.747  10.504  0.1509  0.3223 -0.2872
  683TMC3    C810110   1.981   3.502  10.814 -0.9196  0.4341 -0.0298
  683TMC3    O110111   2.262   3.642  10.441 -0.1601  0.4980  0.2365
  683TMC3    O210112   1.900   3.518  10.911  0.5319 -0.0698 -0.3364
  684MPD2     C10113   0.207   3.122  16.401 -0.3726  0.7481  0.9257
  684MPD2    C110114   0.331   3.114  16.335  0.4938 -0.5995 -0.0724
  684MPD2    C210115   0.398   3.236  16.316  0.2581 -0.2643 -0.1925
  684MPD2    C310116   0.344   3.349  16.376  0.1379  0.7399 -0.1176
  684MPD2    C410117   0.232   3.347  16.454 -0.0690 -0.0564  0.3357
  684MPD2    C510118   0.162   3.232  16.473 -0.4170  0.0656 -0.2575
  684MPD2     H10119   0.485   3.240  16.252  1.0227 -1.9840  0.7503
  684MPD2    H110120   0.192   3.436  16.502 -0.0410  0.1816 -0.0846
  684MPD2    H210121   0.138   3.040  16.414 -0.2003  0.2356 -1.5227
  684MPD2    H310122   0.075   3.235  16.537  0.9322  0.0622  1.5585
  684MPD2     N10123   0.402   3.475  16.351 -0.0749 -0.1780 -0.1662
  684MPD2    H510124   0.361   3.553  16.402  0.4118 -0.1564  0.1991
  684MPD2    N110125   0.365   2.985  16.272  0.4862 -0.5141  0.9751
  684MPD2    H710126   0.289   2.918  16.277 -0.6810  0.5938 -1.8723
  685TMC3    C110127   0.492   2.832  16.146  0.4213  0.3322 -0.1625
  685TMC3    C210128   0.377   2.765  16.104  0.3988  0.0819 -0.4972
  685TMC3    C310129   0.385   2.646  16.047  0.7118 -0.2015 -0.4749
  685TMC3    C410130   0.616   2.789  16.133  0.1059 -0.1638  0.4507
  685TMC3    C510131   0.625   2.662  16.078  0.2233  0.2529 -0.3219
  685TMC3    C610132   0.512   2.591  16.034  0.4546  0.3715  0.4321
  685TMC3     C10133   0.485   2.964  16.204  0.0136  0.0418  0.1066
  685TMC3     O10134   0.579   3.040  16.203 -0.2550 -0.5814  0.2293
  685TMC3     H10135   0.280   2.812  16.109  0.9131  1.2737 -1.7056
  685TMC3    H110136   0.697   2.854  16.164  0.6554 -1.5430  1.9087
  685TMC3    H210137   0.531   2.496  15.986  0.2130  0.6775 -0.2834
  685TMC3    C710138   0.757   2.598  16.063 -0.0634  0.1635  0.7896
  685TMC3    C810139   0.302   2.607  15.937 -0.0837 -0.1570 -0.1822
  685TMC3    O110140   0.752   2.492  16.004  0.0055  0.0392  0.5143
  685TMC3    O210141   0.315   2.497  15.883 -0.3384  0.2210  0.6059
  686MPD2     C10142   1.815   2.969  15.264  1.0009  0.0269 -0.1032
  686MPD2    C110143   1.838   2.939  15.396 -0.1057  0.3245 -0.2195
  686MPD2    C210144   1.958   2.884  15.429  0.0060 -0.0233  0.1918
  686MPD2    C310145   2.060   2.874  15.339 -0.2170 -0.1527  0.1415
  686MPD2    C410146   2.038   2.902  15.210  0.0040  0.5282 -0.4859
  686MPD2    C510147   1.919   2.960  15.176  0.5303  0.4737  0.6921
  686MPD2     H10148   1.966   2.854  15.533 -0.2981 -0.2741  0.1440
  686MPD2    H110149   2.110   2.877  15.133  1.3418 -0.2236  1.0119
  686MPD2    H210150   1.724   3.008  15.221  0.0819  2.6048  4.2061
  686MPD2    H310151   1.904   2.979  15.071 -1.7821  2.0820  1.3271
  686MPD2     N10152   2.184   2.824  15.385 -0.2890 -0.4970  0.2191
  686MPD2    H510153   2.189   2.800  15.483 -4.0503  1.2578  0.8251
  686MPD2    N110154   1.726   2.944  15.489 -0.2307 -0.2809 -0.7750
  686MPD2    H710155   1.631   2.937  15.452  0.1464  0.3934 -1.8767
  687TMC3    C110156   2.405   2.765  15.405 -0.5176 -0.7672 -0.2802
  687TMC3    C210157   2.371   2.641  15.449  0.0563  0.3094 -0.6475
  687TMC3    C310158   2.395   2.612  15.578 -0.9673 -0.4904  1.2058
  687TMC3    C410159   2.475   2.852  15.486  0.8849 -0.0146  0.1585
  687TMC3    C510160   2.504   2.816  15.609 -0.0229 -0.4482 -1.1812
  687TMC3    C610161   2.475   2.695  15.656 -0.0347  0.3904 -0.8087
  687TMC3     C10162   2.303   2.830  15.318  0.1813  0.6277 -0.5419
  687TMC3     O10163   2.344   2.910  15.233  0.1544 -0.1988 -0.5783
  687TMC3     H10164   2.336   2.565  15.381  1.7933 -1.8507  0.8649
  687TMC3    H110165   2.487   2.957  15.460 -1.7177 -0.2794 -2.1091
  687TMC3    H210166   2.508   2.654  15.751 -1.6416  0.2876 -0.2969
  687TMC3    C710167   2.529   2.916  15.703  0.4608 -0.3357 -0.9241
  687TMC3    C810168   2.277   2.576  15.659  0.1492  0.7536  0.5118
  687TMC3    O110169   2.581   3.023  15.674 -0.7259 -0.2316  0.0624
  687TMC3    O210170   2.288   2.578  15.782 -0.1747 -0.0075 -0.0503
  688MPD2     C10171   2.131   1.916  17.643  0.5162  0.6678  0.0229
  688MPD2    C110172   2.056   1.842  17.544 -0.1742  0.0154  0.6011
  688MPD2    C210173   2.111   1.820  17.422 -0.0538  0.3034 -0.2232
  688MPD2    C310174   2.235   1.873  17.388  0.8693 -0.6598 -0.6092
  688MPD2    C410175   2.301   1.953  17.475 -0.0240  0.2275  0.2977
  688MPD2    C510176   2.245   1.976  17.596  0.2226 -0.0978  0.4897
  688MPD2     H10177   2.058   1.762  17.346  0.8195  0.3978 -0.9042
  688MPD2    H110178   2.397   1.995  17.447  0.2170  0.6348  1.7307
  688MPD2    H210179   2.097   1.940   0.050 -1.3003  2.4208 -1.0102
  688MPD2    H310180   2.305   2.029  17.669 -0.6961  1.1669  0.3111
  688MPD2     N10181   2.297   1.842  17.262 -0.7023 -0.3040  0.1339
  688MPD2    H510182   2.384   1.887  17.236 -0.3190 -2.0659 -1.6800
  688MPD2    N110183   1.929   1.792  17.584 -0.1513  0.6719 -0.1583
  688MPD2    H710184   1.875   1.738  17.518  0.4968  0.0945 -0.2125
  689TMC3    C110185   1.744   1.735   0.030  0.4152 -0.5496 -0.9759
  689TMC3    C210186   1.666   1.766   0.142  0.5247  0.4108  0.2769
  689TMC3    C310187   1.570   1.678   0.179 -0.6625 -0.0148 -0.7796
  689TMC3    C410188   1.730   1.617  17.653 -0.2624 -0.4473 -0.6622
  689TMC3    C510189   1.629   1.535  17.688 -0.2633 -0.3366  0.1417
  689TMC3    C610190   1.547   1.562   0.104  0.4378 -0.2842  0.4669
  689TMC3     C10191   1.869   1.811   0.009 -0.5231  0.1520 -0.0349
  689TMC3     O10192   1.910   1.862   0.115  0.5997 -0.3295 -0.3982
  689TMC3     H10193   1.684   1.856   0.198  0.4994  0.2574  0.5340
  689TMC3    H110194   1.808   1.587  17.583  0.1965  0.7212 -0.6499
  689TMC3    H210195   1.457   1.503   0.118  1.0778 -1.4193 -0.2006
  689TMC3    C710196   1.667   1.393  17.668 -0.0060  0.1250  0.6751
  689TMC3    C810197   1.496   1.695   0.300 -0.9257  0.4101 -0.3492
  689TMC3    O110198   1.783   1.365   0.002 -0.1720  0.1883 -0.6366
  689TMC3    O210199   1.411   1.610   0.320 -0.3312  0.1687  0.0610
  690MPD2     C10200   4.047   3.663  15.764 -0.1075 -0.0314  0.6777
  690MPD2    C110201   3.986   3.669  15.638  0.3032 -0.5753  0.1255
  690MPD2    C210202   4.038   3.754  15.542 -0.2168  0.0155  0.2428
  690MPD2    C310203   4.160   3.825  15.568  0.1185 -0.3204 -0.3258
  690MPD2    C410204   4.211   3.822  15.694  0.2142  0.1318 -0.2045
  690MPD2    C510205   4.152   3.743  15.786 -0.4703  0.3736  0.5805
  690MPD2     H10206   3.995   3.764  15.443  0.7855  1.1900 -0.0702
  690MPD2    H110207   4.308   3.862  15.722 -0.2760  0.9857  0.2936
  690MPD2    H210208   4.020   3.596  15.844  0.7308 -0.2002  0.8256
  690MPD2    H310209   4.203   3.731  15.881  1.2962 -0.3557 -0.4661
  690MPD2     N10210   4.206   3.898  15.455 -0.2548  0.3696  0.2831
  690MPD2    H510211   4.152   3.897  15.369  1.6541  1.2565 -0.9051
  690MPD2    N110212   3.877   3.589  15.609  0.0763  0.2386  0.0073
  690MPD2    H710213   3.820   3.613  15.528 -0.4487  0.3327  0.4078
  691TMC3    C110214   3.734   3.417  15.615  0.0503  0.9055  0.5369
  691TMC3    C210215   3.618   3.468  15.665 -0.8530  0.0073  0.1882
  691TMC3    C310216   3.514   3.385  15.693 -0.3298 -0.3542 -0.1549
  691TMC3    C410217   3.749   3.283  15.605  0.1270 -0.1998  0.4562
  691TMC3    C510218   3.647   3.201  15.635 -0.4133 -0.1982 -0.3049
  691TMC3    C610219   3.525   3.251  15.679  0.1481 -0.1572 -0.3269
  691TMC3     C10220   3.846   3.481  15.676  0.0325  0.1378 -1.0452
  691TMC3     O10221   3.909   3.415  15.758 -0.3201  0.1142 -0.2112
  691TMC3     H10222   3.609   3.572  15.693 -1.2523  0.5279 -1.8389
  691TMC3    H110223   3.840   3.239  15.564  0.2379 -0.0181  0.5095
  691TMC3    H210224   3.443   3.189  15.712 -0.6216  0.5834 -0.8409
  691TMC3    C710225   3.662   3.056  15.606  0.2601  0.0428  0.1926
  691TMC3    C810226   3.456   3.416  15.823 -0.4494  0.2569 -0.3005
  691TMC3    O110227   3.767   2.995  15.629 -0.5649 -0.0193 -0.0234
  691TMC3    O210228   3.469   3.342  15.921 -0.2501  0.1211 -0.0006
  692TMC3    C110229   0.715   4.659  15.622  1.2853  0.4770  0.2736
  692TMC3    C210230   0.831   0.020  15.625  0.7499 -0.0385 -0.0659
  692TMC3    C310231   0.957   4.676  15.625 -0.4968 -0.0605  0.6760
  692TMC3    C410232   0.721   4.528  15.624 -0.3389  0.4165  0.7287
  692TMC3    C510233   0.849   4.475  15.627 -0.2104  0.6912 -1.0578
  692TMC3    C610234   0.965   4.547  15.630 -0.2730 -0.7353  0.4327
  692TMC3     C10235   0.583   4.712  15.637 -0.0695 -0.5515 -0.3411
  692TMC3     O10236   0.484   4.636  15.637 -0.6285  0.6372 -0.4801
  692TMC3     H10237   0.830   0.121  15.585 -0.9750 -0.2459 -0.5116
  692TMC3    H110238   0.631   4.467  15.627 -0.7358  1.0163  1.1058
  692TMC3    H210239   1.058   4.494  15.609 -0.8567 -1.3225 -0.6854
  692TMC3    C710240   0.849   4.333  15.600 -0.7760 -0.8973  0.4778
  692TMC3    C810241   1.046   4.722  15.733 -0.1978  0.0013  0.1065
  692TMC3    O110242   0.954   4.287  15.553  0.1995 -0.4190 -0.2494
  692TMC3    O210243   1.098   4.634  15.800 -0.1374 -0.0001 -0.3562
  693MPD2     C10244   0.299   2.962  11.515 -1.2411 -0.0785  0.3231
  693MPD2    C110245   0.253   2.865  11.434 -0.5305  0.3880  0.0586
  693MPD2    C210246   0.345   2.795  11.359 -0.4095  0.6164  0.0296
  693MPD2    C310247   0.485   2.811  11.377 -0.4701 -0.1205  0.0786
  693MPD2    C410248   0.527   2.894  11.481 -0.6056 -0.2678  0.5739
  693MPD2    C510249   0.433   2.973  11.548  0.1668 -0.2944 -0.0427
  693MPD2     H10250   0.307   2.712  11.300  2.0985 -0.0286 -0.6969
  693MPD2    H110251   0.634   2.903  11.496 -0.7070 -1.3322  1.9190
  693MPD2    H210252   0.233   3.006  11.589 -0.2851 -0.5042  1.4250
  693MPD2    H310253   0.466   3.043  11.624 -1.9899 -1.3844  1.8844
  693MPD2     N10254   0.583   2.754  11.298 -0.0520  0.6444  0.2937
  693MPD2    H510255   0.678   2.771  11.330  0.6432 -1.7728 -0.5013
  693MPD2    N110256   0.115   2.828  11.417 -0.4547 -0.3526 -0.6694
  693MPD2    H710257   0.098   2.752  11.353 -0.2969 -0.0197 -1.1097
  694TMC3    C110258   4.616   2.801  11.494 -0.5182  0.2940  0.0271
  694TMC3    C210259   4.595   2.726  11.381 -0.0556 -0.1089 -0.7265
  694TMC3    C310260   4.494   2.634  11.379  0.0048 -0.6334 -0.8130
  694TMC3    C410261   4.548   2.764  11.606  1.0117 -0.4348  0.5545
  694TMC3    C510262   4.459   2.663  11.606 -0.3324  0.6016  0.4592
  694TMC3    C610263   4.417   2.604  11.489 -0.1622 -0.2920 -0.3584
  694TMC3     C10264   0.018   2.871  11.510  0.3917 -0.7113 -0.0965
  694TMC3     O10265   0.015   2.960  11.592 -0.6066 -0.1823 -0.0580
  694TMC3     H10266   4.648   2.742  11.287  2.6060 -2.3335  0.3599
  694TMC3    H110267   4.575   2.825  11.691 -0.7696  1.4249 -0.2242
  694TMC3    H210268   4.331   2.539  11.497 -0.0439 -0.4273 -0.1676
  694TMC3    C710269   4.399   2.624  11.736  0.4072 -0.9594 -0.4078
  694TMC3    C810270   4.421   2.609  11.260  0.1746  0.1125 -0.0097
  694TMC3    O110271   4.436   2.691  11.831 -0.2237  0.0337  0.1471
  694TMC3    O210272   4.325   2.532  11.270  0.3264  0.6120  0.3562
  695MPD2     C10273   1.374   4.335  13.433  0.0218 -0.1361  0.7753
  695MPD2    C110274   1.326   4.413  13.533  0.3743 -0.3408 -0.6081
  695MPD2    C210275   1.206   4.483  13.524 -0.4076  0.4779 -0.9470
  695MPD2    C310276   1.127   4.470  13.411 -0.2689 -0.5804  0.1059
  695MPD2    C410277   1.179   4.393  13.303 -0.8826 -0.0473 -0.0179
  695MPD2    C510278   1.294   4.325  13.320 -0.0117  0.2121 -0.0799
  695MPD2     H10279   1.175   4.548  13.605 -1.5958 -1.9687  0.5575
  695MPD2    H110280   1.146   4.398  13.199 -2.0829 -0.9614  0.3259
  695MPD2    H210281   1.464   4.274  13.439 -0.0995 -0.2530  1.4086
  695MPD2    H310282   1.337   4.264  13.241  2.5150  0.7718  0.8565
  695MPD2     N10283   1.004   4.536  13.403 -0.3270  0.0851  0.1556
  695MPD2    H510284   0.976   4.590  13.485 -2.1434 -1.7416  0.7302
  695MPD2    N110285   1.403   4.419  13.654 -0.0205 -0.0945  0.3813
  695MPD2    H710286   1.374   4.485  13.725  0.8064 -0.2742  0.8943
  696TMC3    C110287   0.790   4.591  13.310  0.4583 -0.3112  0.0427
  696TMC3    C210288   0.730   4.591  13.429  0.3767 -0.2853 -0.9555
  696TMC3    C310289   0.611   4.659  13.440 -0.1291 -0.0332 -0.3759
  696TMC3    C410290   0.743   4.645  13.201 -0.3529 -0.5388 -0.4211
  696TMC3    C510291   0.627   4.721  13.212 -0.6419  0.6129  0.0001
  696TMC3    C610292   0.563   4.720  13.331  0.0729  0.1047 -0.0380
  696TMC3     C10293   0.913   4.516  13.302 -0.0180 -0.3294 -0.6764
  696TMC3     O10294   0.914   4.441  13.203  0.4461 -0.3105 -0.1591
  696TMC3     H10295   0.768   4.546  13.520 -1.0530  0.4001 -0.0234
  696TMC3    H110296   0.806   4.650  13.113  1.5555  2.9711  1.1134
  696TMC3    H210297   0.472   0.056  13.340 -0.4422 -0.5809 -0.6753
  696TMC3    C710298   0.637   0.132  13.154  0.7168 -0.3365 -0.5288
  696TMC3    C810299   0.607   0.027  13.556  0.1101  0.0354  0.6224
  696TMC3    O110300   0.666   0.139  13.034 -0.0343  0.4025  0.6807
  696TMC3    O210301   0.631   0.145  13.527  0.9943 -0.0056 -0.2621
  697MPD2     C10302   0.033   1.720  15.788  0.4675  0.2825  0.2006
  697MPD2    C110303   0.070   1.670  15.666 -0.5092 -0.2735  0.5720
  697MPD2    C210304   0.085   1.757  15.557  0.2545  0.1857  0.1474
  697MPD2    C310305   0.077   1.895  15.587  0.8673  0.2958  0.3128
  697MPD2    C410306   0.042   1.941  15.709 -0.2758  0.3321 -0.1131
  697MPD2    C510307   0.011   1.856  15.804 -0.6112  0.1625 -0.3171
  697MPD2     H10308   0.131   1.724  15.465 -0.0468  1.2031 -0.3749
  697MPD2    H110309   0.022   2.044  15.738  3.1204  1.2566 -1.0384
  697MPD2    H210310   0.003   1.648  15.864 -5.0857  3.1884  0.7726
  697MPD2    H310311   4.703   1.895  15.901 -0.4330 -0.1427 -0.1365
  697MPD2     N10312   0.133   1.975  15.487 -0.6726  0.9179  0.1727
  697MPD2    H510313   0.168   1.940  15.398 -0.1464  2.9391 -0.4276
  697MPD2    N110314   0.088   1.537  15.642  0.1213  0.4944  0.5594
  697MPD2    H710315   0.112   1.521  15.545 -1.0209  1.6020  0.1013
  698TMC3    C110316   0.288   2.144  15.439  0.6276 -0.4195 -0.8269
  698TMC3    C210317   0.385   2.211  15.509 -0.2342 -0.1673 -0.1529
  698TMC3    C310318   0.515   2.202  15.472  0.2085  0.2262  0.9055
  698TMC3    C410319   0.331   2.077  15.320 -0.1193 -0.0580 -0.2770
  698TMC3    C510320   0.453   2.108  15.269  0.5763 -0.5190 -0.1642
  698TMC3    C610321   0.550   2.159  15.348 -0.5829  0.0552 -0.3692
  698TMC3     C10322   0.163   2.110  15.507  0.0375 -0.2348  0.5793
  698TMC3     O10323   0.146   2.173  15.606  0.0578  0.2653  0.1617
  698TMC3     H10324   0.361   2.255  15.605  0.8359  0.0663  0.0116
  698TMC3    H110325   0.260   2.035  15.249  0.8680 -0.4647 -1.0224
  698TMC3    H210326   0.654   2.170  15.319 -0.2399  2.9061  1.8717
  698TMC3    C710327   0.491   2.061  15.134 -0.2029 -0.0928  0.0631
  698TMC3    C810328   0.608   2.273  15.560  0.1119 -0.4600 -0.2225
  698TMC3    O110329   0.397   2.041  15.060 -0.2655  0.3107 -0.2313
  698TMC3    O210330   0.559   2.353  15.633  0.1185 -0.4755  0.0152
  699TMC3    C110331   0.553   4.457  12.978  0.2337  0.6926  0.2081
  699TMC3    C210332   0.599   4.364  13.068  0.2650 -0.4665  0.5638
  699TMC3    C310333   0.512   4.344  13.173  0.8705  0.1095  0.4938
  699TMC3    C410334   0.430   4.514  12.990 -1.0200  0.0871  0.2579
  699TMC3    C510335   0.341   4.484  13.092 -0.8775 -0.4631 -0.2527
  699TMC3    C610336   0.386   4.399  13.182 -0.6953  0.0533 -0.5916
  699TMC3     C10337   0.647   4.525  12.887 -0.3054  0.1980 -0.5397
  699TMC3     O10338   0.614   4.629  12.834 -0.7118 -0.8027 -0.3475
  699TMC3     H10339   0.697   4.322  13.046  0.2128 -0.7692  0.8987
  699TMC3    H110340   0.397   4.581  12.911 -0.4777  0.9174  0.7439
  699TMC3    H210341   0.327   4.384  13.271 -0.6736 -0.6110 -0.6891
  699TMC3    C710342   0.275   4.606  13.148  0.5677 -0.1160  0.5338
  699TMC3    C810343   0.556   4.287  13.295  0.5523 -0.4857 -0.6143
  699TMC3    O110344   0.223   4.593  13.258 -0.7973  0.4466 -0.2063
  699TMC3    O210345   0.476   4.287  13.386  0.1291 -0.1332  0.7228
  700TMC3    C110346   4.293   1.913  17.676 -0.5525  1.0382  0.3167
  700TMC3    C210347   4.354   1.797   0.019 -0.1869 -0.4717 -0.3527
  700TMC3    C310348   4.468   1.798   0.094  0.3543 -0.4613  0.1274
  700TMC3    C410349   4.324   2.030   0.047  0.8601 -0.1133 -0.0319
  700TMC3    C510350   4.430   2.032   0.135  0.3554  0.0024 -0.6790
  700TMC3    C610351   4.510   1.922   0.155 -0.0660  0.0300 -0.0077
  700TMC3     C10352   4.284   1.929  17.532  0.0209 -0.3771 -0.3749
  700TMC3     O10353   4.244   1.834  17.468  0.0833  0.1520 -0.3159
  700TMC3     H10354   4.337   1.705  17.656 -0.5803 -0.6787  0.1113
  700TMC3    H110355   4.270   2.120   0.020 -1.2653 -0.9276  1.4877
  700TMC3    H210356   4.599   1.933   0.215 -1.8797  1.4408  2.4344
  700TMC3    C710357   4.482   2.160   0.171  0.6051  0.5382  0.2826
  700TMC3    C810358   4.566   1.699   0.059  0.4318  0.1933  0.2480
  700TMC3    O110359   4.435   2.255   0.106 -0.6289 -0.2255  0.2733
  700TMC3    O210360   4.545   1.637  17.651 -0.1544  0.7642  0.8414
  701TMC3    C110361   4.372   0.641  15.649 -0.6355  0.3405  0.1366
  701TMC3    C210362   4.436   0.572  15.543  0.4900 -0.5675  0.0127
  701TMC3    C310363   4.501   0.646  15.453  0.1060  0.0690  0.2736
  701TMC3    C410364   4.376   0.782  15.653 -0.2529  0.1841 -0.4206
  701TMC3    C510365   4.454   0.847  15.564 -0.6272  0.2257 -0.3176
  701TMC3    C610366   4.516   0.783  15.456  0.0868  0.1275  0.7881
  701TMC3     C10367   4.313   0.567  15.753 -0.3501  0.2112  0.1062
  701TMC3     O10368   4.308   0.444  15.738  0.2791 -0.1278 -0.3759
  701TMC3     H10369   4.431   0.464  15.551 -0.9703 -0.3804  1.6282
  701TMC3    H110370   4.343   0.836  15.741  2.3301 -2.3299  2.0877
  701TMC3    H210371   4.575   0.842  15.387  0.3380 -0.8948  0.1121
  701TMC3    C710372   4.473   0.990  15.567  0.1605  0.1343 -0.6410
  701TMC3    C810373   4.513   0.602  15.315  1.0985 -0.5021  0.2543
  701TMC3    O110374   4.531   1.042  15.472 -0.5820  0.5140  0.0966
  701TMC3    O210375   4.520   0.695  15.238 -0.2266 -0.1992 -0.0091
  702MPD2     C10376   4.179   3.572  10.645  0.4119  0.2604  0.4194
  702MPD2    C110377   4.133   3.689  10.709  0.3307  0.8613 -0.6239
  702MPD2    C210378   4.205   3.804  10.700 -0.3287  0.1942  0.2105
  702MPD2    C310379   4.324   3.804  10.635 -0.4642  0.1583  0.1436
  702MPD2    C410380   4.367   3.688  10.578  0.6624 -0.3666  0.2621
  702MPD2    C510381   4.295   3.577  10.581 -0.1678 -0.2474  0.2170
  702MPD2     H10382   4.163   3.892  10.747  2.8467  1.2727  1.0521
  702MPD2    H110383   4.459   3.683  10.520 -0.3918 -1.5726 -1.3153
  702MPD2    H210384   4.113   3.487  10.633  2.3680 -1.5097  2.0849
  702MPD2    H310385   4.337   3.491  10.531  0.9229 -1.2036  2.8095
  702MPD2     N10386   4.391   3.923  10.596  0.1494 -0.1655  0.8050
  702MPD2    H510387   4.468   3.916  10.530 -0.3423 -1.4417  0.3824
  702MPD2    N110388   4.006   3.699  10.770 -0.2061 -0.1970 -0.0714
  702MPD2    H710389   3.981   3.792  10.799 -1.0761 -0.8279  1.1905
  703TMC3    C110390   4.321   4.126  10.520 -0.3380 -0.0544 -0.2176
  703TMC3    C210391   4.188   4.154  10.509 -0.2837 -0.0194 -0.4759
  703TMC3    C310392   4.139   4.194  10.387  0.3398 -0.2162  0.2684
  703TMC3    C410393   4.411   4.138  10.412 -0.1757  0.1326  0.2690
  703TMC3    C510394   4.359   4.178  10.292 -0.0339 -0.2221 -0.0280
  703TMC3    C610395   4.228   4.210  10.277  0.2310 -0.1814 -0.0864
  703TMC3     C10396   4.360   4.054  10.635  0.1199 -0.0006 -0.3778
  703TMC3     O10397   4.297   4.083  10.738 -0.9631  0.2791  0.2022
  703TMC3     H10398   4.129   4.120  10.593  0.9763  1.8569  1.1719
  703TMC3    H110399   4.516   4.114  10.423 -0.2439 -1.8115 -3.4253
  703TMC3    H210400   4.187   4.246  10.183  2.1172 -0.4312 -0.9948
  703TMC3    C710401   4.452   4.259  10.216  0.4848  1.1650 -0.5482
  703TMC3    C810402   4.012   4.147  10.339 -0.1801  1.2046  0.2321
  703TMC3    O110403   4.574   4.236  10.218  0.5578  0.8409 -0.2611
  703TMC3    O210404   4.016   4.107  10.221  0.0086  0.4531 -0.0999
  704TMC3    C110405   1.682   1.293  12.642 -0.2978 -0.4986 -0.4451
  704TMC3    C210406   1.785   1.372  12.678  0.4579 -0.0419  0.4400
  704TMC3    C310407   1.885   1.324  12.754  0.2635 -0.2167  0.0162
  704TMC3    C410408   1.676   1.161  12.666  0.4414 -0.1313 -0.2218
  704TMC3    C510409   1.783   1.105  12.731 -0.3052  0.3167 -0.1280
  704TMC3    C610410   1.887   1.190  12.767  0.0956 -0.4801  0.0165
  704TMC3     C10411   1.576   1.342  12.550  0.1716  0.2157  0.4031
  704TMC3     O10412   1.476   1.275  12.525  0.0539 -1.0813 -0.4525
  704TMC3     H10413   1.788   1.478  12.656  0.6990 -0.1986 -0.3045
  704TMC3    H110414   1.606   1.101  12.609  2.3730 -0.2226 -2.5074
  704TMC3    H210415   1.980   1.151  12.809 -0.9555 -1.0359  1.8315
  704TMC3    C710416   1.811   0.963  12.688 -0.4935 -0.0215  0.8370
  704TMC3    C810417   2.008   1.387  12.715  0.0093  0.0733 -0.6036
  704TMC3    O110418   1.930   0.930  12.684 -0.6760 -0.1871  0.0750
  704TMC3    O210419   2.003   1.454  12.611 -0.3056  0.0401  0.1512
  705MPD2     C10420   1.148   4.165  15.855  0.1080 -0.5780 -0.4999
  705MPD2    C110421   1.152   4.293  15.908  0.3966  0.4020  0.3700
  705MPD2    C210422   1.062   4.332  16.007  0.1871  0.5984 -0.5079
  705MPD2    C310423   0.963   4.248  16.039 -0.3007 -0.7566  0.0230
  705MPD2    C410424   0.950   4.126  15.976  1.4162  0.2243  0.0731
  705MPD2    C510425   1.035   4.083  15.887 -0.1611  0.3653  0.4352
  705MPD2     H10426   1.081   4.425  16.058  1.1380 -0.3006  0.7822
  705MPD2    H110427   0.872   4.060  16.014 -0.4374  1.2394 -1.9125
  705MPD2    H210428   1.222   4.122  15.789 -1.0761 -2.1150 -0.8181
  705MPD2    H310429   1.031   3.981  15.849 -0.3582  0.1361  1.0690
  705MPD2     N10430   0.865   4.278  16.138  0.6240 -0.8261 -0.3583
  705MPD2    H510431   0.786   4.217  16.156  1.9978 -1.7540  2.6543
  705MPD2    N110432   1.258   4.387  15.870 -0.4521  0.1589 -0.9023
  705MPD2    H710433   1.263   4.472  15.924 -1.4216 -0.9767  0.9841
  706TMC3    C110434   1.655   4.450  15.816  0.2750 -0.2563 -0.7031
  706TMC3    C210435   1.654   4.526  15.931 -0.2568  0.3956 -0.3838
  706TMC3    C310436   1.536   4.594  15.943 -0.0811 -0.6838 -0.6187
  706TMC3    C410437   1.556   4.428  15.723 -0.1732  0.5798  0.4972
  706TMC3    C510438   1.442   4.482  15.763 -0.5286  0.1358 -0.7288
  706TMC3    C610439   1.429   4.572  15.866  0.5105  0.1211 -0.3701
  706TMC3     C10440   1.781   4.389  15.779  0.2421 -0.3798  0.5856
  706TMC3     O10441   1.866   4.376  15.869 -0.2413  0.3044 -0.3080
  706TMC3     H10442   1.738   4.536  15.999  0.8222 -3.4476 -1.1138
  706TMC3    H110443   1.556   4.342  15.657 -3.3619 -0.3359  1.6532
  706TMC3    H210444   1.334   4.616  15.891  0.0784 -0.1755 -1.4872
  706TMC3    C710445   1.335   4.378  15.762 -0.8953 -0.1814 -0.6987
  706TMC3    C810446   1.535   4.685  16.055 -0.7793  0.1439 -0.3661
  706TMC3    O110447   1.332   4.289  15.676 -0.7619  0.0748  0.7076
  706TMC3    O210448   1.616   4.669  16.147  0.1780 -0.7377 -0.0609
  707TMC3    C110449   3.026   2.683   1.909 -0.0617  0.1749  0.8407
  707TMC3    C210450   3.033   2.544   1.893 -0.1529 -0.1674 -0.0388
  707TMC3    C310451   2.926   2.474   1.937  0.4919  0.9288 -0.0517
  707TMC3    C410452   2.915   2.754   1.954 -0.3244 -0.1562 -0.3381
  707TMC3    C510453   2.809   2.672   2.004  0.4888 -0.5377 -0.9146
  707TMC3    C610454   2.815   2.533   1.991 -0.2749  0.2089  0.6069
  707TMC3     C10455   3.137   2.758   1.847  0.0684  0.2041  0.2056
  707TMC3     O10456   3.201   2.689   1.770  0.0887  0.1292  0.7713
  707TMC3     H10457   3.130   2.506   1.863  0.5780  2.0305 -0.4280
  707TMC3    H110458   2.940   2.858   1.970 -3.0960  0.1935  1.6036
  707TMC3    H210459   2.737   2.470   2.034 -0.5909  0.4294  0.3591
  707TMC3    C710460   2.705   2.725   2.086 -0.1346  0.1916  0.0808
  707TMC3    C810461   2.930   2.327   1.938  0.0384 -0.1021  0.7378
  707TMC3    O110462   2.638   2.644   2.154  0.7028 -0.4395 -0.1902
  707TMC3    O210463   2.845   2.270   2.006  0.1514  0.8011  0.0575
  708MPD2     C10464   4.279   3.449  13.711  0.2672 -0.2461  0.1105
  708MPD2    C110465   4.242   3.351  13.807 -1.1707 -0.0896 -0.6821
  708MPD2    C210466   4.340   3.305  13.893  0.3205 -0.2633  0.1905
  708MPD2    C310467   4.471   3.330  13.876 -0.1615 -0.5294  0.3333
  708MPD2    C410468   4.507   3.420  13.780 -0.6306  1.1971 -0.2329
  708MPD2    C510469   4.414   3.478  13.692 -0.6231 -0.2575  0.0618
  708MPD2     H10470   4.300   3.241  13.970 -2.2234  0.5701 -0.4331
  708MPD2    H110471   4.610   3.451  13.783 -0.3445  0.2123  0.1779
  708MPD2    H210472   4.208   3.498  13.646 -0.0664 -2.4889 -1.2097
  708MPD2    H310473   4.455   3.542  13.615 -1.4325  0.0128 -0.1411
  708MPD2     N10474   4.575   3.282  13.956 -0.1064 -0.3639  0.1279
  708MPD2    H510475   4.666   3.316  13.927 -0.0351 -0.6413  0.0206
  708MPD2    N110476   4.110   3.317  13.824  0.0987 -0.1599 -0.2483
  708MPD2    H710477   4.093   3.257  13.904 -0.0244 -0.8167 -0.7690
  709TMC3    C110478   3.894   3.250  13.786 -0.2762 -0.5843  0.9012
  709TMC3    C210479   3.844   3.146  13.715  0.5437  0.3894 -0.0354
  709TMC3    C310480   3.793   3.036  13.784 -0.0631  0.3887 -0.3048
  709TMC3    C410481   3.895   3.243  13.925  0.2924  0.4417  0.1101
  709TMC3    C510482   3.849   3.127  13.991  0.3245 -0.6838 -0.0100
  709TMC3    C610483   3.792   3.030  13.917 -0.1609 -0.2970 -0.2471
  709TMC3     C10484   4.005   3.327  13.733 -0.0082 -0.4520 -0.4257
  709TMC3     O10485   4.016   3.361  13.617 -0.3121  0.2912 -0.2773
  709TMC3     H10486   3.831   3.167  13.610  2.4290 -1.0295 -0.5567
  709TMC3    H110487   3.941   3.317  13.989  2.2281 -0.8836  0.2778
  709TMC3    H210488   3.764   2.937  13.966 -1.9008 -0.1511 -1.0118
  709TMC3    C710489   3.950   3.088  14.092 -0.7821  0.1500 -0.6373
  709TMC3    C810490   3.728   2.923  13.704 -0.1848 -0.4224  0.4927
  709TMC3    O110491   4.032   3.171  14.125  0.2790  0.5295  0.5349
  709TMC3    O210492   3.668   2.839  13.765  0.3358  0.6971  0.0834
  710TMC3    C110493   0.833   4.121   0.683  0.5939 -0.4978  0.1359
  710TMC3    C210494   0.857   4.174   0.558 -0.2043  0.0049 -0.0999
  710TMC3    C310495   0.931   4.098   0.474 -0.1495 -0.8644  0.1028
  710TMC3    C410496   0.858   3.994   0.716 -0.0231  0.2709  0.6227
  710TMC3    C510497   0.912   3.912   0.626  0.0934 -0.4442 -0.0120
  710TMC3    C610498   0.951   3.969   0.505  0.0777 -0.2951 -0.9865
  710TMC3     C10499   0.821   4.222   0.786 -0.0433 -0.5594 -0.7199
  710TMC3     O10500   0.826   4.335   0.750 -0.2321 -0.2641  0.1663
  710TMC3     H10501   0.826   4.274   0.532 -0.9908 -0.6358 -1.6679
  710TMC3    H110502   0.844   3.950   0.815  2.2832 -2.3606 -0.2016
  710TMC3    H210503   0.988   3.898   0.432 -0.5689 -1.2736 -0.3591
  710TMC3    C710504   0.911   3.762   0.639 -1.0679 -0.2220 -0.1716
  710TMC3    C810505   0.965   4.133   0.334  1.1778  0.1838  0.0251
  710TMC3    O110506   0.940   3.698   0.538  1.0781  0.6375 -0.0150
  710TMC3    O210507   0.959   4.038   0.253 -0.4468  0.0755 -0.2055
  711TMC3    C110508   0.234   0.511  15.174  0.4645 -0.5520 -0.2427
  711TMC3    C210509   0.245   0.625  15.257 -0.1181  0.1637 -0.3307
  711TMC3    C310510   0.361   0.641  15.335  0.9000  0.1977  0.0631
  711TMC3    C410511   0.326   0.409  15.185 -0.5880  0.4585 -0.0364
  711TMC3    C510512   0.421   0.424  15.278  0.3718  0.7488  0.3752
  711TMC3    C610513   0.455   0.542  15.344 -0.0137 -0.4553 -0.7498
  711TMC3     C10514   0.156   0.504  15.048 -0.1133 -0.6516  0.1415
  711TMC3     O10515   0.157   0.395  14.990  0.2414  0.0727 -0.7712
  711TMC3     H10516   0.176   0.708  15.245  0.3201  0.4243 -1.0470
  711TMC3    H110517   0.322   0.327  15.114 -0.7649  1.3563 -1.0653
  711TMC3    H210518   0.537   0.545  15.414 -0.5905 -1.4747 -0.0345
  711TMC3    C710519   0.511   0.309  15.296 -0.0093 -0.1735 -0.3905
  711TMC3    C810520   0.343   0.724  15.449 -0.1363  0.3588  0.0248
  711TMC3    O110521   0.627   0.324  15.336 -0.1261  0.3160  0.0465
  711TMC3    O210522   0.234   0.760  15.483  0.5203 -0.4156  0.1376
  712MPD2     C10523   1.997   1.306  13.384  0.6792 -0.0153 -0.2829
  712MPD2    C110524   1.891   1.349  13.468  0.4547 -0.3056 -0.0781
  712MPD2    C210525   1.917   1.462  13.537 -0.2475 -0.4609  0.4705
  712MPD2    C310526   2.036   1.540  13.541 -0.3299 -0.1304  0.9641
  712MPD2    C410527   2.135   1.489  13.457  0.2789  0.0287  0.0084
  712MPD2    C510528   2.114   1.376  13.380 -0.4621 -0.2553  0.7908
  712MPD2     H10529   1.845   1.505  13.605 -1.1303  0.9952 -1.3888
  712MPD2    H110530   2.227   1.546  13.444  1.5818 -1.9823  0.3931
  712MPD2    H210531   2.008   1.219  13.321 -0.4845 -1.3220  1.2962
  712MPD2    H310532   2.189   1.335  13.313  0.4063  0.1397  1.5155
  712MPD2     N10533   2.049   1.666  13.601  0.1839 -0.0628  0.2012
  712MPD2    H510534   2.139   1.713  13.600  1.9091 -3.4404 -0.3868
  712MPD2    N110535   1.764   1.293  13.478  0.3884  0.0673 -0.6055
  712MPD2    H710536   1.704   1.337  13.546  0.8013 -0.7416  0.2913
  713TMC3    C110537   1.990   1.883  13.665  0.8180 -0.6246 -0.7037
  713TMC3    C210538   2.103   1.936  13.615  0.0548 -0.4791 -0.2130
  713TMC3    C310539   2.111   2.070  13.614 -0.4227  0.2011  0.3419
  713TMC3    C410540   1.893   1.973  13.699 -0.4806  1.1654 -0.0004
  713TMC3    C510541   1.910   2.108  13.696 -0.6562 -0.6552  0.0544
  713TMC3    C610542   2.026   2.158  13.667 -0.4700 -0.6959  0.3583
  713TMC3     C10543   1.948   1.746  13.650  0.3670  0.0615  0.6682
  713TMC3     O10544   1.830   1.723  13.660  0.1316  0.6104 -0.1943
  713TMC3     H10545   2.180   1.881  13.562 -1.1662 -2.7499  0.3515
  713TMC3    H110546   1.791   1.935  13.702  0.5666 -1.4696  1.7561
  713TMC3    H210547   2.048   2.264  13.672 -0.6458 -0.6267 -0.3905
  713TMC3    C710548   1.841   2.181  13.797  0.4424 -0.0948  0.2175
  713TMC3    C810549   2.240   2.137  13.586  0.5061 -0.3917 -0.1625
  713TMC3    O110550   1.906   2.251  13.876 -0.0001  0.3755  0.8025
  713TMC3    O210551   2.237   2.252  13.544  0.0851  0.2138 -0.0642
  714MPD2     C10552   2.781   4.343   1.501 -0.0019  0.2476  0.3915
  714MPD2    C110553   2.871   4.274   1.414  0.4868  1.0403 -0.0674
  714MPD2    C210554   2.846   4.286   1.279 -0.7501 -0.1693 -0.4567
  714MPD2    C310555   2.746   4.374   1.230 -0.4785 -0.2967  0.1814
  714MPD2    C410556   2.658   4.437   1.322 -0.8246  0.4928  0.5395
  714MPD2    C510557   2.680   4.426   1.455 -0.2339 -0.2153 -0.3339
  714MPD2     H10558   2.908   4.238   1.205  0.2500  1.1069 -0.4436
  714MPD2    H110559   2.584   4.510   1.292 -0.4945  0.0095 -1.4663
  714MPD2    H210560   2.783   4.338   1.610 -3.3898  2.3113  0.5601
  714MPD2    H310561   2.623   4.483   1.528 -0.0597 -0.4788  0.0084
  714MPD2     N10562   2.747   4.410   1.091  0.2962 -0.5745 -0.1998
  714MPD2    H510563   2.809   4.351   1.037  0.0563 -1.1154  0.1173
  714MPD2    N110564   2.985   4.207   1.465 -0.2868 -0.0160 -0.7284
  714MPD2    H710565   3.008   4.206   1.564 -2.5025 -0.5786 -0.2222
  715TMC3    C110566   3.194   4.110   1.466  0.5415  0.2812  0.1741
  715TMC3    C210567   3.254   3.991   1.435  0.0136 -0.6594  0.1136
  715TMC3    C310568   3.328   3.927   1.522  0.6033 -0.1876 -0.8035
  715TMC3    C410569   3.209   4.161   1.594  0.3412 -0.2941 -0.9351
  715TMC3    C510570   3.278   4.088   1.685 -0.4196 -0.6438 -0.0294
  715TMC3    C610571   3.345   3.977   1.649  0.3498  0.5211 -0.0463
  715TMC3     C10572   3.071   4.131   1.392 -0.3068 -0.1353 -0.6038
  715TMC3     O10573   3.088   4.119   1.270 -0.2670  0.0425 -0.2726
  715TMC3     H10574   3.269   3.965   1.331 -0.0722 -0.8696  0.1538
  715TMC3    H110575   3.176   4.261   1.617  0.1314 -0.2723 -1.3186
  715TMC3    H210576   3.390   3.918   1.728 -0.1898 -1.9185 -1.5515
  715TMC3    C710577   3.358   4.167   1.776  0.2494 -0.3797 -0.8550
  715TMC3    C810578   3.463   3.886   1.474  0.8682  0.6356 -0.2524
  715TMC3    O110579   3.473   4.125   1.776  0.1863  0.0378  0.2648
  715TMC3    O210580   3.475   3.842   1.362  0.3403 -0.1602 -0.1400
  716MPD2     C10581   4.624   3.551   9.928  0.2023 -0.0440 -0.0701
  716MPD2    C110582   4.492   3.544   9.893 -0.0714  0.0434 -0.2443
  716MPD2    C210583   4.420   3.441   9.945  0.5621 -0.2736  0.5045
  716MPD2    C310584   4.475   3.340  10.019 -0.0699  0.4450 -0.2471
  716MPD2    C410585   4.606   3.346  10.049 -0.3280  0.2143  0.0230
  716MPD2    C510586   4.683   3.453  10.006 -0.0906 -0.2110  0.0905
  716MPD2     H10587   4.312   3.439   9.946  0.5686 -1.1101 -0.5609
  716MPD2    H110588   4.656   3.275  10.114  2.0067  0.5430 -1.4358
  716MPD2    H210589   4.682   3.639   9.904  1.5891 -0.6376  1.1593
  716MPD2    H310590   0.067   3.455  10.026 -0.0033 -0.8496 -0.3068
  716MPD2     N10591   4.389   3.235  10.067 -0.5288 -0.1967  0.3310
  716MPD2    H510592   4.294   3.232  10.032 -0.2957  0.2150 -0.3335
  716MPD2    N110593   4.439   3.647   9.822 -0.5813 -0.4244 -0.4578
  716MPD2    H710594   4.506   3.721   9.801 -0.3379 -0.5600 -0.1454
  717TMC3    C110595   4.326   3.016  10.133 -0.6272 -0.4740  0.8669
  717TMC3    C210596   4.266   2.986  10.007  0.6072  0.8784  0.1806
  717TMC3    C310597   4.233   2.862   9.980  0.5786  0.3362 -0.1636
  717TMC3    C410598   4.344   2.912  10.221  0.0874 -0.4673 -0.1508
  717TMC3    C510599   4.301   2.789  10.190  1.8302  0.4709 -0.0091
  717TMC3    C610600   4.236   2.765  10.068 -0.6413  0.4967 -0.0227
  717TMC3     C10601   4.430   3.115  10.130 -0.1748 -0.4467 -0.3527
  717TMC3     O10602   4.543   3.090  10.172  0.2573  0.4055  0.3614
  717TMC3     H10603   4.256   3.071   9.940  3.7204  0.7928 -0.3907
  717TMC3    H110604   4.395   2.934  10.314 -0.5406 -0.0509  0.0907
  717TMC3    H210605   4.179   2.676  10.047  1.1996 -0.2345 -1.8972
  717TMC3    C710606   4.316   2.693  10.296 -0.4167  0.1595  0.5877
  717TMC3    C810607   4.165   2.839   9.858  0.4833  0.3339 -0.1889
  717TMC3    O110608   4.349   2.726  10.410 -0.2984 -0.1481  0.1193
  717TMC3    O210609   4.111   2.934   9.801  0.3984 -0.5728 -0.1255
  718MPD2     C10610   3.367   2.130  12.951  0.6293 -0.1535 -0.0599
  718MPD2    C110611   3.276   2.176  12.861  0.0318 -0.2729  1.0035
  718MPD2    C210612   3.147   2.204  12.899 -0.1847  0.1452 -0.3731
  718MPD2    C310613   3.110   2.195  13.030  0.3773  0.5208  0.4393
  718MPD2    C410614   3.198   2.150  13.121  0.0192  0.1097  0.3355
  718MPD2    C510615   3.320   2.115  13.079  0.1469  0.6373 -0.2472
  718MPD2     H10616   3.076   2.243  12.827 -2.2469 -1.3017  0.8929
  718MPD2    H110617   3.163   2.133  13.223 -3.1326  2.7290 -0.2918
  718MPD2    H210618   3.471   2.105  12.933  0.7638 -1.2453  2.2438
  718MPD2    H310619   3.387   2.072  13.152 -0.4389  2.1455  1.1756
  718MPD2     N10620   2.973   2.233  13.046  0.0191 -0.3548 -0.4975
  718MPD2    H510621   2.935   2.265  12.958  0.0351  3.4374  0.8734
  718MPD2    N110622   3.327   2.193  12.727  0.4317 -0.1422 -0.0002
  718MPD2    H710623   3.426   2.175  12.715  0.1501 -3.1298  2.1818
  719TMC3    C110624   3.311   2.262  12.496 -0.0658  0.2832 -0.2132
  719TMC3    C210625   3.216   2.309  12.412 -0.9575  0.0840  0.4037
  719TMC3    C310626   3.232   2.421  12.342 -0.3040 -0.7113 -0.0136
  719TMC3    C410627   3.429   2.328  12.515  0.1074 -0.1375 -0.0001
  719TMC3    C510628   3.443   2.440  12.438  0.4389  0.2101 -0.4811
  719TMC3    C610629   3.349   2.491  12.348  0.9420  0.2837  0.4122
  719TMC3     C10630   3.247   2.236  12.620 -0.1265  0.6206 -0.2504
  719TMC3     O10631   3.139   2.295  12.621 -0.0873 -0.7901 -0.6942
  719TMC3     H10632   3.133   2.244  12.385  0.3005 -0.4821 -2.0521
  719TMC3    H110633   3.504   2.296  12.586  3.0629  1.2431 -2.4853
  719TMC3    H210634   3.365   2.586  12.300  0.1127  1.2052  1.9616
  719TMC3    C710635   3.575   2.493  12.405 -0.3069  0.7919 -0.2635
  719TMC3    C810636   3.116   2.501  12.338  0.4326 -0.1781 -0.2913
  719TMC3    O110637   3.590   2.542  12.293  0.6996  0.4135 -0.2531
  719TMC3    O210638   3.111   2.611  12.282 -0.7285 -0.1345 -0.0201
  720MPD2     C10639   1.738   3.757  14.086 -0.2100  0.4474 -0.2668
  720MPD2    C110640   1.850   3.713  14.027 -0.1743  0.0262  0.2844
  720MPD2    C210641   1.950   3.650  14.094  0.3464  0.1880  0.3056
  720MPD2    C310642   1.934   3.616  14.232 -0.4045 -0.1018  0.4171
  720MPD2    C410643   1.810   3.656  14.284 -0.6473  0.6326 -0.3211
  720MPD2    C510644   1.722   3.735  14.218 -1.0160  0.0762  0.9525
  720MPD2     H10645   2.044   3.632  14.042 -0.2690 -1.6994 -0.1403
  720MPD2    H110646   1.774   3.621  14.380 -0.8625 -3.1743 -1.8170
  720MPD2    H210647   1.663   3.822  14.041 -0.1987  0.7215  0.1136
  720MPD2    H310648   1.639   3.759  14.282 -0.9900  3.2240 -0.1944
  720MPD2     N10649   2.036   3.546  14.292 -0.0729  0.5902 -0.4041
  720MPD2    H510650   2.124   3.535  14.242  0.1267  0.7489 -0.0852
  720MPD2    N110651   1.880   3.758  13.894  0.1593 -0.1241  0.3377
  720MPD2    H710652   1.808   3.819  13.856  0.0133 -0.8518 -0.5568
  721TMC3    C110653   2.142   3.407  14.443  0.4127  0.0961  0.0455
  721TMC3    C210654   2.138   3.276  14.485  0.6058 -0.3418  0.2523
  721TMC3    C310655   2.240   3.192  14.467  0.4881 -0.6769  0.2263
  721TMC3    C410656   2.263   3.455  14.396  1.1997 -0.6698  0.4439
  721TMC3    C510657   2.369   3.368  14.388  0.5993 -0.1528  0.0557
  721TMC3    C610658   2.364   3.238  14.429  0.3395  0.0943  0.4670
  721TMC3     C10659   2.024   3.479  14.412  0.0467 -0.6050  0.0260
  721TMC3     O10660   1.928   3.459  14.490  0.1445  0.0637  0.2210
  721TMC3     H10661   2.039   3.248  14.521  0.1612  1.1767  0.2195
  721TMC3    H110662   2.271   3.554  14.353  1.4245 -0.4181  1.0639
  721TMC3    H210663   2.443   3.170  14.400  0.3718 -0.3818  1.6696
  721TMC3    C710664   2.489   3.436  14.351  0.1000 -0.2139 -0.0578
  721TMC3    C810665   2.233   3.054  14.495 -0.2205 -0.1422 -0.6214
  721TMC3    O110666   2.482   3.523  14.262  0.2288 -0.0355 -0.5661
  721TMC3    O210667   2.329   2.987  14.454  0.4276 -0.0991 -0.0168
  722MPD2     C10668   0.852   2.102  13.159  0.5659  0.5341  0.0925
  722MPD2    C110669   0.785   2.199  13.226  0.1775  0.1449 -0.0975
  722MPD2    C210670   0.656   2.226  13.190 -0.0233 -0.1615 -0.3425
  722MPD2    C310671   0.588   2.156  13.091 -0.3466  0.3830  0.3831
  722MPD2    C410672   0.671   2.083  13.005 -0.3828  0.4271  0.0744
  722MPD2    C510673   0.803   2.067  13.035  0.0142 -0.3995  0.5647
  722MPD2     H10674   0.601   2.301  13.245 -0.2787  0.8125 -1.9214
  722MPD2    H110675   0.628   2.041  12.915 -0.5030  1.3174 -0.2824
  722MPD2    H210676   0.951   2.062  13.178 -0.5194 -2.1565  0.0765
  722MPD2    H310677   0.866   2.008  12.969  0.3519  0.4879  0.1039
  722MPD2     N10678   0.449   2.178  13.070  0.3250  0.2218 -0.7796
  722MPD2    H510679   0.412   2.241  13.140 -1.5980 -0.2765 -1.3336
  722MPD2    N110680   0.835   2.267  13.333 -0.0022  0.0231  0.2652
  722MPD2    H710681   0.772   2.339  13.366  1.3670  0.9455  0.8671
  723TMC3    C110682   0.232   2.150  12.986  0.5265 -0.4659 -0.6368
  723TMC3    C210683   0.161   2.032  12.990  0.2975  0.1043 -0.3073
  723TMC3    C310684   0.044   2.050  13.057  0.5880  0.2575 -0.1392
  723TMC3    C410685   0.200   2.271  13.041 -0.5506 -0.3648  0.8769
  723TMC3    C510686   0.071   2.278  13.080 -0.7468  0.2047  0.4418
  723TMC3    C610687   4.712   2.172  13.092 -0.2242  0.0691 -0.2051
  723TMC3     C10688   0.373   2.115  12.977  0.1768  0.1659 -0.3104
  723TMC3     O10689   0.408   2.036  12.890 -0.0852  0.6620 -0.0732
  723TMC3     H10690   0.193   1.936  12.952 -5.0451 -2.4928  1.7867
  723TMC3    H110691   0.253   2.363  13.018 -0.8768 -0.4854 -0.3928
  723TMC3    H210692   4.610   2.189  13.126 -0.0699  0.8951 -0.1771
  723TMC3    C710693   4.714   2.397  13.043  0.1757  0.7240 -0.2765
  723TMC3    C810694   4.666   1.944  13.059  0.1250  0.0978  0.8263
  723TMC3    O110695   4.602   2.380  13.000 -0.5486  0.0301 -0.1091
  723TMC3    O210696   4.547   1.972  13.079  0.6218 -0.4395  0.1523
  724TMC3    C110697   1.206   0.050  10.788  1.0163 -0.4513  0.3359
  724TMC3    C210698   1.123   0.023  10.677  1.0067  0.4536 -0.7743
  724TMC3    C310699   1.134   0.103  10.566 -0.0925  0.3289  0.4257
  724TMC3    C410700   1.281   0.169  10.789 -0.2617 -0.0811 -0.5348
  724TMC3    C510701   1.269   0.250  10.682 -0.5454  0.2421 -0.1872
  724TMC3    C610702   1.203   0.219  10.565 -0.3004  0.6094 -0.5547
  724TMC3     C10703   1.259   4.676  10.886  0.6271  0.1009 -0.5837
  724TMC3     O10704   1.372   4.690  10.931 -0.8290 -0.4429  0.4416
  724TMC3     H10705   1.084   4.646  10.666  1.0183  0.3658  0.0222
  724TMC3    H110706   1.341   0.202  10.874 -0.6118 -0.4485 -0.1453
  724TMC3    H210707   1.198   0.292  10.485  0.6947  0.6934 -0.5472
  724TMC3    C710708   1.367   0.347  10.653 -0.2019 -0.0473  0.1505
  724TMC3    C810709   1.074   0.054  10.440 -0.1539 -0.5485  0.6368
  724TMC3    O110710   1.417   0.342  10.540  0.1401 -0.1034  0.0797
  724TMC3    O210711   0.989   4.692  10.447 -0.3127  0.0486 -0.4053
  725TMC3    C110712   2.487   4.081  12.499 -0.3762 -0.2514  0.5496
  725TMC3    C210713   2.383   4.167  12.470  0.3320 -0.4828  0.6429
  725TMC3    C310714   2.336   4.152  12.344 -0.6708  0.6664 -0.7555
  725TMC3    C410715   2.544   4.003  12.405  0.3012  0.4209  0.8745
  725TMC3    C510716   2.486   3.993  12.282 -0.6230 -0.7869  0.1148
  725TMC3    C610717   2.383   4.074  12.245 -0.1048 -0.1192 -0.6890
  725TMC3     C10718   2.556   4.122  12.620 -0.2611 -0.7016 -0.1313
  725TMC3     O10719   2.546   4.235  12.665  0.0540 -0.3244 -0.0013
  725TMC3     H10720   2.332   4.225  12.546  0.9217 -0.7044  1.2116
  725TMC3    H110721   2.626   3.937  12.431 -0.2546 -0.4744  0.3695
  725TMC3    H210722   2.338   4.071  12.146 -2.2530 -0.5491  0.3014
  725TMC3    C710723   2.536   3.891  12.184 -0.1487 -0.3611  0.5138
  725TMC3    C810724   2.194   4.195  12.324  0.4545  0.2012 -0.0903
  725TMC3    O110725   2.471   3.893  12.079 -0.0828  0.3606  0.4220
  725TMC3    O210726   2.128   4.196  12.430 -0.1196  0.2893  0.3619
  726MPD2     C10727   0.121   0.143  10.704  0.0950  0.0195  0.6350
  726MPD2    C110728   0.229   0.218  10.753 -0.0291  0.5351  0.0528
  726MPD2    C210729   0.231   0.266  10.879 -0.0282 -0.3800  0.2012
  726MPD2    C310730   0.122   0.248  10.958 -0.3490 -0.1737  1.0318
  726MPD2    C410731   0.009   0.183  10.909  0.4843  0.0472 -0.0230
  726MPD2    C510732   0.011   0.129  10.785 -1.0750 -0.1360  0.6571
  726MPD2     H10733   0.320   0.319  10.911 -1.5712  1.6403  1.1198
  726MPD2    H110734   4.641   0.170  10.967  1.9135 -0.6781  2.0623
  726MPD2    H210735   0.125   0.091  10.608  0.9188  1.1133  0.0827
  726MPD2    H310736   4.640   0.082  10.758 -2.6180  1.2556  3.5553
  726MPD2     N10737   0.114   0.291  11.096  0.2758 -0.0300  0.0568
  726MPD2    H510738   0.049   0.240  11.156  0.8521 -1.3057 -0.3954
  726MPD2    N110739   0.341   0.239  10.662  0.1975  0.0061  0.2651
  726MPD2    H710740   0.330   0.232  10.561 -1.3067  4.0668  0.1674
  727TMC3    C110741   0.570   0.312  10.605  1.0858  0.1715  0.1126
  727TMC3    C210742   0.706   0.302  10.624  0.6972  0.0930  0.2731
  727TMC3    C310743   0.788   0.306  10.511 -0.1486  0.3446  0.0468
  727TMC3    C410744   0.523   0.344  10.477 -0.5946 -0.2094 -0.0689
  727TMC3    C510745   0.611   0.362  10.374  0.7435  0.3795 -0.0560
  727TMC3    C610746   0.745   0.335  10.387  0.2197  0.2052 -0.0342
  727TMC3     C10747   0.474   0.266  10.706  0.2051  0.2123  0.5518
  727TMC3     O10748   0.523   0.254  10.811  0.1015 -0.1304 -0.1856
  727TMC3     H10749   0.732   0.267  10.724 -1.5472 -0.6731  0.5988
  727TMC3    H110750   0.419   0.367  10.460 -0.2271  1.1463 -0.4692
  727TMC3    H210751   0.812   0.308  10.307 -1.4595 -0.1247 -1.3120
  727TMC3    C710752   0.568   0.458  10.269 -0.6188 -0.1414  0.0273
  727TMC3    C810753   0.896   0.399  10.530 -0.4300 -0.0562 -0.0914
  727TMC3    O110754   0.448   0.495  10.272 -0.1121  0.2985  0.4644
  727TMC3    O210755   0.943   0.439  10.424  0.3466  0.8612 -0.6838
  728TMC3    C110756   4.354   4.031  15.322 -0.5302  1.0353 -0.8573
  728TMC3    C210757   4.483   4.083  15.310  0.7376  0.3333 -0.0034
  728TMC3    C310758   4.514   4.162  15.205 -0.3350 -0.5259  0.2009
  728TMC3    C410759   4.262   4.055  15.219  0.1604  0.0519 -0.3513
  728TMC3    C510760   4.300   4.139  15.120  0.3760  0.2577  0.6122
  728TMC3    C610761   4.428   4.191  15.109  0.3812  0.3778 -0.2818
  728TMC3     C10762   4.329   3.954  15.445 -0.4547 -0.1781  0.3176
  728TMC3     O10763   4.417   3.962  15.532 -0.2377 -0.7940  0.2165
  728TMC3     H10764   4.559   4.057  15.383  1.3296 -0.8072 -1.0331
  728TMC3    H110765   4.166   4.005  15.218  0.4970 -0.6422  1.2810
  728TMC3    H210766   4.455   4.262  15.031  0.8028  0.0641 -0.4181
  728TMC3    C710767   4.195   4.176  15.019 -0.2143 -0.2578 -0.7232
  728TMC3    C810768   4.640   4.239  15.197  0.3661  0.0844  0.3021
  728TMC3    O110769   4.082   4.127  15.033  0.8469  0.0566 -0.2690
  728TMC3    O210770   4.636   4.345  15.135 -0.3235 -0.4079 -0.0289
  729MPD2     C10771   1.744   0.270  16.607 -0.4277 -0.2292  0.5282
  729MPD2    C110772   1.860   0.190  16.624  0.7796 -0.1120  0.3401
  729MPD2    C210773   1.861   0.107  16.733  0.0652 -0.0711 -0.5547
  729MPD2    C310774   1.753   0.098  16.824  0.5866  0.4013  0.4019
  729MPD2    C410775   1.638   0.173  16.796 -0.1190  0.1115 -0.3705
  729MPD2    C510776   1.634   0.264  16.693 -0.0643  0.8883 -0.0639
  729MPD2     H10777   1.956   0.063  16.762  0.1519  0.3493 -0.1979
  729MPD2    H110778   1.556   0.166  16.867 -1.7684 -1.2802 -2.4113
  729MPD2    H210779   1.741   0.342  16.526 -0.6129 -1.2930 -0.3971
  729MPD2    H310780   1.554   0.337  16.688  0.4081  1.4477  0.5760
  729MPD2     N10781   1.771   0.028  16.942 -0.5112 -0.2399 -0.0554
  729MPD2    H510782   1.857   4.698  16.942 -1.2023 -1.3603  0.1773
  729MPD2    N110783   1.965   0.197  16.526  0.0325 -0.0620  0.4348
  729MPD2    H710784   1.955   0.262  16.449 -1.4202 -1.4411 -0.5326
  730TMC3    C110785   1.770   4.697  17.159 -0.2336 -0.3629  0.1966
  730TMC3    C210786   1.886   4.639  17.113 -0.3347 -0.3691 -0.2621
  730TMC3    C310787   2.003   4.701  17.150  0.0831 -0.6815 -0.3145
  730TMC3    C410788   1.776   0.067  17.262  0.8526 -0.7856 -0.1840
  730TMC3    C510789   1.898   0.118  17.296 -0.2679  0.7452 -0.0397
  730TMC3    C610790   2.013   0.071  17.241 -0.4469 -0.6971 -0.2337
  730TMC3     C10791   1.697   0.031  17.052  0.0560  0.6412  0.3331
  730TMC3     O10792   1.595   0.091  17.078 -0.0944  0.2374 -0.1299
  730TMC3     H10793   1.890   4.561  17.038 -0.4723 -0.2089 -0.4353
  730TMC3    H110794   1.688   0.115  17.303  0.4647  0.7925 -2.9304
  730TMC3    H210795   2.105   0.118  17.275 -1.6634  1.8418 -0.4113
  730TMC3    C710796   1.896   0.261  17.286  0.3283  0.4583 -0.1745
  730TMC3    C810797   2.097   4.715  17.040  0.2071 -0.0841 -0.0011
  730TMC3    O110798   1.972   0.293  17.197  0.4680  0.5912 -0.0090
  730TMC3    O210799   2.086   4.640  16.945 -0.2130 -0.6717 -0.2591
  731MPD2     C10800   1.911   3.431  11.953  0.6787 -0.2006 -0.5837
  731MPD2    C110801   1.787   3.412  12.011 -0.6405  0.2665  0.1448
  731MPD2    C210802   1.787   3.424  12.149 -0.1335  0.1284  0.1485
  731MPD2    C310803   1.893   3.466  12.226  0.4968  0.0556  0.2786
  731MPD2    C410804   2.014   3.487  12.163 -0.5602  0.3192  0.5019
  731MPD2    C510805   2.022   3.469  12.027  0.0522 -0.0243 -0.4395
  731MPD2     H10806   1.701   3.416  12.215 -0.0731 -2.5480 -0.1126
  731MPD2    H110807   2.100   3.527  12.216  0.2110  0.7269 -1.0528
  731MPD2    H210808   1.931   3.407  11.849 -0.0002  0.9384 -0.9708
  731MPD2    H310809   2.113   3.500  11.976  1.8547 -2.6846  1.1586
  731MPD2     N10810   1.881   3.478  12.363 -0.4170 -0.0189 -0.2922
  731MPD2    H510811   1.793   3.447  12.404 -0.3520 -1.2262 -1.0537
  731MPD2    N110812   1.695   3.349  11.932  0.1318  0.0784 -0.1542
  731MPD2    H710813   1.711   3.345  11.832 -0.9522 -0.8014 -0.2890
  732TMC3    C110814   1.495   3.245  11.871 -0.3718 -0.0593 -0.0871
  732TMC3    C210815   1.412   3.148  11.910  0.2223 -0.5548  0.4626
  732TMC3    C310816   1.373   3.056  11.815  0.6943 -0.4751  0.5276
  732TMC3    C410817   1.543   3.258  11.745  0.2067 -1.3323 -0.4965
  732TMC3    C510818   1.511   3.159  11.654 -0.5026  0.0048 -0.0956
  732TMC3    C610819   1.417   3.065  11.685 -0.1991 -0.4507  0.0033
  732TMC3     C10820   1.568   3.307  11.981  0.2712  0.2843 -0.6131
  732TMC3     O10821   1.525   3.324  12.092  0.2933  0.8562  0.1634
  732TMC3     H10822   1.389   3.147  12.016  0.0990  0.9522  0.4399
  732TMC3    H110823   1.582   3.348  11.699  0.7395 -1.3463 -0.0788
  732TMC3    H210824   1.380   3.009  11.599  1.5511  0.8404 -1.6026
  732TMC3    C710825   1.572   3.144  11.516 -0.9569 -0.4603 -0.1376
  732TMC3    C810826   1.262   2.962  11.831 -0.5038 -0.8196 -0.2038
  732TMC3    O110827   1.505   3.107  11.419  0.2449  0.2833 -0.3508
  732TMC3    O210828   1.236   2.877  11.747  0.6560 -0.5002  0.3160
  733TMC3    C110829   2.542   2.315  13.185  0.3908  0.5194 -0.5534
  733TMC3    C210830   2.669   2.265  13.214 -0.3346  0.6909 -0.7259
  733TMC3    C310831   2.773   2.306  13.140 -0.9937 -0.0402 -0.1788
  733TMC3    C410832   2.525   2.413  13.085  0.4644  0.4083 -0.3374
  733TMC3    C510833   2.633   2.453  13.010 -0.2792 -0.3547  0.3662
  733TMC3    C610834   2.760   2.401  13.043 -0.3622  0.1774  0.1748
  733TMC3     C10835   2.414   2.236  13.203 -0.2232  0.4993 -0.0130
  733TMC3     O10836   2.305   2.297  13.196  0.8446 -0.1277 -0.5305
  733TMC3     H10837   2.687   2.184  13.284  4.1818  2.1290 -0.2530
  733TMC3    H110838   2.428   2.437  13.045  0.1596  0.7908  0.6469
  733TMC3    H210839   2.855   2.424  12.996  1.5498 -0.9018  3.5511
  733TMC3    C710840   2.621   2.518  12.878  0.4175 -0.4401 -0.5711
  733TMC3    C810841   2.900   2.244  13.162  0.4537 -0.5095  0.7318
  733TMC3    O110842   2.522   2.592  12.857  0.1570 -0.0329 -0.6141
  733TMC3    O210843   2.917   2.190  13.272  0.6927 -0.1744  0.0793
  734MPD2     C10844   0.263   4.290  11.919 -0.0975  0.5523  0.9535
  734MPD2    C110845   0.134   4.243  11.939 -0.1367  0.0900  0.8623
  734MPD2    C210846   0.044   4.246  11.834  0.0775  0.0247  0.7539
  734MPD2    C310847   0.086   4.297  11.712  0.5122 -0.2310 -0.5252
  734MPD2    C410848   0.205   4.353  11.691 -0.0812 -0.3479 -0.4838
  734MPD2    C510849   0.286   4.350  11.801 -0.2668 -0.1323 -0.4288
  734MPD2     H10850   4.663   4.217  11.853 -0.3926  1.5120  0.4835
  734MPD2    H110851   0.237   4.403  11.600  0.9251  0.7965  0.5050
  734MPD2    H210852   0.342   4.294  11.994 -1.6769 -0.9813  2.7295
  734MPD2    H310853   0.378   4.405  11.788 -1.1476  1.5364  0.4144
  734MPD2     N10854   4.708   4.285  11.615  0.0630 -0.1466 -0.2797
  734MPD2    H510855   4.633   4.225  11.646  1.6825 -0.5405  2.8681
  734MPD2    N110856   0.086   4.186  12.067  0.1943  0.4293  0.3402
  734MPD2    H710857   0.165   4.172  12.130 -0.8706 -0.6347  1.4375
  735TMC3    C110858   4.679   4.052  12.221  0.1000 -0.1336 -0.1968
  735TMC3    C210859   4.559   3.990  12.246 -0.0647  0.3405  0.6875
  735TMC3    C310860   4.554   3.860  12.274 -0.4537 -0.7496 -0.1133
  735TMC3    C410861   0.073   3.988  12.248 -0.6156  0.1541  0.1087
  735TMC3    C510862   0.069   3.856  12.284  0.1864 -0.9788  0.5015
  735TMC3    C610863   4.674   3.787  12.297  0.2843 -0.8334  0.3963
  735TMC3     C10864   4.685   4.136  12.094 -0.4768  0.3414  0.2648
  735TMC3     O10865   4.581   4.148  12.036 -0.2796  0.5076 -0.2903
  735TMC3     H10866   4.470   4.051  12.232 -0.7995 -0.6854  0.9140
  735TMC3    H110867   0.169   4.037  12.236 -0.3288 -0.3636  0.3352
  735TMC3    H210868   4.663   3.679  12.305  3.9782 -1.2117  0.5622
  735TMC3    C710869   0.184   3.785  12.248 -0.2966 -0.0670  0.8274
  735TMC3    C810870   4.473   3.796  12.176  0.6551  0.4628  0.4948
  735TMC3    O110871   0.249   3.844  12.159  0.0069 -0.1569 -0.3620
  735TMC3    O210872   4.421   3.688  12.207 -0.6366  0.2448 -0.0847
  736MPD2     C10873   0.314   3.459  12.372 -0.3968  0.1161  0.2452
  736MPD2    C110874   0.312   3.577  12.298 -0.4122 -0.2696  0.1943
  736MPD2    C210875   0.424   3.598  12.224  0.6188  0.0977 -0.5565
  736MPD2    C310876   0.532   3.520  12.212 -0.0468  0.1011  0.2059
  736MPD2    C410877   0.534   3.403  12.282  0.4818 -0.0900 -0.3142
  736MPD2    C510878   0.429   3.378  12.364  0.3937  0.4471  0.1155
  736MPD2     H10879   0.421   3.684  12.157  0.3754  3.6148  3.9276
  736MPD2    H110880   0.616   3.333  12.271 -1.0125 -1.6724 -1.4261
  736MPD2    H210881   0.223   3.439  12.428  0.2881  2.1872  2.1076
  736MPD2    H310882   0.443   3.293  12.429 -2.3024 -1.2534 -1.5356
  736MPD2     N10883   0.636   3.543  12.118 -0.1269  0.8197 -0.0540
  736MPD2    H510884   0.686   3.459  12.092  0.8917  1.3233  0.2917
  736MPD2    N110885   0.199   3.663  12.306 -0.3190  0.7380 -0.3144
  736MPD2    H710886   0.125   3.633  12.369  1.2575  0.1364  1.2525
  737TMC3    C110887   0.787   3.668  11.986  0.3089  0.5612 -1.2353
  737TMC3    C210888   0.778   3.767  11.890  0.3081 -0.0633  0.6745
  737TMC3    C310889   0.828   3.737  11.770 -0.1221  0.3862  0.1484
  737TMC3    C410890   0.856   3.556  11.969  0.1476  0.2245 -0.4224
  737TMC3    C510891   0.922   3.543  11.854  0.0286  0.8851 -0.8218
  737TMC3    C610892   0.903   3.627  11.752 -0.7012  0.3854  0.6470
  737TMC3     C10893   0.690   3.668  12.095 -0.6234 -0.6510  0.1050
  737TMC3     O10894   0.648   3.770  12.142  0.2128  0.2583  0.1901
  737TMC3     H10895   0.703   3.841  11.917 -0.4941 -1.0826  1.2152
  737TMC3    H110896   0.856   3.477  12.043 -0.8726 -0.1299 -0.8077
  737TMC3    H210897   0.947   3.606  11.655 -1.7673  1.6151 -0.0939
  737TMC3    C710898   0.991   3.422  11.831  0.6564 -0.1732  0.3543
  737TMC3    C810899   0.769   3.776  11.648 -0.1472 -0.4714  0.0833
  737TMC3    O110900   0.955   3.320  11.886  0.2303 -0.5173 -0.5110
  737TMC3    O210901   0.778   3.717  11.544  0.6152  0.0691  0.1983
  738MPD2     C10902   0.830   2.397  15.699 -0.2102  0.3528  0.5263
  738MPD2    C110903   0.847   2.302  15.598 -0.9007 -0.3277  0.7534
  738MPD2    C210904   0.978   2.275  15.556  0.3600  0.0064  0.1025
  738MPD2    C310905   1.088   2.348  15.605 -0.9777  0.1797  0.7396
  738MPD2    C410906   1.067   2.440  15.703  0.4151 -0.0442 -0.0966
  738MPD2    C510907   0.940   2.469  15.744 -0.1403 -0.8820  0.4434
  738MPD2     H10908   0.980   2.202  15.476  1.1690 -0.9687  1.0022
  738MPD2    H110909   1.154   2.490  15.746 -0.7491  1.8657  0.0503
  738MPD2    H210910   0.733   2.412  15.746 -0.6243  0.6173 -0.4238
  738MPD2    H310911   0.919   2.537  15.825  0.9572  1.1234 -0.9508
  738MPD2     N10912   1.223   2.332  15.572 -0.0096 -0.3163  0.0295
  738MPD2    H510913   1.295   2.386  15.620  1.9398 -2.4719 -0.5020
  738MPD2    N110914   0.739   2.237  15.536  0.2516  0.3538 -0.1925
  738MPD2    H710915   0.751   2.158  15.474 -0.9826 -0.0634  0.1070
  739TMC3    C110916   1.410   2.267  15.444 -0.5109  0.5074 -0.1599
  739TMC3    C210917   1.464   2.275  15.324  0.2341 -0.3168 -0.5223
  739TMC3    C310918   1.597   2.254  15.307  0.3894 -0.0043 -0.3824
  739TMC3    C410919   1.484   2.231  15.557 -0.1649 -0.1927 -0.3675
  739TMC3    C510920   1.617   2.199  15.536  0.3497 -0.4714  0.3534
  739TMC3    C610921   1.679   2.208  15.411  0.3315 -0.0593 -0.0540
  739TMC3     C10922   1.260   2.276  15.455 -0.9629  0.1459  0.0863
  739TMC3     O10923   1.196   2.254  15.352  0.2012  0.2222  0.0014
  739TMC3     H10924   1.401   2.316  15.245 -0.5374 -0.7906 -0.1525
  739TMC3    H110925   1.451   2.228  15.660  0.1548  0.1738 -0.2559
  739TMC3    H210926   1.780   2.172  15.397  0.3589  0.4587 -1.1968
  739TMC3    C710927   1.700   2.206  15.655  0.1518 -0.3639  0.1018
  739TMC3    C810928   1.649   2.278  15.176  0.6918  0.8411 -0.2696
  739TMC3    O110929   1.637   2.206  15.760 -0.4506 -0.4870  0.2760
  739TMC3    O210930   1.566   2.306  15.089  0.2109 -1.1570 -0.1593
  740TMC3    C110931   1.841   3.934  14.485 -0.0433  0.2690  0.3730
  740TMC3    C210932   1.883   3.862  14.603  0.4940  0.1272  0.1531
  740TMC3    C310933   2.014   3.819  14.611 -0.3690 -0.0462 -0.6511
  740TMC3    C410934   1.931   3.953  14.382 -0.4459  0.4472  0.2121
  740TMC3    C510935   2.059   3.912  14.406 -0.0491  0.3376  0.0359
  740TMC3    C610936   2.104   3.849  14.523  0.0210 -0.1283  0.0265
  740TMC3     C10937   1.715   4.020  14.488  0.1558 -0.3682 -1.2598
  740TMC3     O10938   1.718   4.125  14.424  0.0633  0.3927  0.6685
  740TMC3     H10939   1.806   3.852  14.680  2.2657 -4.4873  1.3388
  740TMC3    H110940   1.894   3.993  14.289  0.2276 -0.1023 -0.2900
  740TMC3    H210941   2.207   3.813  14.526 -0.7585 -2.3370  0.0311
  740TMC3    C710942   2.151   3.915  14.295 -0.1413  0.9684 -0.4297
  740TMC3    C810943   2.048   3.718  14.709  0.3125  0.5913  0.0197
  740TMC3    O110944   2.252   3.848  14.310 -0.0114 -0.7522  0.0642
  740TMC3    O210945   2.166   3.682  14.706  0.5193 -0.1918 -0.1351
  741TMC3    C110946   1.412   3.095  13.776 -0.6006 -0.0295  0.4565
  741TMC3    C210947   1.321   3.184  13.838 -0.7176  0.3568  0.9521
  741TMC3    C310948   1.289   3.163  13.966 -0.4555 -0.1850 -0.1116
  741TMC3    C410949   1.466   2.986  13.840 -0.5722 -0.1490  0.5765
  741TMC3    C510950   1.442   2.979  13.975  0.0445 -0.2603 -0.2582
  741TMC3    C610951   1.351   3.060  14.036  0.5308 -0.5556  0.3599
  741TMC3     C10952   1.407   3.094  13.631 -0.3240 -0.3582 -0.4313
  741TMC3     O10953   1.368   3.195  13.568  0.0157 -0.0231 -0.0377
  741TMC3     H10954   1.281   3.276  13.799 -2.3335 -1.0762 -0.7970
  741TMC3    H110955   1.553   2.941  13.795 -1.5812 -1.8893  0.3837
  741TMC3    H210956   1.301   3.026  14.126  0.2310  0.4375  0.5628
  741TMC3    C710957   1.514   2.877  14.052 -0.2051 -1.0100  0.5895
  741TMC3    C810958   1.150   3.199  13.999  0.3350  0.2385  0.0461
  741TMC3    O110959   1.569   2.787  13.991  0.4394  0.1527 -0.3020
  741TMC3    O210960   1.066   3.191  13.908 -0.3569 -0.3020  0.3972
  742TMC3    C110961   0.936   1.577  15.488  0.2908 -0.1185  0.2450
  742TMC3    C210962   0.882   1.584  15.361  0.6281 -0.0568  0.6649
  742TMC3    C310963   0.969   1.603  15.258  0.0793 -0.9166  0.6029
  742TMC3    C410964   1.064   1.602  15.524  0.2334  0.6730 -0.2775
  742TMC3    C510965   1.144   1.620  15.415  0.3501 -0.5563 -0.4441
  742TMC3    C610966   1.097   1.630  15.286 -0.3974 -0.3986 -0.3919
  742TMC3     C10967   0.840   1.560  15.593  0.4073  0.6652  0.8993
  742TMC3     O10968   0.852   1.639  15.690 -0.0919  0.5123 -0.5164
  742TMC3     H10969   0.776   1.591  15.338  1.2234 -0.3782 -2.2693
  742TMC3    H110970   1.087   1.575  15.627  1.2818  0.1510 -0.6461
  742TMC3    H210971   1.175   1.632  15.210 -0.4351 -0.0675 -0.4235
  742TMC3    C710972   1.293   1.595  15.420 -0.2978 -0.1795  0.0431
  742TMC3    C810973   0.913   1.588  15.128  0.6144 -0.5189 -0.1580
  742TMC3    O110974   1.359   1.597  15.315  0.2459 -0.0643 -0.7598
  742TMC3    O210975   0.812   1.516  15.120  0.2635 -0.3999 -0.1805
  743MPD2     C10976   3.791   1.625   2.053 -0.2098  0.1004  1.3147
  743MPD2    C110977   3.876   1.680   1.953  0.0554 -0.0795 -0.3755
  743MPD2    C210978   3.993   1.619   1.928 -0.6955 -0.1998  0.1381
  743MPD2    C310979   4.046   1.525   2.011 -0.9633 -0.1287 -0.2142
  743MPD2    C410980   3.961   1.473   2.107 -0.5482 -0.2759  0.6143
  743MPD2    C510981   3.837   1.524   2.129  0.3590  0.2712 -0.0272
  743MPD2     H10982   4.051   1.658   1.845  0.1820  2.4566  2.0195
  743MPD2    H110983   3.983   1.389   2.172  0.6430  0.4023  1.0859
  743MPD2    H210984   3.688   1.656   2.065 -1.1616 -1.6670 -2.2372
  743MPD2    H310985   3.775   1.471   2.201 -1.7411  0.1498 -1.9205
  743MPD2     N10986   4.182   1.488   1.998  0.3380  0.4921  0.4624
  743MPD2    H510987   4.242   1.541   1.936  1.7951 -1.8062 -0.0995
  743MPD2    N110988   3.823   1.786   1.876 -0.1407  0.5171  0.5610
  743MPD2    H710989   3.725   1.804   1.896 -0.1067 -0.4292  1.6137
  744TMC3    C110990   3.817   1.936   1.693  0.1303  0.4405 -0.5750
  744TMC3    C210991   3.685   1.955   1.711 -0.2717  0.3085  0.9131
  744TMC3    C310992   3.621   2.037   1.616 -0.6132  0.0476 -0.2405
  744TMC3    C410993   3.876   1.993   1.580 -0.0383 -0.2826 -0.5430
  744TMC3    C510994   3.810   2.062   1.487  0.6310 -0.6724 -0.2540
  744TMC3    C610995   3.675   2.096   1.509  0.2231 -0.1666 -0.2353
  744TMC3     C10996   3.896   1.854   1.781  0.9310  0.1795  0.1046
  744TMC3     O10997   4.017   1.869   1.775 -0.3979  0.2755  0.0424
  744TMC3     H10998   3.637   1.930   1.804  1.3348 -0.5146  1.5245
  744TMC3    H110999   3.982   1.971   1.568  0.0043  0.2116 -1.0584
  744TMC3    H211000   3.624   2.173   1.452  0.7231 -1.3925 -2.3260
  744TMC3    C711001   3.880   2.118   1.373  1.3014 -0.0448 -0.2158
  744TMC3    C811002   3.489   2.087   1.660  1.3141  0.3292  0.7723
  744TMC3    O111003   3.814   2.149   1.270 -0.2613 -0.0566  0.0759
  744TMC3    O211004   3.445   2.190   1.614 -0.2202 -0.3167 -0.0362
  745TMC3    C111005   1.577   1.156  13.439  0.4203  0.1136 -0.0599
  745TMC3    C211006   1.521   1.207  13.548  0.3145 -0.0085 -0.2483
  745TMC3    C311007   1.382   1.214  13.548  0.3682  0.9886  0.5524
  745TMC3    C411008   1.508   1.087  13.336  0.6053  0.4692  0.4024
  745TMC3    C511009   1.374   1.098  13.337 -0.2004  0.0166  0.0305
  745TMC3    C611010   1.311   1.165  13.437 -0.0152  0.0509 -0.7925
  745TMC3     C11011   1.718   1.190  13.405  0.2083  0.0721  0.5930
  745TMC3     O11012   1.777   1.129  13.319 -0.2139  0.2140 -0.2049
  745TMC3     H11013   1.580   1.242  13.631  0.6660  1.5244 -1.1614
  745TMC3    H111014   1.571   1.060  13.252  2.8604  1.5502  1.7290
  745TMC3    H211015   1.203   1.160  13.452  0.1505 -0.7770  0.0790
  745TMC3    C711016   1.332   1.137  13.210 -1.2410  0.1521  0.6054
  745TMC3    C811017   1.306   1.307  13.642  0.4518 -0.2027  0.0211
  745TMC3    O111018   1.358   1.059  13.121  0.1320  0.6425 -0.6453
  745TMC3    O211019   1.190   1.336  13.612 -0.3914  0.4558 -0.1297
  746TMC3    C111020   3.652   3.783  10.963  0.3163  0.1916 -0.8224
  746TMC3    C211021   3.763   3.762  10.889  0.2726  0.6415  0.3066
  746TMC3    C311022   3.796   3.631  10.861 -0.0964  0.0796  0.6043
  746TMC3    C411023   3.570   3.674  11.002  0.0049 -0.4039  0.0743
  746TMC3    C511024   3.597   3.550  10.953 -0.3333  0.7582 -0.3115
  746TMC3    C611025   3.712   3.532  10.879 -0.0569  0.3156 -0.5556
  746TMC3     C11026   3.594   3.918  10.967 -0.0078 -0.1265  0.2530
  746TMC3     O11027   3.475   3.920  10.996 -0.4205 -0.5326  0.1593
  746TMC3     H11028   3.832   3.843  10.870  0.4376  0.3349 -0.3965
  746TMC3    H111029   3.479   3.696  11.055 -0.2495 -0.2629 -0.4157
  746TMC3    H211030   3.724   3.436  10.830  0.7553  0.1704 -0.0671
  746TMC3    C711031   3.503   3.441  10.984  0.0181  1.0647  0.2112
  746TMC3    C811032   3.921   3.594  10.795 -0.5116  0.2351  0.3627
  746TMC3    O111033   3.522   3.334  10.922 -0.1561  0.3255 -0.4933
  746TMC3    O211034   3.939   3.475  10.782 -0.4355  0.3117  0.7649
  747TMC3    C111035   1.440   3.364  10.887 -0.2315 -0.5584 -0.1761
  747TMC3    C211036   1.343   3.305  10.967 -0.7652 -0.3335 -0.3109
  747TMC3    C311037   1.376   3.295  11.104  0.1608 -0.8701  0.3355
  747TMC3    C411038   1.533   3.447  10.938  1.0808  0.7508  0.0010
  747TMC3    C511039   1.562   3.432  11.071 -0.4779  0.3013 -0.5395
  747TMC3    C611040   1.478   3.360  11.159 -0.4024  0.3917  0.3968
  747TMC3     C11041   1.393   3.402  10.756 -0.5990 -0.1406 -0.7310
  747TMC3     O11042   1.464   3.486  10.706 -0.6141  0.1822  0.1625
  747TMC3     H11043   1.254   3.258  10.927 -1.1283  0.1087 -0.0194
  747TMC3    H111044   1.611   3.486  10.873  1.2418 -1.3626 -1.0674
  747TMC3    H211045   1.499   3.352  11.265  0.9253  1.5124  0.2202
  747TMC3    C711046   1.619   3.555  11.132 -0.2292 -0.0039  0.0904
  747TMC3    C811047   1.277   3.234  11.193  0.5589 -0.4805 -0.1129
  747TMC3    O111048   1.661   3.557  11.242 -0.3893 -1.6759 -0.1887
  747TMC3    O211049   1.234   3.125  11.160 -0.5262 -0.5903 -0.1827
  748MPD2     C11050   2.280   3.094   1.826 -1.0017  0.0714  0.9375
  748MPD2    C111051   2.309   3.222   1.789  0.2340 -0.2960  0.4373
  748MPD2    C211052   2.439   3.260   1.770  0.0536 -0.0010  0.0170
  748MPD2    C311053   2.541   3.162   1.788  0.5380  0.8506  1.0035
  748MPD2    C411054   2.509   3.038   1.834 -0.6396 -0.5293  0.8070
  748MPD2    C511055   2.380   3.004   1.847  0.4774  0.1435 -0.3333
  748MPD2     H11056   2.469   3.355   1.727  0.1488 -0.6606 -1.3504
  748MPD2    H111057   2.588   2.967   1.854  0.3021  0.0121 -0.9570
  748MPD2    H211058   2.176   3.063   1.836 -1.8398  2.1291 -1.5163
  748MPD2    H311059   2.354   2.904   1.881  1.4741  0.3474  1.0018
  748MPD2     N11060   2.679   3.193   1.768  0.4338 -0.5541 -0.5174
  748MPD2    H511061   2.697   3.286   1.732 -0.8796 -0.3822 -0.7228
  748MPD2    N111062   2.197   3.306   1.765  0.0636 -0.3931  0.8268
  748MPD2    H711063   2.103   3.271   1.779 -1.0960  2.5167  0.2951
  749TMC3    C111064   2.911   3.181   1.747  0.4734  0.0187 -0.0594
  749TMC3    C211065   3.026   3.189   1.819  0.2970  0.2991  0.2466
  749TMC3    C311066   3.133   3.248   1.762 -0.1370 -0.0983 -0.1770
  749TMC3    C411067   2.899   3.233   1.618 -0.3342  0.9106 -0.4062
  749TMC3    C511068   3.018   3.289   1.567  0.0406  0.1451  0.3884
  749TMC3    C611069   3.139   3.293   1.633  0.5800  0.3298 -0.1609
  749TMC3     C11070   2.787   3.121   1.807  0.9768 -0.6852  0.2032
  749TMC3     O11071   2.807   3.028   1.885 -0.1753  0.2957  0.2464
  749TMC3     H11072   3.021   3.140   1.916  0.7484  0.4139  0.3251
  749TMC3    H111073   2.811   3.224   1.555  0.3769  0.5649 -1.3671
  749TMC3    H211074   3.226   3.333   1.582  0.6429  0.3359 -0.0499
  749TMC3    C711075   3.029   3.305   1.426  0.1078 -0.5487 -0.5194
  749TMC3    C811076   3.248   3.265   1.848  0.0967 -0.2354  0.7028
  749TMC3    O111077   3.126   3.372   1.380  0.0575  0.5529 -0.5100
  749TMC3    O211078   3.229   3.302   1.966  0.6280  0.2799 -0.3163
  750MPD2     C11079   2.818   0.716  11.684  0.1985  0.5672 -0.6760
  750MPD2    C111080   2.945   0.772  11.654  0.6569 -0.4364  0.0807
  750MPD2    C211081   3.008   0.758  11.535  0.1126 -0.2483 -0.2011
  750MPD2    C311082   2.949   0.677  11.440 -0.5155  0.2831 -0.0525
  750MPD2    C411083   2.821   0.636  11.462  0.3266 -0.2669  0.8324
  750MPD2    C511084   2.757   0.650  11.580  0.8024 -0.0418 -0.3530
  750MPD2     H11085   3.101   0.803  11.503 -0.0493 -1.7117 -2.7431
  750MPD2    H111086   2.781   0.575  11.381  1.7945  0.5443 -0.5183
  750MPD2    H211087   2.760   0.741  11.772 -2.3198 -1.8628 -1.6686
  750MPD2    H311088   2.655   0.617  11.594  0.6447  0.9996  1.0622
  750MPD2     N11089   3.007   0.648  11.315  0.1521  0.6993  0.4105
  750MPD2    H511090   2.953   0.590  11.251  0.3608  1.7824 -0.7510
  750MPD2    N111091   3.002   0.849  11.763  0.4215 -0.3165 -0.2565
  750MPD2    H711092   2.947   0.855  11.848 -0.0377 -2.4529 -0.3882
  751TMC3    C111093   3.187   0.605  11.168  0.0878 -0.1597  0.2258
  751TMC3    C211094   3.181   0.467  11.189  0.5262 -0.0367 -0.4748
  751TMC3    C311095   3.275   0.387  11.136  0.7549  0.2231 -0.1346
  751TMC3    C411096   3.290   0.656  11.094 -1.2125  0.5660  0.7085
  751TMC3    C511097   3.379   0.573  11.033 -0.5265  0.1147  0.7727
  751TMC3    C611098   3.370   0.437  11.051  0.1872  0.1405 -0.1574
  751TMC3     C11099   3.129   0.701  11.264  0.2878 -0.3496 -0.1382
  751TMC3     O11100   3.192   0.804  11.296 -0.7638 -0.4576  0.5827
  751TMC3     H11101   3.110   0.435  11.264  2.4675  1.3347  1.9477
  751TMC3    H111102   3.291   0.763  11.079  2.1094  0.4920  0.2511
  751TMC3    H211103   3.447   0.375  11.005 -0.1106  1.3728 -2.3311
  751TMC3    C711104   3.474   0.615  10.940  0.5576 -0.1936  0.9030
  751TMC3    C811105   3.278   0.239  11.150  0.3594  0.5848  0.1871
  751TMC3    O111106   3.541   0.530  10.883  0.3247 -0.2234 -0.7054
  751TMC3    O211107   3.348   0.178  11.072 -0.2520  0.7835  0.0343
  752TMC3    C111108   2.361   4.144  17.008 -0.7664 -0.4325  0.3731
  752TMC3    C211109   2.399   4.028  17.066  0.0888 -0.9438  0.2428
  752TMC3    C311110   2.338   4.001  17.188 -0.5674  0.3766 -0.3859
  752TMC3    C411111   2.273   4.238  17.064  0.7653  0.4390  0.3149
  752TMC3    C511112   2.209   4.203  17.187  0.3525  0.3069  0.0199
  752TMC3    C611113   2.245   4.081  17.249 -0.1853 -0.1068  0.5660
  752TMC3     C11114   2.454   4.183  16.900  0.7172  0.4623  0.4216
  752TMC3     O11115   2.553   4.112  16.879 -0.5347 -0.1923  0.2557
  752TMC3     H11116   2.454   3.953  17.010 -0.8549 -1.9030  0.6175
  752TMC3    H111117   2.246   4.333  17.019 -2.2166 -1.2834 -1.4908
  752TMC3    H211118   2.183   4.033  17.323  0.4308  0.6944  1.6045
  752TMC3    C711119   2.099   4.289  17.224  0.1181 -0.5941  0.1104
  752TMC3    C811120   2.337   3.855  17.217  0.5272 -0.0499 -0.0703
  752TMC3    O111121   2.070   4.386  17.155 -0.0779  0.2757 -0.5918
  752TMC3    O211122   2.235   3.808  17.267  0.4654  0.7494  0.7179
  753TMC3    C111123   0.139   1.761  13.370 -0.1619 -0.3662 -0.4718
  753TMC3    C211124   0.272   1.765  13.403 -0.2752  0.4220 -1.0395
  753TMC3    C311125   0.331   1.639  13.395 -0.5249  0.3010 -0.0037
  753TMC3    C411126   0.072   1.649  13.327 -0.5068  0.0559  0.2373
  753TMC3    C511127   0.145   1.536  13.311  0.2356  0.4072 -0.0702
  753TMC3    C611128   0.276   1.529  13.348 -0.9414 -0.0617  0.3164
  753TMC3     C11129   0.062   1.879  13.400 -0.2195 -0.0505  0.7809
  753TMC3     O11130   0.125   1.979  13.417  0.7338 -0.8269  0.0699
  753TMC3     H11131   0.327   1.856  13.421  0.0494  0.4416 -2.1068
  753TMC3    H111132   4.690   1.658  13.299 -0.1176  0.4037 -1.0974
  753TMC3    H211133   0.336   1.439  13.337 -1.1412 -0.1459 -0.0787
  753TMC3    C711134   0.074   1.409  13.321  0.3674 -0.3029 -0.0202
  753TMC3    C811135   0.463   1.627  13.447  0.2517 -0.6343  0.2419
  753TMC3    O111136   0.128   1.329  13.392 -0.2573  0.2140  0.0553
  753TMC3    O211137   0.524   1.533  13.404 -0.0445  0.2951  0.1870
  754MPD2     C11138   3.606   0.116  13.227 -0.0768  0.6326  0.0263
  754MPD2    C111139   3.579   4.706  13.197  0.0675 -0.1784 -0.5679
  754MPD2    C211140   3.445   4.671  13.197 -0.5440 -0.2121  0.5348
  754MPD2    C311141   3.338   0.037  13.230  0.4193 -0.0845 -0.1720
  754MPD2    C411142   3.376   0.168  13.267 -0.1930 -0.0134  0.4661
  754MPD2    C511143   3.511   0.201  13.267 -0.6054  0.7050 -0.8794
  754MPD2     H11144   3.420   4.568  13.177 -2.0486  0.2890 -0.2279
  754MPD2    H111145   3.302   0.244  13.287  0.9205  0.7901  1.5104
  754MPD2    H211146   3.710   0.147  13.227 -0.4242  1.7072  3.9229
  754MPD2    H311147   3.532   0.306  13.284 -3.0009  0.7906  1.5876
  754MPD2     N11148   3.203   4.714  13.229  1.0802 -0.3458 -0.2305
  754MPD2    H511149   3.139   0.064  13.260  1.0074 -1.2044  1.6352
  754MPD2    N111150   3.690   4.623  13.161  0.3815 -0.0246  0.0955
  754MPD2    H711151   3.766   4.674  13.116  0.2482 -0.0080 -0.1111
  755MPD2     C11152   2.274   0.274  13.374  0.5875 -0.2800 -0.5360
  755MPD2    C111153   2.401   0.318  13.410  0.4604  0.5971  0.8520
  755MPD2    C211154   2.510   0.247  13.347 -0.8027 -0.4015 -0.0087
  755MPD2    C311155   2.491   0.146  13.257  0.0485 -0.0396 -0.4911
  755MPD2    C411156   2.362   0.102  13.238  0.2902  0.0940 -0.0614
  755MPD2    C511157   2.250   0.167  13.290 -0.3633  0.0786  0.2453
  755MPD2     H11158   2.609   0.275  13.384  1.3332 -4.1699 -2.8903
  755MPD2    H111159   2.344   0.014  13.178  3.3513  1.2970 -2.7940
  755MPD2    H211160   2.193   0.325  13.425  2.1894 -0.0828  1.8172
  755MPD2    H311161   2.154   0.122  13.270 -0.5208 -1.6839  4.9858
  755MPD2     N11162   2.595   0.064  13.209  0.2874  0.8548 -0.1708
  755MPD2    H511163   2.568   4.702  13.159 -2.2054  1.0861  0.8003
  755MPD2    N111164   2.430   0.428  13.494 -0.4411  0.5432 -0.6991
  755MPD2    H711165   2.529   0.443  13.512 -0.5922  2.4278 -1.4588
  756MPD2     C11166   4.095   0.750   9.071  0.6976  0.1740  0.0763
  756MPD2    C111167   4.060   0.686   9.190  0.0245 -0.0079 -0.4142
  756MPD2    C211168   4.008   0.560   9.186 -0.6914  0.3928 -0.0591
  756MPD2    C311169   3.953   0.509   9.067  0.5334  0.0319  0.5852
  756MPD2    C411170   3.982   0.573   8.951  0.4619  0.1061  0.4318
  756MPD2    C511171   4.045   0.695   8.954 -0.0891  0.2136 -0.1879
  756MPD2     H11172   3.993   0.509   9.281  0.1335 -0.7567 -0.5402
  756MPD2    H111173   3.955   0.530   8.855  1.0809 -1.0192  0.7626
  756MPD2    H211174   4.140   0.848   9.064 -1.0189  1.1220  2.7161
  756MPD2    H311175   4.058   0.743   8.857 -0.8445  1.0599  0.1232
  756MPD2     N11176   3.871   0.390   9.075 -0.5980 -0.0742  0.1302
  756MPD2    H511177   3.869   0.350   9.168 -3.9793 -0.5181 -0.1526
  756MPD2    N111178   4.089   0.748   9.319 -0.3689  0.2027 -0.1311
  756MPD2    H711179   4.088   0.690   9.403  1.2077  0.4181  0.0449
  757MPD2     C11180   3.641   4.164   9.329  0.3385 -0.1375  0.7927
  757MPD2    C111181   3.520   4.202   9.271 -0.2238  0.0323 -0.5198
  757MPD2    C211182   3.503   4.334   9.236 -0.6641  0.6127  0.2938
  757MPD2    C311183   3.604   4.429   9.254  0.3081  0.4403  0.8830
  757MPD2    C411184   3.724   4.383   9.315  0.4937  0.0128 -0.1533
  757MPD2    C511185   3.740   4.255   9.355 -0.3002 -0.4056  0.5264
  757MPD2     H11186   3.411   4.362   9.186 -0.2421  0.0236 -0.8035
  757MPD2    H111187   3.804   4.452   9.338  0.5850 -0.0931 -0.1483
  757MPD2    H211188   3.644   4.059   9.358  0.6457 -0.3818 -0.1222
  757MPD2    H311189   3.838   4.232   9.396 -0.2403  0.9359  1.1479
  757MPD2     N11190   3.585   4.558   9.207 -0.6266  0.3013  0.2560
  757MPD2    H511191   3.494   4.562   9.161 -0.3524 -0.9712 -0.4021
  757MPD2    N111192   3.421   4.100   9.259  0.4862  0.2602 -0.1912
  757MPD2    H711193   3.447   4.007   9.290 -1.5508  0.3145  1.6701
  758MPD2     C11194   3.360   4.274  16.156 -0.0165 -0.0815  1.4720
  758MPD2    C111195   3.461   4.186  16.198 -0.4402 -0.4319 -0.5895
  758MPD2    C211196   3.462   4.145  16.326 -0.0128  0.5999 -0.0485
  758MPD2    C311197   3.372   4.173  16.418  0.3860  0.6384  0.2246
  758MPD2    C411198   3.268   4.261  16.378  0.2445  0.5793 -0.1549
  758MPD2    C511199   3.265   4.311  16.246 -0.0631  0.3459 -0.8828
  758MPD2     H11200   3.545   4.078  16.347 -1.2756 -0.8729  0.2170
  758MPD2    H111201   3.202   4.300  16.454  1.8036  0.0104  1.5036
  758MPD2    H211202   3.348   4.306  16.053  1.7134 -0.3137  1.1961
  758MPD2    H311203   3.186   4.373  16.206 -1.8411 -1.1569  0.3000
  758MPD2     N11204   3.377   4.105  16.544  0.2416  0.1085 -0.0392
  758MPD2    H511205   3.291   4.113  16.598 -0.2091  3.1213 -1.2036
  758MPD2    N111206   3.556   4.134  16.115 -0.2741 -0.2958  0.1678
  758MPD2    H711207   3.637   4.083  16.151  0.5224  1.4943  0.8935
  759MPD2     C11208   2.659   1.864   8.322  0.1798 -0.1151 -0.1464
  759MPD2    C111209   2.776   1.796   8.332  0.1910  1.0674 -0.1512
  759MPD2    C211210   2.884   1.864   8.380 -0.0149  0.0375 -0.3300
  759MPD2    C311211   2.883   2.003   8.394  0.1646 -0.0859 -0.3845
  759MPD2    C411212   2.772   2.070   8.365 -0.3577  0.1392  0.4948
  759MPD2    C511213   2.661   2.004   8.328 -0.2134 -0.4663 -0.6592
  759MPD2     H11214   2.971   1.814   8.418 -1.2491  0.0104  2.4903
  759MPD2    H111215   2.754   2.175   8.386  1.7415  0.7306 -0.7091
  759MPD2    H211216   2.565   1.816   8.299  0.0625  0.5366 -1.0399
  759MPD2    H311217   2.569   2.060   8.312 -0.5838 -0.8646  0.1278
  759MPD2     N11218   2.996   2.073   8.438 -0.0597  0.4129 -0.3643
  759MPD2    H511219   3.071   2.015   8.473 -0.4040 -0.2507 -0.7259
  759MPD2    N111220   2.789   1.657   8.320 -0.4840 -0.8322 -0.5411
  759MPD2    H711221   2.880   1.616   8.341 -0.3749 -1.4179 -2.2112
  760MPD2     C11222   1.900   0.678  11.721  0.6867 -1.2569  0.1771
  760MPD2    C111223   2.006   0.639  11.641 -0.0525 -0.1457 -0.8085
  760MPD2    C211224   2.012   0.506  11.610  0.4922  0.2612 -0.4209
  760MPD2    C311225   1.911   0.416  11.651 -0.1431 -0.4932  0.0247
  760MPD2    C411226   1.804   0.461  11.723 -0.0950  0.2097  0.0291
  760MPD2    C511227   1.805   0.597  11.764 -0.4039  0.5235 -0.1150
  760MPD2     H11228   2.095   0.481  11.546 -0.0188 -2.1318 -0.1459
  760MPD2    H111229   1.730   0.392  11.760 -0.3201  1.5501  2.0609
  760MPD2    H211230   1.897   0.782  11.753  0.4887 -1.1347 -0.2441
  760MPD2    H311231   1.720   0.634  11.820 -0.1324  0.7869  0.1241
  760MPD2     N11232   1.906   0.281  11.622 -0.2048 -0.6013 -0.3654
  760MPD2    H511233   1.829   0.230  11.664  0.1771  1.1357  2.4648
  760MPD2    N111234   2.108   0.728  11.604  0.5584  0.1741  0.0695
  760MPD2    H711235   2.197   0.686  11.579  0.8536  0.8387  0.0077
  761MPD2     C11236   3.035   4.554  11.285 -0.3779  0.0870 -0.7656
  761MPD2    C111237   3.116   4.565  11.179  0.7877 -0.1146 -0.3247
  761MPD2    C211238   3.175   4.690  11.170 -0.7910 -0.0390 -0.2053
  761MPD2    C311239   3.146   0.068  11.265 -0.0238 -0.0064  0.2248
  761MPD2    C411240   3.062   0.050  11.361 -0.3672  0.1058  0.7422
  761MPD2    C511241   3.006   4.649  11.374 -0.1141 -0.4949  0.3686
  761MPD2     H11242   3.242   4.705  11.087 -0.7585 -0.1981 -0.2074
  761MPD2    H111243   3.042   0.122  11.440 -1.9250 -1.9328  2.2238
  761MPD2    H211244   2.991   4.455  11.299 -0.9657  0.3074 -1.0410
  761MPD2    H311245   2.944   4.632  11.461  0.7264  0.8674  1.2375
  761MPD2     N11246   3.199   0.197  11.253 -0.6569  0.2851 -0.1346
  761MPD2    H511247   3.164   0.269  11.316 -0.0176  1.7183 -1.4097
  761MPD2    N111248   3.135   4.464  11.083  0.3121  0.6502 -0.3051
  761MPD2    H711249   3.077   4.380  11.089  1.3675 -0.1263 -0.9953
  762MPD2     C11250   3.546   3.944  10.444  0.4047  0.4967  0.3299
  762MPD2    C111251   3.575   4.038  10.539  0.4303  0.1190 -0.1033
  762MPD2    C211252   3.704   4.101  10.534  0.1645 -0.2774  0.1690
  762MPD2    C311253   3.789   4.088  10.427  0.9059 -0.8188 -0.2304
  762MPD2    C411254   3.759   3.996  10.324 -0.0931  0.3310  0.4201
  762MPD2    C511255   3.641   3.925  10.341  0.0958  0.5861 -0.1963
  762MPD2     H11256   3.733   4.161  10.620  1.9586 -0.9775  0.0540
  762MPD2    H111257   3.823   3.965  10.243  3.7013  1.6505  2.9228
  762MPD2    H211258   3.462   3.875  10.446 -0.2519  1.3545  2.0541
  762MPD2    H311259   3.621   3.844  10.272  0.3745 -0.3514  0.8230
  762MPD2     N11260   3.912   4.158  10.432 -0.4168  0.0765 -0.1264
  762MPD2    H511261   3.930   4.205  10.521 -1.1073 -0.6944  0.4214
  762MPD2    N111262   3.474   4.072  10.636  0.1786  0.3567 -0.2327
  762MPD2    H711263   3.381   4.032  10.632  0.1367  0.3115  1.0932
  763MPD2     C11264   0.686   4.596  15.967  0.3286  0.0914  0.1441
  763MPD2    C111265   0.553   4.625  15.984  0.1432  0.5934 -0.7431
  763MPD2    C211266   0.519   0.019  16.046 -0.4285 -0.0241  0.1960
  763MPD2    C311267   0.622   0.105  16.098 -0.3834  0.6439 -0.5665
  763MPD2    C411268   0.753   0.069  16.085 -0.7554 -0.2640 -0.3661
  763MPD2    C511269   0.782   4.677  16.019 -0.3901 -0.3073 -0.4011
  763MPD2     H11270   0.415   0.036  16.072 -1.0025 -0.1771 -2.0098
  763MPD2    H111271   0.836   0.121  16.132  1.8020 -0.0928 -5.1086
  763MPD2    H211272   0.719   4.498  15.933 -2.0702 -0.1121 -1.6293
  763MPD2    H311273   0.885   4.643  16.022 -1.0423 -2.2965 -1.2019
  763MPD2     N11274   0.605   0.241  16.140 -0.3851 -0.4646  0.0973
  763MPD2    H511275   0.687   0.297  16.158  0.4393 -1.1423 -1.4995
  763MPD2    N111276   0.450   4.537  15.926 -0.4243  0.2005  0.5050
  763MPD2    H711277   0.356   4.573  15.940 -1.5186 -2.6392  0.4868
  764MPD2     C11278   2.396   4.607  17.315  0.2397  0.1153  0.1727
  764MPD2    C111279   2.433   0.011  17.299 -0.1497 -0.4034 -0.1264
  764MPD2    C211280   2.375   0.106  17.378 -0.0872 -0.1634  0.4123
  764MPD2    C311281   2.293   0.075  17.480  0.1889 -0.3334 -0.1682
  764MPD2    C411282   2.253   4.669  17.491 -0.0067 -0.7886  0.3910
  764MPD2    C511283   2.307   4.571  17.416  0.8427 -0.4859  0.8795
  764MPD2     H11284   2.401   0.210  17.368 -1.0758  0.3483  3.2309
  764MPD2    H111285   2.182   4.642  17.568 -0.3083 -1.3466 -0.0823
  764MPD2    H211286   2.439   4.526  17.256 -0.8328  0.2885 -0.8505
  764MPD2    H311287   2.281   4.468  17.438  0.9457 -0.2058  2.2986
  764MPD2     N11288   2.249   0.180  17.560 -0.4681  0.7629  0.3979
  764MPD2    H511289   2.286   0.273  17.540  2.5805 -0.4878  0.1927
  764MPD2    N111290   2.521   0.060  17.197  0.0234 -0.0168 -0.8271
  764MPD2    H711291   2.525   0.161  17.187 -0.6781  0.0752 -0.1939
  765MPD2     C11292   3.244   3.765  16.132  0.5907 -0.0496  0.1876
  765MPD2    C111293   3.191   3.778  16.007  0.4317  0.2979  0.7849
  765MPD2    C211294   3.247   3.707  15.904  0.0465  0.2987  0.0057
  765MPD2    C311295   3.344   3.610  15.925  0.5381 -0.5559  0.0234
  765MPD2    C411296   3.397   3.602  16.055 -0.1304 -0.1980  0.7387
  765MPD2    C511297   3.347   3.680  16.155 -0.0223 -0.1736  0.1999
  765MPD2     H11298   3.194   3.712  15.810 -0.6402 -0.7116  0.3506
  765MPD2    H111299   3.480   3.537  16.079 -0.6379 -0.4561  1.8477
  765MPD2    H211300   3.213   3.828  16.214  1.1830  0.0207  0.3511
  765MPD2    H311301   3.394   3.662  16.251  0.7112 -1.3396 -0.3723
  765MPD2     N11302   3.391   3.538  15.818  0.3954  0.0654  0.2533
  765MPD2    H511303   3.351   3.570  15.731  1.1098 -1.2125 -0.5463
  765MPD2    N111304   3.087   3.871  15.988 -0.5318 -0.1188  0.3983
  765MPD2    H711305   3.068   3.933  16.065  1.0556 -0.2066  0.8662
  766MPD2     C11306   2.483   3.895  15.398  0.6462  0.6546 -0.4480
  766MPD2    C111307   2.597   3.962  15.432 -0.1001 -0.8903 -0.2183
  766MPD2    C211308   2.700   3.992  15.333 -0.7024 -0.6683 -0.2314
  766MPD2    C311309   2.680   3.958  15.205 -1.0959  0.0650 -0.7273
  766MPD2    C411310   2.562   3.896  15.176  0.4837 -0.9693 -0.2770
  766MPD2    C511311   2.463   3.863  15.266  0.0127 -0.6034 -0.1093
  766MPD2     H11312   2.788   4.048  15.364  0.5415 -2.8134  0.0951
  766MPD2    H111313   2.540   3.875  15.072 -0.2152 -0.2872 -0.2716
  766MPD2    H211314   2.400   3.873  15.464  2.6552 -0.7253  1.6091
  766MPD2    H311315   2.370   3.822  15.229 -0.5110  0.3028  0.1934
  766MPD2     N11316   2.772   3.973  15.106 -0.5130  0.0859  0.2489
  766MPD2    H511317   2.749   3.964  15.007  0.8668  0.8688 -0.1544
  766MPD2    N111318   2.614   3.997  15.566  0.5646  0.6412 -0.1685
  766MPD2    H711319   2.550   3.955  15.633  0.5739 -0.2943 -0.7428
  767MPD2     C11320   2.461   4.192  15.030 -0.3849  0.0630 -0.4682
  767MPD2    C111321   2.580   4.243  14.986 -0.3914 -0.5237  0.3300
  767MPD2    C211322   2.610   4.239  14.846 -0.2284 -0.0076  0.7126
  767MPD2    C311323   2.530   4.169  14.757 -0.8400 -0.6661  0.2834
  767MPD2    C411324   2.408   4.122  14.803  0.9024 -0.2126 -0.6547
  767MPD2    C511325   2.378   4.130  14.936 -0.1740 -0.5052  0.3617
  767MPD2     H11326   2.702   4.282  14.806 -1.1434  2.5640  1.4407
  767MPD2    H111327   2.335   4.071  14.741 -0.0437  2.1867 -1.5051
  767MPD2    H211328   2.436   4.191  15.135 -0.6391 -0.5411 -0.5376
  767MPD2    H311329   2.285   4.084  14.966 -0.6304  0.1228 -0.1024
  767MPD2     N11330   2.563   4.136  14.621 -0.9230  0.5327 -0.2349
  767MPD2    H511331   2.657   4.151  14.586 -0.5362 -0.9086  0.1792
  767MPD2    N111332   2.667   4.298  15.085  0.2842  0.6184 -0.0638
  767MPD2    H711333   2.638   4.293  15.182  1.8743 -0.2593  0.3681
  768MPD2     C11334   3.402   2.526  10.770  0.0687 -0.4125  0.1442
  768MPD2    C111335   3.403   2.664  10.783  0.1209 -0.3198 -0.0974
  768MPD2    C211336   3.515   2.728  10.843 -0.2554 -0.4665  0.6276
  768MPD2    C311337   3.620   2.654  10.885 -0.2205  0.4529  0.3363
  768MPD2    C411338   3.613   2.517  10.882 -0.0808 -0.2072  0.4274
  768MPD2    C511339   3.512   2.456  10.810 -0.2748 -0.1584  0.7619
  768MPD2     H11340   3.504   2.834  10.862 -0.5769 -0.1086 -1.4832
  768MPD2    H111341   3.688   2.457  10.933 -0.7202 -1.6761 -0.3472
  768MPD2    H211342   3.320   2.477  10.719  0.9909 -0.7470 -1.0027
  768MPD2    H311343   3.519   2.348  10.800  1.9333 -0.1108  1.8453
  768MPD2     N11344   3.734   2.715  10.945 -0.2139  0.0297 -0.3824
  768MPD2    H511345   3.785   2.657  11.010  1.3578 -0.0320 -1.6832
  768MPD2    N111346   3.297   2.749  10.749 -0.5515 -0.0356  0.0643
  768MPD2    H711347   3.304   2.844  10.783  0.6052  0.2250 -0.9097
  769MPD2     C11348   4.352   0.297  14.940 -0.1615 -0.3083  0.6435
  769MPD2    C111349   4.377   0.430  14.947 -0.1058 -0.1503  0.1022
  769MPD2    C211350   4.429   0.478  15.063 -0.5203  0.5296  0.1617
  769MPD2    C311351   4.457   0.400  15.174  0.6248  0.3754 -0.4659
  769MPD2    C411352   4.440   0.265  15.159 -0.0394 -0.3425  0.6056
  769MPD2    C511353   4.390   0.213  15.042 -0.0186 -0.0255 -0.2619
  769MPD2     H11354   4.449   0.584  15.075  1.4269  0.0880  0.8524
  769MPD2    H111355   4.456   0.201  15.245 -0.3793  0.8360  1.5473
  769MPD2    H211356   4.295   0.258  14.856  1.7551  0.4937 -1.0232
  769MPD2    H311357   4.385   0.106  15.030  3.4603 -0.4332  2.1602
  769MPD2     N11358   4.492   0.459  15.301 -0.4508 -0.1308  0.3757
  769MPD2    H511359   4.502   0.400  15.383  0.0676 -0.0799  0.3482
  769MPD2    N111360   4.330   0.513  14.839 -0.5764 -0.3052 -0.0777
  769MPD2    H711361   4.292   0.457  14.764  2.2543 -2.4085  0.0679
  770MPD2     C11362   3.579   0.259  14.904 -0.5631 -0.3790 -0.1182
  770MPD2    C111363   3.701   0.265  14.978 -0.0508  0.3835 -0.5529
  770MPD2    C211364   3.792   0.375  14.959 -0.2514  0.0023 -0.3352
  770MPD2    C311365   3.752   0.482  14.878 -0.3831  0.4826 -0.2104
  770MPD2    C411366   3.624   0.474  14.818 -0.0722  0.1889 -0.2375
  770MPD2    C511367   3.544   0.365  14.823  0.1331  0.6968  0.2084
  770MPD2     H11368   3.888   0.379  15.008 -0.5709  1.4002  0.1843
  770MPD2    H111369   3.580   0.557  14.764 -0.1589  0.8633  0.8655
  770MPD2    H211370   3.522   0.167  14.914 -2.4894  0.7039 -1.0494
  770MPD2    H311371   3.447   0.358  14.775  0.2958  2.3853 -0.3752
  770MPD2     N11372   3.849   0.583  14.843 -0.4147  0.0238 -0.5232
  770MPD2    H511373   3.939   0.568  14.889 -0.8192 -1.8887 -0.3335
  770MPD2    N111374   3.742   0.144  15.043  0.1081 -0.0211  0.8232
  770MPD2    H711375   3.688   0.061  15.019  0.8291 -0.4998  0.8626
  771MPD2     C11376   0.623   3.355  13.860  0.0465 -0.2089  0.4068
  771MPD2    C111377   0.529   3.456  13.821  0.0379  0.4762 -0.0057
  771MPD2    C211378   0.466   3.445  13.698  0.0273 -0.2783 -0.1245
  771MPD2    C311379   0.476   3.335  13.617 -0.0881 -1.2555  0.0092
  771MPD2    C411380   0.552   3.228  13.662 -0.3648  0.3402  0.0127
  771MPD2    C511381   0.627   3.242  13.780  0.4830  0.6808  0.0719
  771MPD2     H11382   0.396   3.521  13.666 -0.8433 -1.0647 -0.0638
  771MPD2    H111383   0.550   3.142  13.597 -0.6105 -0.5550  1.2087
  771MPD2    H211384   0.686   3.356  13.948 -0.0332 -1.5719  0.4859
  771MPD2    H311385   0.698   3.167  13.814  1.8336  1.5583 -0.8432
  771MPD2     N11386   0.407   3.340  13.496 -0.6636  0.1696 -0.3895
  771MPD2    H511387   0.378   3.436  13.480 -0.3650  0.0899 -1.4566
  771MPD2    N111388   0.524   3.579  13.893  0.3249  0.4737 -0.2797
  771MPD2    H711389   0.592   3.591  13.968  0.2040  1.0373 -0.2580
  772MPD2     C11390   0.078   4.180  14.221  0.6889  0.1383 -0.1073
  772MPD2    C111391   0.062   4.107  14.106  0.5129  0.2165  0.3085
  772MPD2    C211392   4.653   4.080  14.057  0.7082 -0.4338 -0.0848
  772MPD2    C311393   4.540   4.128  14.129  0.6557  1.4967  0.3719
  772MPD2    C411394   4.563   4.199  14.246  0.5447 -0.7508  0.4398
  772MPD2    C511395   4.691   4.232  14.290 -0.1615  0.2425  0.1872
  772MPD2     H11396   4.639   4.016  13.971 -1.1673 -2.2834  1.6031
  772MPD2    H111397   4.476   4.242  14.294  2.4738  1.4643  1.9068
  772MPD2    H211398   0.176   4.202  14.261  0.3999  0.8294  0.2372
  772MPD2    H311399   4.710   4.303  14.369  0.0414 -2.5061  2.6144
  772MPD2     N11400   4.404   4.097  14.100  0.1684 -0.2426 -0.3385
  772MPD2    H511401   4.335   4.156  14.145 -0.0174 -1.7788  1.3534
  772MPD2    N111402   0.179   4.059  14.037 -0.3428 -0.5205 -0.2691
  772MPD2    H711403   0.155   4.000  13.959 -2.2045 -0.9479  0.6357
  773MPD2     C11404   3.709   4.087   0.349  0.7052 -0.1218 -0.8090
  773MPD2    C111405   3.777   4.085   0.229 -0.5730 -0.5744  0.1355
  773MPD2    C211406   3.920   4.072   0.228 -0.2840 -0.4869 -0.2442
  773MPD2    C311407   3.981   4.050   0.353 -0.3723  1.2355  0.8516
  773MPD2    C411408   3.914   4.055   0.469  0.9909 -0.3522 -0.1947
  773MPD2    C511409   3.778   4.078   0.469 -0.2986 -0.5693 -0.4470
  773MPD2     H11410   3.973   4.049   0.136 -1.8402  0.3795 -1.3470
  773MPD2    H111411   3.961   4.045   0.566  0.9698  3.2262  0.1700
  773MPD2    H211412   3.605   4.116   0.361  0.9660  0.3261  0.4962
  773MPD2    H311413   3.728   4.091   0.565 -0.1529 -1.5006 -0.2505
  773MPD2     N11414   4.118   4.019   0.347 -0.2366  0.2967 -0.0887
  773MPD2    H511415   4.159   3.985   0.260 -1.0256 -1.2485  0.1511
  773MPD2    N111416   3.710   4.084   0.107  0.2097  0.3126 -0.7104
  773MPD2    H711417   3.763   4.090   0.020 -1.5257 -3.3983 -2.0144
  774MPD2     C11418   2.990   3.811  13.264  0.2175 -0.2950  0.5629
  774MPD2    C111419   2.986   3.877  13.388  0.4668 -0.4577  0.0722
  774MPD2    C211420   3.050   3.992  13.406 -0.0732  0.1017 -0.3433
  774MPD2    C311421   3.124   4.037  13.299 -0.1702 -0.1160  0.9893
  774MPD2    C411422   3.121   3.969  13.178  0.1188  0.3505 -0.9668
  774MPD2    C511423   3.053   3.860  13.150  0.2287 -0.8223  0.0353
  774MPD2     H11424   3.055   4.030  13.507 -0.6008 -0.2346 -0.1891
  774MPD2    H111425   3.187   3.998  13.097  0.9714 -0.3077 -0.5078
  774MPD2    H211426   2.948   3.711  13.263 -0.8322  0.1496  0.1870
  774MPD2    H311427   3.068   3.800  13.061 -0.2608  0.3146 -0.7948
  774MPD2     N11428   3.227   4.138  13.323 -0.6675 -0.0751  0.6387
  774MPD2    H511429   3.225   4.173  13.418  1.0569  0.2213  0.5639
  774MPD2    N111430   2.936   3.797  13.495 -0.6516 -0.2198 -1.2035
  774MPD2    H711431   2.917   3.700  13.471 -3.0702 -0.2416  0.7926
  775MPD2     C11432   4.648   0.449  15.817  0.3004 -0.2632  0.2140
  775MPD2    C111433   4.630   0.559  15.907  0.5400 -0.2697  0.8834
  775MPD2    C211434   4.680   0.686  15.869 -0.0856  0.0448  0.1286
  775MPD2    C311435   0.011   0.704  15.748  0.5727  0.1421 -0.7277
  775MPD2    C411436   0.027   0.597  15.667  0.4791 -0.7636  0.2813
  775MPD2    C511437   4.711   0.472  15.700  0.5267 -0.4247  0.1721
  775MPD2     H11438   4.664   0.766  15.939 -3.3266 -0.5569  0.0687
  775MPD2    H111439   0.086   0.609  15.577  1.7778 -2.5747  0.8860
  775MPD2    H211440   4.617   0.346  15.836 -0.2387  0.0810  1.1739
  775MPD2    H311441   0.002   0.388  15.633 -1.0496  0.3062 -1.0691
  775MPD2     N11442   0.053   0.832  15.703 -0.1743 -0.0911 -0.0538
  775MPD2    H511443   0.097   0.833  15.612  0.4174 -1.0309  0.2168
  775MPD2    N111444   4.569   0.532  16.029  0.1422 -0.0009 -0.3342
  775MPD2    H711445   4.535   0.437  16.040  1.0610 -0.0802  1.8002
  776MPD2     C11446   3.822   0.930  12.052 -0.3265  0.6479  0.2418
  776MPD2    C111447   3.732   1.007  11.983 -0.3639 -0.7122  0.3463
  776MPD2    C211448   3.778   1.096  11.885 -0.5635  0.2364  0.0529
  776MPD2    C311449   3.914   1.121  11.872  0.2186  1.0348  0.1596
  776MPD2    C411450   4.000   1.044  11.946  0.4495  0.3778  0.2374
  776MPD2    C511451   3.954   0.945  12.030 -0.2771 -0.7337  0.5518
  776MPD2     H11452   3.714   1.151  11.818 -1.4119  0.6236  1.1817
  776MPD2    H111453   4.107   1.056  11.936  0.7099 -0.1952  2.2791
  776MPD2    H211454   3.776   0.857  12.118 -1.3809  1.4097  0.3455
  776MPD2    H311455   4.032   0.886  12.078  1.3009  0.9163  0.0064
  776MPD2     N11456   3.971   1.214  11.780  0.0055 -0.0120 -0.2831
  776MPD2    H511457   4.069   1.235  11.799 -0.0255  0.9006 -1.1501
  776MPD2    N111458   3.597   0.986  12.008  0.0062  0.0789 -0.0701
  776MPD2    H711459   3.569   0.912  12.072  1.2815  0.6592  1.1738
  777MPD2     C11460   3.946   3.062   0.878 -0.2471  0.2225  0.2857
  777MPD2    C111461   3.999   2.975   0.966  0.5400 -0.2179 -0.3390
  777MPD2    C211462   4.049   2.857   0.922 -0.4834  0.6248  0.7401
  777MPD2    C311463   4.045   2.821   0.789 -0.3174 -0.7525 -0.4153
  777MPD2    C411464   3.992   2.910   0.702  0.2980  0.0704 -0.0170
  777MPD2    C511465   3.935   3.025   0.744 -0.1545 -0.1108 -0.8148
  777MPD2     H11466   4.095   2.784   0.986  0.8238  0.0785 -0.8247
  777MPD2    H111467   3.991   2.887   0.596  0.7041  1.2128 -0.2643
  777MPD2    H211468   3.915   3.159   0.916 -2.9517  0.2277 -1.9457
  777MPD2    H311469   3.897   3.090   0.667 -0.4995  0.9178  0.2169
  777MPD2     N11470   4.088   2.694   0.759  0.3926 -0.2643 -0.4424
  777MPD2    H511471   4.118   2.638   0.839  1.1792 -0.7951 -1.1042
  777MPD2    N111472   4.011   3.016   1.104 -0.0098 -0.3773 -0.4358
  777MPD2    H711473   3.955   3.094   1.137  0.4619 -0.0051 -0.5071
  778MPD2     C11474   0.582   3.819  14.870 -0.7819 -0.4853  0.4699
  778MPD2    C111475   0.613   3.711  14.786 -0.5914  0.0246 -0.5310
  778MPD2    C211476   0.687   3.731  14.665  0.0688  0.3662 -0.4936
  778MPD2    C311477   0.748   3.851  14.645  0.1805  0.4966  0.3231
  778MPD2    C411478   0.711   3.955  14.724  0.1666 -0.2950 -0.0443
  778MPD2    C511479   0.636   3.942  14.834  0.7920 -0.5003 -0.6211
  778MPD2     H11480   0.717   3.642  14.611 -0.3024  0.1507 -0.3389
  778MPD2    H111481   0.737   4.056  14.694  2.3788 -1.4429 -1.9944
  778MPD2    H211482   0.523   3.812  14.961  0.5636  0.0115  1.3768
  778MPD2    H311483   0.610   4.028  14.895  1.0343 -0.9544  0.1189
  778MPD2     N11484   0.852   3.858  14.545 -0.0498 -0.4697 -0.0113
  778MPD2    H511485   0.850   3.786  14.473  1.6442  0.3444 -0.8598
  778MPD2    N111486   0.559   3.584  14.815 -0.5515  0.4638 -0.2822
  778MPD2    H711487   0.562   3.524  14.733  4.0509  2.7638 -1.7896
  779MPD2     C11488   0.116   2.461  14.172  0.3672  0.2717 -1.1758
  779MPD2    C111489   0.256   2.464  14.146  0.0572 -0.7848 -0.2948
  779MPD2    C211490   0.308   2.566  14.068  0.0067 -0.5859  0.1669
  779MPD2    C311491   0.233   2.674  14.015  0.0240  0.3330  0.2975
  779MPD2    C411492   0.103   2.673  14.049 -0.4124 -0.9311  0.5083
  779MPD2    C511493   0.046   2.564  14.118 -0.3209 -0.3820 -0.3770
  779MPD2     H11494   0.415   2.573  14.055 -0.1296  1.7399  0.2411
  779MPD2    H111495   0.033   2.752  14.024  2.2688  0.7504 -1.6620
  779MPD2    H211496   0.064   2.380  14.223  0.1898  1.0486 -0.1369
  779MPD2    H311497   4.663   2.582  14.136 -0.0661  0.5787  0.1641
  779MPD2     N11498   0.295   2.782  13.953  0.1515  0.1501  0.8353
  779MPD2    H511499   0.396   2.787  13.960 -0.0421  1.7292  2.6166
  779MPD2    N111500   0.345   2.357  14.185 -0.1512 -0.9388 -0.0366
  779MPD2    H711501   0.441   2.376  14.157 -0.2553 -2.2163 -1.2858
  780MPD2     C11502   4.080   1.203   1.249  0.6092  0.6667  0.1609
  780MPD2    C111503   4.055   1.219   1.115  0.3836  0.3710  0.0380
  780MPD2    C211504   4.121   1.318   1.039  0.3709  0.4153  0.1066
  780MPD2    C311505   4.207   1.407   1.104  0.3992  0.2692 -1.1342
  780MPD2    C411506   4.232   1.397   1.243 -0.3804 -0.2082  0.7079
  780MPD2    C511507   4.167   1.293   1.310  0.1335  0.3689 -0.6975
  780MPD2     H11508   4.109   1.312   0.932  1.0420  1.5085 -0.0337
  780MPD2    H111509   4.311   1.449   1.295  2.3637 -0.6200 -3.0400
  780MPD2    H211510   4.050   1.112   1.301  1.4440 -0.5728 -1.5192
  780MPD2    H311511   4.195   1.273   1.413 -1.4878 -1.0810 -0.5394
  780MPD2     N11512   4.277   1.490   1.020  0.0386 -0.3218 -0.2951
  780MPD2    H511513   4.249   1.493   0.923 -0.0062 -0.8280 -0.3006
  780MPD2    N111514   3.973   1.120   1.059  0.2977  0.0945  0.2429
  780MPD2    H711515   3.939   1.050   1.124 -1.6191  0.7100 -0.0953
  781MPD2     C11516   1.355   4.148  12.183  0.2858  0.0762  0.4318
  781MPD2    C111517   1.458   4.061  12.188 -0.4380  0.1324  0.4383
  781MPD2    C211518   1.556   4.067  12.091  0.1044  0.0907 -0.5188
  781MPD2    C311519   1.535   4.150  11.978 -0.1668  0.0089  1.4242
  781MPD2    C411520   1.418   4.223  11.965 -0.0075  0.1033  0.3428
  781MPD2    C511521   1.325   4.219  12.067  0.3384 -0.4035  0.1712
  781MPD2     H11522   1.647   4.009  12.091  1.1641  1.7475 -0.5183
  781MPD2    H111523   1.412   4.305  11.893  0.4913 -2.3482 -2.4744
  781MPD2    H211524   1.274   4.157  12.255 -1.7906  2.1283 -2.2049
  781MPD2    H311525   1.239   4.284  12.062  0.3185 -0.3279  1.6107
  781MPD2     N11526   1.629   4.183  11.878 -0.0412  0.2760 -0.0267
  781MPD2    H511527   1.601   4.249  11.806 -0.5515  0.0107 -0.0699
  781MPD2    N111528   1.473   3.981  12.307  0.3415 -0.0792  0.2826
  781MPD2    H711529   1.540   3.905  12.316  0.3543 -0.0769  0.1989
  782MPD2     C11530   4.457   1.083  11.156 -0.3638 -0.2437  0.6446
  782MPD2    C111531   4.485   0.976  11.072  0.2188  0.4702 -0.3535
  782MPD2    C211532   4.574   0.875  11.112  0.2249  0.5526  0.2659
  782MPD2    C311533   4.632   0.874  11.239 -0.0247  0.3199  0.2430
  782MPD2    C411534   4.596   0.978  11.322 -0.0881  0.0959 -0.4004
  782MPD2    C511535   4.511   1.083  11.285  0.2274  0.4811 -0.1008
  782MPD2     H11536   4.582   0.787  11.048  0.1722  0.2867  0.6258
  782MPD2    H111537   4.636   0.993  11.422 -1.1316  3.3889 -0.4545
  782MPD2    H211538   4.416   1.176  11.118 -0.6386 -1.4311 -1.9409
  782MPD2    H311539   4.500   1.164  11.356 -0.9323 -1.4975  1.9748
  782MPD2     N11540   0.006   0.776  11.270  0.0005  0.2274  1.1809
  782MPD2    H511541   0.026   0.696  11.210 -2.2968 -1.1819  2.2712
  782MPD2    N111542   4.411   0.971  10.947 -0.2408 -0.3165  0.2133
  782MPD2    H711543   4.338   1.040  10.930  0.1898 -0.8910 -4.1007
  783MPD2     C11544   3.490   0.961  10.810  0.6559 -1.1347  0.5288
  783MPD2    C111545   3.536   0.828  10.826  0.2868  0.2817  0.3914
  783MPD2    C211546   3.665   0.788  10.774  0.3933  0.4194  0.4120
  783MPD2    C311547   3.745   0.889  10.728 -1.0076 -0.2835 -0.0931
  783MPD2    C411548   3.695   1.019  10.707 -0.2784 -0.3047  0.1117
  783MPD2    C511549   3.567   1.052  10.742  0.3665  0.5367 -0.3862
  783MPD2     H11550   3.701   0.686  10.776  1.9298  0.9581  0.0868
  783MPD2    H111551   3.751   1.096  10.654 -0.5399 -0.1648  0.0391
  783MPD2    H211552   3.393   0.995  10.845 -0.4652 -1.4436 -2.1921
  783MPD2    H311553   3.525   1.147  10.709 -1.7232  0.1561  1.1977
  783MPD2     N11554   3.882   0.866  10.683 -0.2285 -0.0611 -0.0289
  783MPD2    H511555   3.913   0.770  10.682 -1.6174 -0.5338  1.5693
  783MPD2    N111556   3.443   0.738  10.895  0.4259 -0.7067  0.5453
  783MPD2    H711557   3.348   0.772  10.907  0.9639  1.8923 -2.5073
  784MPD2     C11558   2.231   4.484   0.689 -0.2358 -0.0086  0.4099
  784MPD2    C111559   2.207   4.585   0.776 -0.5150  0.2278  0.7536
  784MPD2    C211560   2.130   4.692   0.734 -0.0096  0.6086  0.5356
  784MPD2    C311561   2.095   4.699   0.602 -0.1967  0.4724  0.1302
  784MPD2    C411562   2.119   4.596   0.510  0.1935  0.7378  0.4280
  784MPD2    C511563   2.185   4.490   0.558 -0.8036  0.0200 -0.4089
  784MPD2     H11564   2.120   0.059   0.794 -1.1506 -0.5913  2.1228
  784MPD2    H111565   2.090   4.597   0.406  1.5578 -1.3368  0.0135
  784MPD2    H211566   2.273   4.387   0.714  0.1031  0.6216  2.3305
  784MPD2    H311567   2.213   4.410   0.491  2.9662 -0.1704  1.3946
  784MPD2     N11568   2.031   0.096   0.563 -0.3353 -0.1976  0.2873
  784MPD2    H511569   2.015   0.173   0.628 -0.2428  0.7982 -0.8797
  784MPD2    N111570   2.232   4.580   0.915  0.2397 -0.5179 -0.1540
  784MPD2    H711571   2.205   4.655   0.977  1.8190 -0.1334  0.0690
  785MPD2     C11572   1.816   2.524  10.126 -0.1554 -0.1177 -0.0577
  785MPD2    C111573   1.743   2.638  10.149  0.0631  0.3230  0.8130
  785MPD2    C211574   1.620   2.657  10.083  0.4123 -0.3179 -0.6038
  785MPD2    C311575   1.571   2.556  10.001  0.4424 -0.5878  0.3542
  785MPD2    C411576   1.644   2.438   9.983  0.8801 -0.5787  0.0853
  785MPD2    C511577   1.765   2.424  10.049 -0.2383 -0.1950  0.0516
  785MPD2     H11578   1.567   2.751  10.089  3.9771  1.5922  0.7528
  785MPD2    H111579   1.609   2.353   9.925  1.4447  0.1981 -1.3734
  785MPD2    H211580   1.913   2.509  10.172 -0.1361 -0.1385 -0.1054
  785MPD2    H311581   1.822   2.334  10.033 -0.5352 -0.5500  1.0432
  785MPD2     N11582   1.456   2.590   9.927  0.0146  0.4102  0.6156
  785MPD2    H511583   1.404   2.670   9.960  1.1207  1.5574 -0.4039
  785MPD2    N111584   1.786   2.743  10.233  0.1136 -0.9247  0.4783
  785MPD2    H711585   1.719   2.820  10.237  0.6299 -0.4759  0.4584
  786MPD2     C11586   0.986   1.607  14.618 -0.3179  0.3207  0.1251
  786MPD2    C111587   0.909   1.518  14.693  0.4245  0.1973 -0.1118
  786MPD2    C211588   0.911   1.537  14.831 -0.4225  0.3424 -0.3175
  786MPD2    C311589   0.975   1.640  14.894 -0.4254  0.0493  0.0073
  786MPD2    C411590   1.061   1.713  14.818  0.0944  0.2218 -0.0177
  786MPD2    C511591   1.060   1.700  14.684  0.4625 -0.4811 -0.1894
  786MPD2     H11592   0.847   1.477  14.894  1.2605 -0.9293  0.1869
  786MPD2    H111593   1.130   1.783  14.865 -0.6063  1.2626 -0.5365
  786MPD2    H211594   0.984   1.602  14.510  0.9300 -1.4214  0.1845
  786MPD2    H311595   1.128   1.760  14.625 -0.7389  0.5866 -0.4862
  786MPD2     N11596   0.988   1.657  15.033 -0.2610  0.4288  0.5089
  786MPD2    H511597   1.048   1.733  15.065 -0.2354 -0.0600  1.6064
  786MPD2    N111598   0.837   1.414  14.634 -0.3868  0.0061 -0.6207
  786MPD2    H711599   0.778   1.362  14.698 -1.1065  1.3100 -0.2083
  787MPD2     C11600   0.771   0.562  14.590 -0.5668 -0.3113 -0.7675
  787MPD2    C111601   0.831   0.678  14.624  0.2444 -0.0115  0.0661
  787MPD2    C211602   0.960   0.665  14.678  0.8091 -0.4029  0.4839
  787MPD2    C311603   0.995   0.549  14.739  0.5542 -0.3565  0.2901
  787MPD2    C411604   0.914   0.437  14.728 -0.2575  0.1643 -0.7023
  787MPD2    C511605   0.808   0.443  14.644  0.0223 -0.3500  0.5514
  787MPD2     H11606   1.025   0.752  14.675 -2.7792  2.0746 -4.3896
  787MPD2    H111607   0.935   0.348  14.787 -0.3281  0.8671  0.3993
  787MPD2    H211608   0.677   0.560  14.536  0.5950 -0.1397 -2.8224
  787MPD2    H311609   0.744   0.360  14.617 -0.2058 -0.0705  0.2241
  787MPD2     N11610   1.125   0.544  14.800 -0.3874  0.5573  0.3526
  787MPD2    H511611   1.191   0.620  14.793  0.2257  0.0782  0.8992
  787MPD2    N111612   0.779   0.796  14.572 -0.4799  0.0118 -0.1792
  787MPD2    H711613   0.691   0.785  14.522 -1.9806  1.6077  2.1126
  788MPD2     C11614   2.034   3.671   1.137  0.2812  0.6290 -0.1481
  788MPD2    C111615   2.103   3.620   1.031  0.4362 -0.1126 -0.2670
  788MPD2    C211616   2.171   3.700   0.944 -0.2362 -0.7527  0.1039
  788MPD2    C311617   2.176   3.841   0.963  0.4465  0.2650 -0.3177
  788MPD2    C411618   2.111   3.893   1.068 -0.3303 -0.1000 -0.8865
  788MPD2    C511619   2.041   3.805   1.160  0.2554  0.0199 -0.2664
  788MPD2     H11620   2.209   3.649   0.857 -1.2767  0.2984 -0.9648
  788MPD2    H111621   2.112   4.001   1.080 -0.0029 -0.2776  0.7867
  788MPD2    H211622   1.970   3.613   1.203  1.0970  0.0836  0.1610
  788MPD2    H311623   1.986   3.855   1.239  3.4291  2.0394  0.6557
  788MPD2     N11624   2.213   3.931   0.863 -0.4530  0.5443  0.5683
  788MPD2    H511625   2.192   4.028   0.885 -1.6318  0.5837 -0.7090
  788MPD2    N111626   2.078   3.487   0.991 -0.0974  0.7185  0.7890
  788MPD2    H711627   2.141   3.452   0.919 -0.3027 -0.8471  1.3784
  789MPD2     C11628   2.959   3.568  16.451  0.2683  0.4661 -0.3591
  789MPD2    C111629   2.851   3.512  16.517 -0.1860  0.2929 -0.2244
  789MPD2    C211630   2.737   3.583  16.521 -0.3513 -0.5715  0.8346
  789MPD2    C311631   2.728   3.710  16.471 -0.1530 -0.4450  0.0245
  789MPD2    C411632   2.836   3.764  16.400  0.5639 -0.3753  0.4026
  789MPD2    C511633   2.950   3.686  16.385 -0.5268  1.2158 -0.0755
  789MPD2     H11634   2.648   3.544  16.568 -0.4001 -1.0082  0.3754
  789MPD2    H111635   2.839   3.867  16.365  0.2438 -0.4160  0.2595
  789MPD2    H211636   3.054   3.517  16.446  0.3781  0.6089  0.1656
  789MPD2    H311637   3.039   3.723  16.335 -0.0524  0.0022 -0.1265
  789MPD2     N11638   2.615   3.794  16.492 -0.1769 -0.5799 -0.2339
  789MPD2    H511639   2.624   3.884  16.444  0.9166 -0.4234  0.2733
  789MPD2    N111640   2.856   3.395  16.593  0.4131 -0.4903 -0.5074
  789MPD2    H711641   2.778   3.379  16.656 -0.2967 -0.1485 -1.3035
  790MPD2     C11642   4.282   1.601  13.297  0.1787  0.5817 -0.0435
  790MPD2    C111643   4.259   1.496  13.375 -0.2047  0.7429  0.0934
  790MPD2    C211644   4.139   1.423  13.350  0.3101 -0.3959 -0.3087
  790MPD2    C311645   4.063   1.453  13.239 -0.1294  0.6036  1.0379
  790MPD2    C411646   4.096   1.559  13.162  0.6248  0.0724  0.1281
  790MPD2    C511647   4.206   1.631  13.194  0.5744  0.0479  0.2055
  790MPD2     H11648   4.132   1.331  13.407 -1.4526  0.2767  0.5759
  790MPD2    H111649   4.054   1.587  13.067  2.3638  0.6686 -0.4729
  790MPD2    H211650   4.368   1.666  13.305 -0.2857  1.2895 -0.8307
  790MPD2    H311651   4.243   1.710  13.131  1.6273 -1.5792 -1.2219
  790MPD2     N11652   3.964   1.361  13.195 -0.0419 -0.8276  0.4240
  790MPD2    H511653   3.955   1.276  13.250  1.4710 -1.4993 -0.3506
  790MPD2    N111654   4.349   1.454  13.475 -0.1043  0.3818 -0.0017
  790MPD2    H711655   4.314   1.380  13.535  0.1985  0.0304 -0.2577
  791MPD2     C11656   3.298   1.346  12.755 -0.6219  0.0472  0.2005
  791MPD2    C111657   3.335   1.227  12.808  1.0033 -0.0039  0.8029
  791MPD2    C211658   3.249   1.117  12.788  0.7009 -0.5074 -0.1952
  791MPD2    C311659   3.119   1.139  12.745 -0.2560 -0.3785  0.0622
  791MPD2    C411660   3.080   1.266  12.711  0.8461  0.3371 -0.0069
  791MPD2    C511661   3.174   1.370  12.706  0.2141  0.2459 -0.1011
  791MPD2     H11662   3.278   1.017  12.818 -1.3078 -0.5697  1.4795
  791MPD2    H111663   2.983   1.285  12.667  1.3227 -0.7733 -1.5503
  791MPD2    H211664   3.364   1.431  12.756 -0.7331  0.1404 -0.5580
  791MPD2    H311665   3.143   1.466  12.666 -2.4244 -0.3828  0.4582
  791MPD2     N11666   3.038   1.027  12.738  0.2577  0.3341 -0.1617
  791MPD2    H511667   3.090   0.944  12.763 -0.7513 -0.7681 -1.7161
  791MPD2    N111668   3.468   1.211  12.852 -0.9932 -0.7117 -0.2532
  791MPD2    H711669   3.536   1.286  12.841  0.8397 -2.4510 -0.7125
  792MPD2     C11670   0.051   1.301  11.228 -0.5052 -0.5317 -0.0211
  792MPD2    C111671   4.671   1.385  11.178 -0.0226 -0.4391 -0.6178
  792MPD2    C211672   4.637   1.389  11.043 -0.9875  0.5649  0.1660
  792MPD2    C311673   4.695   1.299  10.954  0.1672  0.2517 -0.0416
  792MPD2    C411674   0.075   1.222  11.004  0.0421 -0.1576  1.2741
  792MPD2    C511675   0.117   1.227  11.133  0.5643 -0.3436 -0.1321
  792MPD2     H11676   4.560   1.458  11.009 -2.1491 -0.3146  1.0250
  792MPD2    H111677   0.135   1.161  10.937 -1.6839 -0.0028 -0.4007
  792MPD2    H211678   0.088   1.292  11.329 -0.7508  2.5390  0.3544
  792MPD2    H311679   0.215   1.186  11.157  1.1988 -0.3386 -2.7507
  792MPD2     N11680   4.663   1.284  10.817  0.3295  0.2816  0.0376
  792MPD2    H511681   4.719   1.214  10.769  1.8332  1.7927 -0.4255
  792MPD2    N111682   4.616   1.484  11.268 -0.2354 -0.2581  0.3666
  792MPD2    H711683   4.659   1.483  11.360  3.1433 -2.1455 -1.2158
  793MPD2     C11684   4.019   1.388   9.921  0.1811 -0.9783  0.4939
  793MPD2    C111685   4.088   1.270   9.927  0.3525  0.6831  0.0606
  793MPD2    C211686   4.179   1.248  10.029 -0.0706 -0.1759 -0.0574
  793MPD2    C311687   4.212   1.342  10.124 -0.4461  0.1578  0.3628
  793MPD2    C411688   4.151   1.466  10.111 -0.6526  0.0021 -0.2672
  793MPD2    C511689   4.058   1.489  10.012 -0.3189 -0.0241  0.0761
  793MPD2     H11690   4.223   1.150  10.044 -1.9949 -0.6165  2.7172
  793MPD2    H111691   4.171   1.551  10.174  0.3089 -1.2106  1.0670
  793MPD2    H211692   3.945   1.408   9.845 -0.2886  2.6581  1.8822
  793MPD2    H311693   4.015   1.586   9.993 -1.7163 -0.9015 -1.1871
  793MPD2     N11694   4.309   1.304  10.219  0.0741  0.0093 -0.5843
  793MPD2    H511695   4.346   1.210  10.208  0.5014  0.1103  0.0018
  793MPD2    N111696   4.064   1.163   9.830 -0.5851  0.3069  0.6631
  793MPD2    H711697   4.116   1.077   9.844  0.5601  0.4502 -2.6330
  794MPD2     C11698   3.808   4.101  17.058  0.3951 -0.6878  0.2442
  794MPD2    C111699   3.703   4.187  17.078  0.3858 -0.0344 -0.6416
  794MPD2    C211700   3.662   4.265  16.971 -0.1088  0.0673 -0.5084
  794MPD2    C311701   3.726   4.246  16.846 -1.0278  0.3067  0.1796
  794MPD2    C411702   3.828   4.155  16.829  0.0099 -0.5667  0.3079
  794MPD2    C511703   3.874   4.091  16.939  0.3648 -0.3087  0.4616
  794MPD2     H11704   3.576   4.327  16.992  0.4400  0.7073 -0.1511
  794MPD2    H111705   3.882   4.127  16.739  0.5708 -0.2196  0.5371
  794MPD2    H211706   3.840   4.029  17.132  2.7756  0.8187  0.6689
  794MPD2    H311707   3.952   4.020  16.915  0.7870  0.9093 -1.7290
  794MPD2     N11708   3.694   4.320  16.727  0.4694 -0.2503  0.3426
  794MPD2    H511709   3.744   4.307  16.640  1.4619 -0.5496  0.9522
  794MPD2    N111710   3.637   4.190  17.202  0.4183  0.5410 -0.5018
  794MPD2    H711711   3.548   4.236  17.190  0.2033  0.3572  0.3829
  795MPD2     C11712   1.404   2.406  13.945 -0.1139 -0.9487 -0.5639
  795MPD2    C111713   1.377   2.348  13.822 -0.1373 -1.0931  0.0752
  795MPD2    C211714   1.480   2.279  13.760  0.5352  0.1141 -0.2169
  795MPD2    C311715   1.606   2.267  13.817  1.1584  0.3106  0.0150
  795MPD2    C411716   1.633   2.324  13.939 -0.4776 -0.2821 -0.1700
  795MPD2    C511717   1.526   2.393  13.997 -0.3425  0.9248 -0.1104
  795MPD2     H11718   1.459   2.229  13.666  0.5157 -0.1449 -0.0744
  795MPD2    H111719   1.732   2.321  13.983 -0.7771  0.6803  0.5795
  795MPD2    H211720   1.333   2.466  14.002 -0.2547 -0.5396 -1.1804
  795MPD2    H311721   1.547   2.440  14.093  2.0564 -1.0406  0.3429
  795MPD2     N11722   1.706   2.187  13.755  0.0345  0.3183  0.3504
  795MPD2    H511723   1.674   2.137  13.673 -1.9111 -1.7258  2.3932
  795MPD2    N111724   1.251   2.358  13.757 -0.1721  0.3157  0.2539
  795MPD2    H711725   1.256   2.337  13.658 -0.6993 -0.5994  0.4223
  796MPD2     C11726   0.716   3.847  15.705 -0.2055  0.1719 -0.5593
  796MPD2    C111727   0.682   3.932  15.814  0.0632  0.5134 -0.0638
  796MPD2    C211728   0.683   4.068  15.792  0.4097  0.1680 -0.0265
  796MPD2    C311729   0.751   4.118  15.684 -0.0396  0.5138 -0.3159
  796MPD2    C411730   0.791   4.038  15.581 -0.6941  0.1562 -0.0792
  796MPD2    C511731   0.768   3.899  15.588 -0.3848  0.1206 -0.1010
  796MPD2     H11732   0.643   4.138  15.865 -0.8036 -0.4354 -0.1234
  796MPD2    H111733   0.836   4.079  15.491 -0.3772  1.0784  0.4972
  796MPD2    H211734   0.703   3.739  15.708  0.7768 -0.0144 -3.2246
  796MPD2    H311735   0.784   3.837  15.501 -0.6802  0.4547 -0.3940
  796MPD2     N11736   0.760   4.259  15.674 -0.4895  0.2756 -0.2468
  796MPD2    H511737   0.697   4.307  15.737 -1.3491 -0.5386 -0.4794
  796MPD2    N111738   0.639   3.876  15.935 -0.1479  0.0725  0.1608
  796MPD2    H711739   0.632   3.776  15.925 -0.6311  0.2966 -1.7930
  797MPD2     C11740   1.282   3.171  17.224  0.3141  0.4254  0.7121
  797MPD2    C111741   1.346   3.276  17.287 -0.3247  0.1327  0.1595
  797MPD2    C211742   1.313   3.404  17.254  0.2203 -0.5020 -0.2088
  797MPD2    C311743   1.198   3.438  17.179 -0.2667 -0.2934  0.1391
  797MPD2    C411744   1.127   3.332  17.123 -0.4347  0.4134 -0.3536
  797MPD2    C511745   1.172   3.205  17.150  0.4691  0.6057  0.5130
  797MPD2     H11746   1.373   3.480  17.302 -0.1698  0.2420 -0.8973
  797MPD2    H111747   1.042   3.351  17.058 -0.1845  0.7164 -0.5881
  797MPD2    H211748   1.301   3.065  17.232  0.6383  0.2702 -2.1920
  797MPD2    H311749   1.107   3.126  17.113  0.4604  0.7978  0.1140
  797MPD2     N11750   1.153   3.573  17.164 -0.6321  0.4550  0.1604
  797MPD2    H511751   1.081   3.587  17.094 -0.3660  1.6614  0.1242
  797MPD2    N111752   1.449   3.252  17.379 -0.3897  0.1566  0.2633
  797MPD2    H711753   1.477   3.341  17.421 -1.0293 -0.2799  1.6328
  798MPD2     C11754   1.630   3.957  17.537 -1.0084  0.3767 -0.2075
  798MPD2    C111755   1.545   3.868  17.474 -0.7875  0.0147  0.0773
  798MPD2    C211756   1.573   3.736  17.482  0.3692  0.3603 -0.4401
  798MPD2    C311757   1.685   3.685  17.553  0.1125  0.3061 -0.1786
  798MPD2    C411758   1.774   3.773  17.611 -0.2053  0.4622 -0.2575
  798MPD2    C511759   1.744   3.912  17.593  0.0950  0.1659 -0.5840
  798MPD2     H11760   1.505   3.666  17.434  2.3838 -1.1017 -1.1543
  798MPD2    H111761   1.867   3.749  17.661 -0.5098  2.1677  1.1441
  798MPD2    H211762   1.628   4.063  17.517 -0.8262  0.3913 -0.1491
  798MPD2    H311763   1.812   3.985  17.636 -0.6672 -0.5365  1.8051
  798MPD2     N11764   1.696   3.543  17.557 -0.5938 -0.2619 -0.6552
  798MPD2    H511765   1.611   3.489  17.542 -1.2912  0.9900 -1.2090
  798MPD2    N111766   1.425   3.906  17.412 -0.1055 -0.5559  0.0837
  798MPD2    H711767   1.371   3.828  17.375  2.4263 -1.7749 -1.1187
  799MPD2     C11768   1.157   0.762  14.422 -0.0788 -0.1394  0.8016
  799MPD2    C111769   1.078   0.657  14.383 -0.3179 -0.2576  0.0386
  799MPD2    C211770   0.970   0.673  14.308 -0.4803  0.1817 -0.0433
  799MPD2    C311771   0.941   0.795  14.242 -0.2436 -0.2495 -0.0909
  799MPD2    C411772   1.012   0.906  14.292  0.4831  0.9637  0.6251
  799MPD2    C511773   1.119   0.889  14.377  0.5980  0.4929 -0.3682
  799MPD2     H11774   0.900   0.592  14.287 -0.3238  0.1803 -0.5696
  799MPD2    H111775   0.976   1.003  14.258  0.9781  0.8310 -0.2925
  799MPD2    H211776   1.240   0.768  14.492 -0.3544 -1.9420  1.2956
  799MPD2    H311777   1.164   0.978  14.419  2.0381 -0.0967 -0.6390
  799MPD2     N11778   0.847   0.811  14.139  0.1003  0.1024 -0.1534
  799MPD2    H511779   0.840   0.910  14.116  1.9418 -0.4141 -3.0185
  799MPD2    N111780   1.107   0.522  14.414 -0.2731  0.5567  0.4472
  799MPD2    H711781   1.033   0.453  14.406  0.2402 -0.0922  1.2449
  800MPD2     C11782   1.250   1.636  14.027 -0.6107  0.1350 -0.1894
  800MPD2    C111783   1.378   1.580  14.036  0.2754  0.6319  0.3463
  800MPD2    C211784   1.410   1.476  13.947  0.4421  1.1782  0.3399
  800MPD2    C311785   1.326   1.446  13.842 -0.0787 -0.1357  0.3674
  800MPD2    C411786   1.212   1.521  13.831 -0.0773 -0.2337  0.0872
  800MPD2    C511787   1.172   1.614  13.919  0.2099  0.0458  0.1366
  800MPD2     H11788   1.507   1.428  13.958  0.1705 -0.0039 -2.5040
  800MPD2    H111789   1.145   1.503  13.748  1.5704  0.8076 -1.4644
  800MPD2    H211790   1.201   1.697  14.102  2.2771 -0.2643  2.0017
  800MPD2    H311791   1.074   1.660  13.911  0.3487  0.4683  0.8277
  800MPD2     N11792   1.366   1.342  13.755  1.2437  0.4080 -0.0739
  800MPD2    H511793   1.456   1.297  13.769  0.9794  0.2228  0.9947
  800MPD2    N111794   1.455   1.611  14.150 -0.1239 -0.0729 -0.5112
  800MPD2    H711795   1.427   1.690  14.207  0.4878 -1.3798  1.5967
  801MPD2     C11796   1.400   1.997  14.779  0.0301 -0.2689  0.7779
  801MPD2    C111797   1.371   1.975  14.646 -0.2262  0.2924  0.5484
  801MPD2    C211798   1.264   2.047  14.598 -0.2352  0.0297 -0.7228
  801MPD2    C311799   1.199   2.147  14.672  0.2364  0.3563 -0.1365
  801MPD2    C411800   1.233   2.166  14.805 -0.9072 -0.2836 -0.3495
  801MPD2    C511801   1.332   2.094  14.851  0.5719 -0.0658  0.5781
  801MPD2     H11802   1.254   2.047  14.490 -0.7958  0.6629 -0.6753
  801MPD2    H111803   1.188   2.240  14.869 -2.4488 -1.1145 -0.4764
  801MPD2    H211804   1.477   1.944  14.833  0.2803  1.2884  1.9623
  801MPD2    H311805   1.361   2.105  14.955  0.7485 -1.9199  0.7285
  801MPD2     N11806   1.102   2.234  14.625  0.0837 -0.3642  0.1621
  801MPD2    H511807   1.079   2.309  14.689 -0.6178 -1.0598  0.7264
  801MPD2    N111808   1.448   1.893  14.556 -0.6170  0.2014 -0.2221
  801MPD2    H711809   1.414   1.881  14.462  0.7013  2.9083 -1.0466
  802MPD2     C11810   0.040   1.943  17.422 -0.2305 -0.1697  0.1234
  802MPD2    C111811   0.143   2.031  17.416 -0.3981 -0.0834 -0.9970
  802MPD2    C211812   0.232   2.022  17.311  0.8083  0.3714  1.0948
  802MPD2    C311813   0.210   1.938  17.207  0.0159  0.1718  0.2314
  802MPD2    C411814   0.102   1.855  17.209  1.3998 -0.4717  0.2241
  802MPD2    C511815   0.016   1.864  17.315  0.1012  0.5484 -0.4690
  802MPD2     H11816   0.314   2.092  17.311  0.8378  0.3656 -2.7699
  802MPD2    H111817   0.092   1.783  17.129  1.7393  0.9588 -1.1016
  802MPD2    H211818   4.678   1.945  17.490 -0.4467 -0.8071 -0.1290
  802MPD2    H311819   4.643   1.813  17.321  0.8512 -0.7449  0.4991
  802MPD2     N11820   0.312   1.934  17.107  0.0433 -0.5744 -0.1808
  802MPD2    H511821   0.390   1.999  17.107 -0.2047 -0.2888 -1.1019
  802MPD2    N111822   0.174   2.116  17.526 -0.0377  0.3687 -0.4085
  802MPD2    H711823   0.265   2.161  17.529 -0.7691  1.9543 -2.4608
  803MPD2     C11824   2.276   1.395  11.897  0.3422 -0.2032  0.5093
  803MPD2    C111825   2.348   1.315  11.981  0.0841  0.1358 -0.0925
  803MPD2    C211826   2.312   1.185  12.006 -0.6800  0.5132  0.2075
  803MPD2    C311827   2.200   1.132  11.941 -0.4071  0.5223 -0.3553
  803MPD2    C411828   2.136   1.214  11.855 -0.1005  0.5090  0.2948
  803MPD2    C511829   2.174   1.340  11.826 -0.0775 -0.4777 -0.2703
  803MPD2     H11830   2.366   1.125  12.078 -0.4556 -0.0486 -0.4283
  803MPD2    H111831   2.049   1.168  11.809  1.7568 -0.5750 -2.1435
  803MPD2    H211832   2.308   1.495  11.870  0.6630  0.1058  2.0452
  803MPD2    H311833   2.121   1.402  11.755  2.5778 -0.2497 -2.0438
  803MPD2     N11834   2.168   0.996  11.980 -0.4336 -0.2997  0.1704
  803MPD2    H511835   2.240   0.963  12.043 -1.4348 -2.2026  0.3277
  803MPD2    N111836   2.451   1.373  12.060 -0.2830 -0.1890  0.9416
  803MPD2    H711837   2.485   1.309  12.131  2.5048 -0.7539 -0.9316
  804MPD2     C11838   1.084   1.938  16.795 -0.0940 -0.1890 -0.1508
  804MPD2    C111839   1.157   1.960  16.907  0.7858 -0.2409  0.6551
  804MPD2    C211840   1.181   2.090  16.947  0.5288  0.5391 -0.0506
  804MPD2    C311841   1.125   2.188  16.878 -0.1726 -0.2853  0.6744
  804MPD2    C411842   1.046   2.162  16.766  0.1704  0.4283 -0.0062
  804MPD2    C511843   1.028   2.037  16.715 -0.4500 -0.0810  0.3590
  804MPD2     H11844   1.243   2.109  17.034  2.7982 -0.1531 -1.5239
  804MPD2    H111845   1.007   2.239  16.701 -0.4036 -0.0312 -0.2031
  804MPD2    H211846   1.068   1.837  16.759 -2.6420  0.1278  0.0949
  804MPD2    H311847   0.989   2.005  16.619  0.6931 -0.5882  0.0637
  804MPD2     N11848   1.170   2.318  16.910 -0.0542 -0.3947  0.5498
  804MPD2    H511849   1.225   2.324  16.995 -1.0267 -2.0044  1.2803
  804MPD2    N111850   1.224   1.855  16.980  0.1588 -0.6616  0.1768
  804MPD2    H711851   1.267   1.887  17.066  2.2001  1.6336 -1.7033
  805MPD2     C11852   0.408   0.777  15.742 -0.3455 -0.3224  0.0439
  805MPD2    C111853   0.497   0.793  15.633 -0.5031  0.1157 -0.2354
  805MPD2    C211854   0.626   0.828  15.662 -0.0301  0.0588  0.4150
  805MPD2    C311855   0.658   0.871  15.788  0.5978  0.4507  0.3782
  805MPD2    C411856   0.567   0.874  15.892 -0.7086 -0.2512  0.1186
  805MPD2    C511857   0.439   0.823  15.867  0.0224 -0.0057 -0.1024
  805MPD2     H11858   0.700   0.807  15.586 -1.5542  0.4961 -1.2091
  805MPD2    H111859   0.600   0.892  15.994  0.4780  2.1460 -0.6617
  805MPD2    H211860   0.314   0.731  15.714 -0.7452  0.6867 -0.2809
  805MPD2    H311861   0.365   0.803  15.944 -0.9143 -0.5323 -1.1455
  805MPD2     N11862   0.794   0.870  15.817  0.6408  0.0877 -0.6961
  805MPD2    H511863   0.860   0.849  15.743  0.0601 -0.1356 -1.1455
  805MPD2    N111864   0.468   0.756  15.502 -0.1477  0.1458  0.5996
  805MPD2    H711865   0.546   0.751  15.438 -0.0864 -1.4923  0.7823
  806MPD2     C11866   1.601   4.707   0.367  0.1982 -0.0020  0.8737
  806MPD2    C111867   1.614   0.051   0.488 -0.4368 -0.4798  0.2731
  806MPD2    C211868   1.531   0.157   0.513  0.4625 -0.2566  0.8660
  806MPD2    C311869   1.444   0.214   0.422  1.0891 -0.1986  0.1695
  806MPD2    C411870   1.434   0.146   0.304 -0.3784  0.5830 -0.1470
  806MPD2    C511871   1.510   0.033   0.278  0.3936  0.0901 -0.0924
  806MPD2     H11872   1.533   0.196   0.614 -1.1438  0.7594  0.4963
  806MPD2    H111873   1.366   0.170   0.223 -1.2196 -1.4147 -0.0421
  806MPD2    H211874   1.662   4.623   0.336  0.3738  1.1862 -2.1037
  806MPD2    H311875   1.493   4.707   0.182 -0.0262 -2.6906  1.3882
  806MPD2     N11876   1.350   0.311   0.450  0.1077  0.2892 -0.3717
  806MPD2    H511877   1.339   0.341   0.547 -2.3845 -1.8762  0.0089
  806MPD2    N111878   1.703   4.713   0.585  0.7160 -0.0130  0.2395
  806MPD2    H711879   1.748   4.623   0.572  0.8739  0.0532  0.3191
  807MPD2     C11880   1.466   0.167   1.247 -0.0726 -0.7185  0.3270
  807MPD2    C111881   1.498   0.034   1.213  0.4765 -0.4710  0.2185
  807MPD2    C211882   1.406   4.659   1.241 -0.8913 -0.2778  0.5551
  807MPD2    C311883   1.280   4.694   1.290 -0.1880  0.6232 -0.3187
  807MPD2    C411884   1.246   0.106   1.314 -0.1287 -0.5841 -0.0689
  807MPD2    C511885   1.339   0.203   1.296  0.0401  0.0454 -0.9585
  807MPD2     H11886   1.422   4.554   1.220  0.7176  0.0545  0.1560
  807MPD2    H111887   1.146   0.129   1.350 -0.1404  0.0251 -0.4884
  807MPD2    H211888   1.537   0.247   1.227 -1.9248  0.8603  0.0229
  807MPD2    H311889   1.316   0.305   1.325  1.3775  0.6316 -1.9854
  807MPD2     N11890   1.192   4.582   1.308 -0.0842 -0.2826 -0.0321
  807MPD2    H511891   1.224   4.493   1.269 -1.9596 -0.5776 -0.8837
  807MPD2    N111892   1.617   4.712   1.154 -0.1974 -0.0155  0.0645
  807MPD2    H711893   1.624   4.620   1.112  1.6354 -0.8966  2.2470
  808MPD2     C11894   1.850   0.893   9.747 -0.2263 -0.7076  0.1704
  808MPD2    C111895   1.845   0.789   9.651 -0.2327  0.8153 -0.1884
  808MPD2    C211896   1.922   0.795   9.536  0.3285 -0.2315  0.0486
  808MPD2    C311897   2.010   0.898   9.516 -0.2233  0.1048 -0.5073
  808MPD2    C411898   2.023   0.994   9.614  0.3325 -0.0306  0.5024
  808MPD2    C511899   1.940   0.996   9.726 -0.0268 -0.5758  0.7784
  808MPD2     H11900   1.918   0.711   9.468 -1.6792  0.1602 -0.3222
  808MPD2    H111901   2.096   1.074   9.603 -0.2609  0.6325  1.3921
  808MPD2    H211902   1.792   0.898   9.838 -0.3138 -0.5499  0.1062
  808MPD2    H311903   1.943   1.078   9.798 -1.8792  1.1392 -1.0980
  808MPD2     N11904   2.106   0.905   9.409  0.5984 -0.2242  0.3068
  808MPD2    H511905   2.185   0.967   9.418  1.0956 -0.9647  1.0052
  808MPD2    N111906   1.753   0.679   9.652 -0.5540 -0.3045  0.3214
  808MPD2    H711907   1.770   0.613   9.576 -1.9958 -0.5123  0.1948
  809MPD2     C11908   2.832   0.719   9.791  0.1667 -0.1475  0.4118
  809MPD2    C111909   2.801   0.850   9.767 -0.1354  0.3655 -0.2580
  809MPD2    C211910   2.719   0.869   9.660  0.5323  0.8077  0.4358
  809MPD2    C311911   2.655   0.765   9.594 -1.1022 -0.2182 -0.1613
  809MPD2    C411912   2.670   0.635   9.636 -0.3153  0.1047 -0.5453
  809MPD2    C511913   2.757   0.614   9.737  0.3088 -0.3205  0.7025
  809MPD2     H11914   2.692   0.969   9.630  0.0818  0.8885  1.1093
  809MPD2    H111915   2.618   0.551   9.590 -1.2285  0.3728 -0.0072
  809MPD2    H211916   2.921   0.687   9.845  2.0390 -1.7976 -3.6222
  809MPD2    H311917   2.773   0.511   9.766  2.1687 -0.6422 -1.4548
  809MPD2     N11918   2.558   0.795   9.495 -0.1439  0.6549  0.4138
  809MPD2    H511919   2.507   0.714   9.463 -0.7838  1.2349 -0.0453
  809MPD2    N111920   2.865   0.961   9.827  0.1977  0.1238 -0.3595
  809MPD2    H711921   2.856   1.050   9.779 -1.5478 -1.0049 -2.1067
  810MPD2     C11922   1.152   0.656   9.562 -0.0188  0.1489  0.5071
  810MPD2    C111923   1.099   0.596   9.681 -0.0095 -0.9457 -0.0945
  810MPD2    C211924   1.145   0.641   9.806  0.0665  0.3140  0.0133
  810MPD2    C311925   1.256   0.730   9.803  1.2057 -0.0505  0.3989
  810MPD2    C411926   1.302   0.781   9.687 -0.3942  0.3149 -0.2777
  810MPD2    C511927   1.254   0.744   9.563  0.1753 -0.1788  0.2630
  810MPD2     H11928   1.107   0.606   9.901  0.7476 -3.3090 -1.0529
  810MPD2    H111929   1.382   0.853   9.702 -0.8083  0.8688 -0.7316
  810MPD2    H211930   1.100   0.635   9.470 -0.3536  0.3406  0.6531
  810MPD2    H311931   1.303   0.789   9.477 -2.5288  1.8988 -0.1939
  810MPD2     N11932   1.318   0.776   9.922 -0.3213  0.5323  0.3207
  810MPD2    H511933   1.407   0.821   9.906  0.0569 -0.7294 -1.1350
  810MPD2    N111934   0.981   0.516   9.663 -0.5176 -0.4180  0.2908
  810MPD2    H711935   0.941   0.515   9.570  1.0494 -1.1287 -0.3845
  811MPD2     C11936   0.183   0.814   9.586  0.3319 -0.2344  0.4759
  811MPD2    C111937   0.323   0.808   9.615 -0.2891  0.0933  0.2522
  811MPD2    C211938   0.395   0.927   9.624 -0.6319 -0.7008 -0.6349
  811MPD2    C311939   0.328   1.047   9.607  0.5165 -0.3270  0.1018
  811MPD2    C411940   0.198   1.052   9.562  0.0594  0.5319 -0.0190
  811MPD2    C511941   0.128   0.938   9.556 -0.2004 -0.0777 -0.5022
  811MPD2     H11942   0.495   0.940   9.663 -0.8582  1.7680 -0.8675
  811MPD2    H111943   0.143   1.136   9.522  1.8063  1.7275  0.0647
  811MPD2    H211944   0.126   0.722   9.584 -0.2172  0.0807  1.4517
  811MPD2    H311945   0.022   0.949   9.536  0.0201  0.4924 -1.3217
  811MPD2     N11946   0.403   1.163   9.640  0.1537  0.3020 -0.3730
  811MPD2    H511947   0.495   1.155   9.683 -0.5127 -2.2889  0.5318
  811MPD2    N111948   0.386   0.686   9.634 -0.0346  0.7536 -0.6623
  811MPD2    H711949   0.334   0.600   9.636 -1.8597  1.8983  0.9744
  812MPD2     C11950   0.069   0.893  12.369 -0.0039 -0.4881  0.6328
  812MPD2    C111951   4.704   0.915  12.468 -0.0771  0.6989 -0.2837
  812MPD2    C211952   4.669   0.807  12.555  0.4430 -0.2706 -0.8889
  812MPD2    C311953   0.014   0.683  12.537 -1.2847 -0.0912  0.1115
  812MPD2    C411954   0.103   0.670  12.432  0.3258  0.1545 -0.1676
  812MPD2    C511955   0.135   0.778  12.354  0.6032  0.0028  0.0313
  812MPD2     H11956   4.610   0.823  12.644  1.7468 -3.8817  0.6081
  812MPD2    H111957   0.155   0.579  12.405 -0.7299 -0.0429 -1.5404
  812MPD2    H211958   0.100   0.980  12.313 -2.4184  0.8646  1.3688
  812MPD2    H311959   0.205   0.754  12.275 -2.5241 -1.1539 -2.3684
  812MPD2     N11960   4.711   0.578  12.629  0.5650  0.2861 -0.1254
  812MPD2    H511961   4.655   0.604  12.709 -0.5160  1.0895 -1.1305
  812MPD2    N111962   4.653   1.045  12.477  0.1928 -0.0761  0.4865
  812MPD2    H711963   4.695   1.119  12.422  2.4251 -1.7815 -0.1085
  813MPD2     C11964   3.088   3.243  12.735  0.1533  0.1473 -0.2089
  813MPD2    C111965   3.159   3.166  12.819  0.3948  0.0087 -0.2203
  813MPD2    C211966   3.099   3.103  12.924  0.0417 -0.4119 -0.6165
  813MPD2    C311967   2.967   3.113  12.947  0.3317  0.1191  0.3062
  813MPD2    C411968   2.889   3.194  12.857  0.5143 -0.5851  0.1252
  813MPD2    C511969   2.955   3.257  12.757 -0.2480 -0.0781 -0.1796
  813MPD2     H11970   3.152   3.040  12.995 -1.3208 -2.9166 -1.8107
  813MPD2    H111971   2.781   3.205  12.858  0.4606 -1.0924 -0.8613
  813MPD2    H211972   3.139   3.290  12.652 -1.1976  1.1315 -0.4904
  813MPD2    H311973   2.901   3.325  12.692 -0.6924 -1.1194 -0.9037
  813MPD2     N11974   2.914   3.060  13.064  0.2781 -0.6572  0.2563
  813MPD2    H511975   2.985   3.029  13.130 -0.2275 -1.9030  0.2134
  813MPD2    N111976   3.299   3.154  12.784 -0.5099 -0.0399  0.0490
  813MPD2    H711977   3.325   3.199  12.696 -1.4046 -0.7144 -0.5664
  814MPD2     C11978   3.898   4.094  12.295 -0.7118  0.6756 -0.3424
  814MPD2    C111979   3.943   4.173  12.193  0.5210  0.3299 -0.2248
  814MPD2    C211980   4.018   4.285  12.229 -1.4069 -0.0870 -0.3615
  814MPD2    C311981   4.060   4.305  12.360 -0.3025  0.3964  0.3123
  814MPD2    C411982   4.035   4.207  12.451 -0.0456 -0.4286  0.0240
  814MPD2    C511983   3.952   4.099  12.416  0.2997 -0.0461 -0.2023
  814MPD2     H11984   4.054   4.349  12.149 -1.7718 -0.8265 -1.1200
  814MPD2    H111985   4.086   4.210  12.546 -1.9931 -1.3432  1.0919
  814MPD2    H211986   3.829   4.011  12.283  0.2414 -0.7672  4.3067
  814MPD2    H311987   3.930   4.018  12.484 -0.2786  0.2850 -0.0020
  814MPD2     N11988   4.161   4.393  12.400 -0.2284 -0.0751 -0.2048
  814MPD2    H511989   4.200   4.371  12.491 -1.5006 -0.7630  0.1689
  814MPD2    N111990   3.899   4.159  12.059 -0.7073 -0.2053 -0.1804
  814MPD2    H711991   3.932   4.230  11.994  0.1340 -0.6252 -0.2118
  815MPD2     C11992   0.243   2.890  11.841 -0.6577 -0.2318 -0.5490
  815MPD2    C111993   0.159   2.780  11.835  0.1730 -0.0033  0.2323
  815MPD2    C211994   0.033   2.784  11.882 -0.1099  0.3787  0.2153
  815MPD2    C311995   4.710   2.906  11.930 -0.3015 -1.0266 -0.0803
  815MPD2    C411996   0.072   3.013  11.946  0.2763 -0.3320 -0.6425
  815MPD2    C511997   0.193   3.006  11.890 -0.8717  0.1596  0.6222
  815MPD2     H11998   4.695   2.694  11.877  0.2521  0.1949 -0.9379
  815MPD2    H111999   0.031   3.109  11.976  0.5372 -0.8824  1.5382
  815MPD2    H212000   0.345   2.891  11.803 -0.8576  0.7859 -1.0410
  815MPD2    H312001   0.247   3.100  11.887 -0.5040 -0.1178 -1.4688
  815MPD2     N12002   4.569   2.911  11.961 -0.0179 -0.7132 -0.2802
  815MPD2    H512003   4.528   2.818  11.961 -1.5399 -0.0325 -0.4009
  815MPD2    N112004   0.194   2.657  11.759 -0.4651 -0.3504  0.5469
  815MPD2    H712005   0.122   2.589  11.736 -1.5972  1.6150 -1.7475
  816MPD2     C12006   0.207   1.713   0.145  0.4998  0.6965  0.0761
  816MPD2    C112007   0.090   1.694   0.073  0.0362  0.0854 -0.2993
  816MPD2    C212008   0.108   1.625  17.644  0.2906 -0.5647 -0.2875
  816MPD2    C312009   0.234   1.608  17.585  0.1484  0.1184 -0.4519
  816MPD2    C412010   0.344   1.643  17.653  0.0203 -0.0846 -0.0162
  816MPD2    C512011   0.329   1.694   0.088  0.7803  0.6963  0.0887
  816MPD2     H12012   0.030   1.588  17.578  0.3337 -3.0714  1.0889
  816MPD2    H112013   0.445   1.628  17.617  0.4148  2.2615  0.1241
  816MPD2    H212014   0.213   1.757   0.244 -0.0726  2.6436 -0.7397
  816MPD2    H312015   0.419   1.709   0.146  0.8177  2.5543 -0.4440
  816MPD2     N12016   0.230   1.552  17.454 -0.4559  0.1380 -0.2063
  816MPD2    H512017   0.141   1.521  17.417  0.1546 -0.5908 -1.0629
  816MPD2    N112018   4.685   1.735   0.119 -0.4706 -0.2803 -0.2181
  816MPD2    H712019   4.674   1.786   0.206  3.3730  0.7371 -0.3274
  817MPD2     C12020   4.622   3.081  10.602  0.8427  0.3830  0.1301
  817MPD2    C112021   4.707   3.068  10.496 -0.0318 -0.3106  0.4600
  817MPD2    C212022   0.052   3.181  10.448 -0.0742 -0.5086 -0.6903
  817MPD2    C312023   0.049   3.309  10.508 -0.4044 -0.0614 -0.3998
  817MPD2    C412024   4.706   3.312  10.628  0.0850 -0.0072  0.0655
  817MPD2    C512025   4.637   3.196  10.676 -0.2883  0.1913 -0.5860
  817MPD2     H12026   0.105   3.164  10.355  0.6753  1.6289 -0.6585
  817MPD2    H112027   4.709   3.397  10.695  3.5414  1.2292 -1.6478
  817MPD2    H212028   4.559   3.004  10.642 -0.4935  0.4954 -1.7599
  817MPD2    H312029   4.579   3.194  10.768  1.4261  1.8023  0.5337
  817MPD2     N12030   0.119   3.414  10.455 -0.5515  0.9218  0.0112
  817MPD2    H512031   0.183   3.387  10.381 -0.3518  0.5324  0.3219
  817MPD2    N112032   0.007   2.945  10.427  0.1708  0.7317  0.7276
  817MPD2    H712033   0.065   2.958  10.345  0.0733 -2.4333  0.1591
  818MPD2     C12034   2.610   3.330   9.260  0.2277 -0.2804 -0.0438
  818MPD2    C112035   2.693   3.278   9.359 -0.2083 -0.0838  1.2285
  818MPD2    C212036   2.814   3.213   9.323 -0.4214 -0.6675  0.1264
  818MPD2    C312037   2.838   3.196   9.184  0.1661 -0.0042 -0.6498
  818MPD2    C412038   2.746   3.239   9.089 -0.3060  0.0012 -0.0728
  818MPD2    C512039   2.637   3.318   9.131 -1.1524 -0.4097 -0.2863
  818MPD2     H12040   2.886   3.183   9.398  2.0977 -1.1065 -2.4728
  818MPD2    H112041   2.765   3.212   8.986 -0.1235 -0.2737  0.0318
  818MPD2    H212042   2.518   3.378   9.290 -1.2776 -5.4382  3.6365
  818MPD2    H312043   2.557   3.347   9.064 -1.6359  0.9345  0.8780
  818MPD2     N12044   2.948   3.121   9.136 -0.2359  0.4346  0.6016
  818MPD2    H512045   2.967   3.113   9.037 -0.6028 -0.6379  0.6058
  818MPD2    N112046   2.682   3.316   9.494 -0.4933 -0.6854 -0.3258
  818MPD2    H712047   2.742   3.282   9.568  2.6010  0.2422 -2.3916
  819MPD2     C12048   1.407   0.196  15.617 -0.2779  0.5260  0.1363
  819MPD2    C112049   1.447   0.075  15.560 -0.5933 -0.7814 -0.5589
  819MPD2    C212050   1.571   0.029  15.589 -0.3018 -0.2581  0.3299
  819MPD2    C312051   1.656   0.099  15.676 -0.1183  0.2960 -0.0138
  819MPD2    C412052   1.616   0.222  15.728  0.0327 -0.6172  0.0569
  819MPD2    C512053   1.493   0.270  15.697 -0.1719 -0.5652  0.1283
  819MPD2     H12054   1.610   4.659  15.547 -1.0283 -0.1259 -0.6325
  819MPD2    H112055   1.685   0.278  15.790  1.2859 -0.9061 -1.0934
  819MPD2    H212056   1.316   0.243  15.582  0.1684  1.5653  0.3550
  819MPD2    H312057   1.470   0.372  15.727  0.4874 -0.3428 -0.1154
  819MPD2     N12058   1.779   0.039  15.707 -0.1637  0.0711 -0.7350
  819MPD2    H512059   1.817   4.691  15.645  2.7310  0.6776  0.3414
  819MPD2    N112060   1.351   0.011  15.479  0.4646 -0.6925 -0.5411
  819MPD2    H712061   1.264   0.059  15.459  0.3705 -0.5052  0.3154
  820MPD2     C12062   0.410   4.682  15.340 -0.1552  0.8373 -0.0824
  820MPD2    C112063   0.495   0.060  15.311  0.7059 -0.5550  0.3748
  820MPD2    C212064   0.627   0.026  15.287 -0.2003  0.5660  0.3356
  820MPD2    C312065   0.666   4.618  15.283  0.1455 -0.1519  0.1400
  820MPD2    C412066   0.578   4.524  15.310  0.2799 -0.0882 -0.3693
  820MPD2    C512067   0.450   4.552  15.342 -0.1538 -0.3187 -0.6412
  820MPD2     H12068   0.696   0.104  15.256  1.3038 -0.2722  1.5633
  820MPD2    H112069   0.606   4.419  15.302 -0.2934 -0.2654 -0.0988
  820MPD2    H212070   0.308   4.711  15.358 -1.0102 -2.3178  0.2828
  820MPD2    H312071   0.375   4.479  15.373  0.6328 -0.8519 -0.0075
  820MPD2     N12072   0.801   4.574  15.265 -1.1255 -0.3860 -0.0171
  820MPD2    H512073   0.820   4.475  15.264  1.2883  0.1171 -2.2497
  820MPD2    N112074   0.442   0.187  15.280  0.4442 -0.0897  0.5500
  820MPD2    H712075   0.342   0.206  15.275  0.7195  0.2972 -3.0827
  821MPD2     C12076   1.326   1.277  12.959 -0.0169  0.1505  0.4044
  821MPD2    C112077   1.355   1.340  13.078 -0.5103 -0.4671 -0.1194
  821MPD2    C212078   1.392   1.475  13.082  0.9937 -0.6697 -1.0727
  821MPD2    C312079   1.430   1.547  12.969  0.2319 -0.3857 -0.4539
  821MPD2    C412080   1.399   1.475  12.854  1.0832 -0.1117 -0.1687
  821MPD2    C512081   1.332   1.353  12.850  0.0952  0.0881  0.1371
  821MPD2     H12082   1.407   1.513  13.182 -1.2258 -1.7456 -0.3414
  821MPD2    H112083   1.420   1.528  12.762 -0.2133  0.3393 -0.2047
  821MPD2    H212084   1.277   1.180  12.957  0.2064  0.0637 -1.1788
  821MPD2    H312085   1.286   1.315  12.760  0.2461 -0.0596  0.1216
  821MPD2     N12086   1.505   1.664  12.973  0.0734  0.2836  0.3514
  821MPD2    H512087   1.522   1.720  12.890 -0.1364 -1.5618 -0.9413
  821MPD2    N112088   1.354   1.268  13.196 -0.0983 -0.3579 -0.5167
  821MPD2    H712089   1.373   1.319  13.281 -0.8189 -1.9371  0.5900
  822MPD2     C12090   2.088   1.515  15.803  0.6655 -0.3438 -0.5248
  822MPD2    C112091   2.125   1.481  15.930  0.4587  1.2666  0.1064
  822MPD2    C212092   2.043   1.521  16.030 -0.2584 -0.0449  0.8062
  822MPD2    C312093   1.935   1.598  16.013  0.2425  0.6036 -0.2608
  822MPD2    C412094   1.888   1.618  15.885  0.9161  0.0276 -0.0473
  822MPD2    C512095   1.968   1.571  15.785  0.1616 -0.7314  0.1773
  822MPD2     H12096   2.082   1.509  16.130 -1.2151  1.4089  1.3641
  822MPD2    H112097   1.799   1.670  15.851  1.0389  0.0154 -0.3858
  822MPD2    H212098   2.150   1.488  15.718 -0.5505 -1.9856 -0.8895
  822MPD2    H312099   1.925   1.582  15.686 -1.0048 -1.7992  0.5622
  822MPD2     N12100   1.885   1.660  16.123  0.4886 -0.1787 -0.4052
  822MPD2    H512101   1.927   1.628  16.210 -0.4486  2.0029  0.8519
  822MPD2    N112102   2.248   1.413  15.965  0.1381 -0.2391 -0.3808
  822MPD2    H712103   2.264   1.379  16.059  4.4840 -1.1887 -1.4829
  823MPD2     C12104   1.625   1.726  16.931  0.0314 -0.1484 -0.3504
  823MPD2    C112105   1.691   1.663  16.824  0.4090  0.0378  0.5869
  823MPD2    C212106   1.769   1.553  16.831 -0.2268  0.2277  0.1417
  823MPD2    C312107   1.779   1.498  16.957 -0.4668  0.8596  0.9076
  823MPD2    C412108   1.712   1.550  17.060 -0.4598  0.1458  0.6443
  823MPD2    C512109   1.639   1.664  17.047 -0.0399 -0.0557 -0.2440
  823MPD2     H12110   1.808   1.511  16.739  0.1527 -0.5282  0.6487
  823MPD2    H112111   1.715   1.504  17.158  0.3886  0.0458  0.5624
  823MPD2    H212112   1.562   1.813  16.916 -0.4304 -0.4128  0.0423
  823MPD2    H312113   1.603   1.705  17.140  2.3044 -1.0252  1.0777
  823MPD2     N12114   1.841   1.372  16.977 -0.7423 -0.2653 -0.2385
  823MPD2    H512115   1.830   1.331  17.069  0.1557 -1.6186 -0.7235
  823MPD2    N112116   1.680   1.731  16.702 -0.2719  0.4217  1.4371
  823MPD2    H712117   1.649   1.827  16.710 -0.6410  0.1476  3.5041
  824MPD2     C12118   2.399   0.732  15.745 -0.7565 -0.5589  0.5401
  824MPD2    C112119   2.514   0.794  15.783  0.0734  0.8941 -0.4087
  824MPD2    C212120   2.636   0.731  15.751  0.6308 -0.1642 -0.3329
  824MPD2    C312121   2.632   0.608  15.691  0.2638  0.0600  0.1872
  824MPD2    C412122   2.511   0.540  15.665 -0.2716  0.0871  0.3271
  824MPD2    C512123   2.400   0.612  15.687 -0.3450 -0.2660 -0.2984
  824MPD2     H12124   2.734   0.770  15.777  0.4141 -0.5686  1.1144
  824MPD2    H112125   2.497   0.438  15.631 -2.0885  1.7379 -3.7814
  824MPD2    H212126   2.303   0.779  15.764  0.3199  2.0882 -0.6512
  824MPD2    H312127   2.301   0.587  15.649 -0.5160 -0.0152 -0.0178
  824MPD2     N12128   2.752   0.547  15.659  0.0949  0.9598  0.6223
  824MPD2    H512129   2.835   0.598  15.685  0.5729  1.0407 -1.0305
  824MPD2    N112130   2.511   0.915  15.848 -0.3324  0.3543 -0.0942
  824MPD2    H712131   2.418   0.957  15.840 -1.3113 -1.8834 -0.5539
  825MPD2     C12132   3.477   0.636  15.232  0.4950 -0.2697  0.6339
  825MPD2    C112133   3.387   0.692  15.327 -0.1948  0.1163  0.6754
  825MPD2    C212134   3.385   0.827  15.348 -0.4217  0.4787  0.1554
  825MPD2    C312135   3.481   0.911  15.289  0.0020  0.2830  0.1249
  825MPD2    C412136   3.571   0.855  15.205 -0.6002 -0.1395  0.1446
  825MPD2    C512137   3.558   0.724  15.164  0.0387 -0.6876 -0.4861
  825MPD2     H12138   3.304   0.863  15.411 -0.2043 -0.9428  1.2481
  825MPD2    H112139   3.642   0.921  15.156 -1.8426  1.3825  0.4052
  825MPD2    H212140   3.477   0.530  15.210 -0.5319  0.0352 -0.9285
  825MPD2    H312141   3.633   0.681  15.098  0.8193  1.1593 -0.7971
  825MPD2     N12142   3.478   1.046  15.313 -0.0828  0.3136 -0.1738
  825MPD2    H512143   3.543   1.105  15.262 -0.8618 -1.1456 -2.8684
  825MPD2    N112144   3.304   0.596  15.395  0.2528  1.2347  0.3380
  825MPD2    H712145   3.333   0.499  15.392  0.4581  1.3367 -1.1126
  826MPD2     C12146   3.216   0.773  13.890  0.3782 -0.1789  0.9978
  826MPD2    C112147   3.297   0.861  13.817 -0.9477 -0.0670  0.4836
  826MPD2    C212148   3.237   0.978  13.766  0.0900  0.0717  0.3039
  826MPD2    C312149   3.111   1.018  13.810  1.1258 -0.5120 -0.2689
  826MPD2    C412150   3.042   0.941  13.903 -0.1861  0.0214 -0.8655
  826MPD2    C512151   3.101   0.827  13.938  0.3102 -0.5045  0.5090
  826MPD2     H12152   3.287   1.044  13.696 -0.2449 -2.4031 -2.2718
  826MPD2    H112153   2.945   0.950  13.950 -0.8451  1.9709 -2.5708
  826MPD2    H212154   3.260   0.677  13.915 -0.7743 -1.2290 -1.0258
  826MPD2    H312155   3.052   0.755  14.003  2.0389 -0.8102  1.4747
  826MPD2     N12156   3.046   1.134  13.765  0.5347 -0.0957  0.4894
  826MPD2    H512157   2.955   1.150  13.806 -0.9981 -3.1288 -1.7152
  826MPD2    N112158   3.416   0.804  13.769 -0.0758 -0.6627  0.2875
  826MPD2    H712159   3.433   0.724  13.829  1.9721  0.7569  1.5840
  827MPD2     C12160   3.956   2.597  10.248  0.1766 -0.0923 -0.1602
  827MPD2    C112161   3.954   2.465  10.284  0.1345  0.0227  0.3424
  827MPD2    C212162   3.959   2.363  10.196 -0.4622 -0.1163  0.0101
  827MPD2    C312163   3.957   2.398  10.061  0.6480 -0.2470 -0.9411
  827MPD2    C412164   3.941   2.530  10.021  0.8585 -0.4816 -0.0625
  827MPD2    C512165   3.945   2.628  10.113  0.0427  0.0635 -0.3781
  827MPD2     H12166   3.942   2.259  10.219  1.7724 -0.8601 -1.7375
  827MPD2    H112167   3.948   2.557   9.916 -0.8958 -3.0786 -0.8595
  827MPD2    H212168   3.956   2.682  10.316  1.2076  0.2772 -0.6221
  827MPD2    H312169   3.951   2.730  10.078 -3.1983  0.7371  0.9942
  827MPD2     N12170   3.966   2.290   9.967 -0.2372  0.7547  0.3354
  827MPD2    H512171   3.990   2.197  10.001 -2.6852 -0.5724 -1.5387
  827MPD2    N112172   3.933   2.436  10.419 -0.7388  0.4274 -0.5452
  827MPD2    H712173   3.951   2.518  10.476 -0.0563  0.7032 -1.1617
  828MPD2     C12174   1.875   1.736  12.824 -0.0156  0.4506 -0.0015
  828MPD2    C112175   1.904   1.797  12.704  0.1845  0.4022 -0.1617
  828MPD2    C212176   2.038   1.830  12.685  0.4777 -0.1814  0.0168
  828MPD2    C312177   2.141   1.780  12.760  0.2381  0.3852  0.3865
  828MPD2    C412178   2.112   1.729  12.886 -0.5544 -0.0373  0.1828
  828MPD2    C512179   1.973   1.702  12.917  0.1491  0.0854 -0.3796
  828MPD2     H12180   2.058   1.885  12.594 -0.1364  1.4742  0.8861
  828MPD2    H112181   2.198   1.690  12.939  0.3215 -0.3181 -1.4603
  828MPD2    H212182   1.772   1.718  12.854  0.7722 -0.7406  1.9978
  828MPD2    H312183   1.943   1.646  13.005  1.1284  2.0534  1.2066
  828MPD2     N12184   2.280   1.805  12.737 -0.6350  0.1692  0.0319
  828MPD2    H512185   2.349   1.789  12.810  0.7653 -1.3812 -1.6344
  828MPD2    N112186   1.809   1.843  12.609  0.2172  0.4042  0.0678
  828MPD2    H712187   1.836   1.895  12.526 -0.0030  3.5993  2.0122
  829MPD2     C12188   2.074   2.368  12.077 -0.4424 -0.2320 -0.3202
  829MPD2    C112189   1.952   2.365  12.021 -0.3271 -0.5595 -0.1776
  829MPD2    C212190   1.842   2.308  12.087  0.3144 -0.5920  0.7032
  829MPD2    C312191   1.867   2.242  12.209 -0.2674 -0.0495 -0.1008
  829MPD2    C412192   1.986   2.254  12.268  0.3706  0.1412  0.2624
  829MPD2    C512193   2.094   2.315  12.199 -0.5892 -0.0586  0.2211
  829MPD2     H12194   1.743   2.301  12.042  0.4316  0.3077  0.3134
  829MPD2    H112195   1.992   2.231  12.374 -2.3574 -0.3322  0.3043
  829MPD2    H212196   2.157   2.409  12.020  0.1720  0.4134  1.0587
  829MPD2    H312197   2.192   2.311  12.245 -0.0883 -0.9158 -0.9334
  829MPD2     N12198   1.775   2.172  12.284  0.0883 -0.1633 -0.0371
  829MPD2    H512199   1.807   2.141  12.375  1.5473 -1.3565 -0.9609
  829MPD2    N112200   1.945   2.414  11.887  0.1186  0.0288  0.2994
  829MPD2    H712201   2.034   2.445  11.848  1.5766 -2.2184  1.8837
  830MPD2     C12202   2.564   4.501  15.589  0.2957  0.0661  0.5609
  830MPD2    C112203   2.465   4.571  15.536 -0.2422  0.3553 -0.5983
  830MPD2    C212204   2.496   4.684  15.469  0.7336 -0.7172 -0.7527
  830MPD2    C312205   2.625   0.005  15.444  0.9530 -0.2057 -0.5056
  830MPD2    C412206   2.724   4.659  15.509 -0.1305  0.0893  0.8263
  830MPD2    C512207   2.694   4.544  15.578 -0.0355  0.1683  0.0179
  830MPD2     H12208   2.425   0.038  15.441 -0.2722 -1.2752  0.3078
  830MPD2    H112209   2.825   4.697  15.516  0.3219 -0.8178 -0.8944
  830MPD2    H212210   2.549   4.422  15.661 -0.2060 -0.3602 -0.0139
  830MPD2    H312211   2.776   4.504  15.636  1.3512  0.2996 -1.8546
  830MPD2     N12212   2.649   0.115  15.357 -0.2592 -0.3440 -0.1834
  830MPD2    H512213   2.740   0.159  15.360 -0.1093 -0.4967 -2.5910
  830MPD2    N112214   2.334   4.552  15.586  0.7211 -0.4186  0.5582
  830MPD2    H712215   2.330   4.483  15.661 -2.0725 -2.8741 -1.8546
  831MPD2     C12216   2.087   1.814  16.419  0.0650  0.2590  0.0788
  831MPD2    C112217   2.163   1.745  16.326  0.4487  0.6180 -0.2870
  831MPD2    C212218   2.188   1.609  16.347 -0.8052  0.2340 -0.9483
  831MPD2    C312219   2.133   1.540  16.452 -0.0768 -0.6075 -0.0525
  831MPD2    C412220   2.053   1.612  16.545  0.1574 -0.1194  0.1910
  831MPD2    C512221   2.036   1.748  16.527  0.2776 -0.3567  0.3813
  831MPD2     H12222   2.250   1.554  16.278  0.9153  0.5780  0.3218
  831MPD2    H112223   2.016   1.567  16.637  3.4461  2.7986  2.9017
  831MPD2    H212224   2.073   1.921  16.424 -2.5093 -0.0616 -0.3212
  831MPD2    H312225   1.980   1.806  16.599 -1.1659 -1.0070 -0.2160
  831MPD2     N12226   2.146   1.403  16.477  0.1653 -0.4760 -0.4533
  831MPD2    H512227   2.104   1.363  16.560 -1.6132  2.3740  0.0542
  831MPD2    N112228   2.214   1.803  16.213  0.1284 -0.1073  0.7203
  831MPD2    H712229   2.287   1.751  16.164 -0.6005 -1.1040  0.6838
  832MPD2     C12230   0.290   2.895   0.312 -0.5552 -0.8776  0.5938
  832MPD2    C112231   0.314   2.969   0.198 -0.0824  0.3582 -0.3204
  832MPD2    C212232   0.270   2.917   0.076 -0.2163  0.2102  0.1405
  832MPD2    C312233   0.218   2.784   0.065 -0.6174 -0.6475  0.1909
  832MPD2    C412234   0.197   2.714   0.181  0.5606 -0.1218  0.0910
  832MPD2    C512235   0.227   2.770   0.302  0.0200  0.1213 -0.3774
  832MPD2     H12236   0.285   2.974  17.678 -0.2190  1.6506  1.0491
  832MPD2    H112237   0.136   2.625   0.174  0.8905 -0.2359 -1.3244
  832MPD2    H212238   0.297   2.942   0.409  0.6568 -0.3767  0.2612
  832MPD2    H312239   0.198   2.733   0.399  1.7067  0.0959  0.1114
  832MPD2     N12240   0.181   2.725  17.633  0.6189 -0.0408 -0.0421
  832MPD2    H512241   0.147   2.631  17.650  0.2862  0.0726 -0.0819
  832MPD2    N112242   0.386   3.094   0.214 -0.2430 -0.0526 -0.1046
  832MPD2    H712243   0.416   3.117   0.308 -1.2420  0.2123  0.1555
  833MPD2     C12244   2.564   4.448  12.219  0.9120  0.5941  0.1788
  833MPD2    C112245   2.525   4.523  12.112  0.4543  0.5363 -0.3720
  833MPD2    C212246   2.565   4.483  11.985  0.3522  0.3690  0.3459
  833MPD2    C312247   2.665   4.393  11.970  0.0269 -0.5693 -0.1708
  833MPD2    C412248   2.704   4.316  12.073  0.4766  0.2278  0.4330
  833MPD2    C512249   2.640   4.337  12.192  0.5237  0.4383 -0.8577
  833MPD2     H12250   2.532   4.543  11.901 -2.5358  1.6520  2.3806
  833MPD2    H112251   2.779   4.238  12.063  0.3199  0.3392 -1.5765
  833MPD2    H212252   2.543   4.470  12.323  1.6521  0.0169  0.4546
  833MPD2    H312253   2.670   4.273  12.274  0.0830 -1.3878 -2.1207
  833MPD2     N12254   2.720   4.373  11.838 -0.2118  0.2343 -0.3618
  833MPD2    H512255   2.779   4.290  11.835 -0.6949 -0.1331  0.0649
  833MPD2    N112256   2.438   4.630  12.120 -0.7672 -0.7669 -0.0705
  833MPD2    H712257   2.397   4.653  12.030  0.1183  1.8722  0.1932
  834MPD2     C12258   2.295   3.711  11.299  0.1580 -0.7763 -0.0308
  834MPD2    C112259   2.321   3.801  11.195 -0.0589 -0.3510  0.0944
  834MPD2    C212260   2.392   3.918  11.225  0.4474 -0.3011  0.5865
  834MPD2    C312261   2.431   3.945  11.354  0.1068 -0.3798 -1.0695
  834MPD2    C412262   2.401   3.858  11.454  0.0163 -0.0323 -0.5583
  834MPD2    C512263   2.329   3.746  11.427 -0.0120  0.1902  0.1298
  834MPD2     H12264   2.410   3.995  11.151  0.6460  0.2538  1.2169
  834MPD2    H112265   2.428   3.898  11.551  0.7246  0.4415 -0.9474
  834MPD2    H212266   2.242   3.619  11.278 -0.8462 -0.5342  1.4547
  834MPD2    H312267   2.293   3.693  11.515  4.3901  1.1022  2.4642
  834MPD2     N12268   2.486   4.073  11.377 -0.1952 -0.3951 -0.1920
  834MPD2    H512269   2.483   4.145  11.305 -0.8043 -0.4091 -0.1739
  834MPD2    N112270   2.255   3.776  11.070 -0.1053 -0.3787 -0.5551
  834MPD2    H712271   2.203   3.689  11.073  0.9100 -0.9977 -0.7853
  835MPD2     C12272   2.661   2.526  11.076 -0.9129 -0.5963 -0.4009
  835MPD2    C112273   2.527   2.482  11.064  0.9648 -1.2010  0.1819
  835MPD2    C212274   2.443   2.530  11.166  0.5946 -0.4294 -0.4610
  835MPD2    C312275   2.498   2.602  11.270 -0.8409 -0.0180 -0.0824
  835MPD2    C412276   2.629   2.636  11.275 -0.2223 -0.7714 -0.7994
  835MPD2    C512277   2.713   2.597  11.179  0.1393  0.4916 -0.0776
  835MPD2     H12278   2.343   2.490  11.175 -0.4192  1.6179 -2.3888
  835MPD2    H112279   2.675   2.696  11.352 -0.2668 -1.4949 -0.2075
  835MPD2    H212280   2.728   2.512  10.992 -0.5840  0.2031 -0.2752
  835MPD2    H312281   2.816   2.628  11.192 -0.4142  1.9557  0.8154
  835MPD2     N12282   2.432   2.644  11.389  0.8023 -0.2596 -0.2263
  835MPD2    H512283   2.486   2.691  11.461 -1.2325 -1.5299  2.1236
  835MPD2    N112284   2.486   2.409  10.951 -0.0611 -0.7836  0.1516
  835MPD2    H712285   2.555   2.361  10.894 -0.5490 -0.9969 -0.2617
  836MPD2     C12286   1.685   2.819  11.481  0.5341  0.2420 -0.4813
  836MPD2    C112287   1.757   2.824  11.601 -0.5469 -0.3319  0.8615
  836MPD2    C212288   1.697   2.793  11.724 -0.0916 -1.1354  0.2995
  836MPD2    C312289   1.565   2.752  11.724  0.3230 -0.3819  0.1034
  836MPD2    C412290   1.495   2.749  11.601  0.3782  0.2930 -0.0941
  836MPD2    C512291   1.551   2.781  11.479  0.2122 -0.1497 -0.2156
  836MPD2     H12292   1.753   2.786  11.817 -1.9592  0.1750  1.5247
  836MPD2    H112293   1.390   2.724  11.607  0.1288  1.1063 -1.1289
  836MPD2    H212294   1.745   2.840  11.394  0.1769  0.1478 -0.7488
  836MPD2    H312295   1.490   2.774  11.390  1.4670 -1.0145 -0.9948
  836MPD2     N12296   1.489   2.702  11.837  0.1047 -0.3458  0.1179
  836MPD2    H512297   1.392   2.678  11.817 -0.0226  0.1312  0.1627
  836MPD2    N112298   1.893   2.852  11.595 -0.6992  0.3843  0.0484
  836MPD2    H712299   1.915   2.853  11.496 -0.0755 -0.8735  0.1659
  837MPD2     C12300   0.721   1.584  10.215  0.7685  0.4770 -0.4554
  837MPD2    C112301   0.676   1.656  10.105 -0.0365 -0.6580  0.0497
  837MPD2    C212302   0.647   1.792  10.124 -0.2177 -0.1853 -0.3503
  837MPD2    C312303   0.653   1.864  10.240  0.2687 -0.3889 -0.5731
  837MPD2    C412304   0.692   1.789  10.353 -0.1388  0.3051 -0.3678
  837MPD2    C512305   0.726   1.656  10.338 -0.3294 -0.7092 -0.6857
  837MPD2     H12306   0.615   1.851  10.039 -0.5438  2.4507  1.6005
  837MPD2    H112307   0.697   1.838  10.449 -0.9100 -0.1170 -0.1164
  837MPD2    H212308   0.763   1.485  10.205 -1.3328 -0.3425 -1.1306
  837MPD2    H312309   0.760   1.618  10.434 -0.7144 -2.5255 -1.2749
  837MPD2     N12310   0.612   1.997  10.247  0.3301 -0.0160 -0.1996
  837MPD2    H512311   0.626   2.053  10.163 -0.3311  0.7216  0.1897
  837MPD2    N112312   0.661   1.602   9.980 -0.2298 -0.3922 -0.3039
  837MPD2    H712313   0.640   1.670   9.908  1.4235  0.0644 -0.3634
  838MPD2     C12314   3.496   0.117  11.604  0.4913  0.1103 -0.3873
  838MPD2    C112315   3.507   0.112  11.743  0.2008 -0.4690  0.2810
  838MPD2    C212316   3.407   0.052  11.824 -0.1877 -0.5237 -0.3754
  838MPD2    C312317   3.290   0.021  11.765 -0.2027 -0.6889 -0.0018
  838MPD2    C412318   3.273   0.036  11.624 -0.5768 -0.1675  0.9096
  838MPD2    C512319   3.372   0.095  11.545 -0.2005  0.1479  0.3965
  838MPD2     H12320   3.419   0.053  11.931 -1.0487 -1.6265 -0.2721
  838MPD2    H112321   3.182   4.713  11.589 -0.3308  0.3975 -0.4827
  838MPD2    H212322   3.575   0.152  11.540  0.5716 -1.3531 -1.0918
  838MPD2    H312323   3.364   0.111  11.438  0.9204  2.5496  0.6689
  838MPD2     N12324   3.183   4.688  11.845 -0.5528 -0.7932  0.2855
  838MPD2    H512325   3.207   4.669  11.942  5.0449 -0.1789 -0.9292
  838MPD2    N112326   3.633   0.141  11.815  0.0849  0.4569  0.2509
  838MPD2    H712327   3.632   0.126  11.916 -2.4308 -1.2643 -0.0147
  839MPD2     C12328   3.450   4.357  12.026 -0.0228 -0.0247 -0.0132
  839MPD2    C112329   3.508   4.386  11.906 -0.3218  0.2608 -0.3149
  839MPD2    C212330   3.633   4.439  11.900  0.7569  0.2761 -0.4652
  839MPD2    C312331   3.707   4.466  12.014  0.3694  0.2563  0.0119
  839MPD2    C412332   3.651   4.441  12.134 -0.1879  0.5221  0.4067
  839MPD2    C512333   3.532   4.374  12.136 -0.7300 -0.1611 -0.0192
  839MPD2     H12334   3.680   4.463  11.805  2.3617 -2.2681 -0.3161
  839MPD2    H112335   3.696   4.463  12.230  1.8581 -0.1462 -0.3992
  839MPD2    H212336   3.363   4.295  12.048 -0.0049  0.1478  0.5415
  839MPD2    H312337   3.501   4.336  12.232  0.7488 -0.9080  0.1703
  839MPD2     N12338   3.830   4.531  12.007 -0.2938  0.1649 -0.1478
  839MPD2    H512339   3.862   4.570  12.095  0.4651 -1.2731  0.2178
  839MPD2    N112340   3.442   4.381  11.782 -0.1359 -0.0663 -0.3127
  839MPD2    H712341   3.494   4.412  11.700 -1.0233 -1.2179 -1.3105
  840MPD2     C12342   4.289   2.723  10.774 -0.2910  0.2205 -0.0500
  840MPD2    C112343   4.227   2.633  10.862  0.2443 -0.0697 -0.1357
  840MPD2    C212344   4.286   2.619  10.986 -0.1817 -0.6570  0.7086
  840MPD2    C312345   4.392   2.693  11.025  0.6820  0.2840 -0.2222
  840MPD2    C412346   4.447   2.787  10.943 -0.0811  0.9546  0.1164
  840MPD2    C512347   4.395   2.795  10.818  0.4834  0.6757 -0.6828
  840MPD2     H12348   4.252   2.549  11.062 -1.7636 -0.2217  0.4117
  840MPD2    H112349   4.526   2.857  10.968 -0.4643  1.2382  0.5379
  840MPD2    H212350   4.250   2.734  10.674 -0.5682  0.1624  0.0497
  840MPD2    H312351   4.433   2.868  10.748 -0.3033  0.5530 -1.2324
  840MPD2     N12352   4.454   2.691  11.151 -0.6936 -0.4794 -0.0120
  840MPD2    H512353   4.512   2.774  11.167  3.3048 -2.9498 -1.8148
  840MPD2    N112354   4.110   2.563  10.816 -0.0362  0.2533  0.0722
  840MPD2    H712355   4.089   2.581  10.718  0.8584 -0.3607 -0.2286
  841MPD2     C12356   3.865   2.250  14.874  0.6412  0.2076 -0.0216
  841MPD2    C112357   3.926   2.169  14.777 -0.2735 -0.1866  0.0634
  841MPD2    C212358   4.015   2.211  14.686  0.2405  0.5096  0.1214
  841MPD2    C312359   4.056   2.346  14.692 -0.0086  0.0844  0.3303
  841MPD2    C412360   4.004   2.426  14.791 -0.6097  0.0610  0.3740
  841MPD2    C512361   3.909   2.378  14.880 -0.6504 -0.0150 -0.2948
  841MPD2     H12362   4.062   2.146  14.612  1.9715  2.7716 -0.7736
  841MPD2    H112363   4.026   2.532  14.797  1.3138 -0.2447 -1.1949
  841MPD2    H212364   3.787   2.219  14.942  1.0443  2.8275  1.6320
  841MPD2    H312365   3.867   2.446  14.953 -1.0285  1.6692 -2.0835
  841MPD2     N12366   4.167   2.381  14.607  0.2900  0.2489  0.1124
  841MPD2    H512367   4.194   2.319  14.531  2.2485 -1.4858  2.2077
  841MPD2    N112368   3.924   2.030  14.789 -0.2231  0.2558  0.5515
  841MPD2    H712369   3.991   1.988  14.725 -1.8649 -2.1530  0.4161
  842MPD2     C12370   3.774   2.412  16.625 -0.6682  0.9694  0.3714
  842MPD2    C112371   3.866   2.513  16.617 -0.1611 -0.3453 -0.0292
  842MPD2    C212372   3.956   2.535  16.723 -0.0292  0.8153  0.5439
  842MPD2    C312373   3.946   2.449  16.833  0.4832  0.5172  0.0608
  842MPD2    C412374   3.857   2.339  16.830 -0.6587 -0.5381 -0.0097
  842MPD2    C512375   3.772   2.321  16.727 -0.8246 -0.2324 -0.3931
  842MPD2     H12376   4.006   2.630  16.723 -0.3514  0.9885 -1.5580
  842MPD2    H112377   3.854   2.264  16.908  2.6069 -0.2219  0.4079
  842MPD2    H212378   3.699   2.403  16.547 -3.7343  2.2719  3.1486
  842MPD2    H312379   3.710   2.232  16.726 -1.2411  0.0012  3.3807
  842MPD2     N12380   4.032   2.461  16.952  0.1999  0.2565 -0.1652
  842MPD2    H512381   4.020   2.382  17.014  2.1816 -1.1381 -1.5539
  842MPD2    N112382   3.853   2.605  16.512  0.1334 -0.1890  0.3932
  842MPD2    H712383   3.765   2.608  16.462 -1.4041  0.4391  3.1194
  843MPD2     C12384   1.018   2.952  17.575  0.4414  0.0393  0.0152
  843MPD2    C112385   1.073   2.884  17.674 -0.0369 -0.3788 -0.6131
  843MPD2    C212386   1.198   2.923   0.035  0.6442  0.4298 -0.9213
  843MPD2    C312387   1.257   3.040  17.680  0.4214 -0.9667 -0.0788
  843MPD2    C412388   1.204   3.101  17.575  0.2010  0.2042  0.1625
  843MPD2    C512389   1.082   3.059  17.526  0.7340 -0.2740 -0.0009
  843MPD2     H12390   1.238   2.871   0.121  1.1474 -1.9417 -2.5686
  843MPD2    H112391   1.253   3.186  17.528 -1.4766  1.2289  0.2774
  843MPD2    H212392   0.920   2.920  17.542  1.3713 -3.8118  1.0432
  843MPD2    H312393   1.038   3.112  17.443  1.3277 -0.1358 -0.2249
  843MPD2     N12394   1.371   3.100   0.051  0.4345 -0.0663  0.0454
  843MPD2    H512395   1.384   3.197   0.027  1.9344 -0.6884 -1.6669
  843MPD2    N112396   0.998   2.772   0.031  0.6376  0.4597  0.1032
  843MPD2    H712397   0.903   2.752   0.002  0.6472 -0.1181  0.4700
  844MPD2     C12398   4.349   2.405  16.662  0.3149  0.4179 -0.1587
  844MPD2    C112399   4.475   2.349  16.618 -0.7698 -0.2450  0.3674
  844MPD2    C212400   4.582   2.434  16.596 -0.2098 -0.2685  0.2144
  844MPD2    C312401   4.578   2.559  16.647  0.0768 -0.3274  0.3667
  844MPD2    C412402   4.459   2.616  16.685  0.7190 -0.2823  0.3163
  844MPD2    C512403   4.345   2.540  16.693  0.6395  0.2740  0.2039
  844MPD2     H12404   4.679   2.397  16.565  0.3141  0.3213  1.1311
  844MPD2    H112405   4.443   2.718  16.717  0.0631  0.3507 -2.1032
  844MPD2    H212406   4.258   2.347  16.672  0.3655  0.7866  2.3924
  844MPD2    H312407   4.254   2.591  16.722 -1.0131 -2.7212  0.2594
  844MPD2     N12408   4.693   2.628  16.675 -1.1262  0.1657  0.6756
  844MPD2    H512409   0.057   2.578  16.661 -1.0365  0.9389 -1.5563
  844MPD2    N112410   4.483   2.214  16.581 -0.6740  0.2677 -0.2767
  844MPD2    H712411   4.572   2.196  16.536  0.0173 -0.9673  1.6113
  845MPD2     C12412   0.561   3.537  16.797 -0.2263  0.4898  0.0370
  845MPD2    C112413   0.478   3.507  16.905 -0.2066  0.8357 -0.0904
  845MPD2    C212414   0.400   3.393  16.908 -0.0314 -0.4358  0.8808
  845MPD2    C312415   0.414   3.304  16.804 -0.4713 -0.7286  0.0728
  845MPD2    C412416   0.484   3.340  16.691 -0.4500 -0.7062 -0.3269
  845MPD2    C512417   0.555   3.460  16.687 -0.2366 -0.4857 -0.1120
  845MPD2     H12418   0.344   3.358  16.994  2.5083 -0.6008  2.4948
  845MPD2    H112419   0.476   3.272  16.607 -3.8290  1.3794 -1.6972
  845MPD2    H212420   0.641   3.610  16.799 -0.4916  0.7617  0.7091
  845MPD2    H312421   0.610   3.478  16.595  1.8555  0.7951  1.4264
  845MPD2     N12422   0.329   3.186  16.809  0.3840  0.0669 -0.0012
  845MPD2    H512423   0.260   3.171  16.881 -0.8154  0.8444 -0.9774
  845MPD2    N112424   0.482   3.591  17.017  0.3719 -0.4562  0.7421
  845MPD2    H712425   0.534   3.676  16.999 -0.6739  0.2186  0.8604
  846MPD2     C12426   2.262   3.963  13.789 -0.6011  0.2667 -0.3093
  846MPD2    C112427   2.177   4.059  13.825 -0.2297  0.0594  0.2762
  846MPD2    C212428   2.124   4.060  13.956  0.1710  0.1298 -1.0339
  846MPD2    C312429   2.171   3.972  14.053  0.4761  0.0367 -0.2601
  846MPD2    C412430   2.254   3.872  14.011  0.8268  0.2668  0.4059
  846MPD2    C512431   2.297   3.874  13.877 -0.1194  0.1296  0.5112
  846MPD2     H12432   2.066   4.143  13.993  0.4109  0.1515 -0.7030
  846MPD2    H112433   2.283   3.788  14.073 -1.0896 -1.0465 -0.4641
  846MPD2    H212434   2.303   3.948  13.690  1.7923 -0.7300  0.8347
  846MPD2    H312435   2.357   3.789  13.845 -0.2097 -0.4963  2.0119
  846MPD2     N12436   2.113   3.987  14.181 -0.6201 -0.2809 -0.6438
  846MPD2    H512437   2.043   4.057  14.204 -0.5644 -0.7634  0.9684
  846MPD2    N112438   2.131   4.154  13.731 -0.8197  0.1852  0.2801
  846MPD2    H712439   2.067   4.227  13.764 -1.7243  0.2139 -1.5213
  847MPD2     C12440   2.148   0.058  14.248  0.7699 -0.4319 -0.7048
  847MPD2    C112441   2.253   0.144  14.270  0.2774  0.8614 -0.3836
  847MPD2    C212442   2.377   0.100  14.324  0.1576  0.4053 -0.1143
  847MPD2    C312443   2.384   4.696  14.375  0.3619 -0.5256 -0.1524
  847MPD2    C412444   2.278   4.613  14.365  0.3000 -0.3117  0.1406
  847MPD2    C512445   2.163   4.653  14.300 -0.0766 -0.0642  0.1932
  847MPD2     H12446   2.458   0.166  14.352  0.8504 -0.1751 -0.7572
  847MPD2    H112447   2.289   4.508  14.390  0.5670 -0.5748 -1.0509
  847MPD2    H212448   2.063   0.095  14.193  0.1448  0.8001  1.0807
  847MPD2    H312449   2.083   4.582  14.282  0.7136 -0.7575 -0.6573
  847MPD2     N12450   2.498   4.664  14.446  0.6186  0.2598 -0.0148
  847MPD2    H512451   2.569   0.013  14.433  0.9060  0.4662  2.8133
  847MPD2    N112452   2.251   0.287  14.250  0.3800  0.1738  0.3770
  847MPD2    H712453   2.334   0.333  14.287  0.4062  1.2773 -1.0730
  848MPD2     C12454   4.465   2.886  16.965  0.1244 -0.7378 -1.0683
  848MPD2    C112455   4.594   2.932  16.990  0.6756 -0.5350  0.5775
  848MPD2    C212456   4.637   3.058  16.947  0.6582  0.0362 -0.6998
  848MPD2    C312457   4.550   3.137  16.877 -0.6830 -0.0976 -0.5276
  848MPD2    C412458   4.417   3.093  16.866 -0.2908 -0.7895  0.6974
  848MPD2    C512459   4.375   2.967  16.901  0.7530  0.6629 -0.2205
  848MPD2     H12460   0.020   3.084  16.956  0.0138  2.1977  0.7101
  848MPD2    H112461   4.343   3.160  16.824  1.9962  1.6967  0.6623
  848MPD2    H212462   4.433   2.791  17.006 -0.1049 -0.8806 -1.5804
  848MPD2    H312463   4.273   2.933  16.885  0.9192  0.2469 -0.4080
  848MPD2     N12464   4.579   3.259  16.824 -0.4349  0.4619  0.2924
  848MPD2    H512465   4.506   3.294  16.763 -1.4209 -0.4698  0.9338
  848MPD2    N112466   4.692   2.853  17.059 -0.4023  0.1945  0.2093
  848MPD2    H712467   0.058   2.899  17.078 -0.6666  1.4086 -1.4018
  849MPD2     C12468   4.026   2.764  14.252 -0.5120 -0.3787 -0.9879
  849MPD2    C112469   4.051   2.892  14.211  0.0113 -0.0792 -0.1313
  849MPD2    C212470   4.184   2.941  14.213 -0.0487 -0.2195 -0.0500
  849MPD2    C312471   4.284   2.849  14.251 -0.6088 -0.1174 -0.0462
  849MPD2    C412472   4.260   2.719  14.290  0.0361  0.1647 -0.4296
  849MPD2    C512473   4.131   2.685  14.303 -0.0531  0.9908  0.9343
  849MPD2     H12474   4.216   3.042  14.193  0.8390 -0.3233  0.8189
  849MPD2    H112475   4.339   2.654  14.327 -0.5098 -0.9840 -1.2607
  849MPD2    H212476   3.929   2.717  14.267 -0.6666  0.1815 -0.2488
  849MPD2    H312477   4.115   2.580  14.326  0.8119  0.9348  1.2834
  849MPD2     N12478   4.414   2.897  14.232 -0.8510 -0.1556  0.0216
  849MPD2    H512479   4.426   2.984  14.180 -2.1718  0.2972  0.4627
  849MPD2    N112480   3.940   2.960  14.150  0.2477  0.0681  0.2973
  849MPD2    H712481   3.855   2.906  14.135  0.6097 -0.5610  0.5050
  850MPD2     C12482   2.000   0.968  14.711  0.1692 -0.6507  0.3989
  850MPD2    C112483   1.985   1.054  14.820 -0.9648  0.3028 -0.6237
  850MPD2    C212484   2.091   1.120  14.875 -0.0250 -0.4420  0.1570
  850MPD2    C312485   2.216   1.085  14.835 -0.1554  0.1115 -0.4390
  850MPD2    C412486   2.229   1.005  14.725 -0.8890 -0.6967  0.0746
  850MPD2    C512487   2.127   0.943  14.661 -0.1364 -0.6176 -0.9833
  850MPD2     H12488   2.069   1.196  14.949 -1.6287 -0.3762 -0.3827
  850MPD2    H112489   2.327   0.976  14.688  0.6359  3.1647  1.0714
  850MPD2    H212490   1.921   0.907  14.668  1.0031 -0.3420 -1.5777
  850MPD2    H312491   2.148   0.877  14.578 -2.0768 -1.0334 -1.1294
  850MPD2     N12492   2.329   1.130  14.904  0.6875  0.1787 -0.4998
  850MPD2    H512493   2.421   1.113  14.865  0.0786  1.2728 -2.4015
  850MPD2    N112494   1.855   1.063  14.871 -0.1164  0.2377 -0.2560
  850MPD2    H712495   1.795   1.009  14.810  0.7753 -0.4859 -0.4912
  851MPD2     C12496   2.458   0.983  15.444  0.5470  0.6403 -0.5086
  851MPD2    C112497   2.379   0.917  15.351  0.0173 -0.2553  0.4261
  851MPD2    C212498   2.422   0.801  15.284 -0.3022  0.0400 -0.1216
  851MPD2    C312499   2.546   0.753  15.319 -0.0166 -0.5429 -0.1786
  851MPD2    C412500   2.626   0.822  15.414 -0.0770 -0.4655  0.0371
  851MPD2    C512501   2.583   0.937  15.474  0.1978 -0.9397  0.2661
  851MPD2     H12502   2.369   0.753  15.202 -1.0464  4.0497 -1.9782
  851MPD2    H112503   2.726   0.784  15.434 -0.4452  0.8941  4.4763
  851MPD2    H212504   2.422   1.075  15.489 -1.1015 -0.1385 -0.2282
  851MPD2    H312505   2.650   0.989  15.542  0.2681 -0.2469 -0.3276
  851MPD2     N12506   2.586   0.634  15.246 -0.0138  0.3287  0.2100
  851MPD2    H512507   2.515   0.600  15.182  0.8364  0.1288 -0.6403
  851MPD2    N112508   2.247   0.978  15.325 -0.0235  0.0752 -0.2190
  851MPD2    H712509   2.226   1.066  15.371  0.8174 -0.2760  0.8567
  852MPD2     C12510   1.510   2.888   9.258 -1.1444 -0.3113  0.4028
  852MPD2    C112511   1.524   2.940   9.382  0.4910 -0.0037  0.6501
  852MPD2    C212512   1.628   3.026   9.408 -0.1653 -0.7073  0.4358
  852MPD2    C312513   1.713   3.078   9.312  0.0696  0.1367  0.4826
  852MPD2    C412514   1.687   3.040   9.181 -0.3973  0.0922 -0.9009
  852MPD2    C512515   1.589   2.950   9.157  0.3619 -0.5408 -0.1752
  852MPD2     H12516   1.648   3.056   9.511  1.1416 -1.5520  0.4225
  852MPD2    H112517   1.747   3.067   9.096  0.7763 -2.6502 -0.9653
  852MPD2    H212518   1.449   2.803   9.229  0.8132 -1.6327  0.1470
  852MPD2    H312519   1.577   2.918   9.055 -0.9736  0.5307 -0.3556
  852MPD2     N12520   1.816   3.169   9.346  0.2248 -0.0061  0.4735
  852MPD2    H512521   1.846   3.187   9.441  0.1483 -1.2485  0.7278
  852MPD2    N112522   1.447   2.885   9.487  0.4257 -0.2021  1.0542
  852MPD2    H712523   1.478   2.901   9.582  0.3338 -0.2495  1.0914
  853MPD2     C12524   3.661   3.573  12.378 -0.1018 -0.0674  0.1868
  853MPD2    C112525   3.547   3.615  12.320 -0.3759 -0.0105 -0.6607
  853MPD2    C212526   3.551   3.635  12.182 -0.2387 -0.4430  0.3397
  853MPD2    C312527   3.667   3.623  12.111  0.3165 -0.6446 -0.2199
  853MPD2    C412528   3.781   3.586  12.171 -0.2025  0.5874  0.1376
  853MPD2    C512529   3.778   3.559  12.306  0.1501  1.1007  0.2255
  853MPD2     H12530   3.465   3.679  12.132  1.7888  1.7698 -1.2461
  853MPD2    H112531   3.876   3.587  12.120 -1.0216 -1.1257 -1.4245
  853MPD2    H212532   3.658   3.534  12.479  2.7441  1.9926  1.0592
  853MPD2    H312533   3.860   3.499  12.346  0.2111  2.5603  2.2814
  853MPD2     N12534   3.675   3.653  11.977  0.0869  0.4261  0.4512
  853MPD2    H512535   3.768   3.633  11.941 -0.5033 -3.7133  1.2501
  853MPD2    N112536   3.427   3.641  12.395  0.0805 -0.2522 -0.0148
  853MPD2    H712537   3.431   3.634  12.496  2.2363 -0.2162 -0.1006
  854MPD2     C12538   0.781   3.542  13.518  0.3068 -0.3183 -0.2480
  854MPD2    C112539   0.775   3.439  13.426 -0.1338 -0.3239  1.1327
  854MPD2    C212540   0.856   3.327  13.441 -0.1169 -0.2972 -0.1820
  854MPD2    C312541   0.924   3.303  13.561  0.0885 -0.2628 -0.5999
  854MPD2    C412542   0.919   3.401  13.657 -0.0380 -0.0988 -0.6993
  854MPD2    C512543   0.852   3.516  13.633 -0.2408 -0.4018  0.4088
  854MPD2     H12544   0.847   3.245  13.370 -0.5173  0.1244 -0.6210
  854MPD2    H112545   0.972   3.390  13.751 -0.4130 -2.6123 -0.7861
  854MPD2    H212546   0.726   3.635  13.509  1.0572  0.0400 -1.0730
  854MPD2    H312547   0.859   3.589  13.712 -0.5911  0.4810 -0.3745
  854MPD2     N12548   0.990   3.182  13.588  0.6110  0.1883 -0.5777
  854MPD2    H512549   1.015   3.173  13.686 -0.7302 -0.4606 -0.2835
  854MPD2    N112550   0.696   3.464  13.308  0.0126  0.4873  0.2165
  854MPD2    H712551   0.653   3.556  13.301 -1.8283 -0.2678  1.9359
  855MPD2     C12552   1.129   2.804  14.344 -0.1770 -0.0431 -0.1246
  855MPD2    C112553   1.194   2.717  14.261  0.4059  0.9685  0.5595
  855MPD2    C212554   1.187   2.720  14.125 -0.4920 -0.3557 -0.3653
  855MPD2    C312555   1.103   2.813  14.067 -0.2725  0.1669  0.0224
  855MPD2    C412556   1.024   2.895  14.149 -0.0359 -0.4699 -0.0584
  855MPD2    C512557   1.047   2.893  14.289  0.6663  0.1907  0.4261
  855MPD2     H12558   1.247   2.654  14.064  1.9096  0.4916  1.0887
  855MPD2    H112559   0.973   2.979  14.103  0.0824  0.1400  0.9412
  855MPD2    H212560   1.127   2.819  14.451 -0.9086 -3.8555  0.4060
  855MPD2    H312561   0.987   2.951  14.358 -2.0842 -1.3475 -0.7133
  855MPD2     N12562   1.098   2.827  13.924  0.1068  0.1265 -0.3288
  855MPD2    H512563   1.024   2.888  13.891 -0.7031  0.5477  2.2188
  855MPD2    N112564   1.273   2.619  14.317 -0.1553  0.6113  0.6457
  855MPD2    H712565   1.319   2.558  14.250  0.1254  1.0781  0.4116
  856MPD2     C12566   3.054   4.139  13.823 -0.1616  0.6410 -0.5472
  856MPD2    C112567   3.142   4.230  13.782 -0.1111  0.7333  0.4309
  856MPD2    C212568   3.114   4.367  13.788 -0.6881 -0.0809 -0.1551
  856MPD2    C312569   2.990   4.411  13.826 -0.2680  0.2740  0.7467
  856MPD2    C412570   2.897   4.315  13.861 -0.2552 -0.1132  0.6167
  856MPD2    C512571   2.927   4.180  13.854  1.2636 -0.0328 -0.4142
  856MPD2     H12572   3.190   4.433  13.748 -0.5573  1.0547  2.0127
  856MPD2    H112573   2.798   4.346  13.894 -0.3566 -0.2566  0.4465
  856MPD2    H212574   3.080   4.036  13.845 -1.4048  0.1955 -1.1895
  856MPD2    H312575   2.851   4.105  13.867 -0.6892  1.9466 -0.3898
  856MPD2     N12576   2.952   4.542  13.822 -0.1587 -0.5384  0.1260
  856MPD2    H512577   2.858   4.553  13.859  1.0507 -0.3640  3.1754
  856MPD2    N112578   3.272   4.195  13.749  0.6601  0.4588 -1.1583
  856MPD2    H712579   3.340   4.268  13.729  1.5070  0.1976  0.6983
  857MPD2     C12580   4.511   1.480  12.916 -0.0378  0.4194  0.5766
  857MPD2    C112581   4.648   1.471  12.941 -0.2219 -0.2029 -0.0494
  857MPD2    C212582   4.716   1.585  12.988 -0.4163  0.1549 -0.0854
  857MPD2    C312583   4.650   1.708  13.002  0.5165  0.5209  0.0475
  857MPD2    C412584   4.509   1.713  12.983 -0.0907 -0.7166 -0.4949
  857MPD2    C512585   4.449   1.594  12.938  0.1190 -0.0389 -0.0871
  857MPD2     H12586   0.102   1.590  12.991 -0.4112  0.1822 -0.3660
  857MPD2    H112587   4.449   1.803  12.981  1.2371  0.1579 -0.7755
  857MPD2    H212588   4.454   1.396  12.877  0.5664 -1.2866  3.3193
  857MPD2    H312589   4.343   1.599  12.918 -0.2791  2.9963  2.8266
  857MPD2     N12590   0.000   1.824  13.032  0.1121  0.2789 -0.5029
  857MPD2    H512591   0.101   1.832  13.027 -0.0048  1.3711 -1.1746
  857MPD2    N112592   4.715   1.345  12.919 -0.4916 -0.0784  0.8364
  857MPD2    H712593   4.657   1.270  12.886 -0.5477 -0.0625  0.8984
  858MPD2     C12594   0.310   0.677  16.620  0.1088 -0.4618  0.4840
  858MPD2    C112595   0.444   0.687  16.586 -0.5661  0.7751  0.0798
  858MPD2    C212596   0.541   0.708  16.683  0.5925 -0.5973  0.1046
  858MPD2    C312597   0.496   0.730  16.813  0.2930 -0.1168  0.3498
  858MPD2    C412598   0.364   0.712  16.849  0.2199 -0.1902 -0.4024
  858MPD2    C512599   0.279   0.689  16.750 -0.0985  0.4671  0.1886
  858MPD2     H12600   0.644   0.714  16.648  1.1423 -1.8825  1.4883
  858MPD2    H112601   0.330   0.702  16.951  0.2169  1.1847 -0.2624
  858MPD2    H212602   0.245   0.648  16.539  2.4178 -1.9726 -0.8561
  858MPD2    H312603   0.178   0.667  16.785 -0.2087  1.5740  0.5706
  858MPD2     N12604   0.578   0.755  16.922  0.1725  0.5962  0.3167
  858MPD2    H512605   0.542   0.765  17.017  1.9230  0.6918  0.9820
  858MPD2    N112606   0.481   0.662  16.453  0.3212  0.2777  0.3312
  858MPD2    H712607   0.405   0.647  16.387  1.0536 -0.7446 -0.2865
  859MPD2     C12608   3.824   2.699  15.279  0.4584 -0.4143 -0.3895
  859MPD2    C112609   3.955   2.685  15.246  0.0169 -0.1612  0.0340
  859MPD2    C212610   4.007   2.560  15.218  0.5882 -0.5209 -0.0598
  859MPD2    C312611   3.932   2.440  15.231 -0.5556 -0.6516  0.3347
  859MPD2    C412612   3.805   2.458  15.279 -0.3114  0.0610  0.5404
  859MPD2    C512613   3.750   2.586  15.292 -0.7038  0.1249 -0.4910
  859MPD2     H12614   4.114   2.564  15.200  0.2588  1.9136 -1.4803
  859MPD2    H112615   3.741   2.372  15.299 -1.3609  0.5450 -0.7417
  859MPD2    H212616   3.776   2.793  15.304  1.9986 -0.2494  1.8999
  859MPD2    H312617   3.647   2.605  15.321 -1.6581 -2.9922 -1.7432
  859MPD2     N12618   3.990   2.316  15.220  0.2100  0.4587  0.1715
  859MPD2    H512619   3.943   2.245  15.274  1.7994 -1.1328 -0.5458
  859MPD2    N112620   4.041   2.800  15.237  0.2993 -0.0152  0.1805
  859MPD2    H712621   4.140   2.793  15.218  0.6132  0.7024  1.5706
  860MPD2     C12622   1.028   2.811  11.945  0.0843 -0.1569 -0.1056
  860MPD2    C112623   1.078   2.921  12.002 -0.7172  0.0470 -0.0296
  860MPD2    C212624   1.007   2.964  12.119 -0.1397  0.3117  0.7031
  860MPD2    C312625   0.898   2.898  12.172 -0.5583  0.1673  0.3831
  860MPD2    C412626   0.851   2.789  12.106  0.3714  0.4502 -0.6316
  860MPD2    C512627   0.921   2.745  11.997 -0.1885  0.7380 -0.0796
  860MPD2     H12628   1.047   3.045  12.178  1.0142  0.5371 -0.3936
  860MPD2    H112629   0.765   2.731  12.136 -1.2672  3.1170 -0.2005
  860MPD2    H212630   1.079   2.758  11.865 -1.7814 -1.1435 -0.6505
  860MPD2    H312631   0.892   2.661  11.935  2.3686 -0.2337  0.0503
  860MPD2     N12632   0.830   2.946  12.284 -0.3942 -0.4391  0.3705
  860MPD2    H512633   0.875   3.022  12.333 -1.5507 -0.1485  0.9922
  860MPD2    N112634   1.189   2.995  11.949 -0.3710  0.8141 -0.0058
  860MPD2    H712635   1.210   3.080  12.001 -1.2851  0.6927  0.5561
  861MPD2     C12636   0.677   1.278  11.124  0.7543  1.2554 -0.0268
  861MPD2    C112637   0.639   1.385  11.195  0.0805 -0.2774 -0.5799
  861MPD2    C212638   0.513   1.445  11.164 -0.2350 -0.1167 -0.0083
  861MPD2    C312639   0.437   1.398  11.057 -0.5259 -0.1236  0.5654
  861MPD2    C412640   0.480   1.290  10.984 -0.0473  0.1005 -0.6243
  861MPD2    C512641   0.601   1.239  11.014  0.3578 -0.4164 -0.9109
  861MPD2     H12642   0.484   1.526  11.229  0.3844  0.4370 -0.4124
  861MPD2    H112643   0.431   1.261  10.892 -0.2867 -0.3643 -0.3454
  861MPD2    H212644   0.772   1.230  11.148  1.1047  0.7492 -2.4365
  861MPD2    H312645   0.645   1.159  10.955  1.6932 -1.8131  1.9340
  861MPD2     N12646   0.316   1.458  11.010 -0.6241  0.5360  0.1380
  861MPD2    H512647   0.265   1.417  10.933  1.0549  1.0409 -1.2501
  861MPD2    N112648   0.707   1.435  11.306 -0.0412 -0.1143 -0.2206
  861MPD2    H712649   0.651   1.489  11.371 -1.2884  0.1092 -1.4908
  862MPD2     C12650   4.671   1.588  10.362 -0.3636 -0.1689 -0.5084
  862MPD2    C112651   0.029   1.514  10.447 -0.3569 -0.6562  0.0800
  862MPD2    C212652   0.068   1.390  10.407 -0.1834 -0.6570  0.2636
  862MPD2    C312653   0.044   1.348  10.273 -0.2211 -0.0493  0.1111
  862MPD2    C412654   4.682   1.418  10.189 -0.2029 -0.6700  0.1073
  862MPD2    C512655   4.651   1.544  10.237 -0.5778  0.4539 -0.0333
  862MPD2     H12656   0.138   1.344  10.475  1.4593  0.1108 -0.9257
  862MPD2    H112657   4.670   1.375  10.090 -0.0288  0.4454 -0.4019
  862MPD2    H212658   4.638   1.687  10.394  0.9464 -0.2610  1.1536
  862MPD2    H312659   4.588   1.610  10.179 -2.9645 -2.3967 -0.6945
  862MPD2     N12660   0.100   1.227  10.227 -0.8982  0.1119  0.0032
  862MPD2    H512661   0.089   1.198  10.131 -0.4640 -2.3859  0.6889
  862MPD2    N112662   0.065   1.561  10.573  0.5927 -0.4406  0.1509
  862MPD2    H712663   0.116   1.486  10.620  1.4249  0.2167  0.3031
  863MPD2     C12664   3.749   3.657  17.286 -0.0941  0.5339 -0.5659
  863MPD2    C112665   3.775   3.722  17.169 -0.9599  0.2054  0.4626
  863MPD2    C212666   3.904   3.767  17.137  0.4708  0.3484 -0.0075
  863MPD2    C312667   4.010   3.729  17.220 -0.2160  0.8303 -0.1730
  863MPD2    C412668   3.982   3.654  17.336  0.2271  0.4783 -0.4497
  863MPD2    C512669   3.851   3.612  17.366  0.2981  0.1641  0.0314
  863MPD2     H12670   3.923   3.826  17.048 -2.0294  1.6088  0.2952
  863MPD2    H112671   4.067   3.630  17.399  0.8059  1.7527 -0.7517
  863MPD2    H212672   3.650   3.628  17.322 -1.0566 -0.3620 -3.9508
  863MPD2    H312673   3.829   3.539  17.443 -1.2213  0.5523 -0.0509
  863MPD2     N12674   4.143   3.762  17.193  0.4523 -0.4112  0.4257
  863MPD2    H512675   4.220   3.730  17.252 -0.0997 -3.0972 -0.3291
  863MPD2    N112676   3.664   3.752  17.086 -0.1925  0.2914 -0.0828
  863MPD2    H712677   3.573   3.715  17.111 -0.2319  0.5736  0.1833
  864MPD2     C12678   3.761   0.247  17.275 -0.1250 -0.6760  0.1679
  864MPD2    C112679   3.842   0.214  17.168  0.3240  0.1626 -0.1498
  864MPD2    C212680   3.941   0.304  17.134 -0.6796 -0.3192 -0.2938
  864MPD2    C312681   3.960   0.421  17.208 -0.6021  0.4584  0.7125
  864MPD2    C412682   3.866   0.458  17.301  0.2960  0.0014 -0.0776
  864MPD2    C512683   3.764   0.375  17.325  0.9140 -0.2037 -0.7064
  864MPD2     H12684   4.007   0.279  17.052 -5.0735 -2.4827 -3.1901
  864MPD2    H112685   3.877   0.544  17.366 -0.7165 -0.9742  1.3833
  864MPD2    H212686   3.691   0.174  17.314  0.9774 -1.2464  1.0598
  864MPD2    H312687   3.692   0.399  17.402  0.8959  1.7175 -1.3177
  864MPD2     N12688   4.055   0.513  17.165  0.4041  0.6423 -0.0364
  864MPD2    H512689   4.052   0.601  17.215 -0.1833  1.1948 -1.0417
  864MPD2    N112690   3.829   0.083  17.120  0.1776 -0.6950 -0.5817
  864MPD2    H712691   3.762   0.028  17.171  0.1485 -1.1909 -1.1584
  865MPD2     C12692   4.209   1.026  16.488 -0.3080 -0.5288 -0.6369
  865MPD2    C112693   4.215   0.912  16.562  0.8742 -0.0769 -0.6582
  865MPD2    C212694   4.160   0.909  16.688 -0.7825  0.4157 -0.1493
  865MPD2    C312695   4.111   1.027  16.754 -0.5222  0.5648  0.4367
  865MPD2    C412696   4.102   1.143  16.672 -0.0979 -0.3916  0.5843
  865MPD2    C512697   4.144   1.137  16.545  0.4513 -0.3344  0.2010
  865MPD2     H12698   4.155   0.820  16.751 -1.8944  1.0185  0.6187
  865MPD2    H112699   4.051   1.235  16.700  1.4040  0.8263 -0.6205
  865MPD2    H212700   4.246   1.027  16.386 -1.6277 -1.7531 -1.1213
  865MPD2    H312701   4.131   1.231  16.491  0.1339  0.0127  0.8836
  865MPD2     N12702   4.056   1.041  16.886  0.0617 -0.2339  0.2863
  865MPD2    H512703   4.000   1.123  16.911 -1.1427 -0.8161 -0.4991
  865MPD2    N112704   4.279   0.808  16.498  0.8127 -0.1544 -0.1259
  865MPD2    H712705   4.297   0.813  16.398 -0.1955  0.0856 -0.2930
  866MPD2     C12706   1.478   2.036  11.181 -0.0335  0.2690  0.8432
  866MPD2    C112707   1.463   1.907  11.127 -0.0950  0.1969 -0.0247
  866MPD2    C212708   1.336   1.850  11.103 -0.6129  0.1933 -0.2958
  866MPD2    C312709   1.227   1.929  11.140 -0.0793 -0.2681 -0.1372
  866MPD2    C412710   1.241   2.054  11.207  0.4987 -0.0509  0.9435
  866MPD2    C512711   1.366   2.102  11.221 -0.5071 -0.0488 -0.1456
  866MPD2     H12712   1.324   1.751  11.061 -0.3503 -0.0943  0.3012
  866MPD2    H112713   1.160   2.123  11.230 -0.5230 -0.2216 -2.1094
  866MPD2    H212714   1.572   2.079  11.213  0.5518 -0.9227  0.7331
  866MPD2    H312715   1.383   2.191  11.281 -0.5033  0.6455 -1.1789
  866MPD2     N12716   1.096   1.893  11.110 -0.0890  0.4404 -0.6719
  866MPD2    H512717   1.027   1.939  11.169  0.6986  0.1476  0.4838
  866MPD2    N112718   1.591   1.840  11.104  0.1974  0.3028  1.2725
  866MPD2    H712719   1.678   1.879  11.139 -0.5544  1.1586  2.1439
  867MPD2     C12720   3.123   0.172  16.284 -0.0955 -0.7244 -0.0755
  867MPD2    C112721   3.137   0.075  16.380 -0.0003 -0.6661  0.5952
  867MPD2    C212722   3.042   0.062  16.480 -0.1970 -0.5325  0.9260
  867MPD2    C312723   2.937   0.146  16.491 -0.6907  0.3886 -0.3506
  867MPD2    C412724   2.925   0.246  16.396  0.6287 -0.1172  0.4657
  867MPD2    C512725   3.015   0.256  16.294 -0.0362 -0.1429 -0.1387
  867MPD2     H12726   3.070   4.722  16.564  0.1100 -0.5242  0.8285
  867MPD2    H112727   2.840   0.313  16.395 -0.5848 -1.6915 -0.5340
  867MPD2    H212728   3.189   0.188  16.200  0.2398 -2.7277 -0.1883
  867MPD2    H312729   3.011   0.335  16.220 -0.1489  0.8370  0.9115
  867MPD2     N12730   2.844   0.144  16.601 -0.1453  0.3473  0.2660
  867MPD2    H512731   2.780   0.223  16.601 -0.8978 -0.2619  1.7884
  867MPD2    N112732   3.257   4.717  16.373  0.1827 -0.3558  0.2505
  867MPD2    H712733   3.331   0.033  16.315  1.0688 -0.1988  1.4874
  868MPD2     C12734   0.294   0.221  13.016  0.4744  0.6527 -0.1928
  868MPD2    C112735   0.259   0.118  13.098  0.0990 -0.7785 -0.3662
  868MPD2    C212736   0.214   0.153  13.224 -0.1995 -0.2013 -0.1364
  868MPD2    C312737   0.213   0.285  13.266 -0.4954 -0.5707 -0.0645
  868MPD2    C412738   0.227   0.383  13.173 -0.0468 -0.3104  0.6683
  868MPD2    C512739   0.283   0.354  13.056  0.0612 -0.3863  0.8902
  868MPD2     H12740   0.192   0.082  13.303 -0.2847 -0.8702 -0.7696
  868MPD2    H112741   0.218   0.490  13.187  0.4675 -0.0688 -0.8942
  868MPD2    H212742   0.344   0.194  12.924  2.1485  0.2288  0.8303
  868MPD2    H312743   0.337   0.428  12.998 -1.5592 -0.2786 -0.4956
  868MPD2     N12744   0.162   0.310  13.398  0.3491 -0.1461  0.0729
  868MPD2    H512745   0.123   0.230  13.448 -0.4010 -0.7675 -1.5110
  868MPD2    N112746   0.278   4.713  13.064 -0.2557 -0.4583  0.2690
  868MPD2    H712747   0.317   4.705  12.971 -1.1787  1.2312 -0.2644
  869MPD2     C12748   0.640   1.705   1.616  0.2690  0.3261  0.1698
  869MPD2    C112749   0.764   1.754   1.650  0.7853  0.3960  0.5959
  869MPD2    C212750   0.821   1.849   1.570  0.3829 -0.0013 -0.2578
  869MPD2    C312751   0.762   1.899   1.456 -0.4777  0.0416  0.1251
  869MPD2    C412752   0.647   1.837   1.412  0.9548  0.8259 -0.0565
  869MPD2    C512753   0.583   1.746   1.494 -0.2496  0.0561  0.4976
  869MPD2     H12754   0.901   1.907   1.616  1.1052 -1.0522 -0.1902
  869MPD2    H112755   0.596   1.873   1.324  1.5959  1.1391 -0.3018
  869MPD2    H212756   0.594   1.630   1.679  0.8742  0.5833  0.9104
  869MPD2    H312757   0.481   1.717   1.473 -0.4327  1.6420 -0.8043
  869MPD2     N12758   0.802   2.020   1.392  0.2039 -0.5149 -0.6291
  869MPD2    H512759   0.739   2.060   1.324 -1.1530 -2.2380 -0.3818
  869MPD2    N112760   0.814   1.708   1.774 -0.3767  0.4594  1.1214
  869MPD2    H712761   0.742   1.655   1.822  0.6842 -0.1321  2.0413
  870MPD2     C12762   4.615   1.123   1.416  0.2253 -1.2318 -0.6524
  870MPD2    C112763   0.031   1.118   1.403  0.2868  0.1451 -0.5730
  870MPD2    C212764   0.096   1.171   1.296 -0.4246 -0.3519 -0.5117
  870MPD2    C312765   0.024   1.238   1.203  0.0117  0.0334  0.2147
  870MPD2    C412766   4.611   1.264   1.219 -0.3156  0.0926 -0.2707
  870MPD2    C512767   4.540   1.190   1.317  0.1210  0.1405  0.8517
  870MPD2     H12768   0.195   1.129   1.278  0.1495  0.4999  0.6695
  870MPD2    H112769   4.553   1.316   1.144 -0.3998 -1.2566 -1.1333
  870MPD2    H212770   4.568   1.086   1.506  0.7934 -0.4052 -0.0170
  870MPD2    H312771   4.432   1.196   1.326  0.0207 -2.3476  1.4249
  870MPD2     N12772   0.094   1.284   1.087 -0.0003 -0.8336  0.3071
  870MPD2    H512773   0.194   1.268   1.095  0.5173 -0.0626 -4.4743
  870MPD2    N112774   0.093   1.064   1.514  0.6720 -0.3921  0.0846
  870MPD2    H712775   0.034   1.041   1.593  0.1692  2.0734  0.4057
  871MPD2     C12776   2.451   0.893  16.606  0.4014 -0.9921 -0.0431
  871MPD2    C112777   2.323   0.849  16.638  0.0852 -0.4188 -0.8626
  871MPD2    C212778   2.287   0.722  16.592 -0.0007  0.8212  0.0077
  871MPD2    C312779   2.377   0.649  16.509 -0.1381 -0.1659  0.4571
  871MPD2    C412780   2.506   0.698  16.484 -0.0074  0.0715 -0.5033
  871MPD2    C512781   2.541   0.823  16.530  0.0290  0.2198  0.8927
  871MPD2     H12782   2.185   0.689  16.609  0.5878 -1.6016 -1.1224
  871MPD2    H112783   2.579   0.642  16.428 -2.3008 -2.5601 -0.8258
  871MPD2    H212784   2.480   0.991  16.642 -0.0482 -0.7428 -0.3597
  871MPD2    H312785   2.631   0.876  16.500 -0.7489  1.1344  0.1656
  871MPD2     N12786   2.335   0.519  16.476 -0.5129  0.2092 -0.2781
  871MPD2    H512787   2.237   0.497  16.489 -0.2914 -1.9334 -2.3233
  871MPD2    N112788   2.235   0.929  16.716 -0.4317  0.6616 -0.1382
  871MPD2    H712789   2.266   1.023  16.737 -1.0477  0.8637 -0.1370
  872MPD2     C12790   2.976   3.558  14.408 -0.2009  0.2922  0.0061
  872MPD2    C112791   2.892   3.580  14.298  0.6468  0.3789  1.0083
  872MPD2    C212792   2.767   3.524  14.302  0.4834 -0.3867 -0.9097
  872MPD2    C312793   2.727   3.449  14.421  0.0753 -1.0022 -0.3913
  872MPD2    C412794   2.820   3.436  14.523  0.2168 -0.8137 -0.0001
  872MPD2    C512795   2.946   3.495  14.520 -0.4610  0.7463  0.4036
  872MPD2     H12796   2.699   3.526  14.217 -0.7459 -0.7694  0.0520
  872MPD2    H112797   2.790   3.394  14.619 -1.3422  0.8340  0.2399
  872MPD2    H212798   3.075   3.602  14.402 -0.1445  0.4212  1.7536
  872MPD2    H312799   3.010   3.481  14.605 -1.2715  1.3350  1.1143
  872MPD2     N12800   2.597   3.395  14.429 -0.6630 -0.2774  0.0599
  872MPD2    H512801   2.574   3.335  14.507  1.3066 -1.5008 -0.3039
  872MPD2    N112802   2.946   3.650  14.193 -0.4022  0.2519  0.5626
  872MPD2    H712803   3.044   3.672  14.179 -0.4971  1.0780  1.1906
  873MPD2     C12804   0.306   2.745   1.460  0.2188  0.8595 -0.1592
  873MPD2    C112805   0.213   2.751   1.353  0.7714  0.0607  0.0224
  873MPD2    C212806   0.155   2.631   1.310 -0.5040  0.0581  0.4583
  873MPD2    C312807   0.194   2.511   1.373  0.1125 -0.8012  0.4445
  873MPD2    C412808   0.271   2.515   1.488 -0.1552 -0.0554  0.4231
  873MPD2    C512809   0.331   2.627   1.526 -0.4139  0.4505  0.1391
  873MPD2     H12810   0.077   2.634   1.235 -1.5425  1.1467  1.6001
  873MPD2    H112811   0.290   2.424   1.543 -1.6026 -0.6269 -0.0590
  873MPD2    H212812   0.348   2.833   1.508 -0.5255  0.0494  1.9873
  873MPD2    H312813   0.403   2.617   1.607  1.1097  2.1485 -1.0192
  873MPD2     N12814   0.140   2.382   1.346 -0.9347 -0.4253 -0.3609
  873MPD2    H512815   0.159   2.301   1.404 -0.2899  0.3110  0.4457
  873MPD2    N112816   0.164   2.877   1.311  0.0154 -0.1178 -0.0197
  873MPD2    H712817   0.190   2.955   1.370 -1.7216  1.8490 -1.8451
  874MPD2     C12818   4.164   3.389  16.119 -0.2604 -0.2512  0.3968
  874MPD2    C112819   4.186   3.298  16.209 -0.0131 -0.8716 -0.2134
  874MPD2    C212820   4.285   3.319  16.310  0.4983 -0.0468 -0.2895
  874MPD2    C312821   4.378   3.423  16.294 -0.0140 -0.2175 -0.7436
  874MPD2    C412822   4.363   3.500  16.182  0.2229  0.3344 -0.4284
  874MPD2    C512823   4.263   3.484  16.092  0.5083 -0.4150  0.4920
  874MPD2     H12824   4.294   3.263  16.403  0.1212  2.1819  1.0817
  874MPD2    H112825   4.435   3.575  16.149 -2.5497  2.9865 -0.4379
  874MPD2    H212826   4.082   3.384  16.048  0.4735  0.4967 -0.4970
  874MPD2    H312827   4.251   3.550  16.007 -0.9676 -2.1648 -0.6488
  874MPD2     N12828   4.471   3.440  16.394  0.2857  0.4915 -0.1493
  874MPD2    H512829   4.442   3.386  16.475 -1.5175  0.9977 -0.4411
  874MPD2    N112830   4.088   3.198  16.213  0.4179 -0.3292  0.5277
  874MPD2    H712831   4.019   3.201  16.138  0.0260  2.1008  0.9985
  875MPD2     C12832   0.830   2.007  14.737 -0.4116 -0.0245  0.0180
  875MPD2    C112833   0.690   2.017  14.730 -0.0351  0.2015  0.4864
  875MPD2    C212834   0.622   2.028  14.855 -0.1804  0.4296 -0.1286
  875MPD2    C312835   0.697   2.043  14.975 -0.4200 -0.2665 -0.0904
  875MPD2    C412836   0.839   2.048  14.973  0.4369  0.2981 -0.0684
  875MPD2    C512837   0.901   2.030  14.852 -0.4129 -0.2993 -0.4745
  875MPD2     H12838   0.515   2.017  14.863 -0.4131  0.6568 -2.7989
  875MPD2    H112839   0.904   2.068  15.058 -1.5068 -1.6470  1.8956
  875MPD2    H212840   0.883   1.994  14.643  0.9997  1.8482  0.5490
  875MPD2    H312841   1.009   2.019  14.850 -0.3428 -0.1920  2.3056
  875MPD2     N12842   0.630   2.059  15.101 -0.3882  0.4715 -0.2273
  875MPD2    H512843   0.689   2.073  15.182 -0.9763  0.4796  0.1980
  875MPD2    N112844   0.610   2.002  14.611  0.3340 -0.1884 -0.0857
  875MPD2    H712845   0.509   1.994  14.621  0.4370 -0.9825  0.3107
  876MPD2     C12846   3.791   3.148  15.948  0.4285 -0.0608 -0.1223
  876MPD2    C112847   3.913   3.097  15.917 -0.4519 -0.4582 -0.2885
  876MPD2    C212848   3.938   2.960  15.941  0.2307 -0.2306  0.0711
  876MPD2    C312849   3.840   2.870  15.986  0.7911 -0.6845 -0.1776
  876MPD2    C412850   3.709   2.919  16.013  0.1172 -0.6789 -0.2271
  876MPD2    C512851   3.691   3.061  15.989 -0.0166  0.4495  0.0098
  876MPD2     H12852   4.034   2.912  15.925  0.6988  0.9358 -0.5800
  876MPD2    H112853   3.636   2.847  16.049 -1.3593  0.5110 -0.8725
  876MPD2    H212854   3.762   3.249  15.924 -0.4780  0.2051  2.1559
  876MPD2    H312855   3.588   3.097  15.991 -0.1698  0.0727 -1.2728
  876MPD2     N12856   3.873   2.734  16.002  0.0488  0.4354  0.3625
  876MPD2    H512857   3.962   2.706  15.962 -0.2538 -1.3467  0.9454
  876MPD2    N112858   4.010   3.179  15.860  0.0546 -0.2057  0.4754
  876MPD2    H712859   3.982   3.274  15.838 -0.6337 -0.2563  1.1296
  877MPD2     C12860   4.216   3.616  15.285 -0.6676  0.6017  0.5669
  877MPD2    C112861   4.345   3.605  15.341 -0.4549  0.5177 -0.2723
  877MPD2    C212862   4.460   3.652  15.278 -0.6311 -0.5204  0.1996
  877MPD2    C312863   4.448   3.723  15.159 -0.0065  0.5125  0.0496
  877MPD2    C412864   4.321   3.731  15.100  0.5881  0.6705 -0.5537
  877MPD2    C512865   4.210   3.683  15.166  0.3283 -0.2039  0.2336
  877MPD2     H12866   4.558   3.651  15.325 -0.2968 -1.2230 -0.5175
  877MPD2    H112867   4.316   3.774  15.000  2.6330  1.5936 -0.2541
  877MPD2    H212868   4.126   3.580  15.334  0.0295 -0.9743  0.7185
  877MPD2    H312869   4.120   3.689  15.105  0.3308  1.7300  0.4187
  877MPD2     N12870   4.562   3.760  15.078 -0.1732 -0.2136 -0.0902
  877MPD2    H512871   4.524   3.811  14.999 -0.9393 -1.5320 -0.5785
  877MPD2    N112872   4.366   3.534  15.462 -0.1856  0.6780  0.2889
  877MPD2    H712873   4.451   3.556  15.514 -0.0668 -2.2559  1.3234
  878MPD2     C12874   3.514   2.792  13.242 -0.3232  0.6963  0.0462
  878MPD2    C112875   3.618   2.882  13.222  0.4862 -0.2767 -0.3759
  878MPD2    C212876   3.687   2.916  13.333 -0.7514 -0.1438 -0.5622
  878MPD2    C312877   3.668   2.871  13.461 -0.1170 -0.3175 -0.1957
  878MPD2    C412878   3.581   2.766  13.467 -0.3388 -0.1669 -0.2883
  878MPD2    C512879   3.499   2.732  13.361 -0.2441  0.4276 -0.5045
  878MPD2     H12880   3.760   2.996  13.328 -0.2512 -0.6776 -1.9286
  878MPD2    H112881   3.558   2.726  13.565  0.4711  2.2422  0.8732
  878MPD2    H212882   3.437   2.782  13.167  1.3982  0.7452 -1.7278
  878MPD2    H312883   3.406   2.680  13.380 -0.3183  1.5250  2.0842
  878MPD2     N12884   3.742   2.944  13.565  0.2239 -0.1669  0.6144
  878MPD2    H512885   3.813   3.005  13.526 -0.4930 -0.2811 -0.9030
  878MPD2    N112886   3.640   2.931  13.096  0.6264  0.4277  0.3822
  878MPD2    H712887   3.568   2.907  13.028  0.7337  2.6569 -0.5182
  879MPD2     C12888   4.521   4.173  16.705 -0.0499  0.5815  0.3469
  879MPD2    C112889   4.563   4.093  16.805 -0.0719  0.0664 -0.1294
  879MPD2    C212890   4.499   3.972  16.818  0.5917 -0.0510 -0.0395
  879MPD2    C312891   4.402   3.925  16.731  0.1288 -1.1009 -0.1400
  879MPD2    C412892   4.356   4.016  16.637 -0.4555  0.4955 -0.3446
  879MPD2    C512893   4.425   4.131  16.619  0.0995  0.6474  0.3239
  879MPD2     H12894   4.534   3.907  16.897  0.5820  0.3650  0.3059
  879MPD2    H112895   4.277   3.995  16.566 -1.1604 -0.1290  0.6184
  879MPD2    H212896   4.564   4.272  16.691  1.2384 -0.0157  0.1192
  879MPD2    H312897   4.394   4.196  16.538 -0.6840  1.2793  1.1255
  879MPD2     N12898   4.346   3.792  16.734  0.4784 -0.0897 -0.2073
  879MPD2    H512899   4.273   3.771  16.667  1.9496 -3.7718 -0.6749
  879MPD2    N112900   4.659   4.147  16.898 -0.6100  0.0515 -0.9082
  879MPD2    H712901   4.696   4.239  16.877 -2.1496  1.0002  0.5433
  880MPD2     C12902   1.333   0.743   0.031  0.3472  0.3553 -0.1988
  880MPD2    C112903   1.354   0.767   0.163 -0.1332 -0.8109 -0.3087
  880MPD2    C212904   1.447   0.689   0.230  0.2110  0.2188  1.0176
  880MPD2    C312905   1.514   0.592   0.169  0.4943 -0.1747  0.1105
  880MPD2    C412906   1.507   0.568   0.034 -0.5369  0.2656  0.1278
  880MPD2    C512907   1.409   0.641  17.660  0.0946 -0.2926  0.4986
  880MPD2     H12908   1.464   0.714   0.334  0.7482  1.8695  0.5377
  880MPD2    H112909   1.548   0.486  17.668 -1.8933 -0.6085  0.4044
  880MPD2    H212910   1.270   0.809  17.666 -0.8140  0.0201  0.6826
  880MPD2    H312911   1.394   0.621  17.555 -1.2893 -1.3608  0.8894
  880MPD2     N12912   1.614   0.536   0.251  0.2487  0.1251  0.5425
  880MPD2    H512913   1.618   0.565   0.348  1.4948 -0.5630  0.7033
  880MPD2    N112914   1.263   0.859   0.222  0.5876 -0.0039 -0.2973
  880MPD2    H712915   1.211   0.922   0.162  2.2651  0.3309 -1.3813
  881MPD2     C12916   1.098   1.768  17.598  0.0948  0.3542  0.0937
  881MPD2    C112917   1.162   1.653  17.559  0.0161 -0.7967 -0.4726
  881MPD2    C212918   1.168   1.543  17.649 -0.8503  0.0802 -0.0845
  881MPD2    C312919   1.104   1.550   0.081 -0.5057 -0.2855  0.3557
  881MPD2    C412920   1.020   1.659   0.104  0.2722  0.4981 -1.4945
  881MPD2    C512921   1.020   1.766   0.019 -0.5584  0.2803  0.4818
  881MPD2     H12922   1.220   1.453  17.617  0.5126  0.8588 -0.0766
  881MPD2    H112923   0.960   1.659   0.194  0.0875 -1.6339 -1.6335
  881MPD2    H212924   1.093   1.851  17.528  0.9402  0.2139 -0.1301
  881MPD2    H312925   0.961   1.852   0.051 -0.5783  1.0789 -1.6685
  881MPD2     N12926   1.104   1.441   0.167  0.2948  0.1441 -0.0089
  881MPD2    H512927   1.038   1.449   0.244  0.4317  1.7561 -0.0569
  881MPD2    N112928   1.236   1.660  17.435 -0.9062  0.2746 -0.5725
  881MPD2    H712929   1.208   1.735  17.372 -1.9717 -0.9438 -1.5599
  882MPD2     C12930   4.675   3.589  14.383 -0.0298  0.5971  0.1623
  882MPD2    C112931   4.622   3.697  14.453 -0.4880  0.0595 -0.3732
  882MPD2    C212932   4.494   3.738  14.424  0.2204 -0.9909  0.0571
  882MPD2    C312933   4.416   3.670  14.332  0.5190  0.0372  0.2525
  882MPD2    C412934   4.467   3.563  14.264 -0.4862  0.8205 -0.3678
  882MPD2    C512935   4.598   3.518  14.297  0.1809 -0.0380 -0.0111
  882MPD2     H12936   4.457   3.827  14.474  2.9227 -0.7034  1.5559
  882MPD2    H112937   4.416   3.504  14.189 -1.8935 -0.4880  1.6024
  882MPD2    H212938   0.054   3.557  14.403 -0.7544 -1.5921  0.3136
  882MPD2    H312939   4.644   3.431  14.251  0.3833  0.0824 -0.0351
  882MPD2     N12940   4.279   3.701  14.301  0.1919 -0.8507  0.7451
  882MPD2    H512941   4.225   3.631  14.252  1.5918 -2.3125  1.2996
  882MPD2    N112942   4.701   3.761  14.557 -0.2132 -0.0591 -0.2610
  882MPD2    H712943   0.077   3.737  14.556 -0.0109  0.6982  1.7152
  883MPD2     C12944   1.188   3.498  16.193 -0.0743  0.0953 -0.0538
  883MPD2    C112945   1.260   3.415  16.108  0.1398  0.2663  0.1296
  883MPD2    C212946   1.386   3.373  16.153 -0.4913 -0.4581 -0.2182
  883MPD2    C312947   1.428   3.413  16.283 -0.2949 -0.1194 -0.1690
  883MPD2    C412948   1.347   3.483  16.363  0.5326  0.5253 -0.3779
  883MPD2    C512949   1.232   3.528  16.320  0.2495  0.3282  0.3061
  883MPD2     H12950   1.443   3.302  16.096  1.1453 -0.3894  1.3359
  883MPD2    H112951   1.381   3.528  16.455 -0.9138  0.2371  0.2914
  883MPD2    H212952   1.089   3.538  16.171 -0.5911 -1.9039 -1.4655
  883MPD2    H312953   1.170   3.593  16.381 -1.2468 -1.6576  0.8913
  883MPD2     N12954   1.559   3.373  16.324 -0.0737  0.1412  0.0948
  883MPD2    H512955   1.601   3.306  16.261  2.0697 -0.9205  2.6503
  883MPD2    N112956   1.211   3.365  15.988  0.1338  0.4470  0.8173
  883MPD2    H712957   1.267   3.292  15.945 -1.5573  1.2801 -2.8251
  884MPD2     C12958   3.571   4.204  15.299  0.3295  0.6678 -0.1381
  884MPD2    C112959   3.543   4.324  15.229 -0.3983 -0.0366 -0.0775
  884MPD2    C212960   3.415   4.371  15.246 -0.4629  0.6752 -0.0960
  884MPD2    C312961   3.317   4.294  15.304  0.3163 -0.1002  0.0165
  884MPD2    C412962   3.348   4.181  15.372  0.3477 -0.7003 -0.1609
  884MPD2    C512963   3.478   4.129  15.368  0.1441 -0.1185  0.4226
  884MPD2     H12964   3.384   4.458  15.189  0.9344  1.9290  1.0671
  884MPD2    H112965   3.271   4.123  15.420  2.7080 -2.3990  1.5704
  884MPD2    H212966   3.671   4.162  15.298  0.8466  1.8698  0.8314
  884MPD2    H312967   3.510   4.041  15.421 -0.4901 -0.2185  0.6427
  884MPD2     N12968   3.184   4.333  15.311  0.1257  0.5352 -0.8644
  884MPD2    H512969   3.128   4.280  15.376  0.1822  2.2946  0.6131
  884MPD2    N112970   3.641   4.407  15.169  0.5767  0.1524 -0.1688
  884MPD2    H712971   3.601   4.494  15.133  0.2669 -0.2864 -0.8855
  885MPD2     C12972   1.322   4.362   0.187  0.1097 -0.8654  0.7905
  885MPD2    C112973   1.324   4.248   0.107  0.5793  0.2985  0.0121
  885MPD2    C212974   1.355   4.254  17.665  0.2243 -0.0425  0.8355
  885MPD2    C312975   1.380   4.379  17.609 -0.0405  0.1631 -0.1981
  885MPD2    C412976   1.370   4.490  17.690 -0.0391 -0.5373 -0.1632
  885MPD2    C512977   1.346   4.479   0.131  0.4284 -0.3951 -0.0586
  885MPD2     H12978   1.352   4.163  17.607 -0.3622  0.3455  0.2623
  885MPD2    H112979   1.393   4.586  17.645 -0.3870  0.4119  1.6606
  885MPD2    H212980   1.333   4.363   0.295  3.3519 -0.7251  0.4684
  885MPD2    H312981   1.350   4.569   0.192  2.1905  0.2802 -1.1660
  885MPD2     N12982   1.387   4.386  17.465 -0.4804  0.1696 -0.2564
  885MPD2    H512983   1.408   4.305  17.407  0.8535 -0.1997  0.7342
  885MPD2    N112984   1.297   4.124   0.181  0.2425  0.0798 -0.9161
  885MPD2    H712985   1.287   4.125   0.282 -0.1376 -1.6478 -0.9281
  886MPD2     C12986   2.696   3.042  15.053 -0.0621 -0.3495  0.0181
  886MPD2    C112987   2.820   3.024  15.114 -0.1672 -0.9331  0.0699
  886MPD2    C212988   2.912   3.127  15.125 -0.3434  0.2996 -0.2929
  886MPD2    C312989   2.884   3.251  15.069 -0.8355  0.1676  0.2169
  886MPD2    C412990   2.765   3.267  15.004 -0.2145 -0.3623 -0.6809
  886MPD2    C512991   2.677   3.164  14.990 -0.1554 -0.4334  0.3575
  886MPD2     H12992   3.004   3.107  15.180 -0.7665  1.6383  0.9014
  886MPD2    H112993   2.744   3.361  14.954  1.1531 -1.7139 -3.7523
  886MPD2    H212994   2.616   2.970  15.048 -0.0167 -0.4006  0.0186
  886MPD2    H312995   2.590   3.187  14.930  0.8462 -0.4110 -1.1050
  886MPD2     N12996   2.979   3.355  15.062  0.3075  0.1498 -0.6231
  886MPD2    H512997   2.942   3.441  15.022  0.4378  0.5944  0.2126
  886MPD2    N112998   2.855   2.897  15.171 -0.3257 -0.4579  0.5057
  886MPD2    H712999   2.946   2.898  15.217  0.2351 -2.0658 -0.5753
  887MPD2     C13000   3.427   2.612  15.516 -0.3456  0.9726 -0.0592
  887MPD2    C113001   3.359   2.704  15.451 -0.9165  0.2050  0.3861
  887MPD2    C213002   3.404   2.834  15.459 -0.1735 -0.4248 -0.4535
  887MPD2    C313003   3.510   2.874  15.542 -0.0706  0.4230 -0.1361
  887MPD2    C413004   3.580   2.774  15.606 -0.1494 -0.2859 -0.0638
  887MPD2    C513005   3.544   2.644  15.583  0.2892 -0.1513  0.2820
  887MPD2     H13006   3.340   2.912  15.420 -0.0440  0.5711  1.3465
  887MPD2    H113007   3.659   2.783  15.680  0.4809 -1.7980 -0.5299
  887MPD2    H213008   3.399   2.507  15.519 -2.5485  1.5139 -1.7851
  887MPD2    H313009   3.602   2.574  15.643 -0.5234  0.1415  1.3912
  887MPD2     N13010   3.540   3.013  15.556 -0.6572  0.0022  0.1174
  887MPD2    H513011   3.471   3.080  15.523  0.0026  0.9626  0.6950
  887MPD2    N113012   3.232   2.681  15.403 -0.2289 -0.3676 -0.5222
  887MPD2    H713013   3.194   2.748  15.337 -1.2073  0.1690  0.5870
  888MPD2     C13014   0.767   3.096  14.806  0.1368 -0.3261  0.8436
  888MPD2    C113015   0.768   3.120  14.943  0.7605 -0.5824  0.0413
  888MPD2    C213016   0.806   3.246  14.989 -0.3628  0.2323  0.6033
  888MPD2    C313017   0.846   3.344  14.903 -0.0871 -0.1991  0.1836
  888MPD2    C413018   0.835   3.319  14.764  1.2744 -0.0617  0.0411
  888MPD2    C513019   0.785   3.198  14.716  0.6019 -0.8212 -0.1438
  888MPD2     H13020   0.806   3.262  15.096 -1.5989  0.3787  0.5767
  888MPD2    H113021   0.843   3.403  14.695  1.3724  0.7091  0.9978
  888MPD2    H213022   0.713   3.014  14.761  0.2798 -0.6624  1.2947
  888MPD2    H313023   0.768   3.176  14.612  1.8553 -1.6496 -0.1782
  888MPD2     N13024   0.870   3.474  14.952  0.3326 -0.0092  0.2598
  888MPD2    H513025   0.837   3.487  15.048  0.0296  0.6784  0.0640
  888MPD2    N113026   0.747   3.020  15.038  0.5079  0.8316 -0.0506
  888MPD2    H713027   0.759   3.056  15.132  0.2596 -2.3531  1.1952
  889MPD2     C13028   4.641   2.651  12.929  0.3396  0.2512 -0.2556
  889MPD2    C113029   4.719   2.637  13.039 -0.4710 -0.3127 -0.4193
  889MPD2    C213030   0.063   2.754  13.071 -0.7144 -0.2650 -0.3163
  889MPD2    C313031   0.021   2.876  13.029 -0.0394 -0.4535  0.2564
  889MPD2    C413032   4.664   2.890  12.915 -0.6088  0.5322 -0.3396
  889MPD2    C513033   4.609   2.774  12.873  0.3456 -0.1372 -0.4753
  889MPD2     H13034   0.135   2.752  13.153 -2.1843  2.1452  1.0258
  889MPD2    H113035   4.642   2.981  12.861 -1.1179  0.5096 -0.1732
  889MPD2    H213036   4.596   2.569  12.875  3.4440 -1.3612 -0.3887
  889MPD2    H313037   4.544   2.784  12.787  0.4958  1.4682 -0.4140
  889MPD2     N13038   0.079   2.997  13.083  0.0990  0.1843 -0.2168
  889MPD2    H513039   0.154   2.988  13.151  1.0075 -0.6807 -1.3253
  889MPD2    N113040   0.046   2.512  13.080  0.0045 -0.3737  0.4137
  889MPD2    H713041   0.135   2.525  13.127  0.2281  0.0405 -0.1255
  890MPD2     C13042   4.021   4.488  14.654 -0.4456 -0.8572  0.2795
  890MPD2    C113043   4.154   4.513  14.673 -0.5997 -0.8200 -0.2184
  890MPD2    C213044   4.221   4.441  14.766 -0.3478 -0.5545 -0.4140
  890MPD2    C313045   4.159   4.340  14.841  0.3318 -0.0142 -0.1475
  890MPD2    C413046   4.032   4.297  14.802 -0.0387  0.5524  0.7176
  890MPD2    C513047   3.963   4.379  14.717  0.0966  0.0723 -0.1734
  890MPD2     H13048   4.324   4.465  14.790 -0.9371  1.5231  0.0703
  890MPD2    H113049   3.992   4.207  14.847 -1.8215  0.4297 -1.1335
  890MPD2    H213050   3.960   4.553  14.594  0.8577  1.3749  1.3845
  890MPD2    H313051   3.858   4.357  14.699  0.6755 -2.1623 -0.8495
  890MPD2     N13052   4.240   4.273  14.932  0.7409  0.3712 -0.2781
  890MPD2    H513053   4.337   4.303  14.936  0.0262  2.6939 -0.5313
  890MPD2    N113054   4.206   4.623  14.599 -0.9570 -0.5070  0.5913
  890MPD2    H713055   4.144   4.692  14.557  1.1635  0.5611 -0.7436
  891MPD2     C13056   1.919   2.868  16.331  0.1652  0.6267 -1.0012
  891MPD2    C113057   1.859   2.920  16.444 -0.4656  0.0205  0.0644
  891MPD2    C213058   1.931   2.923  16.561 -0.0704  0.0767 -0.0640
  891MPD2    C313059   2.056   2.876  16.565  0.4938  0.2767 -0.7439
  891MPD2    C413060   2.126   2.836  16.447 -0.1512  0.4831 -0.1108
  891MPD2    C513061   2.049   2.826  16.335  0.0288  0.6582  0.1278
  891MPD2     H13062   1.869   2.945  16.647  0.2081  1.7171 -0.2791
  891MPD2    H113063   2.231   2.812  16.441 -0.3573 -0.8056  1.3430
  891MPD2    H213064   1.862   2.844  16.243 -0.4799 -0.6775 -0.2165
  891MPD2    H313065   2.097   2.783  16.248  0.7549  0.1146  0.8010
  891MPD2     N13066   2.115   2.863  16.691  0.1980  0.4737 -1.0618
  891MPD2    H513067   2.045   2.874  16.764 -2.0252 -1.1037 -2.9787
  891MPD2    N113068   1.718   2.943  16.435 -0.4093  0.5628  0.0476
  891MPD2    H713069   1.673   2.927  16.345  0.2823 -0.7585 -0.0605
  892MPD2     C13070   3.629   4.055  14.954  0.1701  0.2637 -0.8478
  892MPD2    C113071   3.560   4.037  14.833 -0.0301  0.5778  0.4107
  892MPD2    C213072   3.609   4.024  14.712  0.2168  0.2426 -0.0520
  892MPD2    C313073   3.744   3.990  14.705  1.1760 -0.4930 -0.2881
  892MPD2    C413074   3.816   3.996  14.824  0.9656  0.5030 -0.2674
  892MPD2    C513075   3.757   4.024  14.945  0.2805  0.0042  0.4208
  892MPD2     H13076   3.545   4.019  14.624 -2.5387  0.6297  1.9573
  892MPD2    H113077   3.923   3.977  14.828  1.0608  0.8624 -1.1019
  892MPD2    H213078   3.591   4.076  15.054  1.4391  0.7725 -0.4752
  892MPD2    H313079   3.824   4.020  15.030  1.2359 -0.4610 -0.3677
  892MPD2     N13080   3.815   3.950  14.593 -0.0333  0.0843  0.4414
  892MPD2    H513081   3.915   3.933  14.597 -0.3672 -1.9138  0.1908
  892MPD2    N113082   3.415   4.047  14.828 -0.5234  0.2498 -0.0535
  892MPD2    H713083   3.370   4.046  14.737  0.3387  1.4742 -0.4944
  893MPD2     C13084   4.302   1.701   1.445 -0.6494  0.0859  0.7909
  893MPD2    C113085   4.354   1.600   1.518  1.0391 -0.9823 -0.4255
  893MPD2    C213086   4.259   1.514   1.582  0.0575 -0.2705  0.6625
  893MPD2    C313087   4.124   1.530   1.568  0.6551 -0.1118  0.0341
  893MPD2    C413088   4.082   1.643   1.511  0.0353 -0.1990  0.2041
  893MPD2    C513089   4.165   1.727   1.447 -0.6075 -0.1406  0.3556
  893MPD2     H13090   4.303   1.431   1.636  0.1981 -0.8060 -0.2736
  893MPD2    H113091   3.980   1.666   1.485 -0.2945 -2.0261 -0.1404
  893MPD2    H213092   4.363   1.766   1.384  0.0862 -0.0960  1.3308
  893MPD2    H313093   4.142   1.818   1.393 -1.3666 -0.1473  0.6674
  893MPD2     N13094   4.028   1.444   1.621 -0.2420 -0.0887 -0.0122
  893MPD2    H513095   3.936   1.485   1.609  0.8316  1.9476 -1.2872
  893MPD2    N113096   4.494   1.593   1.531 -0.2821  0.2342  0.0593
  893MPD2    H713097   4.550   1.668   1.493 -1.2717  1.2103  0.5226
  894MPD2     C13098   2.711   3.736   0.699 -0.4851  0.2007 -0.3815
  894MPD2    C113099   2.659   3.790   0.817  0.0256 -0.4408 -0.2190
  894MPD2    C213100   2.618   3.919   0.828 -0.3716  0.0791  0.2776
  894MPD2    C313101   2.640   4.002   0.719 -0.0514 -0.3632 -0.1530
  894MPD2    C413102   2.706   3.962   0.607 -0.0785 -0.0810 -0.4512
  894MPD2    C513103   2.740   3.828   0.606  0.4914  0.6488  0.3081
  894MPD2     H13104   2.588   3.974   0.916  0.1297 -1.7319  1.5808
  894MPD2    H113105   2.738   4.026   0.526 -1.3475  0.4567 -0.5381
  894MPD2    H213106   2.743   3.634   0.687 -0.8107  0.0976 -0.3929
  894MPD2    H313107   2.807   3.792   0.529 -0.2925  0.0353 -0.0882
  894MPD2     N13108   2.614   4.136   0.743 -0.6556  0.1757 -0.4706
  894MPD2    H513109   2.590   4.171   0.836  1.5260  0.9628 -0.1985
  894MPD2    N113110   2.630   3.710   0.934 -0.3173  0.3129 -0.5208
  894MPD2    H713111   2.596   3.759   1.016 -1.0004  0.3789 -0.8440
  895MPD2     C13112   2.864   3.408  13.629 -0.8328  0.2714 -0.0626
  895MPD2    C113113   2.731   3.373  13.617  1.0963 -0.9537 -0.9102
  895MPD2    C213114   2.689   3.254  13.672 -0.3335  0.6203 -0.3001
  895MPD2    C313115   2.774   3.167  13.737  0.6120 -0.2089 -0.1719
  895MPD2    C413116   2.902   3.211  13.764  0.6368  0.7227 -0.2644
  895MPD2    C513117   2.946   3.329  13.710  0.0416  0.5095 -0.6446
  895MPD2     H13118   2.588   3.218  13.656 -0.0751 -0.8587  1.3642
  895MPD2    H113119   2.975   3.149  13.815 -3.1841  0.1125  4.4270
  895MPD2    H213120   2.899   3.509  13.610 -0.7047 -0.1250 -1.9223
  895MPD2    H313121   3.043   3.371  13.732 -0.0779  0.5154 -0.1225
  895MPD2     N13122   2.723   3.043  13.780 -0.1793  0.2350 -1.0408
  895MPD2    H513123   2.626   3.017  13.764 -0.2186  0.4108 -1.0804
  895MPD2    N113124   2.624   3.452  13.555 -0.2212  0.0119  0.0111
  895MPD2    H713125   2.527   3.430  13.571 -0.2170  0.2255  0.3174
  896MPD2     C13126   3.906   0.070   1.850  0.5007  0.5081 -0.6806
  896MPD2    C113127   3.932   0.027   1.722  0.4301  0.0577 -0.5483
  896MPD2    C213128   3.833   4.696   1.645  0.0216 -0.1639  0.0186
  896MPD2    C313129   3.701   4.680   1.698  0.4713 -0.0273 -0.2638
  896MPD2    C413130   3.679   0.007   1.818 -0.3786  0.3401 -0.3940
  896MPD2    C513131   3.775   0.066   1.891 -0.1084  0.2181 -0.8213
  896MPD2     H13132   3.859   4.662   1.545  0.0106  0.6965 -0.2802
  896MPD2    H113133   3.581   0.009   1.865  0.1836 -2.2359  0.8774
  896MPD2    H213134   3.980   0.121   1.911  1.3337  1.0270 -2.1413
  896MPD2    H313135   3.741   0.115   1.982  0.4250  2.1172 -1.6387
  896MPD2     N13136   3.597   4.625   1.623 -1.2369  0.6465 -0.5420
  896MPD2    H513137   3.629   4.585   1.536  2.3193  0.2528  0.9218
  896MPD2    N113138   4.064   0.034   1.676  0.4805 -0.5906 -0.1484
  896MPD2    H713139   4.130   0.074   1.742  0.3996 -1.7820  0.6395
  897MPD2     C13140   0.880   2.400  10.383  0.0770 -0.5122  0.1824
  897MPD2    C113141   0.827   2.526  10.423 -0.4854 -0.2178 -0.9643
  897MPD2    C213142   0.783   2.542  10.552 -0.1743 -0.0604  0.5557
  897MPD2    C313143   0.797   2.435  10.639 -0.0215  0.2938  0.3272
  897MPD2    C413144   0.835   2.309  10.595  0.1786 -0.0129  0.9715
  897MPD2    C513145   0.886   2.296  10.469  0.2819 -0.0818  0.5110
  897MPD2     H13146   0.747   2.633  10.599 -0.8426 -0.4294  0.7507
  897MPD2    H113147   0.847   2.223  10.660  0.4248 -1.4527 -0.9769
  897MPD2    H213148   0.902   2.375  10.280 -0.4380  1.9381 -0.5257
  897MPD2    H313149   0.914   2.198  10.434 -2.4681 -0.4913 -0.6031
  897MPD2     N13150   0.780   2.470  10.775  0.3433 -0.2605  0.2740
  897MPD2    H513151   0.735   2.559  10.796  0.8222 -0.1460  0.8343
  897MPD2    N113152   0.838   2.628  10.332 -0.4587  0.3812 -0.0190
  897MPD2    H713153   0.871   2.616  10.237 -0.2659  0.9584 -0.0208
  898MPD2     C13154   3.280   2.364   0.101 -0.2857 -0.0520  0.5352
  898MPD2    C113155   3.337   2.483   0.065 -0.2391 -0.3435 -0.9722
  898MPD2    C213156   3.309   2.547  17.638  0.3748 -0.2181 -0.7916
  898MPD2    C313157   3.212   2.498  17.555 -0.2415  0.2546  0.2334
  898MPD2    C413158   3.145   2.381  17.590  0.0256  1.0488  0.5079
  898MPD2    C513159   3.178   2.320   0.021  0.1212  0.3456  0.1994
  898MPD2     H13160   3.366   2.636  17.614  1.8446 -1.2580 -1.2046
  898MPD2    H113161   3.063   2.334  17.536 -1.0346 -1.4960  4.2935
  898MPD2    H213162   3.286   2.321   0.200 -2.1654 -0.3291  0.5386
  898MPD2    H313163   3.127   2.236   0.068  0.4095 -1.1221 -2.1372
  898MPD2     N13164   3.182   2.569  17.435  0.0733  0.5642 -0.0794
  898MPD2    H513165   3.230   2.658  17.422 -1.2973  1.4095  0.7197
  898MPD2    N113166   3.437   2.544   0.149 -0.1973  0.2111  0.1594
  898MPD2    H713167   3.473   2.631   0.112  1.7241 -0.8909 -0.5294
  899MPD2     C13168   4.547   3.671   0.083 -0.3182 -0.0615 -0.2525
  899MPD2    C113169   4.463   3.648  17.667  0.0581 -0.5233  0.2575
  899MPD2    C213170   4.353   3.568  17.686 -0.1181  0.3561  0.4536
  899MPD2    C313171   4.331   3.513   0.125 -0.4051  0.3109  0.4480
  899MPD2    C413172   4.420   3.532   0.224  0.4449 -0.3548 -0.6844
  899MPD2    C513173   4.530   3.610   0.206 -0.8289 -0.6788  0.0022
  899MPD2     H13174   4.276   3.565  17.609  1.5932 -0.2738 -1.2345
  899MPD2    H113175   4.410   3.477   0.317  1.1907  1.0325  0.2215
  899MPD2    H213176   4.633   3.734   0.065 -0.9865  1.3601  1.5007
  899MPD2    H313177   4.602   3.622   0.286 -0.3925  0.8434 -0.6135
  899MPD2     N13178   4.222   3.419   0.152 -0.4118  0.5228  0.6777
  899MPD2    H513179   4.219   3.380   0.246  1.9452 -0.6248  0.2834
  899MPD2    N113180   4.494   3.725  17.548  0.0494  0.7958  0.3132
  899MPD2    H713181   4.586   3.768  17.546  0.4534 -0.1245 -0.9526
  900MPD2     C13182   3.767   1.073  12.635 -0.3982  0.7381 -0.2762
  900MPD2    C113183   3.682   0.973  12.611 -0.2279  0.0453  0.2119
  900MPD2    C213184   3.555   0.995  12.564 -0.0571  0.1006  0.2550
  900MPD2    C313185   3.527   1.133  12.528 -0.1946  0.0472 -0.7875
  900MPD2    C413186   3.626   1.234  12.543 -0.5348 -0.0369 -0.4230
  900MPD2    C513187   3.749   1.205  12.596 -0.2304  0.3813  0.3352
  900MPD2     H13188   3.476   0.924  12.539 -0.8868  1.3168 -0.5770
  900MPD2    H113189   3.593   1.337  12.537 -1.8192 -0.3343  1.5447
  900MPD2    H213190   3.865   1.057  12.677  0.5383  3.1523 -1.5185
  900MPD2    H313191   3.831   1.275  12.611 -0.0226 -0.5711  3.5573
  900MPD2     N13192   3.404   1.177  12.482  0.2315 -0.1989  0.1980
  900MPD2    H513193   3.332   1.107  12.492 -0.6862  0.8754  1.1270
  900MPD2    N113194   3.708   0.840  12.651 -0.1468  0.5820  0.2396
  900MPD2    H713195   3.803   0.829  12.688  0.2269 -0.7842 -1.1242
  901MPD2     C13196   3.380   4.641  12.788  0.4724  0.8258 -0.3799
  901MPD2    C113197   3.519   4.642  12.773 -0.3779 -0.3335  0.2116
  901MPD2    C213198   3.597   0.025  12.818  0.0093  0.1806 -0.8618
  901MPD2    C313199   3.538   0.133  12.873  0.2253  0.1818 -0.2352
  901MPD2    C413200   3.404   0.131  12.904 -0.3806  0.3667 -0.5150
  901MPD2    C513201   3.323   0.031  12.843  0.4806 -0.0500  0.0170
  901MPD2     H13202   3.706   0.021  12.823  0.0533  1.6466 -0.5980
  901MPD2    H113203   3.355   0.212  12.956 -0.8872 -0.4551  0.2904
  901MPD2    H213204   3.322   4.554  12.758  0.9783 -0.4117  2.2693
  901MPD2    H313205   3.217   0.023  12.861  0.3708  2.0114  0.3359
  901MPD2     N13206   3.628   0.243  12.894  0.0209 -0.2064 -0.4316
  901MPD2    H513207   3.726   0.228  12.874 -0.1259  2.6456 -3.3114
  901MPD2    N113208   3.573   4.522  12.727  0.2129 -0.4692  0.3324
  901MPD2    H713209   3.506   4.459  12.685  2.1477 -1.7951 -0.8135
  902MPD2     C13210   2.835   3.690  12.178  0.0290  0.1240 -0.5758
  902MPD2    C113211   2.713   3.735  12.131  0.4097 -0.0654 -0.2104
  902MPD2    C213212   2.660   3.665  12.023 -0.6046  0.5524 -0.1847
  902MPD2    C313213   2.720   3.547  11.967 -0.3653  0.4337  0.0511
  902MPD2    C413214   2.844   3.518  12.007  0.1042 -0.1980  0.3838
  902MPD2    C513215   2.897   3.585  12.109  0.2742  0.9218 -0.0153
  902MPD2     H13216   2.569   3.704  11.977 -2.1797 -1.8100  0.9538
  902MPD2    H113217   2.890   3.424  11.979  2.2897  0.8437  0.4488
  902MPD2    H213218   2.883   3.745  12.258  0.8567 -0.5118 -0.6309
  902MPD2    H313219   2.993   3.549  12.145  1.8577  1.7856 -3.3657
  902MPD2     N13220   2.670   3.476  11.863  0.6439 -0.5209 -0.4345
  902MPD2    H513221   2.722   3.396  11.830  1.1806 -0.5621  0.5121
  902MPD2    N113222   2.656   3.837  12.209  0.4248  0.4982  0.5497
  902MPD2    H713223   2.716   3.866  12.285  2.0137 -1.0484 -0.1211
  903MPD2     C13224   1.998   3.242  11.241 -0.0895  0.4635  0.0891
  903MPD2    C113225   2.029   3.249  11.377 -0.3709  0.3913  0.1618
  903MPD2    C213226   1.929   3.235  11.460 -0.2446  0.2747 -0.6181
  903MPD2    C313227   1.801   3.190  11.428  0.0128  0.2184  0.3051
  903MPD2    C413228   1.778   3.184  11.290 -0.0644  0.0885  0.0372
  903MPD2    C513229   1.873   3.206  11.197  0.6176  0.2992  0.0456
  903MPD2     H13230   1.948   3.249  11.566 -1.3587  0.1200 -0.3944
  903MPD2    H113231   1.687   3.146  11.245 -1.4400  1.9224  1.2620
  903MPD2    H213232   2.076   3.256  11.166 -1.2277  1.2089 -0.9493
  903MPD2    H313233   1.846   3.196  11.093 -0.7175 -1.0791  0.5227
  903MPD2     N13234   1.703   3.176  11.531  0.1231  0.3293 -0.2582
  903MPD2    H513235   1.743   3.189  11.624 -2.4460 -2.6203  1.2736
  903MPD2    N113236   2.164   3.283  11.421  0.6311 -0.5785 -0.2002
  903MPD2    H713237   2.234   3.278  11.347 -0.9697  2.8830 -1.9527
  904MPD2     C13238   2.317   2.369  14.017  0.1267 -0.3080 -0.6399
  904MPD2    C113239   2.397   2.450  14.088 -0.2579  0.2510 -0.4715
  904MPD2    C213240   2.525   2.425  14.093 -0.1397  0.0527  0.0271
  904MPD2    C313241   2.574   2.305  14.035 -0.8561  0.3596 -0.4748
  904MPD2    C413242   2.491   2.222  13.952  0.4172 -0.0826  0.1057
  904MPD2    C513243   2.363   2.262  13.945 -0.1948 -0.6468  0.0658
  904MPD2     H13244   2.581   2.479  14.168  0.6914  0.1067 -0.6344
  904MPD2    H113245   2.533   2.140  13.895 -0.0034 -0.0725 -0.2148
  904MPD2    H213246   2.215   2.402  13.997 -0.0363 -0.6423 -0.3474
  904MPD2    H313247   2.297   2.227  13.867  1.6881  1.2530 -2.3576
  904MPD2     N13248   2.709   2.270  14.051  0.7388  0.2655  0.1186
  904MPD2    H513249   2.770   2.343  14.085  0.1488 -0.1859  2.1619
  904MPD2    N113250   2.345   2.567  14.156  0.0117 -0.4518 -0.3599
  904MPD2    H713251   2.421   2.622  14.197 -0.6115  0.6461 -0.6671
  905MPD2     C13252   1.866   2.637  13.849  0.1834  0.1480  0.0806
  905MPD2    C113253   1.933   2.742  13.913 -0.7196 -0.4428 -0.2165
  905MPD2    C213254   2.067   2.764  13.880 -0.3342 -0.2605  0.4320
  905MPD2    C313255   2.138   2.674  13.815 -0.1490 -0.5941 -0.0801
  905MPD2    C413256   2.074   2.571  13.750  0.1422 -0.1296 -0.0608
  905MPD2    C513257   1.938   2.554  13.759  0.1564  0.2899  0.0812
  905MPD2     H13258   2.115   2.853  13.920  0.3691  0.5613 -2.2376
  905MPD2    H113259   2.127   2.498  13.691  1.2359 -0.5777  1.4626
  905MPD2    H213260   1.767   2.613  13.884  0.6572  0.2330  1.5077
  905MPD2    H313261   1.888   2.472  13.709  0.9274 -0.6212  0.8064
  905MPD2     N13262   2.281   2.687  13.799  0.9268  0.2821  0.0663
  905MPD2    H513263   2.330   2.610  13.757  0.0594 -0.1417 -0.1740
  905MPD2    N113264   1.858   2.835  13.991 -0.4011  0.6694  0.1607
  905MPD2    H713265   1.758   2.825  13.978 -0.4275  3.9299 -2.1882
  906MPD2     C13266   4.263   2.489  11.956  0.3395 -0.3045  0.0677
  906MPD2    C113267   4.254   2.447  11.827  0.4299 -0.4106 -0.5538
  906MPD2    C213268   4.173   2.345  11.791 -0.1248  0.5242 -0.0001
  906MPD2    C313269   4.103   2.278  11.885 -0.4383 -0.0551 -0.2729
  906MPD2    C413270   4.112   2.317  12.019  0.2663  0.3534  0.0327
  906MPD2    C513271   4.189   2.429  12.053 -0.0513 -0.7832  0.2524
  906MPD2     H13272   4.168   2.330  11.684 -1.2233 -0.5877  0.1988
  906MPD2    H113273   4.051   2.272  12.097  0.0643 -1.7410 -1.3297
  906MPD2    H213274   4.325   2.572  11.986 -1.7377  1.7213 -1.2348
  906MPD2    H313275   4.198   2.452  12.159 -0.0137  0.3582  0.0011
  906MPD2     N13276   4.038   2.163  11.840 -0.6245  1.0281  0.6979
  906MPD2    H513277   4.048   2.132  11.744  1.5801  1.2049  0.8627
  906MPD2    N113278   4.315   2.518  11.722 -0.4523 -0.2335 -0.2220
  906MPD2    H713279   4.318   2.479  11.629  1.3579 -1.0879  0.2041
  907MPD2     C13280   3.559   1.613  15.926  0.7608  0.1175  0.2392
  907MPD2    C113281   3.570   1.478  15.885 -0.3267  0.1172 -0.3173
  907MPD2    C213282   3.613   1.386  15.983 -0.0677 -0.3467 -0.3730
  907MPD2    C313283   3.640   1.425  16.113  0.1775 -0.0929 -0.4222
  907MPD2    C413284   3.638   1.559  16.145 -0.0286 -0.4908 -0.0252
  907MPD2    C513285   3.596   1.650  16.052  0.3580  0.1108 -0.1182
  907MPD2     H13286   3.648   1.287  15.956 -0.8239 -0.9170  0.7104
  907MPD2    H113287   3.653   1.596  16.246 -0.0513 -0.2602 -0.1061
  907MPD2    H213288   3.514   1.694  15.870  0.2678 -0.3763 -0.0827
  907MPD2    H313289   3.580   1.754  16.081  1.7108  0.0118  0.9955
  907MPD2     N13290   3.689   1.329  16.204 -0.7882 -0.1919  0.8869
  907MPD2    H513291   3.678   1.234  16.170 -1.1369  1.4281 -3.5663
  907MPD2    N113292   3.539   1.427  15.760 -0.4998  0.4201 -0.0653
  907MPD2    H713293   3.546   1.328  15.742 -0.3438 -0.0485  2.6526
  908MPD2     C13294   0.966   2.493   9.514 -0.1401 -0.0246 -0.1711
  908MPD2    C113295   0.984   2.426   9.634 -0.1359 -0.4432 -0.5877
  908MPD2    C213296   0.958   2.493   9.748  0.1060  0.4690 -0.1751
  908MPD2    C313297   0.925   2.628   9.753  0.2726 -0.6101  0.1216
  908MPD2    C413298   0.913   2.695   9.632  0.1255  0.0491 -0.9239
  908MPD2    C513299   0.928   2.627   9.516 -0.4298  0.8994 -0.0318
  908MPD2     H13300   0.988   2.448   9.841 -1.8054 -0.6488 -0.1003
  908MPD2    H113301   0.890   2.800   9.617 -0.5056 -0.0244 -0.4764
  908MPD2    H213302   0.971   2.451   9.414  0.6121 -2.4279  0.8676
  908MPD2    H313303   0.918   2.677   9.421 -1.1641 -0.6651 -0.7822
  908MPD2     N13304   0.904   2.691   9.875  0.6156 -0.0022 -0.0162
  908MPD2    H513305   0.906   2.631   9.957  1.1939 -0.4071 -0.3253
  908MPD2    N113306   1.034   2.288   9.643  0.2259 -0.6920 -0.2370
  908MPD2    H713307   1.071   2.261   9.733  1.6355 -0.8592 -0.8562
  909MPD2     C13308   1.651   0.169  11.469  0.0581  0.0928  0.3638
  909MPD2    C113309   1.637   0.305  11.444 -0.7492  1.0140 -0.1807
  909MPD2    C213310   1.547   0.378  11.523 -0.1417  0.0584  0.5114
  909MPD2    C313311   1.490   0.329  11.637  1.2263 -0.7476  0.4201
  909MPD2    C413312   1.514   0.195  11.668 -0.1982 -0.2313  0.6318
  909MPD2    C513313   1.585   0.116  11.579  0.0908  0.8903  0.5496
  909MPD2     H13314   1.537   0.486  11.512 -1.3515 -0.0406  0.6343
  909MPD2    H113315   1.462   0.145  11.750  1.6546  2.2573  3.3412
  909MPD2    H213316   1.722   0.108  11.414 -1.5627 -0.0626 -1.5389
  909MPD2    H313317   1.593   0.010  11.600  2.6919  1.0812  0.4749
  909MPD2     N13318   1.422   0.414  11.731 -0.2444  0.0129  0.3871
  909MPD2    H513319   1.387   0.507  11.709 -1.3694 -0.8690 -1.5910
  909MPD2    N113320   1.710   0.361  11.342 -0.3480 -0.7291 -0.8023
  909MPD2    H713321   1.700   0.460  11.320  2.0279 -0.5171 -0.8981
  910MPD2     C13322   3.253   2.118  15.895  0.3798  0.2009 -0.4625
  910MPD2    C113323   3.209   2.006  15.828 -0.4139  0.2225 -0.5905
  910MPD2    C213324   3.178   2.018  15.691  0.2894  0.3008 -0.2003
  910MPD2    C313325   3.193   2.139  15.628 -0.3706  0.1033 -0.2328
  910MPD2    C413326   3.242   2.243  15.697 -0.4783 -0.3833 -0.0777
  910MPD2    C513327   3.275   2.231  15.827 -0.5552 -0.0225  0.0740
  910MPD2     H13328   3.154   1.927  15.638 -0.2369  0.4563 -0.2237
  910MPD2    H113329   3.257   2.337  15.647  2.1849  0.1052  1.6586
  910MPD2    H213330   3.286   2.113  15.998  0.3270  0.2822 -0.4412
  910MPD2    H313331   3.329   2.314  15.872 -0.0984  0.7378 -1.8810
  910MPD2     N13332   3.171   2.160  15.491 -0.3147 -0.2374 -0.3525
  910MPD2    H513333   3.170   2.258  15.465 -2.8333 -0.3725 -0.7908
  910MPD2    N113334   3.193   1.882  15.893 -0.1981 -0.6824  0.5371
  910MPD2    H713335   3.135   1.820  15.837  0.2162  0.0089 -0.6385
  911MPD2     C13336   0.174   2.402  16.272 -0.1807 -0.2711 -0.3291
  911MPD2    C113337   0.202   2.524  16.322 -0.0832  0.3460  0.2092
  911MPD2    C213338   0.103   2.624  16.317  0.3682 -0.2988  0.3394
  911MPD2    C313339   4.697   2.587  16.275  0.7599  0.4128  0.0350
  911MPD2    C413340   4.679   2.464  16.216 -0.1992  0.1256 -0.0285
  911MPD2    C513341   0.055   2.371  16.217 -0.2043  0.0109  0.1955
  911MPD2     H13342   0.128   2.721  16.359  3.0362 -0.5852 -0.5854
  911MPD2    H113343   4.582   2.435  16.178 -0.8663  0.5980  1.3160
  911MPD2    H213344   0.248   2.323  16.277 -0.9256 -1.1767 -3.5276
  911MPD2    H313345   0.033   2.273  16.177  1.5818 -1.2683  2.3673
  911MPD2     N13346   4.580   2.663  16.270  0.6726  0.7320  0.2837
  911MPD2    H513347   4.501   2.618  16.224  1.4076 -3.1709  2.8306
  911MPD2    N113348   0.338   2.548  16.365 -0.2116  0.2123 -0.0152
  911MPD2    H713349   0.390   2.461  16.364  0.3804  0.5512  1.0430
  912MPD2     C13350   4.447   2.359  15.880  0.6042  0.1567 -0.6267
  912MPD2    C113351   4.364   2.383  15.987  0.6623 -0.1297  0.1010
  912MPD2    C213352   4.352   2.277  16.074 -0.1515  0.5021  0.2277
  912MPD2    C313353   4.399   2.150  16.045  0.2068 -0.1011  0.1271
  912MPD2    C413354   4.471   2.131  15.930 -0.2035  0.3634  0.2031
  912MPD2    C513355   4.496   2.234  15.845  1.1855 -0.1676  0.2828
  912MPD2     H13356   4.284   2.283  16.158  1.1073  0.6312  1.2383
  912MPD2    H113357   4.511   2.033  15.910 -0.1900  0.1740  1.1173
  912MPD2    H213358   4.470   2.437  15.809 -0.0499  1.2712  0.3970
  912MPD2    H313359   4.539   2.230  15.746  0.0495 -3.8734 -0.0951
  912MPD2     N13360   4.374   2.049  16.142  0.1026  0.4430 -0.2109
  912MPD2    H513361   4.322   2.074  16.226  0.4486 -2.5375  0.8837
  912MPD2    N113362   4.324   2.518  16.006  1.3609  0.1647  0.6021
  912MPD2    H713363   4.366   2.587  15.943 -1.8126  1.8236  0.3033
  913MPD2     C13364   0.967   3.433  11.077 -0.6769  0.0354  0.2692
  913MPD2    C113365   0.967   3.570  11.055 -0.2028  0.2999  0.0035
  913MPD2    C213366   0.964   3.619  10.929 -0.5479  0.0473  0.2582
  913MPD2    C313367   0.971   3.537  10.815  0.2521 -0.3207  0.4630
  913MPD2    C413368   0.972   3.403  10.836  0.1259  0.0391  0.1845
  913MPD2    C513369   0.964   3.351  10.966  0.4127 -0.2578  0.1588
  913MPD2     H13370   0.943   3.724  10.912  2.7004  0.8487  1.3071
  913MPD2    H113371   0.977   3.331  10.755  1.5283 -0.4772  0.7447
  913MPD2    H213372   0.990   3.402  11.178  2.9665  0.9237 -0.2945
  913MPD2    H313373   0.977   3.244  10.971 -1.2956 -0.4818 -0.1227
  913MPD2     N13374   0.976   3.590  10.684  0.3027 -0.1852  0.1788
  913MPD2    H513375   0.976   3.514  10.616 -1.5023  0.3281 -0.4149
  913MPD2    N113376   0.978   3.644  11.173  0.0698 -0.9490  0.0939
  913MPD2    H713377   0.988   3.590  11.258 -1.1294 -0.7072  0.3929
  914MPD2     C13378   3.176   4.083  12.127 -0.5681 -0.2441 -0.1296
  914MPD2    C113379   3.158   4.193  12.204  0.0147  0.4395  0.2109
  914MPD2    C213380   3.246   4.216  12.310  0.2971  0.0289 -0.0725
  914MPD2    C313381   3.351   4.129  12.328 -0.6428  0.0069 -0.1002
  914MPD2    C413382   3.372   4.020  12.249  0.0872  0.1749  0.0505
  914MPD2    C513383   3.283   3.997  12.146 -0.2158  0.2905 -0.5079
  914MPD2     H13384   3.225   4.295  12.380 -2.7861 -1.2825  0.4984
  914MPD2    H113385   3.464   3.963  12.254  0.1065  0.3034  1.4441
  914MPD2    H213386   3.104   4.065  12.048  0.5613  2.1667 -1.7170
  914MPD2    H313387   3.293   3.919  12.072 -0.5219  0.4371 -0.7055
  914MPD2     N13388   3.442   4.169  12.429  0.3133 -0.4974 -0.3295
  914MPD2    H513389   3.424   4.251  12.486  0.0893 -1.3921  0.8977
  914MPD2    N113390   3.069   4.286  12.160  0.1414  0.4604  0.1960
  914MPD2    H713391   3.021   4.254  12.076  0.2750  0.0650  0.2723
  915MPD2     C13392   2.088   4.117  15.473 -0.2057 -0.0906  0.1003
  915MPD2    C113393   2.017   4.204  15.388 -0.2954  0.5376  0.2629
  915MPD2    C213394   1.922   4.285  15.452  0.5602 -0.0828  0.2513
  915MPD2    C313395   1.899   4.282  15.588  1.0905  0.4691 -0.0890
  915MPD2    C413396   1.972   4.195  15.662 -0.3047  0.0255  0.4123
  915MPD2    C513397   2.060   4.112  15.604 -0.3848  0.4679 -0.9890
  915MPD2     H13398   1.858   4.335  15.380  2.2129 -0.7572 -1.6880
  915MPD2    H113399   1.951   4.179  15.767 -1.8397 -2.0998 -0.2249
  915MPD2    H213400   2.148   4.039  15.428 -1.3423 -1.1040  0.3380
  915MPD2    H313401   2.093   4.026  15.660  0.5827  0.7858 -1.0676
  915MPD2     N13402   1.800   4.363  15.644  0.4841  0.2875 -0.4842
  915MPD2    H513403   1.740   4.414  15.580 -1.5164  1.2796  2.1755
  915MPD2    N113404   2.043   4.213  15.249 -0.3821 -0.2048 -0.4584
  915MPD2    H713405   2.094   4.136  15.207 -0.8717  0.6041 -2.5565
  916MPD2     C13406   4.228   2.514  15.569 -1.1880  0.1876 -0.1881
  916MPD2    C113407   4.203   2.403  15.646  0.2257 -0.0914  0.1686
  916MPD2    C213408   4.272   2.286  15.626  0.0501 -0.1625 -0.2243
  916MPD2    C313409   4.354   2.274  15.512  0.2784  0.2918  0.0731
  916MPD2    C413410   4.379   2.389  15.433  0.1998 -0.8232 -0.2384
  916MPD2    C513411   4.318   2.512  15.459  0.4028  0.6219 -0.9528
  916MPD2     H13412   4.262   2.199  15.689  0.1260 -1.0321 -1.4130
  916MPD2    H113413   4.439   2.376  15.344 -0.6571  2.7550 -1.3256
  916MPD2    H213414   4.177   2.609  15.581 -0.7608  0.5234 -1.0702
  916MPD2    H313415   4.325   2.596  15.391 -0.1637 -0.0558 -1.8548
  916MPD2     N13416   4.409   2.146  15.481  0.3915 -0.4119  0.1059
  916MPD2    H513417   4.384   2.070  15.544  0.1628 -1.7122 -1.5557
  916MPD2    N113418   4.115   2.421  15.755  0.4069 -0.4193 -0.0984
  916MPD2    H713419   4.094   2.517  15.783  0.0829 -1.0851  1.9101
  917MPD2     C13420   0.179   4.631  11.197  0.0825 -0.0679 -0.3958
  917MPD2    C113421   0.223   4.712  11.299 -0.0714  0.3365 -0.1478
  917MPD2    C213422   0.318   0.089  11.272 -0.4277 -0.5543  0.4722
  917MPD2    C313423   0.381   0.097  11.147 -0.7894 -1.0578 -0.0022
  917MPD2    C413424   0.339   0.006  11.047 -0.3596  0.2946  0.6433
  917MPD2    C513425   0.235   4.640  11.072 -0.3477  0.5792 -0.1496
  917MPD2     H13426   0.357   0.142  11.358 -0.9125 -2.4971  1.8962
  917MPD2    H113427   0.390   0.006  10.952 -0.9419 -0.1215  0.3282
  917MPD2    H213428   0.107   4.552  11.213  1.4346 -1.0952  0.6100
  917MPD2    H313429   0.195   4.575  10.995 -0.5223 -2.0940  2.1912
  917MPD2     N13430   0.485   0.183  11.119  0.4672 -0.2177  0.1185
  917MPD2    H513431   0.517   0.181  11.023  0.5841  0.7294  0.1351
  917MPD2    N113432   0.157   4.693  11.423  0.8720  0.9553 -0.4808
  917MPD2    H713433   0.068   4.644  11.417  1.4019 -0.0038 -0.5484
  918MPD2     C13434   0.390   0.237  12.369  0.8130  0.4958  0.5771
  918MPD2    C113435   0.464   0.243  12.256 -0.7511 -0.1035 -0.2178
  918MPD2    C213436   0.407   0.185  12.148  0.5604 -0.0481  0.4046
  918MPD2    C313437   0.281   0.116  12.152  0.5586 -0.1690  0.1129
  918MPD2    C413438   0.221   0.105  12.276 -0.1281  0.7081  0.3238
  918MPD2    C513439   0.276   0.162  12.383  0.5385 -0.5412  0.1678
  918MPD2     H13440   0.468   0.184  12.059  1.2409 -0.5898  0.8661
  918MPD2    H113441   0.130   0.051  12.298  0.5162  0.0717  1.3804
  918MPD2    H213442   0.418   0.283  12.463  0.6015  0.6641  0.5589
  918MPD2    H313443   0.227   0.153  12.479 -2.9678 -1.3827 -1.7033
  918MPD2     N13444   0.235   0.054  12.033 -0.4181  0.0568 -0.9894
  918MPD2    H513445   0.280   0.095  11.952  3.3939 -1.7775  0.1931
  918MPD2    N113446   0.589   0.302  12.248 -0.7137  0.0613  0.8754
  918MPD2    H713447   0.621   0.291  12.153  5.2361  0.3785  2.8533
  919MPD2     C13448   0.553   4.065  11.579  0.2284 -0.1240 -0.4553
  919MPD2    C113449   0.638   3.966  11.546 -0.2832 -0.3722 -0.1934
  919MPD2    C213450   0.630   3.920  11.412 -0.0923  0.0673 -0.1528
  919MPD2    C313451   0.556   3.991  11.322 -0.1304 -1.0446  0.0673
  919MPD2    C413452   0.457   4.069  11.375  0.1794 -0.4845  0.2188
  919MPD2    C513453   0.446   4.101  11.508  0.5801  0.2323  0.8625
  919MPD2     H13454   0.695   3.844  11.371 -0.6805 -0.8052  0.5339
  919MPD2    H113455   0.381   4.121  11.318 -1.6681 -0.1345  3.0018
  919MPD2    H213456   0.552   4.096  11.683  0.1388 -2.1141  0.1272
  919MPD2    H313457   0.377   4.181  11.533 -0.5532  0.3147 -2.5375
  919MPD2     N13458   0.560   3.979  11.178  0.1994  0.0248  0.3433
  919MPD2    H513459   0.497   4.034  11.122 -1.7748 -1.0695  1.5065
  919MPD2    N113460   0.717   3.903  11.649 -0.1661 -0.6330 -0.5301
  919MPD2    H713461   0.715   3.950  11.739 -0.4783  2.2506 -2.0531
  920MPD2     C13462   0.820   4.412  10.284 -0.7626  0.2753 -0.2419
  920MPD2    C113463   0.709   4.336  10.279  0.3668  0.6852 -0.4717
  920MPD2    C213464   0.675   4.250  10.383 -0.1482  0.7006  0.3317
  920MPD2    C313465   0.764   4.235  10.485  0.4776  1.0846 -0.2775
  920MPD2    C413466   0.882   4.303  10.490  0.0910 -0.2906  0.1940
  920MPD2    C513467   0.911   4.379  10.385  0.1423  0.0353 -0.5559
  920MPD2     H13468   0.593   4.179  10.378  0.8214 -0.4352  0.4334
  920MPD2    H113469   0.951   4.289  10.572 -2.2241 -0.9033  2.0330
  920MPD2    H213470   0.843   4.487  10.209 -1.0020 -1.4777 -2.0652
  920MPD2    H313471   1.001   4.439  10.394  0.5635 -0.6240 -0.4181
  920MPD2     N13472   0.733   4.133  10.576  0.1840  0.0260  0.0464
  920MPD2    H513473   0.664   4.067  10.541  0.5622 -0.7949  0.8659
  920MPD2    N113474   0.625   4.352  10.166 -0.1054 -0.2285  0.2950
  920MPD2    H713475   0.536   4.302  10.169 -0.1789 -0.0264  1.8114
  921MPD2     C13476   0.888   3.322  16.424 -0.1049 -0.4396  0.1545
  921MPD2    C113477   0.970   3.228  16.477 -0.6535 -0.1466  0.0791
  921MPD2    C213478   0.919   3.113  16.527  0.4025  0.5374  0.1302
  921MPD2    C313479   0.784   3.091  16.540  0.2217  0.1435  0.1160
  921MPD2    C413480   0.704   3.191  16.493 -0.1103 -1.3532 -0.0773
  921MPD2    C513481   0.755   3.303  16.427 -0.4870  0.7157  0.3147
  921MPD2     H13482   0.989   3.038  16.561  1.6956  1.2858 -0.8405
  921MPD2    H113483   0.596   3.191  16.492 -0.1316 -2.7624  1.2731
  921MPD2    H213484   0.922   3.412  16.373 -0.8145 -0.6543 -0.6939
  921MPD2    H313485   0.700   3.374  16.365 -0.8940  1.3423  1.3928
  921MPD2     N13486   0.722   2.969  16.581 -0.2510 -0.3707  0.4169
  921MPD2    H513487   0.621   2.965  16.588 -0.2682 -1.2408 -0.4199
  921MPD2    N113488   1.105   3.252  16.455  0.0186 -0.1709 -0.0737
  921MPD2    H713489   1.136   3.314  16.381  0.0900  0.9546  0.9090
  922MPD2     C13490   2.421   0.303  16.778 -0.1491  0.2838  0.0249
  922MPD2    C113491   2.383   0.366  16.893  0.2201 -0.6358  0.4491
  922MPD2    C213492   2.305   0.297  16.993  0.7663  0.5096  0.2455
  922MPD2    C313493   2.262   0.170  16.963  0.2303 -0.1919 -0.7160
  922MPD2    C413494   2.293   0.108  16.842 -0.1431 -0.4923  0.0820
  922MPD2    C513495   2.372   0.174  16.756 -0.0680  0.7633  0.2163
  922MPD2     H13496   2.270   0.351  17.079  0.2776  0.1868  0.2480
  922MPD2    H113497   2.261   0.009  16.811  0.0896 -1.1326  1.9058
  922MPD2    H213498   2.487   0.351  16.706 -1.4938 -0.9020 -2.0169
  922MPD2    H313499   2.412   0.119  16.671  0.9327 -1.1090  1.9079
  922MPD2     N13500   2.167   0.110  17.054  0.1219  0.2775 -0.0070
  922MPD2    H513501   2.135   0.168  17.130  1.4671 -1.1872  1.6612
  922MPD2    N113502   2.413   0.499  16.918  0.2038 -0.5715  0.1829
  922MPD2    H713503   2.367   0.545  16.996 -1.1291  0.0790 -0.9868
  923MPD2     C13504   4.124   2.576   9.428 -0.3248 -0.3833 -0.2685
  923MPD2    C113505   4.093   2.711   9.447 -0.3759  0.0456 -0.2518
  923MPD2    C213506   4.112   2.755   9.581  0.7551 -0.2536  0.2207
  923MPD2    C313507   4.160   2.671   9.684  0.0897 -0.2669 -0.3076
  923MPD2    C413508   4.188   2.538   9.656  0.1175 -0.6512  0.1793
  923MPD2    C513509   4.167   2.492   9.529 -0.1057  0.8731 -0.0250
  923MPD2     H13510   4.091   2.860   9.601  4.0964  0.4323  0.0953
  923MPD2    H113511   4.224   2.467   9.730  0.5291 -0.4792  0.1462
  923MPD2    H213512   4.117   2.527   9.332 -1.6845 -0.5633 -0.0717
  923MPD2    H313513   4.177   2.386   9.508 -1.1108  0.6691  0.5270
  923MPD2     N13514   4.190   2.714   9.818  0.4275  0.0011  0.0016
  923MPD2    H513515   4.244   2.647   9.871 -0.7527 -0.9367  0.0149
  923MPD2    N113516   4.044   2.783   9.339  0.2311  0.1576  0.3577
  923MPD2    H713517   4.039   2.726   9.255  2.3315 -1.1193  1.1104
  924MPD2     C13518   3.667   0.628  15.933  0.4742  0.0805  0.1137
  924MPD2    C113519   3.610   0.627  16.059 -0.0877  0.3649 -0.7321
  924MPD2    C213520   3.654   0.706  16.162  0.0254 -0.1032 -0.4340
  924MPD2    C313521   3.771   0.781  16.137  0.0023  0.7733 -0.4695
  924MPD2    C413522   3.824   0.793  16.012 -0.1797 -0.0747  0.5247
  924MPD2    C513523   3.764   0.724  15.906  0.2818 -0.1990  0.3373
  924MPD2     H13524   3.604   0.703  16.258  0.2327  0.6765 -0.3022
  924MPD2    H113525   3.914   0.851  15.995 -0.4507  0.2612  0.2240
  924MPD2    H213526   3.631   0.564  15.854  1.3207 -3.1443  2.3378
  924MPD2    H313527   3.810   0.729  15.808  1.1203  1.4518  0.8277
  924MPD2     N13528   3.820   0.874  16.226 -0.3953  0.0236  0.2906
  924MPD2    H513529   3.902   0.929  16.201  0.1171  0.1594  2.2702
  924MPD2    N113530   3.502   0.543  16.075  0.4380  1.0005  0.1203
  924MPD2    H713531   3.454   0.511  15.991  2.0108 -0.1067 -0.3658
  925MPD2     C13532   2.193   2.776  14.607  0.8129  0.1500  0.2221
  925MPD2    C113533   2.106   2.885  14.630  0.2111 -0.4193  0.0950
  925MPD2    C213534   1.991   2.860  14.706 -0.3933 -0.5013  0.0232
  925MPD2    C313535   1.971   2.735  14.755 -0.3754  0.5449 -0.6078
  925MPD2    C413536   2.055   2.629  14.716  0.1283 -0.6761  0.1268
  925MPD2    C513537   2.167   2.651  14.645  0.9488 -0.0843  0.3524
  925MPD2     H13538   1.924   2.942  14.727 -1.1466 -1.0669 -0.1804
  925MPD2    H113539   2.028   2.528  14.748 -2.8796  0.5785  1.6091
  925MPD2    H213540   2.283   2.780  14.547 -0.2601 -1.1810 -1.4613
  925MPD2    H313541   2.234   2.570  14.620  0.5042 -0.1809 -0.5464
  925MPD2     N13542   1.865   2.692  14.835  0.7135 -0.5982 -0.2821
  925MPD2    H513543   1.863   2.592  14.854  0.8816 -0.5593 -0.0675
  925MPD2    N113544   2.128   3.013  14.577 -0.9520  0.2430 -0.2557
  925MPD2    H713545   2.066   3.078  14.625 -1.7932 -0.5804 -0.2400
  926MPD2     C13546   1.142   1.722  13.056 -1.0328  0.0723 -0.0436
  926MPD2    C113547   1.187   1.823  13.135  0.0377 -0.4752 -1.0236
  926MPD2    C213548   1.213   1.940  13.081 -0.5261 -0.3036  0.2499
  926MPD2    C313549   1.205   1.956  12.946  0.7501 -0.2002  0.1422
  926MPD2    C413550   1.158   1.846  12.864 -0.7177 -0.0374 -0.1506
  926MPD2    C513551   1.119   1.728  12.924 -0.0261  0.3098 -0.4167
  926MPD2     H13552   1.244   2.025  13.141  0.6394 -0.9021  0.4984
  926MPD2    H113553   1.157   1.857  12.756  1.4933 -0.4873 -0.2097
  926MPD2    H213554   1.125   1.623  13.097  0.9957  0.3186  1.3963
  926MPD2    H313555   1.081   1.635  12.884 -0.3328 -0.1979  1.0242
  926MPD2     N13556   1.225   2.084  12.884 -0.3275 -0.6581  0.2898
  926MPD2    H513557   1.202   2.083  12.785  1.5071 -3.3134 -0.1228
  926MPD2    N113558   1.207   1.806  13.270 -0.1552 -0.3833  0.5221
  926MPD2    H713559   1.224   1.891  13.322 -0.1797  1.5260 -2.5550
  927MPD2     C13560   0.965   4.490   0.214  0.0859  0.8149 -0.4925
  927MPD2    C113561   0.981   4.352   0.210 -0.9700  0.0817 -0.1913
  927MPD2    C213562   0.989   4.293   0.082 -0.1549  0.2462  0.0644
  927MPD2    C313563   1.000   4.369  17.660  0.6273  0.7381  0.9073
  927MPD2    C413564   0.990   4.508  17.669 -0.2573  0.2562 -0.6120
  927MPD2    C513565   0.974   4.561   0.102  0.3575 -0.1679 -0.3756
  927MPD2     H13566   1.015   4.187   0.077 -0.5959  0.1569 -0.3327
  927MPD2    H113567   1.002   4.570  17.581  1.7097 -1.9388 -1.8825
  927MPD2    H213568   0.950   4.546   0.306 -0.0217  0.2826 -0.1886
  927MPD2    H313569   0.985   4.669   0.112  1.7392 -0.1701 -1.9711
  927MPD2     N13570   1.014   4.299  17.543  0.4532  0.6175 -0.0733
  927MPD2    H513571   1.023   4.199  17.556 -1.3765  0.4266 -0.2758
  927MPD2    N113572   0.964   4.276   0.326 -0.1229 -0.5565 -0.1981
  927MPD2    H713573   0.964   4.325   0.415 -1.4473 -1.7419  0.4570
  928MPD2     C13574   4.225   2.246   1.391  0.7577  0.2257  0.2344
  928MPD2    C113575   4.111   2.194   1.324  0.1837 -0.2520 -0.1120
  928MPD2    C213576   4.100   2.199   1.187  0.4770  0.0324 -0.1765
  928MPD2    C313577   4.201   2.267   1.114 -0.1303 -0.8214 -0.2562
  928MPD2    C413578   4.305   2.315   1.176 -0.0178  0.2575 -0.2769
  928MPD2    C513579   4.318   2.305   1.314  0.5566  0.6428  0.6290
  928MPD2     H13580   4.013   2.163   1.133  0.9447 -3.1942  1.2015
  928MPD2    H113581   4.374   2.377   1.120 -2.4684  2.4079 -0.9033
  928MPD2    H213582   4.213   2.252   1.498  2.7054 -2.1711  0.5846
  928MPD2    H313583   4.407   2.347   1.360 -0.1368  2.0817  0.6833
  928MPD2     N13584   4.193   2.289   0.973  0.5143 -0.0726 -0.3960
  928MPD2    H513585   4.273   2.329   0.924  0.5979 -0.1363 -0.3116
  928MPD2    N113586   4.007   2.140   1.406  0.0884  0.0015  0.2680
  928MPD2    H713587   4.026   2.120   1.504  0.1997 -0.3978  0.1652
  929MPD2     C13588   3.792   2.514   9.454  0.5080 -0.5123 -0.3505
  929MPD2    C113589   3.692   2.575   9.521 -0.4144 -0.3336 -0.0832
  929MPD2    C213590   3.598   2.657   9.453 -0.1866 -0.5079 -0.6628
  929MPD2    C313591   3.607   2.652   9.314  0.4999 -0.6770 -0.9683
  929MPD2    C413592   3.712   2.586   9.245  0.4004 -1.0232 -0.7935
  929MPD2    C513593   3.806   2.512   9.320 -0.6471  0.5734 -0.3896
  929MPD2     H13594   3.509   2.706   9.490  0.9235 -0.1139  1.4925
  929MPD2    H113595   3.717   2.580   9.136  1.5891 -3.4752 -0.6184
  929MPD2    H213596   3.859   2.459   9.518 -0.4910 -1.9354 -0.5326
  929MPD2    H313597   3.883   2.452   9.273 -1.5813 -1.0705  0.2071
  929MPD2     N13598   3.518   2.722   9.231 -0.6503 -0.3769 -0.0760
  929MPD2    H513599   3.509   2.688   9.136 -4.5796 -0.3994  0.2889
  929MPD2    N113600   3.673   2.543   9.658  0.7995  0.4192  0.5603
  929MPD2    H713601   3.737   2.473   9.693 -0.3872 -0.9877 -0.0869
  930MPD2     C13602   0.597   0.158  14.052  0.2753 -0.1039 -0.5546
  930MPD2    C113603   0.680   0.189  13.942  0.1853 -0.0889  0.5731
  930MPD2    C213604   0.656   0.133  13.815  0.4729  0.0118  0.0822
  930MPD2    C313605   0.562   0.034  13.797 -0.1478  1.3721  0.4655
  930MPD2    C413606   0.475   4.722  13.905 -0.1763  0.3195 -0.0681
  930MPD2    C513607   0.493   0.063  14.030 -0.0317 -0.3429  0.0175
  930MPD2     H13608   0.720   0.167  13.735  0.3054  1.3060  0.5060
  930MPD2    H113609   0.407   4.638  13.898  1.2076 -0.9271  1.1919
  930MPD2    H213610   0.614   0.200  14.150 -0.5829 -2.8937  0.8106
  930MPD2    H313611   0.432   0.036  14.115 -1.6074  1.3141 -0.5753
  930MPD2     N13612   0.561   4.694  13.678  0.2947  0.0205  0.3229
  930MPD2    H513613   0.533   4.597  13.664  0.9733 -0.0126 -0.8678
  930MPD2    N113614   0.786   0.277  13.965  0.8283 -0.5495 -0.2772
  930MPD2    H713615   0.800   0.303  14.062  0.5132  0.8539 -0.6112
  931MPD2     C13616   0.914   3.478   0.714 -0.2602 -0.1061 -0.2313
  931MPD2    C113617   0.933   3.586   0.806  0.7805  0.0551 -0.2176
  931MPD2    C213618   0.992   3.558   0.931  0.4428  0.6698  0.1166
  931MPD2    C313619   1.026   3.429   0.959  0.0904 -0.3714 -0.0365
  931MPD2    C413620   1.004   3.325   0.870 -0.4703  0.9481  0.0470
  931MPD2    C513621   0.946   3.352   0.752  0.2224 -0.3603 -0.6755
  931MPD2     H13622   1.012   3.640   1.000 -0.7763 -1.5887  3.1786
  931MPD2    H113623   1.018   3.220   0.894 -2.6127  0.6688  0.0846
  931MPD2    H213624   0.856   3.488   0.623 -1.9997  2.0796  1.1263
  931MPD2    H313625   0.936   3.276   0.675  1.0396 -0.9393 -0.2161
  931MPD2     N13626   1.066   3.393   1.089 -0.0763 -0.3716  0.3819
  931MPD2    H513627   1.057   3.292   1.096 -0.1377 -0.4648 -1.0328
  931MPD2    N113628   0.910   3.717   0.768  0.1176 -0.3740  0.1872
  931MPD2    H713629   0.906   3.783   0.845 -0.6976 -3.3660  2.7178
  932MPD2     C13630   1.834   3.243  10.823  0.0302  0.2915  0.2339
  932MPD2    C113631   1.948   3.264  10.750 -0.4818  0.4309 -0.1727
  932MPD2    C213632   2.008   3.155  10.690 -0.1055 -0.4529 -0.2259
  932MPD2    C313633   1.971   3.029  10.712  0.2775 -0.5568  0.2846
  932MPD2    C413634   1.859   3.011  10.789 -0.5527 -0.2561  0.2480
  932MPD2    C513635   1.790   3.121  10.843 -0.5241  0.2299 -0.6259
  932MPD2     H13636   2.089   3.174  10.620  1.1925  0.2511  1.4642
  932MPD2    H113637   1.826   2.912  10.815 -0.6258 -0.1749  0.4644
  932MPD2    H213638   1.785   3.326  10.874 -1.3380  1.2192 -2.5813
  932MPD2    H313639   1.698   3.114  10.901 -0.4814  1.8784 -0.3756
  932MPD2     N13640   2.046   2.914  10.689 -0.7391  0.4817 -0.3290
  932MPD2    H513641   2.020   2.831  10.741  0.3326  0.6162  0.4126
  932MPD2    N113642   2.007   3.389  10.737  0.3137 -0.6440 -0.9761
  932MPD2    H713643   2.080   3.399  10.667  0.2808 -2.4636 -1.2597
  933MPD2     C13644   3.250   1.922   1.896 -0.8282 -0.0705  0.3025
  933MPD2    C113645   3.297   2.021   1.808  0.2039 -0.0649  0.4737
  933MPD2    C213646   3.221   2.139   1.802 -0.1040 -0.4630  0.1199
  933MPD2    C313647   3.105   2.154   1.871 -0.1795 -0.5870 -1.0275
  933MPD2    C413648   3.055   2.044   1.943 -0.8994 -1.0109  0.0116
  933MPD2    C513649   3.130   1.934   1.961  0.2664 -0.6261 -0.0716
  933MPD2     H13650   3.247   2.226   1.743 -1.9619 -0.1359 -0.2377
  933MPD2    H113651   2.955   2.047   1.983 -2.1829  0.4316 -3.2839
  933MPD2    H213652   3.297   1.825   1.888 -0.1441  0.3237 -0.5906
  933MPD2    H313653   3.084   1.847   2.008 -0.2348 -1.2472 -1.7266
  933MPD2     N13654   3.040   2.279   1.860 -0.5800  0.2798 -0.4252
  933MPD2    H513655   3.079   2.352   1.802 -1.2891  0.0037 -1.2505
  933MPD2    N113656   3.418   1.996   1.740 -0.4855  0.3514 -0.3836
  933MPD2    H713657   3.461   1.906   1.761  0.0309  0.4356 -1.0705
  934MPD2     C13658   3.501   4.552   2.078  0.3706  0.1442  0.0707
  934MPD2    C113659   3.582   4.449   2.026  0.9244 -0.5930  0.0510
  934MPD2    C213660   3.518   4.354   1.945 -0.8440 -0.5661  0.2233
  934MPD2    C313661   3.383   4.364   1.924 -0.4669 -0.6033  0.3422
  934MPD2    C413662   3.307   4.472   1.973 -0.1572  0.0675 -0.0937
  934MPD2    C513663   3.368   4.564   2.052 -0.3706 -0.1609 -0.5574
  934MPD2     H13664   3.575   4.265   1.921 -0.2059 -0.1426  0.1619
  934MPD2    H113665   3.204   4.486   1.943 -0.0664 -1.1180 -0.9706
  934MPD2    H213666   3.550   4.637   2.124  0.4833  0.9427 -1.5481
  934MPD2    H313667   3.320   4.649   2.098 -0.1455  0.5795 -1.7222
  934MPD2     N13668   3.310   4.270   1.851  0.1299 -0.4893 -0.5251
  934MPD2    H513669   3.212   4.295   1.835  0.6432  1.3188 -0.8253
  934MPD2    N113670   3.719   4.442   2.042  0.3263  0.0284 -0.3764
  934MPD2    H713671   3.757   4.370   1.982  0.0265 -0.6415  0.2344
  935MPD2     C13672   3.971   3.991   1.513  0.0943  0.0250 -0.9759
  935MPD2    C113673   3.901   3.926   1.412  0.7585  0.4218  0.5747
  935MPD2    C213674   3.761   3.909   1.427  0.3008  0.0857 -0.4833
  935MPD2    C313675   3.694   3.957   1.532  0.0386  0.6538 -0.2325
  935MPD2    C413676   3.763   4.024   1.635  0.7012  0.5416 -0.8675
  935MPD2    C513677   3.901   4.033   1.625 -0.4585 -1.1446  0.6695
  935MPD2     H13678   3.706   3.859   1.348 -0.3442 -0.9348  0.6258
  935MPD2    H113679   3.718   4.081   1.715  1.4884  1.5616 -1.1621
  935MPD2    H213680   4.078   4.009   1.515  0.0308  0.5854 -2.7961
  935MPD2    H313681   3.944   4.080   1.713 -0.0327 -1.2804  0.5314
  935MPD2     N13682   3.556   3.944   1.559  0.6565  0.1313  0.5377
  935MPD2    H513683   3.525   3.985   1.647 -2.2199  1.2319 -0.9769
  935MPD2    N113684   3.972   3.865   1.298 -0.6196  0.0640  0.4853
  935MPD2    H713685   3.926   3.814   1.224 -1.4391  1.0148  0.3252
  936MPD2     C13686   2.687   2.633  12.600 -0.3352  0.0441 -0.4336
  936MPD2    C113687   2.755   2.529  12.657  1.0079  0.1220 -0.9536
  936MPD2    C213688   2.866   2.468  12.594 -0.5540 -0.3216  0.1862
  936MPD2    C313689   2.915   2.522  12.482 -0.4514 -0.5492  0.3556
  936MPD2    C413690   2.848   2.628  12.425 -0.6850 -0.1959 -0.2610
  936MPD2    C513691   2.731   2.677  12.476 -0.3205 -0.1769 -0.2449
  936MPD2     H13692   2.913   2.385  12.645  1.1732  0.6506  0.1674
  936MPD2    H113693   2.888   2.673  12.334  0.4000 -0.0106  0.3062
  936MPD2    H213694   2.609   2.691  12.648  1.1918  0.6185  1.3455
  936MPD2    H313695   2.683   2.762  12.429  2.8131  1.2447 -0.8680
  936MPD2     N13696   3.029   2.460  12.432 -0.0132 -0.0108 -0.1198
  936MPD2    H513697   3.042   2.372  12.480 -0.5337  0.9600  1.7902
  936MPD2    N113698   2.723   2.476  12.791 -0.1637  0.3163  0.1538
  936MPD2    H713699   2.772   2.390  12.811 -0.2799  0.0160 -0.8803
  937MPD2     C13700   1.050   3.191  11.652 -0.2381 -0.5732 -0.1263
  937MPD2    C113701   1.119   3.314  11.651  0.6101 -0.5211  0.1406
  937MPD2    C213702   1.181   3.340  11.532 -0.0727 -0.0626 -0.4348
  937MPD2    C313703   1.186   3.256  11.424 -0.5279 -0.7584  0.0873
  937MPD2    C413704   1.113   3.146  11.432  0.2314  0.5483 -0.1163
  937MPD2    C513705   1.055   3.101  11.546  0.4113  0.4029  0.7853
  937MPD2     H13706   1.240   3.431  11.524 -1.5346  0.8630 -0.6528
  937MPD2    H113707   1.112   3.076  11.349 -0.4508 -1.1730  1.3380
  937MPD2    H213708   0.982   3.166  11.732 -1.2239  0.6725 -0.5739
  937MPD2    H313709   0.997   3.010  11.551  0.8406  0.1119  0.4165
  937MPD2     N13710   1.256   3.304  11.309 -0.0657 -0.0948  0.0282
  937MPD2    H513711   1.291   3.399  11.309  0.3350 -0.2419  0.5399
  937MPD2    N113712   1.074   3.428  11.724 -0.8983  0.0433 -0.7888
  937MPD2    H713713   1.109   3.519  11.694 -1.5225  0.3501 -0.5757
  938MPD2     C13714   2.898   3.245   0.936 -0.5356  0.1217  0.8239
  938MPD2    C113715   2.946   3.353   1.001 -0.3086  0.4301  0.2857
  938MPD2    C213716   2.953   3.356   1.142  0.0951  0.1013  0.0606
  938MPD2    C313717   2.925   3.244   1.214  0.1835  0.3251 -0.2221
  938MPD2    C413718   2.872   3.135   1.142  0.5311 -0.2773 -0.2871
  938MPD2    C513719   2.854   3.134   1.009  0.1706  0.0386 -0.7562
  938MPD2     H13720   2.993   3.440   1.197  0.2018 -0.4695  0.8580
  938MPD2    H113721   2.837   3.058   1.210 -1.7698 -0.8382 -2.0878
  938MPD2    H213722   2.870   3.258   0.832 -0.6088  2.7923  1.1867
  938MPD2    H313723   2.814   3.050   0.953  1.4894  0.6567 -2.6328
  938MPD2     N13724   2.938   3.235   1.356  0.0649 -0.6076 -0.2338
  938MPD2    H513725   2.900   3.153   1.402 -1.8614  0.4053 -0.0055
  938MPD2    N113726   2.986   3.465   0.930  0.0341 -0.1861  0.0910
  938MPD2    H713727   3.007   3.550   0.981  0.2765 -0.1816 -0.0137
  939MPD2     C13728   0.041   4.562   0.732  0.0240 -0.4594 -0.0200
  939MPD2    C113729   0.037   4.684   0.796 -0.0995  0.1754 -0.2495
  939MPD2    C213730   0.137   0.052   0.772 -0.3968  0.1409 -0.9438
  939MPD2    C313731   0.244   0.025   0.680 -0.3246  0.9682  0.0532
  939MPD2    C413732   0.250   4.620   0.626 -0.9246  0.4873 -0.5811
  939MPD2    C513733   0.150   4.529   0.655 -0.0904 -0.6010  0.4815
  939MPD2     H13734   0.125   0.153   0.811  1.5113 -0.1225  0.3487
  939MPD2    H113735   0.332   4.598   0.558  0.4121 -0.5334  1.3542
  939MPD2    H213736   4.685   4.490   0.749  0.0014 -1.3492 -3.7873
  939MPD2    H313737   0.142   4.437   0.597  0.8184 -0.1900 -0.2891
  939MPD2     N13738   0.332   0.132   0.654  0.0046 -0.1723  0.5411
  939MPD2    H513739   0.297   0.225   0.674 -0.3507 -0.3714  0.8438
  939MPD2    N113740   4.644   4.696   0.878 -0.0076  0.4740 -0.6121
  939MPD2    H713741   4.583   4.615   0.867 -0.3148  0.5808  0.3001
  940MPD2     C13742   3.548   1.774  13.318  0.3922 -0.4189  0.1511
  940MPD2    C113743   3.689   1.780  13.319 -0.1797  0.3864  0.2778
  940MPD2    C213744   3.757   1.811  13.202  0.6007 -0.9479  0.3627
  940MPD2    C313745   3.679   1.830  13.085 -0.4893 -0.3897  0.2405
  940MPD2    C413746   3.545   1.831  13.096  0.4079 -0.7096 -0.2775
  940MPD2    C513747   3.479   1.793  13.210 -0.4487 -0.0097  0.3145
  940MPD2     H13748   3.865   1.813  13.197  0.4222  1.8467 -2.0223
  940MPD2    H113749   3.486   1.857  13.009 -0.2343 -0.1013  0.3415
  940MPD2    H213750   3.493   1.746  13.407 -0.7739  1.5375  0.0537
  940MPD2    H313751   3.371   1.808  13.214 -0.5277 -0.3955 -0.3697
  940MPD2     N13752   3.739   1.852  12.959  0.6419  0.0208  0.7011
  940MPD2    H513753   3.674   1.860  12.882  0.7758 -1.3947  0.4341
  940MPD2    N113754   3.752   1.762  13.447 -0.1497 -0.5637  0.5527
  940MPD2    H713755   3.697   1.731  13.526 -0.3272 -0.8948  0.2982
  941MPD2     C13756   2.927   0.744   9.305  0.1789 -0.1956 -0.3053
  941MPD2    C113757   2.993   0.687   9.412 -0.0662  0.6080 -0.1053
  941MPD2    C213758   2.980   0.550   9.430 -0.0736  0.1108  0.2228
  941MPD2    C313759   2.895   0.473   9.354 -0.3655 -0.4705  0.4707
  941MPD2    C413760   2.825   0.530   9.251  0.3397  0.5782 -0.3537
  941MPD2    C513761   2.846   0.667   9.225 -0.5580 -0.5847  0.1076
  941MPD2     H13762   3.044   0.514   9.509  2.2059 -0.2583 -1.7833
  941MPD2    H113763   2.753   0.471   9.195  1.4654 -1.1938  0.0697
  941MPD2    H213764   2.930   0.851   9.285  0.1703 -0.0362  0.5612
  941MPD2    H313765   2.786   0.708   9.145 -0.2711 -1.7295 -0.6911
  941MPD2     N13766   2.868   0.341   9.382 -0.5068  0.3001 -0.6950
  941MPD2    H513767   2.804   0.300   9.316 -1.5722  1.1491 -0.1909
  941MPD2    N113768   3.068   0.766   9.509  0.1077  0.5525  0.1868
  941MPD2    H713769   3.097   0.708   9.588 -2.0253 -0.3166  0.3248
  942MPD2     C13770   4.260   3.323   9.568  0.3454  0.4122 -0.3021
  942MPD2    C113771   4.323   3.291   9.445  0.0786 -0.1967  0.1660
  942MPD2    C213772   4.372   3.165   9.422 -0.3112 -0.1934  0.1904
  942MPD2    C313773   4.374   3.071   9.522  0.2203 -0.2494  0.0120
  942MPD2    C413774   4.322   3.109   9.646 -0.3195  0.0528  0.3713
  942MPD2    C513775   4.257   3.228   9.670  0.5425  0.4599  0.3025
  942MPD2     H13776   4.415   3.154   9.322  1.0339  3.3384  0.4020
  942MPD2    H113777   4.314   3.046   9.734  0.3744  0.0856  0.4549
  942MPD2    H213778   4.238   3.427   9.592 -0.2405  0.3274 -0.4944
  942MPD2    H313779   4.229   3.251   9.773  1.6741 -0.8195  0.8944
  942MPD2     N13780   4.419   2.939   9.503 -0.3944 -0.0512  0.3144
  942MPD2    H513781   4.411   2.880   9.585  0.6307 -0.2142  0.3030
  942MPD2    N113782   4.314   3.380   9.335 -0.7010  0.1992 -0.2931
  942MPD2    H713783   4.341   3.336   9.248 -3.0900 -0.1372 -0.8886
  943MPD2     C13784   1.867   0.254   9.679  0.8119  0.4276 -0.1266
  943MPD2    C113785   1.787   0.236   9.791  0.2004 -0.0929  0.1259
  943MPD2    C213786   1.799   0.336   9.887 -0.1306  0.2798  0.1518
  943MPD2    C313787   1.884   0.445   9.876 -0.4908 -0.2249 -0.7861
  943MPD2    C413788   1.980   0.441   9.777  0.2862  0.1172 -0.6488
  943MPD2    C513789   1.968   0.354   9.669  0.1968 -0.4415 -0.0201
  943MPD2     H13790   1.732   0.329   9.972 -1.6934  1.0982 -1.0019
  943MPD2    H113791   2.050   0.523   9.769 -0.4527  0.8923  0.6020
  943MPD2    H213792   1.855   0.186   9.595 -0.7727  1.3162 -0.6330
  943MPD2    H313793   2.042   0.360   9.590 -0.0372 -0.8282 -0.2643
  943MPD2     N13794   1.889   0.554   9.967  0.4219  0.7298 -0.7058
  943MPD2    H513795   1.969   0.616   9.966  2.3675 -1.7995 -4.5258
  943MPD2    N113796   1.690   0.129   9.789 -0.0448 -0.1488  0.2077
  943MPD2    H713797   1.679   0.071   9.707  1.8161 -1.0338  0.5914
  944MPD2     C13798   1.899   4.402  11.052 -0.7734  0.3646 -0.3088
  944MPD2    C113799   1.900   4.537  11.018 -0.5607  0.7479 -0.5425
  944MPD2    C213800   1.799   4.619  11.064 -1.2289  0.1952  0.2644
  944MPD2    C313801   1.707   4.578  11.154 -0.1181  0.1355  0.3904
  944MPD2    C413802   1.694   4.446  11.188 -0.2102  0.4208 -0.0406
  944MPD2    C513803   1.791   4.360  11.134 -0.0925  0.0700 -0.1216
  944MPD2     H13804   1.803   0.004  11.047  1.5953  0.4593  2.7128
  944MPD2    H113805   1.626   4.401  11.261  0.9111 -0.7072  0.3049
  944MPD2    H213806   1.971   4.330  11.016  0.6950  1.0106  1.3135
  944MPD2    H313807   1.798   4.256  11.161  3.4733  0.3326 -0.0278
  944MPD2     N13808   1.614   4.669  11.203 -0.6829  0.1878  0.8892
  944MPD2    H513809   1.629   0.044  11.178 -2.5650  0.4359  0.7246
  944MPD2    N113810   2.001   4.569  10.929 -0.2083  0.3742 -0.6039
  944MPD2    H713811   2.070   4.498  10.907  0.9865  1.0119  1.0689
    1TCq1    O113812   0.442   0.429  14.837 -0.2221  0.0518 -0.1380
    1TCq1    C113813   0.533   0.513  14.890  0.2309 -0.0305 -0.5142
    1TCq1    O213814   0.592   0.499  14.999 -0.1917  0.1378  0.7149
    1TCq1    C213815   0.485   0.640  14.847 -0.3745  0.2713  0.5473
    1TCq1    C313816   0.476   0.663  14.712 -0.3527  0.1127  0.3970
    1TCq1    C413817   0.439   0.785  14.666 -0.1911  0.3076 -0.8748
    1TCq1    C513818   0.406   0.882  14.762  0.0137  0.6838  0.4521
    1TCq1    C613819   0.417   0.853  14.896 -0.2110 -0.1415  0.1472
    1TCq1    C713820   0.464   0.738  14.938  0.1063 -0.2449 -0.4594
    1TCq1    C813821   0.336   0.935  14.992 -0.4836  0.2711  0.5967
    1TCq1    O413822   0.287   0.884  15.089 -0.3467 -0.3246  0.7490
    1TCq1    C913823   0.443   0.818  14.533  0.4454  0.3555 -0.2300
    1TCq1    O513824   0.395   0.928  14.494  0.2119  0.0561  0.4910
    1TCq1    O613825   0.523   0.742  14.464 -0.1369 -0.5118 -0.5063
    1TCq1    H113826   0.402   0.463  14.754 -0.6184 -0.1934 -0.0436
    1TCq1    H213827   0.507   0.592  14.636 -1.1471  1.3763 -1.1014
    1TCq1    H313828   0.375   0.979  14.728  0.0062  0.2017 -0.9053
    1TCq1    H413829   0.458   0.706  15.041 -1.7131 -1.9743 -1.1031
    2MPD2     C13830   0.014   1.333  15.075 -0.3914  0.0412 -0.6974
    2MPD2    C113831   0.070   1.342  14.946  0.6543  0.0753 -0.6479
    2MPD2    C213832   0.163   1.246  14.898  0.7557  0.1922 -0.1184
    2MPD2    C313833   0.198   1.143  14.982 -0.2666 -0.2795 -0.5800
    2MPD2    C413834   0.137   1.134  15.105 -0.1759  0.1142  0.2517
    2MPD2    C513835   0.047   1.228  15.153 -0.6473  0.9684 -0.8646
    2MPD2     H13836   0.210   1.259  14.801 -3.4910 -0.2935 -2.2440
    2MPD2    H113837   0.168   1.062  15.181 -0.5823 -0.5635 -0.2258
    2MPD2    H213838   4.673   1.409  15.119  1.1395 -0.4245  2.3234
    2MPD2    H313839   0.017   1.212  15.256  0.4884  1.6245 -0.4359
    2MPD2     N13840   0.305   1.057  14.940  0.3509  0.2217  0.3342
    2MPD2    H513841   0.351   1.074  14.851  0.8225  2.0081  0.9132
    2MPD2    N113842   0.038   1.458  14.871 -0.0661 -0.7292 -0.3536
    2MPD2    H713843   4.700   1.523  14.919  1.7751  0.7983 -0.0932
    3TMC2    C113844   0.029   1.613  14.689  0.9612  0.3435  0.2886
    3TMC2    C213845   4.710   1.707  14.777  0.3740 -0.5214 -0.0589
    3TMC2    C313846   4.686   1.829  14.730 -0.3581  0.1439 -0.1619
    3TMC2    C413847   0.048   1.641  14.556 -0.1064 -0.1890  0.3142
    3TMC2    C513848   0.013   1.769  14.506  0.6365 -0.1345  0.8307
    3TMC2    C613849   4.694   1.865  14.593  0.6430  0.4257 -0.1592
    3TMC2     C13850   0.090   1.489  14.742 -0.0288  0.2464 -0.0482
    3TMC2     O13851   0.160   1.427  14.666  0.0142  0.6137 -0.1605
    3TMC2     H13852   4.718   1.693  14.884 -0.9150 -0.1613  0.0866
    3TMC2    H113853   0.084   1.561  14.493  1.2104  0.2138  0.5445
    3TMC2    H213854   4.680   1.967  14.559 -0.4621 -0.1265 -1.3872
    3TMC2    C713855   0.049   1.792  14.368  0.0845  0.0482 -0.0506
    3TMC2    C813856   4.669   1.927  14.826 -0.4180 -0.4069 -0.0091
    3TMC2    O113857   0.129   1.716  14.312 -0.6658  0.1824 -0.4646
    3TMC2    O213858   4.707   2.044  14.817  0.6223 -0.2015  0.6004
    3TMC2    O513859   4.575   1.888  14.916  0.3433 -0.2027 -0.5606
    3TMC2    H513860   4.555   1.793  14.902  0.3474 -0.2125 -0.4981
    4MPD2     C13861   3.678   2.414  13.751 -0.2979  0.1748  0.6001
    4MPD2    C113862   3.770   2.472  13.665  0.5428 -0.3650 -0.1625
    4MPD2    C213863   3.894   2.519  13.709 -0.0592 -0.4682 -0.1357
    4MPD2    C313864   3.928   2.503  13.838  0.2249  0.3422 -0.0017
    4MPD2    C413865   3.844   2.440  13.925 -0.1345 -0.5218  0.3697
    4MPD2    C513866   3.723   2.397  13.881 -0.0747  0.1826 -1.0607
    4MPD2     H13867   3.971   2.556  13.643 -0.7692 -1.1790 -1.3692
    4MPD2    H113868   3.870   2.411  14.026  0.7963 -0.6263  0.1010
    4MPD2    H213869   3.591   2.361  13.714 -0.0724  0.2281 -0.0083
    4MPD2    H313870   3.665   2.338  13.951  1.2525  0.8212  0.5779
    4MPD2     N13871   4.056   2.544  13.875 -0.3985 -0.0511  0.5819
    4MPD2    H513872   4.109   2.576  13.795 -0.4058 -0.7676  0.2905
    4MPD2    N113873   3.727   2.461  13.532  0.1830 -0.7907  0.3016
    4MPD2    H713874   3.639   2.412  13.521  0.2358 -0.7094 -0.5114
    5TCq2    C113875   4.119   2.512  13.999 -0.7574  0.4639 -0.5426
    5TCq2    O213876   4.077   2.464  14.106  0.2659  0.1154  0.0334
    5TCq2    C213877   4.267   2.539  13.993  0.3383  0.1703  0.0558
    5TCq2    C313878   4.314   2.632  13.895  0.3993 -0.3957  0.2509
    5TCq2    C413879   4.442   2.614  13.849 -0.3572  0.6380  0.2641
    5TCq2    C513880   4.524   2.513  13.894 -0.0616 -0.5201 -0.8853
    5TCq2    C613881   4.468   2.431  13.993  0.4248  0.0107  0.2059
    5TCq2    C713882   4.343   2.442  14.045  0.6253  0.1225 -0.4673
    5TCq2    C813883   4.534   2.325  14.060 -0.1347 -0.0950 -0.0154
    5TCq2    O413884   4.481   2.291  14.169 -0.2801 -0.2859 -0.4247
    5TCq2    C913885   4.493   2.693  13.743  0.0171  0.4702 -0.7034
    5TCq2    O513886   4.434   2.804  13.726 -0.4060 -0.7614  0.4808
    5TCq2    O613887   4.614   2.677  13.716 -0.3650 -0.4723 -0.2752
    5TCq2    H213888   4.252   2.712  13.859 -0.1458 -0.9621 -0.0552
    5TCq2    H313889   4.627   2.499  13.864 -0.0291 -1.1432 -0.4800
    5TCq2    H413890   4.291   2.374  14.110 -1.6503  2.1687 -0.1697
    6MPD1     C13891   2.560   3.380  12.300  0.5542 -0.2880 -0.4436
    6MPD1    C113892   2.528   3.363  12.432  0.2083  0.8531  0.9269
    6MPD1    C213893   2.599   3.265  12.500  0.4146 -0.0715  0.3007
    6MPD1    C313894   2.687   3.180  12.434  0.2613  0.2935 -0.0275
    6MPD1    C413895   2.716   3.205  12.301 -0.5295  0.5965  0.2400
    6MPD1    C513896   2.645   3.300  12.229  0.0941 -0.0566 -0.3212
    6MPD1     H13897   2.584   3.256  12.607 -0.2570 -3.0169 -0.0427
    6MPD1    H113898   2.795   3.152  12.249  1.5225  3.8457 -0.0058
    6MPD1    H213899   2.515   3.457  12.238  0.1193 -0.4136 -0.2884
    6MPD1    H313900   2.668   3.309  12.124  1.6926 -0.5873 -0.0182
    6MPD1     N13901   2.763   3.078  12.495  0.3757  0.2384  0.5988
    6MPD1    H513902   2.838   3.039  12.440  0.3837 -0.2260  0.9399
    6MPD1    N113903   2.443   3.456  12.506  0.2789 -0.3345 -0.3888
    6MPD1    H613904   2.382   3.515  12.449 -0.7311 -0.1799  0.8726
    6MPD1    H713905   2.399   3.437  12.595 -0.8247  1.7812 -0.4755
    7MPD2     C13906   2.941   2.598  13.211 -0.9670  0.3020 -0.4232
    7MPD2    C113907   3.022   2.592  13.103  0.0092 -0.1465  0.2694
    7MPD2    C213908   3.141   2.526  13.113  0.0066  0.2221  0.3636
    7MPD2    C313909   3.192   2.470  13.231  0.0450  0.1802 -0.0550
    7MPD2    C413910   3.105   2.470  13.341  0.4809 -0.3651 -0.2989
    7MPD2    C513911   2.982   2.530  13.330 -0.5768 -0.0304  0.1476
    7MPD2     H13912   3.194   2.521  13.018  0.7100  0.4378  0.7407
    7MPD2    H113913   3.117   2.407  13.428 -3.1828 -1.2070 -0.4284
    7MPD2    H213914   2.847   2.651  13.206 -0.3918  1.4460  0.9143
    7MPD2    H313915   2.918   2.520  13.417 -0.7437 -2.0006 -0.2060
    7MPD2     N13916   3.330   2.428  13.236 -0.3985 -0.5836 -0.3125
    7MPD2    H513917   3.360   2.409  13.331 -0.1908 -4.5566 -1.1804
    7MPD2    N113918   3.005   2.661  12.982  0.1845  0.0704  0.0362
    7MPD2    H713919   3.087   2.655  12.923 -0.7289  2.1005 -1.4637
    8TMC3    C113920   3.551   2.379  13.169 -0.1236 -0.3135 -0.8475
    8TMC3    C213921   3.599   2.411  13.288  0.0691 -0.2029 -0.3195
    8TMC3    C313922   3.722   2.477  13.294  0.9462 -0.1121  0.4493
    8TMC3    C413923   3.622   2.400  13.058 -0.4793 -0.0197 -0.0524
    8TMC3    C513924   3.731   2.481  13.064 -0.6713 -0.2386  0.2626
    8TMC3    C613925   3.785   2.524  13.184 -1.1490 -0.1263  0.2036
    8TMC3     C13926   3.415   2.417  13.132  0.0770 -0.9694  0.3310
    8TMC3     O13927   3.399   2.454  13.015  0.6421  0.6316  0.7625
    8TMC3     H13928   3.555   2.364  13.375  1.5979 -1.2916 -0.1338
    8TMC3    H113929   3.592   2.349  12.967 -0.0851 -1.4570  0.6169
    8TMC3    H213930   3.863   2.597  13.203 -0.0815 -1.2566  0.1121
    8TMC3    C713931   3.749   2.563  12.941 -0.4232  0.3728  0.4660
    8TMC3    C813932   3.791   2.498  13.416  0.4191 -0.2233  0.7273
    8TMC3    O113933   3.850   2.635  12.938  0.5509  0.2075  0.4252
    8TMC3    O213934   3.901   2.550  13.413  0.0337  0.2186 -0.4840
    9TMC3    C113935   2.842   2.919  12.641  0.0350  1.3124 -0.0059
    9TMC3    C213936   2.954   2.902  12.576 -0.6044 -0.7019 -0.2818
    9TMC3    C313937   3.065   2.846  12.647 -0.0604  0.0238 -0.4276
    9TMC3    C413938   2.830   2.873  12.769  1.0136 -0.2749  0.3615
    9TMC3    C513939   2.934   2.822  12.838 -0.4157  0.1592  0.6220
    9TMC3    C613940   3.057   2.803  12.774 -0.3934  0.6231  0.1582
    9TMC3     C13941   2.737   3.011  12.611 -0.5439 -0.2733 -0.2181
    9TMC3     O13942   2.643   3.031  12.688 -0.1845 -0.8949  0.4225
    9TMC3     H13943   2.965   2.912  12.469  0.6237 -0.3006 -0.1127
    9TMC3    H113944   2.740   2.882  12.829  1.8496  0.2113  1.5471
    9TMC3    H213945   3.150   2.785  12.826 -0.4542 -0.0774  0.0188
    9TMC3    C713946   2.905   2.756  12.959 -0.3518  0.9186 -0.4377
    9TMC3    C813947   3.198   2.840  12.585 -0.3785 -0.0622  0.7425
    9TMC3    O113948   2.797   2.765  13.013  0.3024 -0.4690  0.5428
    9TMC3    O213949   3.221   2.912  12.488 -0.3446 -0.1938  0.0913
   10MPD2     C13950   3.685   2.726  12.693 -0.5296  0.5160 -0.3320
   10MPD2    C113951   3.596   2.650  12.764  0.3522  0.0709 -0.4191
   10MPD2    C213952   3.466   2.639  12.730 -0.4728  0.5012  0.4429
   10MPD2    C313953   3.412   2.725  12.637 -0.3839 -0.1898  0.0554
   10MPD2    C413954   3.499   2.818  12.580  0.4267  0.5026 -0.1773
   10MPD2    C513955   3.631   2.803  12.592  0.0527  0.1857  0.2504
   10MPD2     H13956   3.410   2.575  12.798 -0.5301  0.5604  0.4514
   10MPD2    H113957   3.457   2.896  12.518  0.7981  0.6726 -0.2119
   10MPD2    H213958   3.792   2.716  12.705 -0.2724 -1.1940 -3.8341
   10MPD2    H313959   3.696   2.864  12.531 -0.1928 -0.0756 -0.2670
   10MPD2     N13960   3.272   2.740  12.641  0.2086  0.2557  0.6395
   10MPD2    H513961   3.226   2.677  12.706  0.6326 -2.1719 -1.4426
   10MPD2    N113962   3.636   2.569  12.873  0.1909  0.3710  0.6381
   10MPD2    H713963   3.556   2.520  12.913  2.4055 -2.9850  0.8842
   11MPD2     C13964   0.118   1.921  14.108  0.2822  0.2042 -0.0044
   11MPD2    C113965   0.034   1.976  14.204 -0.0681 -0.3067 -0.2065
   11MPD2    C213966   4.698   2.093  14.168 -0.4283  0.1587 -0.3367
   11MPD2    C313967   4.722   2.164  14.056 -0.5055 -0.2826  0.2673
   11MPD2    C413968   0.091   2.113  13.967  0.6579 -0.2106  0.0407
   11MPD2    C513969   0.152   1.998  14.002 -0.3472 -0.1073  0.0598
   11MPD2     H13970   4.625   2.135  14.236 -1.1538 -1.4489 -0.1328
   11MPD2    H113971   0.126   2.168  13.880 -1.3823  1.4714  0.2920
   11MPD2    H213972   0.162   1.824  14.128 -0.1706  0.3040  1.4768
   11MPD2    H313973   0.222   1.952  13.933  0.6564  1.4720  0.0307
   11MPD2     N13974   4.644   2.273  13.998 -0.3343 -0.7944  0.0617
   11MPD2    H513975   4.650   2.302  13.901 -0.0235 -1.4777 -0.1234
   11MPD2    N113976   4.721   1.913  14.325 -0.0766  0.0272  0.2768
   11MPD2    H713977   4.659   1.962  14.389  0.1505  0.4297  0.1906
    1MPD1     C13978   1.298   2.611  16.454 -0.4756  0.4669 -0.2080
    1MPD1    C113979   1.208   2.696  16.511 -0.3001 -0.1909  0.7832
    1MPD1    C213980   1.245   2.780  16.620 -0.0835 -0.7077  1.0528
    1MPD1    C313981   1.367   2.767  16.681 -0.4375  0.0741 -0.8575
    1MPD1    C413982   1.453   2.678  16.630  0.3673 -0.0979  0.8984
    1MPD1    C513983   1.417   2.601  16.522  0.1677 -0.4577 -0.0375
    1MPD1     H13984   1.166   2.852  16.639 -0.1436 -0.7512  0.9712
    1MPD1    H113985   1.555   2.669  16.666  1.6343 -2.0476 -3.1868
    1MPD1    H213986   1.272   2.550  16.368  0.2623 -1.3677  0.8630
    1MPD1    H313987   1.493   2.537  16.476  1.7777  0.7935  0.8938
    1MPD1     N13988   1.423   2.862  16.777 -0.7954 -0.0688 -0.0131
    1MPD1    H513989   1.523   2.852  16.788 -0.2995  3.9218 -0.8053
    1MPD1    N113990   1.082   2.725  16.454 -0.4510  0.4260  0.4164
    1MPD1    H613991   1.040   2.646  16.404  0.7774 -0.0794  0.1773
    1MPD1    H713992   1.021   2.773  16.520  0.5218 -0.2977  1.8275
    2MPD1     C13993   1.091   3.724  16.610 -0.1993 -0.2115 -0.8321
    2MPD1    C113994   1.038   3.603  16.631 -0.8621  0.1729 -1.0478
    2MPD1    C213995   1.115   3.494  16.675  0.9095 -0.2542 -0.0180
    2MPD1    C313996   1.235   3.522  16.737  0.3506  0.2105  0.0267
    2MPD1    C413997   1.287   3.645  16.730  0.2811  0.2180  0.6056
    2MPD1    C513998   1.214   3.747  16.670  0.7452  0.1739 -0.1360
    2MPD1     H13999   1.095   3.388  16.669  2.0485 -0.5591  1.5594
    2MPD1    H114000   1.383   3.676  16.769  0.5371 -0.6446  0.6467
    2MPD1    H214001   1.041   3.797  16.547 -0.4520  1.7071  1.6254
    2MPD1    H314002   1.257   3.846  16.656  1.6281 -0.3312 -0.9448
    2MPD1     N14003   1.305   3.411  16.796 -0.2611  0.0534 -0.6062
    2MPD1    H514004   1.259   3.321  16.786 -2.7129  1.1372  0.9190
    2MPD1    N114005   0.907   3.578  16.582  0.1486 -0.1167  0.0533
    2MPD1    H614006   0.840   3.650  16.610 -0.7826 -0.4639 -1.3107
    2MPD1    H714007   0.873   3.494  16.628 -2.7285  0.9561 -0.1418
    3TMC3    C114008   1.468   3.280  16.899  0.4121  0.3150  0.9073
    3TMC3    C214009   1.592   3.258  16.947 -0.3159 -0.2260 -0.9506
    3TMC3    C314010   1.625   3.126  16.975 -0.4147 -0.0342  0.2382
    3TMC3    C414011   1.380   3.179  16.897  0.2090 -0.5040  0.2645
    3TMC3    C514012   1.419   3.046  16.921 -0.7740  0.4677  0.7541
    3TMC3    C614013   1.545   3.018  16.955 -0.2287  0.5355  0.6389
    3TMC3     C14014   1.431   3.413  16.854 -0.6852 -0.8266 -0.0086
    3TMC3     O14015   1.514   3.499  16.882  0.0061 -0.0144  1.0164
    3TMC3     H14016   1.664   3.338  16.940  0.7523 -1.2805 -2.1222
    3TMC3    H114017   1.274   3.200  16.882 -0.2964 -3.7328 -0.9110
    3TMC3    H214018   1.570   2.915  16.978 -0.1992  0.1128 -1.2428
    3TMC3    C714019   1.342   2.954  16.847  0.5222  0.4171  0.4724
    3TMC3    C814020   1.739   3.095  17.060  0.4391 -0.8569 -0.4088
    3TMC3    O114021   1.221   2.971  16.834  0.1930  0.5136  0.4972
    3TMC3    O214022   1.757   2.975  17.070 -0.2093 -0.4176 -0.1743
    4MPD1     C14023   2.110   3.174  17.387 -0.1573  0.5837 -0.1640
    4MPD1    C114024   2.075   3.293  17.337 -0.0120  0.1356 -0.4671
    4MPD1    C214025   1.972   3.299  17.250 -0.7785 -0.5612 -0.3716
    4MPD1    C314026   1.894   3.193  17.220 -0.4992 -0.1067 -0.0377
    4MPD1    C414027   1.924   3.078  17.284 -0.5301  0.3182 -0.0371
    4MPD1    C514028   2.031   3.062  17.372  0.0986 -0.4413 -0.7005
    4MPD1     H14029   1.946   3.392  17.202 -0.0391 -0.2315 -0.1218
    4MPD1    H114030   1.862   2.990  17.271 -1.4917  0.9662  0.1691
    4MPD1    H214031   2.201   3.165  17.445 -0.5515 -1.2667  0.1752
    4MPD1    H314032   2.063   2.974  17.427 -1.2034 -0.5304 -0.0820
    4MPD1     N14033   1.802   3.205  17.115  0.0745 -0.0944 -0.0882
    4MPD1    H514034   1.792   3.298  17.074 -0.1779 -0.1708 -0.1942
    4MPD1    N114035   2.149   3.412  17.364 -0.5112  0.2820  0.4142
    4MPD1    H614036   2.202   3.406  17.451 -0.1182  2.5964  0.3400
    4MPD1    H714037   2.090   3.495  17.365 -1.3559 -0.3048 -0.3178
    1TCq1    O114038   3.312   3.036  10.459 -0.1467  0.1268  0.1807
    1TCq1    C114039   3.210   3.113  10.415  0.0571 -0.0600 -0.0493
    1TCq1    O214040   3.117   3.164  10.481  0.0699 -0.5911  0.0565
    1TCq1    C214041   3.207   3.102  10.271  1.0923  0.3543 -0.4477
    1TCq1    C314042   3.256   2.995  10.203 -0.3316  0.0001  0.0473
    1TCq1    C414043   3.252   3.001  10.068 -0.2890  0.1804 -0.5933
    1TCq1    C514044   3.175   3.099  10.008  0.1427  0.3733  0.5005
    1TCq1    C614045   3.126   3.204  10.080  0.0907 -0.1554  0.2480
    1TCq1    C714046   3.147   3.210  10.212  0.3415 -0.2534 -0.1978
    1TCq1    C814047   3.067   3.313  10.011 -1.1620 -0.0563 -0.2638
    1TCq1    O414048   3.087   3.315   9.890  0.2844 -0.2897  0.9648
    1TCq1    C914049   3.261   2.881   9.995  0.1006  0.2781  0.7483
    1TCq1    O514050   3.289   2.776  10.052  0.0765  0.2176  0.2649
    1TCq1    O614051   3.217   2.879   9.880  0.2827 -0.1022  0.4714
    1TCq1    H114052   3.384   3.013  10.396  0.8850  0.7777  1.1108
    1TCq1    H214053   3.266   2.903  10.259 -1.3862  0.7455  1.4709
    1TCq1    H314054   3.158   3.099   9.901 -2.6810 -0.5859  0.9611
    1TCq1    H414055   3.116   3.291  10.277 -0.1383  0.0640 -0.8250
    2MPD1     C14056   2.916   3.805   9.991 -0.1214 -1.8143  0.5801
    2MPD1    C114057   2.923   3.767  10.119  0.1491 -0.7981 -0.8548
    2MPD1    C214058   2.963   3.639  10.154 -0.7431  0.1647 -0.3755
    2MPD1    C314059   2.980   3.542  10.052  1.0201  0.5603  0.4800
    2MPD1    C414060   2.970   3.576   9.920 -0.9782 -0.2696  0.2930
    2MPD1    C514061   2.935   3.709   9.893  0.0563 -0.1676  0.2130
    2MPD1     H14062   2.966   3.605  10.256 -0.8598  0.8940 -0.1284
    2MPD1    H114063   2.982   3.514   9.831 -0.1155 -0.3603  0.4701
    2MPD1    H214064   2.876   3.902   9.964  0.6159 -1.8336 -0.6052
    2MPD1    H314065   2.917   3.747   9.793 -0.5133  0.0221  0.3847
    2MPD1     N14066   3.027   3.408  10.095  0.6279  0.5001 -0.1876
    2MPD1    H514067   3.037   3.395  10.195  2.1362  3.6100  0.0467
    2MPD1    N114068   2.914   3.862  10.223 -0.4819 -0.5325 -0.1688
    2MPD1    H614069   2.880   3.818  10.308  1.4422 -3.0603 -0.7174
    2MPD1    H714070   2.845   3.934  10.203 -1.8609 -2.2616 -1.5298
    1TCq1    O114071   1.149   4.209   0.894 -0.5017 -0.5460  0.1965
    1TCq1    C114072   1.196   4.101   0.828 -0.3437  0.5699  0.7650
    1TCq1    O214073   1.200   4.090   0.706  0.1614 -0.0360  0.3255
    1TCq1    C214074   1.295   4.029   0.896  0.6637  0.3504  0.6031
    1TCq1    C314075   1.366   4.083   1.004 -0.3553  0.1987 -0.1469
    1TCq1    C414076   1.435   4.000   1.094  0.2412  0.2022  0.9920
    1TCq1    C514077   1.451   3.872   1.058  0.7071 -0.5105 -0.7877
    1TCq1    C614078   1.384   3.817   0.949  0.4436  0.2427  0.0218
    1TCq1    C714079   1.291   3.890   0.877  0.3733  0.1594  0.2923
    1TCq1    C814080   1.402   3.677   0.914 -0.1439 -0.1349 -0.5620
    1TCq1    O414081   1.368   3.649   0.802  0.0137 -0.2473 -0.5984
    1TCq1    C914082   1.536   4.055   1.179  0.5281 -0.3003 -0.0547
    1TCq1    O514083   1.618   3.973   1.233  0.3246  0.3142  0.1566
    1TCq1    O614084   1.535   4.181   1.197 -0.1894  0.2802 -0.0582
    1TCq1    H114085   1.124   4.181   0.985  0.5846 -0.1356  0.6213
    1TCq1    H214086   1.380   4.190   1.012 -0.7383  0.2276  0.1644
    1TCq1    H314087   1.524   3.812   1.112 -0.7253 -1.7126 -0.1535
    1TCq1    H414088   1.227   3.859   0.796  2.0418 -0.4947 -0.7695
    2MPD1     C14089   1.390   3.194   1.047  0.9953 -0.9408  0.5072
    2MPD1    C114090   1.458   3.253   1.153 -0.3996 -0.1026  0.3681
    2MPD1    C214091   1.458   3.389   1.149 -0.7702  0.7929  0.0538
    2MPD1    C314092   1.430   3.451   1.027 -0.1452  0.0286 -0.3244
    2MPD1    C414093   1.393   3.379   0.914 -0.8671  0.8499  0.0368
    2MPD1    C514094   1.365   3.250   0.928  0.1268 -0.1981 -0.3961
    2MPD1     H14095   1.484   3.454   1.232 -3.0754  3.0377 -0.9897
    2MPD1    H114096   1.373   3.427   0.819 -0.0567 -0.4613 -0.8089
    2MPD1    H214097   1.380   3.086   1.042 -0.0679 -0.8233  0.1385
    2MPD1    H314098   1.323   3.205   0.839  0.0282  1.4832 -1.2155
    2MPD1     N14099   1.438   3.592   1.024  0.6878 -0.2718  0.0603
    2MPD1    H514100   1.447   3.638   1.114 -1.2208  0.0615  0.0814
    2MPD1    N114101   1.488   3.180   1.273 -0.2811 -0.1251 -0.6221
    2MPD1    H614102   1.582   3.209   1.298  0.1123 -1.7612 -0.2059
    2MPD1    H714103   1.495   3.080   1.254  2.8000  0.0720 -0.4885
    1MPD1     C14104   0.330   2.179  11.872 -1.1721 -0.1474 -0.1484
    1MPD1    C114105   0.441   2.242  11.938 -0.0833  0.0474 -0.3914
    1MPD1    C214106   0.412   2.346  12.023  0.4209 -0.3888 -0.7078
    1MPD1    C314107   0.288   2.400  12.039  0.2167  0.2328  0.2423
    1MPD1    C414108   0.184   2.352  11.963  0.4975 -0.2613  0.5057
    1MPD1    C514109   0.210   2.248  11.876 -0.0987 -0.3065  0.0664
    1MPD1     H14110   0.485   2.400  12.082 -0.9295  0.5497  0.1148
    1MPD1    H114111   0.085   2.395  11.973  0.4120 -0.4854  0.6229
    1MPD1    H214112   0.327   2.088  11.813  1.8308  0.8354 -1.8370
    1MPD1    H314113   0.129   2.203  11.820 -0.6134  0.3418  0.2922
    1MPD1     N14114   0.280   2.520  12.105 -0.1516 -0.5321 -0.2590
    1MPD1    H514115   0.368   2.557  12.140  0.1525 -1.2091 -0.3059
    1MPD1    N114116   0.561   2.170  11.943 -0.3137 -0.1221  0.0417
    1MPD1    H614117   0.638   2.235  11.958 -0.2572 -0.4076  0.9653
    1MPD1    H714118   0.583   2.123  11.855 -0.9658  2.8256 -1.7153
    2MPD1     C14119   3.816   4.065  11.286 -0.0807  0.1367 -1.0484
    2MPD1    C114120   3.785   3.938  11.299  0.6514  0.7270  0.3331
    2MPD1    C214121   3.873   3.833  11.255 -0.1186 -0.3142 -0.3627
    2MPD1    C314122   3.988   3.868  11.191  0.1230 -0.1927  0.0322
    2MPD1    C414123   4.016   4.002  11.182  0.1630  0.4142 -0.1763
    2MPD1    C514124   3.930   4.099  11.232  1.2285  0.4298  0.3406
    2MPD1     H14125   3.854   3.727  11.270  1.3790 -0.6445 -0.7108
    2MPD1    H114126   4.108   4.034  11.135  0.6166  0.8430  0.9826
    2MPD1    H214127   3.756   4.142  11.333 -0.7302 -1.3949  0.6069
    2MPD1    H314128   3.962   4.203  11.235 -1.4645  1.2025  2.5712
    2MPD1     N14129   4.085   3.780  11.139  0.3343 -0.1776  0.3976
    2MPD1    H514130   4.170   3.815  11.096  0.0356 -0.2307 -0.2365
    2MPD1    N114131   3.665   3.911  11.371 -0.1054  0.6522  0.3645
    2MPD1    H614132   3.623   3.825  11.337  0.1984  0.6359  0.0329
    2MPD1    H714133   3.596   3.985  11.382 -0.9601 -0.2555  1.0925
    3MPD1     C14134   4.100   2.961  10.537  0.2996  0.1738  0.1201
    3MPD1    C114135   3.991   3.010  10.606 -0.3293  1.0290  0.0241
    3MPD1    C214136   4.010   3.121  10.688 -0.6201  0.2056 -0.0175
    3MPD1    C314137   4.133   3.176  10.712 -0.6666  0.3716 -0.1880
    3MPD1    C414138   4.233   3.122  10.637  0.4970  0.2038  0.2445
    3MPD1    C514139   4.223   3.016  10.556 -0.6294  0.3061 -0.2414
    3MPD1     H14140   3.926   3.172  10.735  1.0784  1.6232  1.4975
    3MPD1    H114141   4.338   3.144  10.648  1.3984 -3.5093 -0.7505
    3MPD1    H214142   4.093   2.870  10.478  0.2654  0.2986 -0.0673
    3MPD1    H314143   4.313   2.973  10.513 -1.7013 -0.8560 -1.3076
    3MPD1     N14144   4.149   3.281  10.807 -0.0440  0.0523 -0.0162
    3MPD1    H514145   4.066   3.326  10.843  0.8455 -0.9899  3.3855
    3MPD1    N114146   3.868   2.947  10.592  0.0697  0.1779  0.0635
    3MPD1    H614147   3.835   2.925  10.498 -1.5184 -3.0762  1.3796
    3MPD1    H714148   3.790   2.978  10.649 -1.0550  1.6778 -2.2794
    4MPD2     C14149   4.657   3.326  12.196  0.2185  0.2884  0.2033
    4MPD2    C114150   0.063   3.284  12.170 -0.4782  0.1927 -0.2973
    4MPD2    C214151   0.143   3.357  12.076  0.0413  0.7404  0.3625
    4MPD2    C314152   0.096   3.472  12.012 -0.7161 -0.3630  0.2013
    4MPD2    C414153   4.686   3.504  12.041  0.1609  0.0702  0.5720
    4MPD2    C514154   4.614   3.442  12.133 -0.0817  0.7156 -0.8527
    4MPD2     H14155   0.245   3.324  12.055  0.5789  0.9829  2.5833
    4MPD2    H114156   4.637   3.587  11.989  2.1585  0.2692 -0.9871
    4MPD2    H214157   4.581   3.283  12.260 -2.4264  0.3146 -2.8786
    4MPD2    H314158   4.512   3.472  12.153  0.4006  0.0899  2.5431
    4MPD2     N14159   0.170   3.555  11.925 -0.3232  0.1176  0.1991
    4MPD2    H514160   0.127   3.636  11.883 -0.0573 -0.3184 -0.9016
    4MPD2    N114161   0.111   3.158  12.216 -0.2888  0.4928 -0.1247
    4MPD2    H714162   0.206   3.132  12.193 -0.6918 -1.5480  0.5306
    5TMC3    C114163   0.132   2.940  12.284  0.0793  0.9338 -0.3396
    5TMC3    C214164   0.098   2.824  12.211 -0.5914 -0.2846 -0.4163
    5TMC3    C314165   0.197   2.736  12.184  0.2817 -0.1850 -0.8178
    5TMC3    C414166   0.267   2.975  12.298  0.3490  0.0624  0.0884
    5TMC3    C514167   0.362   2.899  12.231  0.2311 -0.0668 -0.1997
    5TMC3    C614168   0.327   2.781  12.173  0.5065  0.0574 -0.4081
    5TMC3     C14169   0.042   3.052  12.276  0.8480 -0.5458 -0.2688
    5TMC3     O14170   4.646   3.030  12.289  0.1970  0.2783 -0.1875
    5TMC3     H14171   4.717   2.790  12.216 -1.5625  2.7828  0.1114
    5TMC3    H114172   0.296   3.051  12.369 -3.8409  0.6934  1.1187
    5TMC3    H214173   0.405   2.725  12.122  1.4306  2.5086 -1.7075
    5TMC3    C714174   0.461   2.981  12.164 -0.6346 -0.0640  0.9127
    5TMC3    C814175   0.167   2.598  12.128 -0.1425 -0.4594 -0.3729
    5TMC3    O114176   0.459   3.096  12.207 -0.4588  0.2375  0.2184
    5TMC3    O214177   0.052   2.559  12.121 -0.0555 -0.0501  0.5401
    6TMC3    C114178   4.181   3.575  11.087 -0.1966 -0.2862  0.0262
    6TMC3    C214179   4.159   3.475  11.000  0.4037 -0.1729 -0.3190
    6TMC3    C314180   4.273   3.427  10.939  0.4245 -0.2440  0.1945
    6TMC3    C414181   4.294   3.640  11.118  0.3904 -0.1125 -0.5350
    6TMC3    C514182   4.407   3.589  11.061 -0.2114 -0.0055  0.3077
    6TMC3    C614183   4.394   3.481  10.977  0.9979 -0.1172 -0.0569
    6TMC3     C14184   4.064   3.645  11.136  1.2078  0.7033  0.3751
    6TMC3     O14185   3.961   3.582  11.135 -0.4332 -0.2669  0.0140
    6TMC3     H14186   4.060   3.433  10.993  0.3998 -0.1293 -0.5216
    6TMC3    H114187   4.309   3.716  11.195 -1.1510 -0.0483 -0.3065
    6TMC3    H214188   4.486   3.437  10.939  1.7680  1.3699  0.0730
    6TMC3    C714189   4.536   3.604  11.120 -0.1234  0.2840  0.1369
    6TMC3    C814190   4.274   3.308  10.859  0.7667  0.6112  0.7605
    6TMC3    O114191   4.545   3.597  11.242 -0.3027 -0.0525 -0.1743
    6TMC3    O214192   4.379   3.252  10.842 -0.8246  0.1860  0.1242
    7MPD2     C14193   0.710   3.129  11.734  0.0059  0.7356 -0.7955
    7MPD2    C114194   0.612   3.203  11.808  0.4348  0.5338  1.0087
    7MPD2    C214195   0.561   3.137  11.921 -0.1511 -0.4831 -0.0375
    7MPD2    C314196   0.588   3.002  11.944 -0.2777 -0.2087  0.5086
    7MPD2    C414197   0.672   2.928  11.859 -0.6862 -0.3769 -0.7048
    7MPD2    C514198   0.731   2.998  11.759  0.0836 -0.2131 -0.6197
    7MPD2     H14199   0.488   3.187  11.983 -0.5206  1.4055 -1.9969
    7MPD2    H114200   0.692   2.826  11.889 -2.0681 -0.8769 -1.5021
    7MPD2    H214201   0.768   3.176  11.656  0.9853  1.1722  0.1996
    7MPD2    H314202   0.800   2.951  11.690  2.1342 -0.2003  1.4028
    7MPD2     N14203   0.534   2.929  12.055 -0.0212 -0.4557  0.1144
    7MPD2    H514204   0.531   2.828  12.045  0.4808 -0.2399 -2.0577
    7MPD2    N114205   0.563   3.332  11.774  0.7597 -0.4375  0.3436
    7MPD2    H714206   0.492   3.367  11.837 -1.1850 -2.2547 -0.8522
    8TMC3    C114207   0.535   3.535  11.663  0.1398 -0.2986 -0.5303
    8TMC3    C214208   0.462   3.554  11.552 -0.1018  0.5158  0.0720
    8TMC3    C314209   0.339   3.610  11.561 -0.4414  0.1502 -0.8080
    8TMC3    C414210   0.490   3.579  11.782  0.5593  0.0176 -0.2286
    8TMC3    C514211   0.357   3.615  11.790 -0.2976 -0.0072 -0.2894
    8TMC3    C614212   0.286   3.643  11.679  0.0435  0.5960 -0.8417
    8TMC3     C14213   0.607   3.407  11.669 -0.2469 -0.1379 -0.6163
    8TMC3     O14214   0.680   3.376  11.575 -0.1308 -0.0151  0.2695
    8TMC3     H14215   0.496   3.510  11.459  0.8599 -2.2804  1.7210
    8TMC3    H114216   0.548   3.556  11.871 -0.7099  1.4776  0.9576
    8TMC3    H214217   0.191   3.694  11.684 -0.3271  0.0008 -1.8220
    8TMC3    C714218   0.300   3.530  11.891 -0.1957  0.7609  0.1371
    8TMC3    C814219   0.241   3.595  11.448 -0.7571 -0.5318 -0.2611
    8TMC3    O114220   0.375   3.435  11.919  0.5655  0.0649  0.2802
    8TMC3    O214221   0.125   3.613  11.476  0.0073 -0.0609 -0.3489
    9MPD2     C14222   0.337   3.577  11.084  0.2883 -0.0575  0.3052
    9MPD2    C114223   0.251   3.589  11.200  0.1544  0.0963  0.9811
    9MPD2    C214224   0.117   3.610  11.188  0.0448 -0.4964  0.8192
    9MPD2    C314225   0.058   3.609  11.057 -0.5632 -0.8557 -0.0781
    9MPD2    C414226   0.139   3.600  10.949 -1.1032 -0.0534 -0.0708
    9MPD2    C514227   0.273   3.575  10.964 -0.3448  0.6902  0.0780
    9MPD2     H14228   0.049   3.611  11.272  0.7372  0.9588  1.3542
    9MPD2    H114229   0.082   3.583  10.858 -0.5247  0.1109 -0.4593
    9MPD2    H214230   0.444   3.562  11.077  0.7041  2.9085  0.5725
    9MPD2    H314231   0.334   3.568  10.875 -2.0002  1.3957 -1.1335
    9MPD2     N14232   4.642   3.608  11.031  0.4717  0.4939  0.0787
    9MPD2    H514233   4.619   3.603  10.932  0.4644 -2.3257  0.2239
    9MPD2    N114234   0.310   3.593  11.327 -0.1600  0.0707 -0.1511
    9MPD2    H714235   0.406   3.562  11.333  0.3771  1.4433 -1.7998
    1MPD1     C14236   4.036   1.768  16.252  0.0875 -0.9421  0.3737
    1MPD1    C114237   3.994   1.646  16.291  0.4146 -0.2725 -0.5937
    1MPD1    C214238   3.994   1.549  16.185 -0.4515  0.0199  1.2181
    1MPD1    C314239   4.045   1.574  16.055  0.0096  0.2378  0.7618
    1MPD1    C414240   4.102   1.697  16.029  0.6075 -0.4187  0.3375
    1MPD1    C514241   4.093   1.790  16.130 -0.3887 -0.1501 -0.1779
    1MPD1     H14242   3.952   1.450  16.196  1.0569 -0.3422  3.8266
    1MPD1    H114243   4.158   1.711  15.937 -1.3158 -2.0036 -1.0926
    1MPD1    H214244   4.046   1.847  16.326 -1.0315 -1.6942  1.3244
    1MPD1    H314245   4.129   1.888  16.101  1.5539 -0.2736  1.8066
    1MPD1     N14246   4.041   1.480  15.945  0.0213  0.5954  0.3523
    1MPD1    H514247   4.082   1.513  15.859 -1.2954 -0.7757 -0.8045
    1MPD1    N114248   3.955   1.616  16.424 -0.1230  0.1536  0.1215
    1MPD1    H614249   3.931   1.705  16.466  0.6422  0.9412 -1.1068
    1MPD1    H714250   3.883   1.545  16.417 -0.6677  0.7602 -0.3817
    2MPD1     C14251   4.108   0.554  15.387  0.3061 -0.1684  0.5023
    2MPD1    C114252   4.145   0.657  15.303  0.5311 -0.4395 -0.3649
    2MPD1    C214253   4.136   0.790  15.349 -0.1211  0.1906 -0.3487
    2MPD1    C314254   4.087   0.814  15.477  0.3340 -0.6884  0.0214
    2MPD1    C414255   4.043   0.708  15.548 -0.1333 -0.3040 -0.0362
    2MPD1    C514256   4.066   0.577  15.509 -0.4998 -0.2663 -0.6546
    2MPD1     H14257   4.161   0.872  15.282  0.7105 -1.0189 -1.5292
    2MPD1    H114258   3.988   0.719  15.641  2.4019  0.6718  1.3730
    2MPD1    H214259   4.104   0.450  15.355  0.2357  0.6048 -1.9836
    2MPD1    H314260   4.022   0.497  15.567 -1.7563 -0.0271 -1.2900
    2MPD1     N14261   4.064   0.946  15.525 -0.6074  0.1371 -0.4135
    2MPD1    H514262   4.063   1.023  15.459  0.2181  2.2609  2.0885
    2MPD1    N114263   4.176   0.625  15.167  0.2287  0.0097  0.1880
    2MPD1    H614264   4.252   0.676  15.123  0.7415 -0.4255  0.5623
    2MPD1    H714265   4.213   0.531  15.156  2.3687  0.6778  1.6268
    3TCq2    C114266   4.056   0.978  15.656 -0.5872  0.8245  0.0837
    3TCq2    O214267   4.064   0.906  15.758  0.4647 -0.0797 -0.2279
    3TCq2    C214268   4.024   1.116  15.667 -0.0905 -0.5754  0.4301
    3TCq2    C314269   3.976   1.194  15.563  0.5932  0.5745 -0.0190
    3TCq2    C414270   3.949   1.325  15.591 -0.2834  0.1134  0.3031
    3TCq2    C514271   3.947   1.376  15.708  0.0949  0.2236  0.2584
    3TCq2    C614272   3.965   1.293  15.815  0.4005 -0.9233 -0.1772
    3TCq2    C714273   4.012   1.164  15.798 -0.1012  0.5740 -0.1889
    3TCq2    C814274   3.991   1.351  15.952  0.2781  0.5532 -0.7398
    3TCq2    O414275   3.975   1.275  16.047 -0.2537  0.2735 -0.7368
    3TCq2    C914276   3.905   1.411  15.477  0.7460  0.3646  0.0774
    3TCq2    O514277   3.887   1.354  15.369 -0.5952 -0.1011  0.7276
    3TCq2    O614278   3.884   1.533  15.504  0.3282 -0.2780 -0.3741
    3TCq2    H214279   3.958   1.167  15.459  1.9657  0.9951 -0.3743
    3TCq2    H314280   3.921   1.481  15.712  0.9941  0.4936 -1.3609
    3TCq2    H414281   4.054   1.108  15.882 -1.4019 -1.8227 -1.1205
    1TCq1    O114282   2.812   1.346  12.956  0.8578  0.4385  0.1759
    1TCq1    C114283   2.806   1.212  12.982  0.5454  0.2486  0.4826
    1TCq1    O214284   2.713   1.137  12.969  0.8107 -0.0609  0.8957
    1TCq1    C214285   2.926   1.156  13.040  0.4468  0.7200 -0.0198
    1TCq1    C314286   2.926   1.025  13.082  0.4043  0.1624 -0.1011
    1TCq1    C414287   3.045   0.964  13.115 -0.3039 -0.2359 -0.5271
    1TCq1    C514288   3.164   1.033  13.121  0.3079 -0.4676 -0.0301
    1TCq1    C614289   3.155   1.167  13.092 -0.1648  0.0535 -0.1600
    1TCq1    C714290   3.039   1.230  13.049  0.5568  0.5279  0.9905
    1TCq1    C814291   3.261   1.253  13.133 -0.0310 -0.2155 -0.2045
    1TCq1    O414292   3.250   1.373  13.102 -0.1793 -0.2155 -0.3006
    1TCq1    C914293   3.046   0.826  13.162  0.1518 -0.3287  0.1769
    1TCq1    O514294   2.936   0.766  13.162  0.0912  0.7998 -0.4752
    1TCq1    O614295   3.158   0.765  13.151 -0.2425  0.4100  0.1248
    1TCq1    H114296   2.894   1.392  12.984 -0.6155  3.0227  0.1911
    1TCq1    H214297   2.833   0.970  13.092 -0.5419  1.9037  0.7551
    1TCq1    H314298   3.263   0.992  13.137  0.4868  0.2272  0.6546
    1TCq1    H414299   3.034   1.338  13.037  2.0172  0.4567 -0.2304
    2MPD2     C14300   3.505   1.374  13.237  0.0280  0.1695 -0.0765
    2MPD2    C114301   3.446   1.259  13.293 -0.1641  0.5300 -0.0278
    2MPD2    C214302   3.500   1.199  13.408  0.8065 -0.1504  0.1619
    2MPD2    C314303   3.608   1.263  13.475 -0.1302  0.1057 -0.4430
    2MPD2    C414304   3.665   1.371  13.419 -0.4443 -0.2580 -0.8105
    2MPD2    C514305   3.616   1.428  13.304 -0.7001  0.7907  0.2499
    2MPD2     H14306   3.449   1.110  13.443 -0.5320  1.0462  1.2351
    2MPD2    H114307   3.749   1.417  13.470  2.0260 -1.1854 -4.0571
    2MPD2    H214308   3.463   1.423  13.150 -0.5176 -0.4216 -0.1487
    2MPD2    H314309   3.685   1.500  13.261 -0.9626  0.0064 -1.4941
    2MPD2     N14310   3.646   1.205  13.598  0.2865 -0.1602  0.3234
    2MPD2    H514311   3.584   1.129  13.624 -1.2661  0.5974 -1.1842
    2MPD2    N114312   3.333   1.195  13.233  0.3801  0.6179  0.5678
    2MPD2    H714313   3.319   1.104  13.274 -0.7153 -0.5062 -2.3183
    3TCq1    O114314   3.420   1.118  14.022  0.1571  0.1169 -0.2484
    3TCq1    C114315   3.521   1.040  14.054  0.0441 -0.0961 -0.0799
    3TCq1    O214316   3.519   0.952  14.138  0.0780 -0.7764 -0.3192
    3TCq1    C214317   3.637   1.099  13.996  0.8188  0.1786  0.1420
    3TCq1    C314318   3.737   1.129  14.074  0.7296 -0.6277 -0.2223
    3TCq1    C414319   3.836   1.214  14.031  0.0208  0.0497 -0.2142
    3TCq1    C514320   3.842   1.269  13.903 -0.5868  0.3103 -0.4421
    3TCq1    C614321   3.739   1.227  13.823  0.5583  0.0020 -0.1517
    3TCq1    C714322   3.636   1.147  13.867 -0.5805  0.2744 -0.1563
    3TCq1    C814323   3.750   1.247  13.679  1.0272 -0.0474 -0.7294
    3TCq1    O414324   3.834   1.326  13.644 -0.1435 -0.4733  0.0452
    3TCq1    C914325   3.935   1.257  14.134 -0.4968 -0.1376 -0.4164
    3TCq1    O514326   3.909   1.211  14.249  0.0424  0.4752  0.0986
    3TCq1    O614327   4.053   1.285  14.095  1.1652  0.2747 -0.0362
    3TCq1    H114328   3.439   1.206  13.983 -0.2083  0.0199 -0.6408
    3TCq1    H214329   3.751   1.093  14.175  1.3727 -1.1883 -0.5137
    3TCq1    H314330   3.929   1.321  13.864  0.0859 -0.4019  0.0758
    3TCq1    H414331   3.548   1.124  13.807 -1.1645 -1.8489  1.5168
    1MPD2     C14332   3.073   2.116  14.816 -0.4285  0.1283 -0.1582
    1MPD2    C114333   2.944   2.097  14.780 -0.2144 -0.2744  0.1314
    1MPD2    C214334   2.888   1.982  14.833  0.5031  0.0708  0.7806
    1MPD2    C314335   2.940   1.907  14.937 -0.3780 -0.1164  0.2690
    1MPD2    C414336   3.065   1.937  14.977  0.4726 -0.7220  0.2840
    1MPD2    C514337   3.135   2.036  14.913  0.1345 -0.1311 -0.6971
    1MPD2     H14338   2.795   1.945  14.792  1.3848 -3.0730  1.5545
    1MPD2    H114339   3.110   1.886  15.061  0.7204  1.5199  1.4993
    1MPD2    H214340   3.136   2.189  14.766  0.0419 -0.0432  0.1905
    1MPD2    H314341   3.235   2.058  14.950  0.2854 -0.0295 -1.1769
    1MPD2     N14342   2.874   1.787  14.999 -0.2283 -0.0807 -0.0797
    1MPD2    H514343   2.921   1.734  15.072  0.1232  0.5326  0.1443
    1MPD2    N114344   2.879   2.163  14.672 -0.2093  0.1604 -0.3438
    1MPD2    H714345   2.930   2.237  14.625  1.0885 -1.1277 -0.9498
    2TMC3    C114346   2.716   2.225  14.516  0.3623  0.3071  0.3986
    2TMC3    C214347   2.608   2.168  14.448 -0.2141  0.3600 -0.2678
    2TMC3    C314348   2.495   2.238  14.420  0.6399 -0.9116 -0.1841
    2TMC3    C414349   2.711   2.356  14.547 -0.2466 -0.9910 -0.5205
    2TMC3    C514350   2.596   2.430  14.524 -0.2010  0.7677  1.4456
    2TMC3    C614351   2.486   2.368  14.465  0.9140  0.1111 -0.5357
    2TMC3     C14352   2.750   2.146  14.629  0.4147  0.4356  0.2982
    2TMC3     O14353   2.665   2.059  14.655  0.9614 -0.1266  0.0337
    2TMC3     H14354   2.615   2.064  14.420 -1.9144 -0.2931  1.7022
    2TMC3    H114355   2.797   2.406  14.590  0.5840 -1.8471 -1.2101
    2TMC3    H214356   2.397   2.422  14.438  0.8876  0.0431 -0.5860
    2TMC3    C714357   2.585   2.576  14.549  0.3614  0.4383 -0.7112
    2TMC3    C814358   2.376   2.167  14.475  0.1579 -0.8131  0.1892
    2TMC3    O114359   2.497   2.630  14.493 -0.1968 -0.4988 -0.0007
    2TMC3    O214360   2.263   2.214  14.460 -0.4182 -0.0636 -0.0852
    3TCq1    O114361   3.435   2.946  15.145  0.1345 -0.8050 -0.8143
    3TCq1    C114362   3.305   2.931  15.104 -0.8978 -0.1662  0.7307
    3TCq1    O214363   3.212   2.876  15.164  0.1540  0.5469 -0.5138
    3TCq1    C214364   3.293   2.992  14.971 -0.7743 -0.0873  0.1124
    3TCq1    C314365   3.393   3.074  14.924  0.3993  0.5960 -0.8595
    3TCq1    C414366   3.366   3.167  14.826 -0.4238  0.0944  0.4747
    3TCq1    C514367   3.233   3.185  14.779  0.4292  0.5847 -0.5132
    3TCq1    C614368   3.131   3.108  14.834  0.0603  0.6645 -0.5100
    3TCq1    C714369   3.163   3.009  14.926 -0.7001  0.1905 -0.1582
    3TCq1    C814370   3.007   3.103  14.760 -0.2116 -0.3099 -0.0008
    3TCq1    O414371   2.985   3.204  14.700  0.0120 -0.0708  0.1858
    3TCq1    C914372   3.478   3.252  14.770 -0.4448 -0.0347 -0.3814
    3TCq1    O514373   3.589   3.193  14.781  1.0558  0.7296 -0.9368
    3TCq1    O614374   3.445   3.343  14.694  0.1003 -0.6272  0.2537
    3TCq1    H114375   3.499   2.973  15.075  1.4219  1.7843  1.3752
    3TCq1    H214376   3.498   3.064  14.948  0.3416  0.1907 -0.7844
    3TCq1    H314377   3.211   3.276  14.726  0.6947  0.0861 -1.4743
    3TCq1    H414378   3.092   2.937  14.963  0.4057 -0.2353  1.1284
    4MPD2     C14379   2.750   3.050  14.637 -0.0053 -1.2674  0.0371
    4MPD2    C114380   2.827   2.954  14.708 -0.2479  0.5125 -0.0876
    4MPD2    C214381   2.806   2.825  14.698 -0.3356  0.7437  0.1413
    4MPD2    C314382   2.704   2.780  14.612  0.1449  0.2524  0.6304
    4MPD2    C414383   2.633   2.865  14.532 -0.2791 -0.3143  0.0842
    4MPD2    C514384   2.659   2.997  14.550 -0.0941 -0.1140  0.5305
    4MPD2     H14385   2.866   2.752  14.750 -1.1965  0.2227  0.4024
    4MPD2    H114386   2.554   2.843  14.462  0.6916  0.0727 -1.1236
    4MPD2    H214387   2.765   3.157  14.643 -2.9853 -0.9003  1.1461
    4MPD2    H314388   2.609   3.066  14.482  0.2356  1.2590  1.6839
    4MPD2     N14389   2.687   2.638  14.610 -0.2483  0.4101  0.1620
    4MPD2    H514390   2.753   2.590  14.671 -0.4267  0.2393  0.2195
    4MPD2    N114391   2.945   2.989  14.778  1.0285  0.3579  0.1724
    4MPD2    H714392   3.000   2.918  14.826 -0.4889 -0.0800  1.2459
    5TMC2    C114393   2.459   1.609  15.069  0.6972  0.1542  0.2327
    5TMC2    C214394   2.446   1.688  15.178 -0.1573 -0.5747 -0.1526
    5TMC2    C314395   2.552   1.737  15.237 -0.8207  0.6400 -0.0152
    5TMC2    C414396   2.577   1.599  15.005  0.6352  0.1810  0.5783
    5TMC2    C514397   2.686   1.658  15.063  0.4076 -0.3186 -1.0046
    5TMC2    C614398   2.677   1.726  15.182  0.4959  0.1788 -0.0060
    5TMC2     C14399   2.349   1.636  14.979 -0.3663 -0.9690  0.7571
    5TMC2     O14400   2.241   1.607  15.026 -0.1397 -0.0170 -0.6330
    5TMC2     H14401   2.351   1.702  15.228 -0.0099 -1.6914  0.4297
    5TMC2    H114402   2.584   1.537  14.916  0.7744  2.1494 -0.7674
    5TMC2    H214403   2.759   1.777  15.231  0.5968 -0.3368  0.3614
    5TMC2    C714404   2.747   1.750  14.967 -0.2162  0.5062  0.0995
    5TMC2    C814405   2.531   1.791  15.372 -0.1956 -0.0716  0.2137
    5TMC2    O114406   2.667   1.769  14.873 -0.0210 -0.0981 -0.0558
    5TMC2    O214407   2.432   1.768  15.440  0.2216  0.1679  0.7392
    5TMC2    O514408   2.619   1.880  15.406  0.1913 -0.3086  0.2523
    5TMC2    H514409   2.663   1.910  15.324  0.9080  0.6860  1.0113
    6MPD2     C14410   2.196   1.981  14.622  0.2485 -0.2107  0.4444
    6MPD2    C114411   2.330   1.973  14.629  0.1002 -0.1044 -0.1056
    6MPD2    C214412   2.394   1.887  14.718 -0.3964  0.3603  0.0667
    6MPD2    C314413   2.324   1.808  14.804 -0.0040  0.4645 -0.5520
    6MPD2    C414414   2.187   1.797  14.784  0.3413  0.2784 -0.0152
    6MPD2    C514415   2.125   1.880  14.691 -0.2399  0.0949  0.7243
    6MPD2     H14416   2.502   1.895  14.729 -0.3676 -0.1631  0.1725
    6MPD2    H114417   2.131   1.731  14.851 -1.7844 -0.3630 -2.4422
    6MPD2    H214418   2.141   2.047  14.556 -0.9079 -1.4731  0.1247
    6MPD2    H314419   2.016   1.876  14.690 -0.2638  0.2218  3.1490
    6MPD2     N14420   2.401   1.738  14.897 -0.2391 -0.5261 -0.4751
    6MPD2    H514421   2.502   1.753  14.897 -0.3137 -0.0176  0.0957
    6MPD2    N114422   2.413   2.060  14.555  0.1442 -0.0983  0.7004
    6MPD2    H714423   2.514   2.050  14.566  0.3275  1.5336  0.4046
  945NH3     N114424   1.276   1.016  11.597  0.0568 -0.1339  0.0162
  945NH3     H214425   1.298   0.937  11.657 -1.7417 -0.8899 -0.3342
  945NH3     H314426   1.337   1.096  11.610 -0.8484  1.1228 -3.5994
  945NH3     H414427   1.181   1.043  11.615 -0.2794 -1.1762 -0.1833
  946SOD     NA14428   0.978   4.612  14.820  0.1798  0.6157  0.0261
  947SOD     NA14429   0.080   2.240  14.717  0.1820  0.2453 -0.0652
  948SOD     NA14430   1.396   3.717   9.835  0.3081 -0.3755 -0.4147
  949SOD     NA14431   2.513   3.091  12.865 -0.0776 -0.0893  0.3045
  950SOD     NA14432   2.044   2.673   1.143 -0.3138 -0.1894  0.7275
  951SOD     NA14433   0.175   2.006  14.979 -0.2359 -0.0760  0.6427
  952SOD     NA14434   1.451   4.651   8.886 -0.4115  0.3965 -0.3931
  953SOD     NA14435   1.061   1.999   2.222 -0.5138 -0.7006 -0.5951
  954SOD     NA14436   3.274   0.511  12.876  0.2159  0.3627  0.1110
  955SOD     NA14437   0.914   0.821  16.443  0.6014 -0.0351 -0.0664
  956SOD     NA14438   2.129   2.358   1.895  0.0271 -0.5757  0.3252
  957SOD     NA14439   2.496   0.410  10.579 -0.3551 -0.0675 -0.5833
  958SOD     NA14440   4.547   3.675   1.420 -0.4241  0.1709 -0.1142
  959SOD     NA14441   0.293   4.394  14.819  0.1229  0.3994 -0.0460
  960SOD     NA14442   4.312   2.872  12.578 -0.4872  0.0062 -0.1102
  961SOD     NA14443   4.051   1.517  11.074  0.1396 -0.0187 -0.5716
  962SOD     NA14444   3.137   1.790  12.133  0.2181  0.2421 -0.5680
  963SOD     NA14445   4.069   1.603   5.809 -0.0353 -0.1845 -0.3317
  964SOD     NA14446   3.005   0.564  13.115  0.4455  0.4188 -0.4107
  965SOD     NA14447   0.662   1.336   0.471  0.1905 -0.0369  0.0365
  966SOD     NA14448   2.786   1.625  14.076  0.6272 -0.3410  0.0628
  967SOD     NA14449   0.662   1.503  13.235 -0.2035 -0.1773  0.1017
  968SOD     NA14450   1.512   1.334   1.173  0.0410  0.3648 -0.4244
  969SOD     NA14451   1.596   0.337  10.150  0.1208  0.1092 -0.2955
  970SOD     NA14452   0.992   0.831  11.246  0.5383 -0.1947  0.3128
  971SOD     NA14453   4.546   3.461  13.285  0.2553 -0.1217  0.2151
  972SOD     NA14454   2.337   2.403   9.811 -0.5270  0.3878 -0.0923
  973SOD     NA14455   2.678   0.610  11.156 -0.1300  0.0780  0.2558
  974SOD     NA14456   1.625   1.319  10.662 -0.0283 -0.0603  0.0565
  975SOD     NA14457   1.438   1.266   9.962  0.3623 -0.5963  0.1886
  976SOD     NA14458   2.835   2.231   0.234 -0.3339 -0.2831 -0.0328
  977SOD     NA14459   3.495   3.021  11.266  0.4536  0.4867 -0.0004
  978SOD     NA14460   3.852   1.122   0.437  0.4995  0.0347  0.3743
  979SOD     NA14461   2.507   4.438  12.790 -0.7554  0.1387  0.3133
  980SOD     NA14462   1.855   0.107  12.562 -0.4704 -0.4267 -0.7191
  981SOD     NA14463   3.908   1.741  15.568 -0.1976 -0.1648 -0.0583
  982SOD     NA14464   4.234   4.237   0.921 -0.0021  0.1383 -0.4308
  983SOD     NA14465   2.298   1.096  10.058 -0.5764 -0.0601 -0.0796
  984SOD     NA14466   3.203   0.939  10.461 -0.8866  0.3045 -0.3625
  985SOD     NA14467   0.054   3.669   1.202 -0.1633  0.4493  0.1358
  986SOD     NA14468   3.242   3.534   0.251 -0.0639 -0.0458  0.3921
  987SOD     NA14469   0.346   1.455  16.639 -0.3863  0.0757 -0.0225
  988SOD     NA14470   2.910   1.163  11.451  0.0851  0.3190 -0.3076
  989SOD     NA14471   1.246   2.893   7.557  0.0144  0.3072  0.3731
  990SOD     NA14472   1.217   0.144   9.398 -0.6686  0.2535  0.3921
  991SOD     NA14473   4.022   1.367  15.200  0.4308 -0.2965 -0.1941
  992SOD     NA14474   2.526   2.173  15.223 -0.1458  0.5564 -0.5866
  993SOD     NA14475   3.859   3.880   2.168  0.0374 -0.0944 -0.4353
  994SOD     NA14476   2.059   2.025  11.225  0.3267 -0.7421 -0.3808
  995SOD     NA14477   0.260   1.082  14.443  0.1860 -0.3361  0.6372
  996SOD     NA14478   0.044   0.537  10.727  0.5112  0.5920 -0.2793
  997SOD     NA14479   1.178   0.600   2.536  0.3017 -0.3104 -0.0330
  998SOD     NA14480   1.136   0.350  13.433 -0.0520 -0.0399 -0.6042
  999SOD     NA14481   3.793   1.110  14.427  0.2466 -0.2055 -0.2537
 1000SOD     NA14482   1.566   4.094  16.527  0.1945  0.4779  0.2192
 1001SOD     NA14483   2.990   1.143  10.445  0.0586  0.2784 -0.1688
 1002SOD     NA14484   4.649   3.875   1.746 -0.1094 -0.0271 -0.6262
 1003SOD     NA14485   2.979   1.647  11.889 -0.2141  0.0640 -0.5219
 1004SOD     NA14486   3.793   4.678  10.811  0.3741  0.2799  0.1059
 1005SOD     NA14487   4.067   2.994  13.189  0.0358 -0.0990  0.0457
 1006SOD     NA14488   2.423   4.398   9.345 -0.1849  0.2097  0.1644
 1007SOD     NA14489   3.346   3.431   6.859  0.4240 -0.0510 -0.1744
 1008SOD     NA14490   3.653   3.246  14.570  0.4956 -0.0738  0.1778
 1009SOD     NA14491   1.495   0.042   9.376  0.4587 -0.1149  0.3614
 1010SOD     NA14492   4.120   1.171  14.278  0.2958 -0.3443  0.0559
 1011SOD     NA14493   3.826   1.610  15.315  0.1097 -0.0909 -0.2238
 1012SOL     OW14494   4.674   3.157   4.654 -0.0858  0.2682 -0.6457
 1012SOL    HW114495   4.691   3.142   4.561  1.7283 -0.8630 -0.1393
 1012SOL    HW214496   0.025   3.209   4.686 -0.5962  0.4364  0.2494
 1013SOL     OW14497   0.565   0.048  11.507 -0.0806  0.0637  0.5817
 1013SOL    HW114498   0.571   0.121  11.446 -0.6695 -2.5699 -2.5911
 1013SOL    HW214499   0.477   0.053  11.544 -0.3744  1.8016 -0.3695
 1014SOL     OW14500   1.459   2.135  17.363  0.8460 -0.5243 -0.7849
 1014SOL    HW114501   1.482   2.215  17.408 -1.0780  0.1877 -1.0777
 1014SOL    HW214502   1.541   2.089  17.381  0.4591 -1.1510 -0.6122
 1015SOL     OW14503   1.735   2.398   7.134  0.0388 -0.1808 -0.0791
 1015SOL    HW114504   1.645   2.371   7.149 -0.0371  1.2331  2.0057
 1015SOL    HW214505   1.767   2.312   7.106 -0.5869 -0.1531 -0.8768
 1016SOL     OW14506   2.629   4.003  13.805  0.1197 -0.3357  0.1875
 1016SOL    HW114507   2.578   3.933  13.846  0.7410  0.2497  1.9791
 1016SOL    HW214508   2.689   3.956  13.747  2.1540  0.7446  1.3923
 1017SOL     OW14509   1.445   2.165   8.182 -0.1928 -0.3529  0.3273
 1017SOL    HW114510   1.445   2.194   8.273  0.1800 -0.6179  0.4082
 1017SOL    HW214511   1.532   2.181   8.146 -0.1838 -1.5498 -0.1720
 1018SOL     OW14512   2.836   3.840   8.852  0.1091 -0.6136 -0.2887
 1018SOL    HW114513   2.912   3.879   8.808 -0.7381  1.0404 -0.3033
 1018SOL    HW214514   2.809   3.916   8.905 -1.9643 -1.1416 -0.6160
 1019SOL     OW14515   3.274   1.510   3.316  0.3404 -0.2571  0.3079
 1019SOL    HW114516   3.322   1.551   3.244 -2.4639  2.3845 -0.0741
 1019SOL    HW214517   3.343   1.500   3.381 -0.3512  3.1445  1.5896
 1020SOL     OW14518   0.255   0.482   1.989  0.1178  0.0083 -0.3308
 1020SOL    HW114519   0.254   0.454   1.897  1.4498 -0.8976 -0.0518
 1020SOL    HW214520   0.184   0.425   2.018 -0.5864 -0.9991 -3.9342
 1021SOL     OW14521   2.506   1.225   6.501 -0.5397  0.1337  0.3985
 1021SOL    HW114522   2.572   1.161   6.474  1.7780  1.3090  3.2728
 1021SOL    HW214523   2.433   1.175   6.464  0.5469  0.3904 -2.1327
 1022SOL     OW14524   4.107   1.363  14.392 -0.2884  0.0468  0.1055
 1022SOL    HW114525   4.149   1.438  14.350  2.7055 -0.7648  1.6351
 1022SOL    HW214526   4.019   1.369  14.356  0.2488 -0.7909 -1.3812
 1023SOL     OW14527   2.675   4.605   3.479  0.3879  0.7087  0.5066
 1023SOL    HW114528   2.616   4.550   3.530  0.4085  1.8483  1.7651
 1023SOL    HW214529   2.629   4.688   3.466 -1.9299 -0.7944 -0.9130
 1024SOL     OW14530   1.194   0.908   8.427  0.3323  0.4599 -0.0298
 1024SOL    HW114531   1.142   0.880   8.503  1.3332 -0.8084  0.1962
 1024SOL    HW214532   1.283   0.909   8.461  0.5833  3.5681 -0.8553
 1025SOL     OW14533   2.124   3.215  15.362  0.4362  0.0809 -0.1611
 1025SOL    HW114534   2.052   3.272  15.391  0.2286 -0.3229  0.1135
 1025SOL    HW214535   2.081   3.130  15.353 -2.1332  1.2338  1.1595
 1026SOL     OW14536   3.796   0.032  16.135 -0.4943 -0.2664  0.4552
 1026SOL    HW114537   3.785   0.093  16.063 -1.3495 -1.5715 -0.5176
 1026SOL    HW214538   3.717   4.700  16.134 -0.0452 -0.8665 -1.7072
 1027SOL     OW14539   3.286   4.353   5.644  0.1765  0.5978 -0.3716
 1027SOL    HW114540   3.350   4.288   5.673 -0.7548 -0.7439 -1.3421
 1027SOL    HW214541   3.354   4.413   5.613 -0.2439  0.4635 -1.5450
 1028SOL     OW14542   0.373   2.605   6.073  0.2606 -0.1552  0.0948
 1028SOL    HW114543   0.359   2.678   6.133  1.3717  1.3979 -1.4948
 1028SOL    HW214544   0.309   2.630   6.007 -1.5159  2.3290  2.7662
 1029SOL     OW14545   1.083   1.566   2.768  0.1240  0.0989 -0.0119
 1029SOL    HW114546   1.061   1.479   2.800  0.0056 -0.3083 -1.2085
 1029SOL    HW214547   1.151   1.587   2.833 -2.4581  2.0773  2.0857
 1030SOL     OW14548   1.993   3.818   3.905 -0.9763  0.0186  0.1213
 1030SOL    HW114549   1.943   3.886   3.860 -2.0794 -1.3839 -0.7367
 1030SOL    HW214550   2.036   3.769   3.836 -1.2358  0.9384 -0.7072
 1031SOL     OW14551   2.425   2.475  10.360  0.4232  0.0306 -0.0331
 1031SOL    HW114552   2.475   2.556  10.369  0.3531 -0.4040  4.4372
 1031SOL    HW214553   2.335   2.509  10.356  0.4633  0.1443  0.0296
 1032SOL     OW14554   2.048   2.209   7.092  0.2032  0.4834  0.2201
 1032SOL    HW114555   1.962   2.172   7.074  0.7121 -0.7839  0.3886
 1032SOL    HW214556   2.103   2.134   7.067  3.2221  2.3004  1.4090
 1033SOL     OW14557   0.772   2.352   3.459  0.7247 -0.3836  0.1899
 1033SOL    HW114558   0.834   2.371   3.388 -1.4870 -1.7797 -2.1525
 1033SOL    HW214559   0.784   2.431   3.511  0.2584  0.4458 -0.9415
 1034SOL     OW14560   4.060   1.659   4.010  0.3608 -0.2113  0.1977
 1034SOL    HW114561   4.129   1.630   4.070  1.7552  0.8033 -0.8854
 1034SOL    HW214562   3.993   1.689   4.071  1.8970 -0.7090  2.1372
 1035SOL     OW14563   0.780   4.600  14.952 -0.5203  0.7637  0.2278
 1035SOL    HW114564   0.722   4.671  14.979 -1.4172  0.4344 -0.8181
 1035SOL    HW214565   0.715   4.532  14.934  1.6644 -1.3317  0.2157
 1036SOL     OW14566   0.297   2.618  14.790  0.0571 -0.4813 -0.0207
 1036SOL    HW114567   0.316   2.648  14.878 -1.1290 -0.3753  0.2039
 1036SOL    HW214568   0.340   2.681  14.732  0.0527  0.1855  0.7092
 1037SOL     OW14569   4.341   3.372  17.044 -0.0969 -0.4133  0.1971
 1037SOL    HW114570   4.425   3.416  17.040  0.1520 -0.9538 -0.5008
 1037SOL    HW214571   4.356   3.291  17.092  1.9829  0.7107  1.4610
 1038SOL     OW14572   4.036   1.520   5.594  0.0777  0.3104 -0.1144
 1038SOL    HW114573   3.975   1.451   5.568 -0.6105  1.2170 -0.8492
 1038SOL    HW214574   4.120   1.503   5.550  0.1748 -1.0696  0.6053
 1039SOL     OW14575   1.965   3.795   2.876 -0.1086  0.3689  0.0115
 1039SOL    HW114576   2.024   3.852   2.925  2.2677 -1.5217 -0.6477
 1039SOL    HW214577   1.906   3.854   2.830 -1.5944 -0.4840  0.8560
 1040SOL     OW14578   4.680   0.875   5.700 -0.1639  0.7706 -0.3689
 1040SOL    HW114579   4.643   0.961   5.721  0.0790  0.7983 -0.0599
 1040SOL    HW214580   4.658   0.826   5.779 -0.6422 -1.8316 -2.1031
 1041SOL     OW14581   3.682   3.214   3.701  0.0376  0.1327 -0.0174
 1041SOL    HW114582   3.656   3.144   3.640  2.6008 -2.9184  2.3744
 1041SOL    HW214583   3.669   3.299   3.659  1.1177  0.3813  0.1327
 1042SOL     OW14584   0.081   0.226  10.149 -0.4156  0.5438 -0.4293
 1042SOL    HW114585   0.020   0.220  10.076  0.8019 -1.1210 -1.3216
 1042SOL    HW214586   0.115   0.314  10.133 -1.7417  1.3774  1.3603
 1043SOL     OW14587   2.024   0.400   7.151  0.8254 -0.5200 -0.5147
 1043SOL    HW114588   2.085   0.356   7.093  2.5465  2.0786 -0.6925
 1043SOL    HW214589   2.076   0.447   7.217 -0.4068  1.3259 -0.8397
 1044SOL     OW14590   4.343   4.040   6.302  0.0349  0.1012 -0.3060
 1044SOL    HW114591   4.276   3.972   6.308  1.5001 -1.3726 -0.9424
 1044SOL    HW214592   4.291   4.096   6.245  0.4957  0.3640 -0.4719
 1045SOL     OW14593   3.147   2.110   5.077  0.0277  0.3894  0.0329
 1045SOL    HW114594   3.130   2.022   5.110 -0.7251  1.0450  1.4123
 1045SOL    HW214595   3.220   2.140   5.131 -0.5583 -1.2884  1.7532
 1046SOL     OW14596   3.775   2.374   7.621  0.4708 -0.2961  0.2087
 1046SOL    HW114597   3.696   2.378   7.568  0.3608 -1.9377  0.2541
 1046SOL    HW214598   3.755   2.297   7.675 -0.4818  0.5821  1.0937
 1047SOL     OW14599   3.465   0.825   7.503  0.4429  0.7490  0.0267
 1047SOL    HW114600   3.457   0.908   7.455 -0.5702  0.4712 -0.3052
 1047SOL    HW214601   3.479   0.862   7.590  1.7404  1.7146 -0.5925
 1048SOL     OW14602   3.294   1.655  17.570 -0.2246 -0.2400  0.0827
 1048SOL    HW114603   3.343   1.608  17.638  0.7492 -1.6590 -1.5966
 1048SOL    HW214604   3.285   1.596  17.495  0.5129  0.1552 -0.3084
 1049SOL     OW14605   3.117   4.401   9.004  0.8478 -0.0173  0.2181
 1049SOL    HW114606   3.060   4.332   8.971 -0.2085  0.4155  1.1446
 1049SOL    HW214607   3.171   4.344   9.059  1.5679  0.0731 -0.3955
 1050SOL     OW14608   0.709   4.347   6.973  0.1185  0.0868 -0.6853
 1050SOL    HW114609   0.628   4.348   6.922  0.3039  1.5684 -0.9547
 1050SOL    HW214610   0.767   4.304   6.910 -0.0139 -0.5776 -0.3529
 1051SOL     OW14611   0.188   3.083   5.404  0.1245  0.0306 -0.4878
 1051SOL    HW114612   0.145   3.079   5.319  1.6778 -1.4345 -1.2309
 1051SOL    HW214613   0.130   3.138   5.456 -1.6457 -1.8248 -0.4769
 1052SOL     OW14614   2.129   1.410   3.576 -0.3094 -0.2488  0.1723
 1052SOL    HW114615   2.100   1.428   3.487  0.5545 -2.3252 -0.5147
 1052SOL    HW214616   2.055   1.434   3.632  0.8935  2.1202  0.7528
 1053SOL     OW14617   4.432   0.563   8.135  0.2999  0.0019  0.0010
 1053SOL    HW114618   4.361   0.616   8.171  0.2576 -0.4050  0.5073
 1053SOL    HW214619   4.452   0.602   8.050 -0.0557 -0.5868 -0.3546
 1054SOL     OW14620   4.150   3.150  13.047 -0.2151  0.1914  0.0959
 1054SOL    HW114621   4.123   3.209  12.977 -1.2368  0.5596  0.7868
 1054SOL    HW214622   4.232   3.109  13.021 -0.2301 -0.6459  1.3142
 1055SOL     OW14623   2.670   1.220   1.911 -0.2210  0.0993  0.2721
 1055SOL    HW114624   2.699   1.311   1.919 -0.3200  0.1255  0.3399
 1055SOL    HW214625   2.732   1.182   1.848 -1.7768 -0.7423 -0.7477
 1056SOL     OW14626   3.600   0.988  10.193  0.1801 -0.5231 -0.1519
 1056SOL    HW114627   3.514   0.965  10.158  0.2922  1.2759 -1.6196
 1056SOL    HW214628   3.647   0.998  10.110  0.3940 -0.3347 -0.0066
 1057SOL     OW14629   0.151   0.280   5.227  0.3916  0.4567 -0.4474
 1057SOL    HW114630   0.240   0.269   5.194  1.2769 -0.3287  2.1332
 1057SOL    HW214631   0.141   0.372   5.202 -0.9256  0.3308 -0.3889
 1058SOL     OW14632   2.068   0.696   6.748 -0.0379  0.0063  0.1049
 1058SOL    HW114633   2.000   0.706   6.814 -0.5673  0.6279 -0.5226
 1058SOL    HW214634   2.079   0.777   6.698  4.2128 -0.8513 -0.3169
 1059SOL     OW14635   3.246   3.621   1.394 -0.5627  0.0751 -0.2859
 1059SOL    HW114636   3.334   3.609   1.429 -0.7181 -1.3166 -0.3600
 1059SOL    HW214637   3.214   3.531   1.404 -0.8457  0.0588 -1.3135
 1060SOL     OW14638   0.925   4.708   7.253  0.2950 -0.1969  0.2090
 1060SOL    HW114639   0.967   4.659   7.325  0.3965 -0.2914  0.0858
 1060SOL    HW214640   0.984   4.719   7.179 -0.8077 -0.1150 -0.6575
 1061SOL     OW14641   1.595   0.616   8.087  0.3154  0.1743  0.0403
 1061SOL    HW114642   1.511   0.594   8.047 -0.5258  1.5927  1.0104
 1061SOL    HW214643   1.639   0.644   8.007  0.5326 -1.4549 -0.4117
 1062SOL     OW14644   3.605   1.055  16.067 -0.2184  0.2720  0.0731
 1062SOL    HW114645   3.539   1.024  16.127  0.9022 -1.8273  0.2303
 1062SOL    HW214646   3.652   0.976  16.039 -3.1642 -0.3692 -3.1427
 1063SOL     OW14647   2.364   1.397   9.447 -0.0519 -0.1473  0.5287
 1063SOL    HW114648   2.456   1.408   9.473  0.0358  0.8636 -0.1865
 1063SOL    HW214649   2.335   1.488   9.444  2.3811  0.6779  1.8350
 1064SOL     OW14650   1.041   0.785   2.449 -0.9292 -0.0461 -0.2387
 1064SOL    HW114651   1.096   0.836   2.390 -0.5332 -0.3795 -0.1634
 1064SOL    HW214652   0.948   0.805   2.437 -1.0226 -0.4947 -0.2889
 1065SOL     OW14653   2.989   1.592   6.330  0.3223  0.4625 -0.2236
 1065SOL    HW114654   2.942   1.575   6.412  0.6315 -1.2547 -0.4228
 1065SOL    HW214655   3.059   1.527   6.330  3.1192  3.4087 -0.1347
 1066SOL     OW14656   4.012   1.278  17.639 -0.2681 -0.0545 -0.1790
 1066SOL    HW114657   4.090   1.287   0.001  1.1700 -1.9346 -1.8794
 1066SOL    HW214658   4.028   1.204  17.579  0.9472  0.3739 -0.3860
 1067SOL     OW14659   0.379   4.477   5.852 -0.1297 -0.4691  0.2533
 1067SOL    HW114660   0.379   4.534   5.928 -0.7350 -0.2933  0.1208
 1067SOL    HW214661   0.330   4.532   5.791 -0.6746  0.2061  1.3093
 1068SOL     OW14662   4.219   4.426   2.755 -0.1898 -0.0866 -0.4074
 1068SOL    HW114663   4.212   4.406   2.849 -0.4319 -1.8491 -0.8027
 1068SOL    HW214664   4.201   4.520   2.750  0.2036  0.0005 -0.1870
 1069SOL     OW14665   2.059   0.123   3.368 -0.1326 -0.3667 -0.1155
 1069SOL    HW114666   2.065   0.198   3.309  2.2295 -0.8466 -0.4642
 1069SOL    HW214667   2.144   0.087   3.347  0.0690 -0.6158  1.1164
 1070SOL     OW14668   3.550   1.158  11.363  0.6086 -0.3072  0.6897
 1070SOL    HW114669   3.532   1.067  11.341 -0.5168  0.5306 -1.8299
 1070SOL    HW214670   3.641   1.164  11.333  0.1026  0.3802 -0.7148
 1071SOL     OW14671   3.162   4.637  12.538  0.4068  0.0854  0.2571
 1071SOL    HW114672   3.125   4.569  12.482 -1.8173  1.6206 -0.1272
 1071SOL    HW214673   3.114   4.612  12.616 -0.4310 -0.0044 -0.2877
 1072SOL     OW14674   4.264   1.240  10.868 -0.2498 -0.4966 -0.2221
 1072SOL    HW114675   4.200   1.299  10.909 -0.2876 -2.6901  2.8310
 1072SOL    HW214676   4.332   1.302  10.843  0.3643 -2.0088 -2.3403
 1073SOL     OW14677   0.963   3.346   4.371  0.2433  0.3427 -0.1681
 1073SOL    HW114678   0.995   3.398   4.297 -0.9029  0.9051 -0.2752
 1073SOL    HW214679   0.931   3.410   4.433  0.7954  0.7797 -0.3386
 1074SOL     OW14680   0.546   1.608   5.191 -0.0064 -0.1145 -0.3554
 1074SOL    HW114681   0.579   1.697   5.184 -0.1147 -0.3022 -3.4264
 1074SOL    HW214682   0.522   1.610   5.098 -1.3208  2.1340  0.0454
 1075SOL     OW14683   3.442   2.223  17.519 -0.6348  0.2900 -0.1175
 1075SOL    HW114684   3.402   2.273  17.591  1.5841  0.7232  0.7994
 1075SOL    HW214685   3.472   2.284  17.453  0.4557 -0.2848 -0.1553
 1076SOL     OW14686   1.249   2.062   7.088  0.2914  0.4296  0.6978
 1076SOL    HW114687   1.343   2.047   7.100  0.4232 -0.4555 -1.6034
 1076SOL    HW214688   1.249   2.089   6.997 -1.9301 -1.8645  0.0204
 1077SOL     OW14689   0.406   0.417   1.703  0.2467  0.0507 -0.5739
 1077SOL    HW114690   0.427   0.387   1.614 -2.9296  2.7862 -2.2310
 1077SOL    HW214691   0.310   0.422   1.709  0.4875 -0.9106  4.1408
 1078SOL     OW14692   4.322   0.034  13.324 -0.4092 -0.5640 -0.3641
 1078SOL    HW114693   4.343   4.673  13.364  0.5696 -0.8037 -1.3649
 1078SOL    HW214694   4.402   0.087  13.335 -1.2639  0.9696 -1.4885
 1079SOL     OW14695   2.611   3.167   4.276 -0.8209 -0.4248 -0.1045
 1079SOL    HW114696   2.598   3.227   4.349  2.4313 -2.2347  1.9678
 1079SOL    HW214697   2.705   3.182   4.264 -0.7468  0.2565  1.2509
 1080SOL     OW14698   2.855   1.039  15.736  0.1794  0.3193 -0.6282
 1080SOL    HW114699   2.949   1.031  15.752  0.0510  2.2824  1.0976
 1080SOL    HW214700   2.813   0.993  15.809  1.5741 -1.1363 -0.7286
 1081SOL     OW14701   0.009   3.440   3.465  0.5288  0.4529 -0.1179
 1081SOL    HW114702   0.050   3.520   3.434  0.1549  1.0980  1.0766
 1081SOL    HW214703   0.031   3.445   3.559 -0.0210  2.6887 -0.1259
 1082SOL     OW14704   0.013   3.618   5.327 -0.4052 -0.1379 -0.8044
 1082SOL    HW114705   0.098   3.614   5.370 -1.9792 -1.4291  2.2063
 1082SOL    HW214706   0.041   3.596   5.238 -0.7810 -1.1919 -0.6748
 1083SOL     OW14707   2.815   2.623   6.225 -0.3634  0.2061  0.4321
 1083SOL    HW114708   2.843   2.539   6.262  2.2409  0.0033 -2.0423
 1083SOL    HW214709   2.720   2.633   6.215 -0.6346  0.2846  3.0023
 1084SOL     OW14710   2.778   3.066   6.889  0.4569 -0.3922 -0.5388
 1084SOL    HW114711   2.696   3.040   6.930  1.5268 -1.3023  1.0296
 1084SOL    HW214712   2.754   3.124   6.817 -0.1448 -0.8676 -0.7189
 1085SOL     OW14713   1.471   0.521   9.113 -0.2534 -0.0489 -0.0255
 1085SOL    HW114714   1.506   0.610   9.124  1.2229 -0.6951  0.4883
 1085SOL    HW214715   1.488   0.482   9.199 -0.2459 -1.1925 -0.5538
 1086SOL     OW14716   3.407   2.604  14.366  0.0855  0.2292 -0.1301
 1086SOL    HW114717   3.449   2.671  14.312 -0.4255  2.6340  2.4684
 1086SOL    HW214718   3.337   2.577  14.305  0.5951 -1.9257  0.2555
 1087SOL     OW14719   4.293   1.068  16.135  0.0658 -0.0483  0.8306
 1087SOL    HW114720   4.372   1.032  16.095  0.3250  2.5954 -1.0209
 1087SOL    HW214721   4.309   1.159  16.158  0.0552  0.9503 -3.2127
 1088SOL     OW14722   2.774   2.555   0.838  0.3740 -0.0623 -0.3686
 1088SOL    HW114723   2.753   2.491   0.906 -0.1234  2.0262  1.4445
 1088SOL    HW214724   2.730   2.632   0.874  3.9488  2.5255 -1.5144
 1089SOL     OW14725   2.881   4.601   8.345 -0.5092  0.9788 -0.6862
 1089SOL    HW114726   2.912   4.641   8.427  3.0837 -3.2588 -0.0015
 1089SOL    HW214727   2.870   4.679   8.290 -1.6483  1.2283 -0.0958
 1090SOL     OW14728   4.422   3.041  12.987 -0.3417  0.4261 -0.1610
 1090SOL    HW114729   4.496   3.101  12.991 -0.1410  0.1564  0.1625
 1090SOL    HW214730   4.458   2.955  13.011 -0.8631  0.7679  1.8170
 1091SOL     OW14731   0.770   2.888   7.106  0.0709 -0.3240 -0.0278
 1091SOL    HW114732   0.812   2.974   7.107 -0.0444 -0.3000  2.2658
 1091SOL    HW214733   0.746   2.881   7.198 -3.6462  1.1255 -0.8598
 1092SOL     OW14734   4.333   1.642  17.297  0.3382  0.2404  0.2108
 1092SOL    HW114735   4.259   1.662  17.240  0.2266 -1.5008 -0.2860
 1092SOL    HW214736   4.315   1.708  17.363  0.5870 -1.8926  2.4000
 1093SOL     OW14737   3.812   3.890   0.828 -0.0127  0.6130 -0.0588
 1093SOL    HW114738   3.898   3.925   0.807  0.2128 -0.1728 -0.4615
 1093SOL    HW214739   3.788   3.936   0.908  0.0954  1.2437 -0.3959
 1094SOL     OW14740   2.285   3.334   4.661  0.2945  0.9782  0.3225
 1094SOL    HW114741   2.267   3.260   4.603 -1.4277  1.0171  0.8077
 1094SOL    HW214742   2.314   3.293   4.743  2.1707  2.3563  0.3567
 1095SOL     OW14743   3.810   3.339   6.936 -0.2465  0.2445  0.0878
 1095SOL    HW114744   3.879   3.405   6.941  0.7390 -0.8885  1.2870
 1095SOL    HW214745   3.755   3.393   6.993 -0.7175  0.3816 -0.5017
 1096SOL     OW14746   2.117   3.513   5.010  0.0508 -0.5731  0.0934
 1096SOL    HW114747   2.084   3.460   4.937 -0.1049 -2.3470  1.4623
 1096SOL    HW214748   2.130   3.443   5.074  0.0100  0.8146  1.6077
 1097SOL     OW14749   4.288   1.516  14.859 -0.1597  0.0270 -0.2548
 1097SOL    HW114750   4.252   1.491  14.774 -2.1811 -1.7432  1.0960
 1097SOL    HW214751   4.234   1.592  14.880  0.1361  0.6808 -1.8493
 1098SOL     OW14752   3.561   3.832   5.122 -0.3558  0.1648  0.0841
 1098SOL    HW114753   3.487   3.873   5.166 -1.1300  0.6811 -1.6912
 1098SOL    HW214754   3.563   3.753   5.176  1.6968 -1.0819 -1.8223
 1099SOL     OW14755   1.677   3.588   0.742 -0.4961  0.2390  0.0429
 1099SOL    HW114756   1.685   3.629   0.828 -1.6477  0.4321  0.0529
 1099SOL    HW214757   1.608   3.636   0.696  0.5788  2.5874  0.8504
 1100SOL     OW14758   1.398   3.426   3.994  0.3249  0.3819  0.1376
 1100SOL    HW114759   1.440   3.342   4.012 -1.7366 -0.7667 -0.5029
 1100SOL    HW214760   1.328   3.395   3.937  0.8447  0.8000 -0.7134
 1101SOL     OW14761   2.997   0.930   3.546  0.1271 -0.0706  0.2214
 1101SOL    HW114762   2.922   0.902   3.495 -1.3454  2.9925  0.7174
 1101SOL    HW214763   3.059   0.886   3.487 -0.6101 -1.8328  0.7583
 1102SOL     OW14764   1.711   1.116   9.385 -0.5858  0.7156  0.2349
 1102SOL    HW114765   1.754   1.151   9.307 -2.7879  3.4542  0.2776
 1102SOL    HW214766   1.772   1.147   9.452  0.2023  2.8501 -1.4829
 1103SOL     OW14767   4.316   0.616   0.302  0.3248 -0.1960 -0.3137
 1103SOL    HW114768   4.326   0.523   0.325  0.6759 -0.4772 -1.5665
 1103SOL    HW214769   4.344   0.652   0.386 -0.6303 -1.2840  0.4773
 1104SOL     OW14770   0.925   2.048   6.288 -0.2536 -0.1952 -0.0476
 1104SOL    HW114771   0.848   1.992   6.299  0.8957 -1.4366  1.4708
 1104SOL    HW214772   0.904   2.093   6.205 -1.8221 -0.3337  0.2742
 1105SOL     OW14773   3.162   3.992   4.950  0.5469 -0.1924  0.2184
 1105SOL    HW114774   3.220   3.919   4.971 -0.0209 -1.0089 -1.1261
 1105SOL    HW214775   3.190   4.013   4.861  1.9421  1.4018  1.0178
 1106SOL     OW14776   3.902   1.970   7.636  0.5441 -0.2022 -0.1708
 1106SOL    HW114777   3.933   1.887   7.672 -0.7499 -1.0550 -1.0374
 1106SOL    HW214778   3.824   1.947   7.587 -0.2148 -0.1953  1.0204
 1107SOL     OW14779   4.493   2.177  15.014  0.4600  0.0871  0.0113
 1107SOL    HW114780   4.535   2.092  14.998 -3.6070 -1.5631 -1.7427
 1107SOL    HW214781   4.502   2.193  15.108  1.2052  0.9061 -0.1960
 1108SOL     OW14782   0.531   0.460  11.478 -0.1297  0.0842 -0.4963
 1108SOL    HW114783   0.533   0.517  11.401  1.5867  0.2918 -0.2967
 1108SOL    HW214784   0.549   0.375  11.438  2.4495  0.2581  0.3415
 1109SOL     OW14785   0.041   4.347  13.236  0.2985  0.8047 -0.0910
 1109SOL    HW114786   0.039   4.375  13.144 -1.2270  1.1951  0.0605
 1109SOL    HW214787   0.103   4.414  13.265 -0.2752  1.4603 -0.3899
 1110SOL     OW14788   1.801   2.453   3.597  0.0211 -0.5796 -0.4882
 1110SOL    HW114789   1.848   2.524   3.553  0.3828  0.3634  1.4521
 1110SOL    HW214790   1.713   2.460   3.558  0.3254  2.3461 -0.6799
 1111SOL     OW14791   3.526   3.099   1.326  0.0659  0.2439  0.4883
 1111SOL    HW114792   3.479   3.182   1.318  0.8910  0.8162  1.5576
 1111SOL    HW214793   3.566   3.116   1.411  1.2187  0.0955 -0.0180
 1112SOL     OW14794   1.608   2.900   6.196  0.4938  0.2052 -0.4870
 1112SOL    HW114795   1.520   2.892   6.231  1.2272 -0.9501  1.0737
 1112SOL    HW214796   1.622   2.994   6.213 -0.1853  0.1892  0.1456
 1113SOL     OW14797   0.089   4.413   2.796 -0.3405 -0.5029 -0.3830
 1113SOL    HW114798   0.100   4.410   2.701 -0.3971  2.5062 -0.4814
 1113SOL    HW214799   0.115   4.502   2.817 -3.2443  0.6832 -1.8732
 1114SOL     OW14800   1.605   1.494  13.648  0.1017 -0.2648 -0.1872
 1114SOL    HW114801   1.655   1.514  13.727 -0.9309  1.2262  0.0947
 1114SOL    HW214802   1.529   1.542  13.683 -0.9539 -0.7523 -1.8266
 1115SOL     OW14803   2.397   4.681   1.964 -0.3291 -0.2708  0.4582
 1115SOL    HW114804   2.309   4.686   2.001 -1.5630 -0.4448 -2.5144
 1115SOL    HW214805   2.384   4.596   1.921 -0.2064 -0.1480  0.1829
 1116SOL     OW14806   4.134   2.196   8.759  0.3589  0.1318 -0.3604
 1116SOL    HW114807   4.089   2.156   8.685  0.4267  0.7020 -0.7105
 1116SOL    HW214808   4.094   2.152   8.834 -0.4016  0.1599 -0.7509
 1117SOL     OW14809   4.650   1.093  14.065 -0.2904 -0.6051  0.3703
 1117SOL    HW114810   4.699   1.098  13.984 -0.3428 -3.6548  0.1586
 1117SOL    HW214811   4.561   1.113  14.034 -0.5477 -2.6886 -0.2460
 1118SOL     OW14812   3.522   4.624   5.864  0.2440  0.0839  0.3157
 1118SOL    HW114813   3.543   4.567   5.938  3.4210 -1.3758 -1.7329
 1118SOL    HW214814   3.466   4.693   5.900  0.2769  0.6950 -0.8053
 1119SOL     OW14815   3.584   1.222  10.317  0.5039  0.2740 -0.3404
 1119SOL    HW114816   3.491   1.244  10.314  0.4302 -0.2413 -1.4812
 1119SOL    HW214817   3.589   1.139  10.271  1.3841  0.2263 -0.1709
 1120SOL     OW14818   1.811   3.238   4.832 -0.3131 -0.2839  0.0756
 1120SOL    HW114819   1.857   3.182   4.895  1.8359  0.1738 -1.0768
 1120SOL    HW214820   1.771   3.303   4.890 -2.4267 -1.1132 -0.4642
 1121SOL     OW14821   4.118   2.895   1.815  0.0150 -0.3897  0.5901
 1121SOL    HW114822   4.152   2.806   1.809  1.3637  0.1908 -0.5481
 1121SOL    HW214823   4.191   2.944   1.854  1.8886 -1.6570 -1.3247
 1122SOL     OW14824   0.437   2.667   4.276 -0.3349  0.4725 -0.4155
 1122SOL    HW114825   0.473   2.596   4.328 -1.3870 -0.0924 -0.4613
 1122SOL    HW214826   0.515   2.723   4.277 -1.7732  2.4682  0.5069
 1123SOL     OW14827   2.479   0.102   1.032  0.0436 -0.5820 -0.3185
 1123SOL    HW114828   2.536   0.031   1.064  0.5578 -0.1413 -0.2658
 1123SOL    HW214829   2.510   0.176   1.085 -0.0750 -0.7439 -0.0183
 1124SOL     OW14830   2.854   2.413   0.103 -0.0052  0.0801  0.1138
 1124SOL    HW114831   2.844   2.402   0.009  2.2726  0.2362 -0.1486
 1124SOL    HW214832   2.926   2.477   0.103  0.2730 -0.2365 -3.3356
 1125SOL     OW14833   4.099   4.019   6.780  0.0506  0.2812 -0.2541
 1125SOL    HW114834   4.015   3.987   6.746 -0.7174 -0.3564  2.1939
 1125SOL    HW214835   4.140   4.052   6.701 -0.5707  1.9548  0.1361
 1126SOL     OW14836   3.998   3.889   8.324 -0.0613  0.4543  0.3956
 1126SOL    HW114837   4.024   3.797   8.322 -1.6408  0.0612 -2.4357
 1126SOL    HW214838   4.083   3.926   8.347 -0.2890  2.2335 -1.5946
 1127SOL     OW14839   3.188   1.287   1.097 -0.8591  0.2798 -0.0076
 1127SOL    HW114840   3.115   1.227   1.113 -0.9814  0.0269 -1.5119
 1127SOL    HW214841   3.203   1.331   1.180 -2.1511 -0.3386  0.5624
 1128SOL     OW14842   4.687   3.199  11.704 -0.4207  0.1357 -0.3314
 1128SOL    HW114843   4.636   3.155  11.771  0.3006 -1.6017 -0.9407
 1128SOL    HW214844   4.712   3.128  11.645 -0.3726 -0.2319  0.1417
 1129SOL     OW14845   0.053   4.449  12.965 -0.4966  0.0998 -0.3582
 1129SOL    HW114846   0.022   4.534  12.934  0.9593  0.1843 -1.5961
 1129SOL    HW214847   0.107   4.416  12.893 -1.6643  1.0685 -1.6682
 1130SOL     OW14848   2.516   0.726   8.757 -0.3575  0.0068 -0.2946
 1130SOL    HW114849   2.455   0.759   8.691 -1.0641  0.4351  0.5690
 1130SOL    HW214850   2.572   0.803   8.766 -1.5684  0.7551  0.7884
 1131SOL     OW14851   3.931   3.019  11.431  0.0233 -0.2092  0.1916
 1131SOL    HW114852   3.920   3.067  11.513 -2.1455 -1.2110  0.4923
 1131SOL    HW214853   4.025   3.027  11.413 -0.0645  0.9473  0.3007
 1132SOL     OW14854   0.324   0.623   8.736  0.1642 -0.0459 -0.1341
 1132SOL    HW114855   0.235   0.621   8.699  0.6633  0.4591 -1.3809
 1132SOL    HW214856   0.385   0.582   8.674 -0.6742  0.1553 -1.1072
 1133SOL     OW14857   4.253   1.658   2.555 -0.6083  0.3685 -0.3710
 1133SOL    HW114858   4.282   1.749   2.550 -0.8221  0.4223 -0.6897
 1133SOL    HW214859   4.227   1.664   2.646 -1.6970  0.7194 -0.7028
 1134SOL     OW14860   0.904   4.567   4.262 -0.1829  1.0767  0.2913
 1134SOL    HW114861   0.940   4.558   4.350 -1.9714  0.6023  0.9590
 1134SOL    HW214862   0.810   4.561   4.275 -0.1567 -1.1189 -0.4837
 1135SOL     OW14863   3.366   3.947   7.989  0.3216  0.0802  0.0079
 1135SOL    HW114864   3.281   3.989   8.002 -0.4971 -1.0799 -1.6528
 1135SOL    HW214865   3.417   3.995   8.054  0.4565  0.9565 -0.7409
 1136SOL     OW14866   0.240   1.019  16.756  0.0232 -0.2260 -0.2531
 1136SOL    HW114867   0.308   1.028  16.822  0.3071  0.4629 -0.6389
 1136SOL    HW214868   0.181   0.951  16.789 -0.6335  1.3316  1.7474
 1137SOL     OW14869   4.633   0.047   8.543  0.7710 -0.2865 -0.1049
 1137SOL    HW114870   4.601   0.013   8.460  0.0525  0.5266 -0.1628
 1137SOL    HW214871   0.003   0.054   8.520  0.9843 -1.7439  0.2636
 1138SOL     OW14872   1.947   2.178   0.544 -0.2262 -0.3519 -0.0961
 1138SOL    HW114873   1.949   2.257   0.598 -2.8523  0.4303 -1.1402
 1138SOL    HW214874   1.863   2.190   0.501 -0.4986 -2.5310 -0.1506
 1139SOL     OW14875   0.329   2.144   5.070  0.5275  0.4617 -0.2830
 1139SOL    HW114876   0.294   2.147   4.981  1.2280  2.1867 -0.4990
 1139SOL    HW214877   0.279   2.218   5.103 -1.4073 -0.2311 -1.6052
 1140SOL     OW14878   3.231   3.557  15.577 -0.2057  0.3909  0.1135
 1140SOL    HW114879   3.150   3.556  15.628 -0.2839 -0.6745 -0.0360
 1140SOL    HW214880   3.206   3.492  15.511  1.8211  0.8447 -1.1021
 1141SOL     OW14881   1.115   1.787  12.033  0.1893  0.3969 -0.0048
 1141SOL    HW114882   1.111   1.882  12.044  0.6053  0.2799  1.1214
 1141SOL    HW214883   1.067   1.785  11.950  0.9372  0.3896 -0.4339
 1142SOL     OW14884   1.938   0.650  12.734 -0.1400  0.9062 -0.0384
 1142SOL    HW114885   1.936   0.703  12.814 -2.7057  0.4707  0.1837
 1142SOL    HW214886   1.937   0.717  12.666 -1.2397 -0.3495 -1.2303
 1143SOL     OW14887   3.795   4.211   3.809  0.1394  0.4185 -0.1114
 1143SOL    HW114888   3.779   4.120   3.834 -2.0175  1.0789  0.9348
 1143SOL    HW214889   3.777   4.252   3.893  2.6961  1.4689 -0.0882
 1144SOL     OW14890   3.104   1.569   2.268  0.2570  0.0402  0.1141
 1144SOL    HW114891   3.179   1.601   2.218 -0.2562  0.0623 -0.6355
 1144SOL    HW214892   3.033   1.591   2.208  0.8707  0.1674 -0.5709
 1145SOL     OW14893   1.543   0.423   5.581  0.2641  0.0558 -0.4401
 1145SOL    HW114894   1.572   0.465   5.662  2.4053  0.8608 -1.6096
 1145SOL    HW214895   1.462   0.468   5.558 -0.0939  0.4763  1.6433
 1146SOL     OW14896   3.586   3.631  10.366 -0.5161 -0.0773 -0.2864
 1146SOL    HW114897   3.593   3.547  10.411 -0.9669  0.5622  0.9734
 1146SOL    HW214898   3.650   3.685  10.413 -0.4170 -0.6379  0.2253
 1147SOL     OW14899   4.028   0.011  11.100  0.5463 -0.2841  0.6354
 1147SOL    HW114900   4.080   0.090  11.107  1.7399 -0.9495 -0.7195
 1147SOL    HW214901   3.992   4.721  11.188 -0.5392 -0.7568  0.1294
 1148SOL     OW14902   4.273   1.922   7.731  0.4422 -0.0412 -0.2514
 1148SOL    HW114903   4.367   1.934   7.728  0.5158 -0.7191 -0.8443
 1148SOL    HW214904   4.274   1.826   7.722 -0.5556 -0.0243 -0.5747
 1149SOL     OW14905   2.717   1.983   6.844 -0.5370  0.4888  0.5001
 1149SOL    HW114906   2.681   2.067   6.816  0.6741  0.6551 -0.5806
 1149SOL    HW214907   2.812   1.995   6.834 -0.0899 -1.6873  2.2079
 1150SOL     OW14908   0.149   4.179   8.390 -0.2575 -0.2394 -0.0651
 1150SOL    HW114909   0.199   4.153   8.468  0.5435  2.8227  0.4494
 1150SOL    HW214910   0.096   4.254   8.418 -0.0712 -1.0422  2.4533
 1151SOL     OW14911   4.039   3.175   1.978  0.0904  0.4459  0.1438
 1151SOL    HW114912   4.087   3.227   1.914  2.3479  0.2357  1.6545
 1151SOL    HW214913   4.061   3.215   2.062  2.0568  1.1250 -0.7058
 1152SOL     OW14914   0.593   1.648   1.945 -0.1939 -0.5107 -0.7244
 1152SOL    HW114915   0.564   1.615   2.031  1.7143 -1.2667 -0.3592
 1152SOL    HW214916   0.565   1.737   1.965  0.7947 -0.4434  0.3679
 1153SOL     OW14917   0.889   2.018  17.059 -0.1506  0.0397  0.3709
 1153SOL    HW114918   0.911   1.925  17.049  1.3969  0.5580 -1.1608
 1153SOL    HW214919   0.906   2.027  17.152  0.2392  1.8821  0.1092
 1154SOL     OW14920   3.173   4.003  15.623 -0.1517  0.4362  0.6610
 1154SOL    HW114921   3.134   3.916  15.624 -1.7254  1.1637  2.0100
 1154SOL    HW214922   3.102   4.055  15.585  0.1869  0.8554  0.5943
 1155SOL     OW14923   2.337   2.280   8.484 -0.1404  0.1262  0.2956
 1155SOL    HW114924   2.346   2.202   8.429 -0.3377 -0.2912  0.8548
 1155SOL    HW214925   2.425   2.312   8.463  0.5509 -1.0182  1.4654
 1156SOL     OW14926   1.185   0.482  10.268 -0.2766 -0.9113 -0.5488
 1156SOL    HW114927   1.169   0.534  10.189  4.0400 -0.0261 -0.8853
 1156SOL    HW214928   1.099   0.450  10.294 -1.7683  1.7283 -2.2316
 1157SOL     OW14929   2.456   2.964  11.540 -0.4140  0.0912  0.5307
 1157SOL    HW114930   2.418   2.942  11.455  4.4223  2.9314 -2.3827
 1157SOL    HW214931   2.547   2.944  11.518 -1.0186 -0.5358 -1.3625
 1158SOL     OW14932   0.821   2.765   3.149  0.3935 -0.7940  0.2467
 1158SOL    HW114933   0.812   2.722   3.064  0.0403  2.4726 -1.3841
 1158SOL    HW214934   0.836   2.856   3.123  0.7934 -1.3684 -1.5364
 1159SOL     OW14935   1.807   3.889  15.230 -0.0321  0.1850 -0.0097
 1159SOL    HW114936   1.801   3.880  15.134 -0.8991  0.2623  0.0334
 1159SOL    HW214937   1.767   3.807  15.258  1.3629 -0.5953 -0.3093
 1160SOL     OW14938   4.677   0.331   8.517 -0.2134 -0.5847  0.0205
 1160SOL    HW114939   4.607   0.313   8.454  1.1844 -0.4367 -1.5640
 1160SOL    HW214940   4.661   0.262   8.582 -0.7453  0.1229  0.6440
 1161SOL     OW14941   0.335   0.832   2.867  0.0651 -0.8962  0.0829
 1161SOL    HW114942   0.362   0.885   2.942  1.5669 -2.0644  0.3915
 1161SOL    HW214943   0.241   0.818   2.873  0.1293 -1.3905 -0.0683
 1162SOL     OW14944   2.313   0.897   6.923  0.4923  0.3749  0.5043
 1162SOL    HW114945   2.267   0.820   6.957  0.9545  1.2160  2.9938
 1162SOL    HW214946   2.397   0.887   6.968  0.4861 -1.5077  0.1189
 1163SOL     OW14947   0.817   1.909   2.180  0.4878 -0.5068  0.4214
 1163SOL    HW114948   0.749   1.925   2.116  1.2353 -1.6325 -0.6699
 1163SOL    HW214949   0.786   1.837   2.235 -0.1374 -0.2219  0.4320
 1164SOL     OW14950   1.634   2.964   3.125  0.0392  0.0041  0.2223
 1164SOL    HW114951   1.594   2.921   3.049 -0.0386  0.2297  0.1373
 1164SOL    HW214952   1.602   3.053   3.115  2.8972  0.8863 -1.0146
 1165SOL     OW14953   3.471   2.576   8.319 -0.4895 -0.1333  0.3694
 1165SOL    HW114954   3.504   2.576   8.409  1.8750 -3.5212 -0.4636
 1165SOL    HW214955   3.506   2.657   8.281 -1.9453  1.0446  1.5645
 1166SOL     OW14956   0.796   0.780   5.046  0.1162  0.1047 -0.7180
 1166SOL    HW114957   0.753   0.699   5.019 -2.1165  1.2551 -0.5748
 1166SOL    HW214958   0.773   0.840   4.975  0.0748  0.2872 -0.5500
 1167SOL     OW14959   2.572   0.334   8.496 -0.0435  0.2728 -0.0121
 1167SOL    HW114960   2.663   0.321   8.519 -0.4043  0.3763  1.4716
 1167SOL    HW214961   2.586   0.323   8.402  1.1575  1.3903  0.0405
 1168SOL     OW14962   1.015   4.099   5.846 -0.1286 -0.0910  0.6607
 1168SOL    HW114963   0.985   4.009   5.854  1.3545 -0.7789 -1.4149
 1168SOL    HW214964   0.949   4.141   5.902  1.1933  2.7403  0.1025
 1169SOL     OW14965   2.089   2.443   1.146 -0.7373  0.2993 -0.2856
 1169SOL    HW114966   2.143   2.380   1.194  0.0063  2.3384  1.5412
 1169SOL    HW214967   2.044   2.380   1.089  1.5751 -0.9071 -0.7767
 1170SOL     OW14968   2.852   1.749   1.344  0.6446 -0.4157 -0.5380
 1170SOL    HW114969   2.795   1.825   1.351 -2.1311 -2.7428  1.8300
 1170SOL    HW214970   2.886   1.758   1.255  0.8015  0.6902 -0.3684
 1171SOL     OW14971   3.452   0.545  12.015  0.7152  0.2252  0.1868
 1171SOL    HW114972   3.517   0.537  11.945  0.9938 -1.0616  0.6103
 1171SOL    HW214973   3.374   0.553  11.959  0.9894  1.6428  0.0025
 1172SOL     OW14974   0.474   1.351   6.469  0.7160 -0.8742 -0.3505
 1172SOL    HW114975   0.545   1.305   6.515  1.3638 -0.3795 -0.8459
 1172SOL    HW214976   0.520   1.432   6.445  3.6805 -2.0709  1.2694
 1173SOL     OW14977   2.337   3.171  13.869 -0.4109 -0.0297  0.0212
 1173SOL    HW114978   2.312   3.080  13.854 -0.9174  0.1188 -0.0315
 1173SOL    HW214979   2.370   3.167  13.959  2.8099  0.2829 -1.1504
 1174SOL     OW14980   1.284   1.422   9.573  0.2664  0.5838 -0.0408
 1174SOL    HW114981   1.241   1.498   9.612  1.4320  0.1832  2.0297
 1174SOL    HW214982   1.368   1.465   9.557  0.0845  0.8978 -0.1435
 1175SOL     OW14983   2.022   4.059   4.364 -0.1382  0.4695  0.4886
 1175SOL    HW114984   2.079   4.019   4.430 -0.0705  1.4397  1.0203
 1175SOL    HW214985   1.953   4.101   4.414 -1.2194 -0.9715  0.2068
 1176SOL     OW14986   1.476   2.838   2.915 -0.0354  0.2230 -0.0488
 1176SOL    HW114987   1.517   2.792   2.841 -0.1926 -1.1069  0.6805
 1176SOL    HW214988   1.383   2.843   2.893 -0.4369 -1.0193  1.3178
 1177SOL     OW14989   0.702   3.214   1.203  0.4508 -0.6649  0.4004
 1177SOL    HW114990   0.634   3.154   1.232 -0.7477 -0.2550 -1.5741
 1177SOL    HW214991   0.654   3.273   1.145 -1.8761 -0.5092  2.5107
 1178SOL     OW14992   0.638   3.045   3.288  0.0676  0.1452  0.3391
 1178SOL    HW114993   0.566   3.055   3.350  0.4345  2.0810  0.4357
 1178SOL    HW214994   0.705   3.068   3.352  3.0861 -1.6773 -2.1636
 1179SOL     OW14995   3.270   4.655   5.227 -0.2221 -0.8810  0.5307
 1179SOL    HW114996   3.283   4.673   5.134 -1.4191  0.7854  0.6884
 1179SOL    HW214997   3.334   4.585   5.243  0.3452  0.2023  3.0637
 1180SOL     OW14998   3.209   0.122   6.454 -0.1419  0.1390 -0.1025
 1180SOL    HW114999   3.143   0.136   6.386 -0.1169  0.1703 -0.1208
 1180SOL    HW215000   3.171   0.170   6.527 -1.2078  0.2784 -0.7526
 1181SOL     OW15001   2.793   2.432   2.651 -0.0541  0.1997 -0.3300
 1181SOL    HW115002   2.716   2.486   2.632 -0.7779 -0.3498  1.0009
 1181SOL    HW215003   2.773   2.380   2.729  1.2451  0.5631  0.2284
 1182SOL     OW15004   3.705   1.807   1.345  0.3321  0.0302  0.6213
 1182SOL    HW115005   3.779   1.763   1.302  2.1312  1.1841  2.5346
 1182SOL    HW215006   3.694   1.761   1.429  1.6356  0.2229  0.9114
 1183SOL     OW15007   2.546   3.138   3.113 -0.2323 -0.2878 -0.3367
 1183SOL    HW115008   2.526   3.121   3.205 -1.8404  0.1138 -0.6133
 1183SOL    HW215009   2.557   3.049   3.078 -0.7787 -0.6912  0.5319
 1184SOL     OW15010   2.688   0.200  12.881  0.2258 -0.4516  0.5956
 1184SOL    HW115011   2.593   0.194  12.887  0.0809 -0.6992 -1.8337
 1184SOL    HW215012   2.699   0.279  12.933 -0.4515  1.9486 -2.9275
 1185SOL     OW15013   1.122   4.141   6.487  0.4838 -0.1028 -0.3558
 1185SOL    HW115014   1.133   4.227   6.446  1.4254  0.6492  1.4656
 1185SOL    HW215015   1.213   4.142   6.515  0.1157 -0.9456  0.8909
 1186SOL     OW15016   3.543   2.087  15.658  0.1551 -0.1562  0.4060
 1186SOL    HW115017   3.552   2.042  15.742 -0.2842 -0.8520  0.0841
 1186SOL    HW215018   3.532   2.018  15.593  1.3855  1.7584 -1.8356
 1187SOL     OW15019   4.178   1.611   2.832  0.3179 -0.2066 -0.0899
 1187SOL    HW115020   4.191   1.521   2.862 -1.1012 -0.3487  0.0881
 1187SOL    HW215021   4.140   1.648   2.911  0.7886 -0.6775  0.3612
 1188SOL     OW15022   4.638   4.710  13.560  0.3215 -0.3242 -0.0856
 1188SOL    HW115023   4.639   0.028  13.473  2.1730  0.6300  0.4015
 1188SOL    HW215024   4.616   4.619  13.538  0.7014 -0.8836  1.8531
 1189SOL     OW15025   3.735   0.506   3.533 -0.1697 -0.2548  0.3806
 1189SOL    HW115026   3.750   0.418   3.498 -1.0485  0.1271 -0.9592
 1189SOL    HW215027   3.718   0.487   3.625  0.2192 -2.4652 -0.0057
 1190SOL     OW15028   2.818   2.885  15.543  0.0499  0.5176 -0.3471
 1190SOL    HW115029   2.765   2.965  15.538 -3.1919 -1.5553  0.8783
 1190SOL    HW215030   2.889   2.920  15.490  1.9861 -2.9572 -0.0316
 1191SOL     OW15031   2.429   2.152   6.803  0.3363  0.7862  0.2618
 1191SOL    HW115032   2.379   2.224   6.766  0.2410 -0.3613 -1.8608
 1191SOL    HW215033   2.492   2.206   6.850 -1.1165  1.6250  1.2244
 1192SOL     OW15034   2.808   1.185   4.053  0.4532 -0.4973  0.6376
 1192SOL    HW115035   2.884   1.228   4.013 -0.2178  0.4522  0.4007
 1192SOL    HW215036   2.759   1.174   3.971 -1.1883  0.6320  1.4753
 1193SOL     OW15037   0.874   4.596  10.839 -0.3982 -0.4415 -0.1421
 1193SOL    HW115038   0.851   4.582  10.747  1.9695  0.2911 -0.8369
 1193SOL    HW215039   0.822   4.672  10.863 -1.3769 -0.8528 -0.9755
 1194SOL     OW15040   2.629   0.273   8.229 -0.1782  0.0103  0.3154
 1194SOL    HW115041   2.682   0.223   8.166 -0.2023  0.7689 -0.3095
 1194SOL    HW215042   2.540   0.267   8.194  0.1590  0.3264 -0.6081
 1195SOL     OW15043   3.680   2.107   0.602  0.8847  0.3973 -0.5337
 1195SOL    HW115044   3.761   2.108   0.551  1.5852  1.0401  0.5837
 1195SOL    HW215045   3.658   2.014   0.595  0.6081  0.4245  0.0155
 1196SOL     OW15046   0.125   1.716   6.120 -0.2288  0.2978  0.0715
 1196SOL    HW115047   0.182   1.670   6.181 -1.5666 -0.4117  0.7812
 1196SOL    HW215048   0.104   1.798   6.166 -1.2161 -0.3332  0.7329
 1197SOL     OW15049   0.697   1.396   8.970  0.2025  0.2271 -0.6264
 1197SOL    HW115050   0.778   1.410   9.019  1.2097 -0.9411 -1.9358
 1197SOL    HW215051   0.701   1.302   8.952 -0.9103 -0.2736  1.7536
 1198SOL     OW15052   4.251   1.598   8.894 -0.0112  0.5732  0.1779
 1198SOL    HW115053   4.237   1.556   8.979  0.8938 -0.4446 -0.1852
 1198SOL    HW215054   4.174   1.654   8.885  0.5350  1.5434  1.5386
 1199SOL     OW15055   4.366   0.803   0.129 -0.0912 -0.4706  0.6362
 1199SOL    HW115056   4.349   0.739   0.198  0.2191  0.2976  1.4260
 1199SOL    HW215057   4.277   0.813   0.098  1.2894 -0.7050 -3.3824
 1200SOL     OW15058   3.668   1.637   3.600 -0.0301 -0.5949  0.1461
 1200SOL    HW115059   3.598   1.700   3.583 -0.5998 -2.3188 -3.6284
 1200SOL    HW215060   3.714   1.636   3.516  0.3049  0.8574  0.2966
 1201SOL     OW15061   3.144   0.005   2.448  0.2641 -0.3702 -0.3719
 1201SOL    HW115062   3.148   0.022   2.542 -2.4279 -0.1668 -0.3228
 1201SOL    HW215063   3.088   0.076   2.417 -1.2246 -1.9366 -1.2997
 1202SOL     OW15064   0.606   0.619  11.844 -0.1187  0.1034 -0.0325
 1202SOL    HW115065   0.631   0.679  11.774  2.8276 -0.5606  0.4586
 1202SOL    HW215066   0.639   0.662  11.923  1.2571  0.3230 -0.7253
 1203SOL     OW15067   3.456   1.598   5.888  0.6197  0.1944  0.6479
 1203SOL    HW115068   3.369   1.638   5.878 -0.2228 -2.2394 -1.6551
 1203SOL    HW215069   3.500   1.675   5.853  3.7979 -1.5058  0.9181
 1204SOL     OW15070   2.812   0.345   2.576 -0.4675  0.1041  0.1640
 1204SOL    HW115071   2.790   0.417   2.517 -0.9342 -1.6476 -1.8016
 1204SOL    HW215072   2.885   0.386   2.621 -0.3204  1.6104 -1.4361
 1205SOL     OW15073   0.852   3.477   9.117  0.6148  0.0622  0.3308
 1205SOL    HW115074   0.792   3.424   9.169 -2.1693  1.7611 -1.1722
 1205SOL    HW215075   0.855   3.435   9.031  1.7794 -2.2141  1.4619
 1206SOL     OW15076   2.458   1.041  12.506 -0.0789  0.1274 -0.1623
 1206SOL    HW115077   2.500   1.081  12.582 -3.0530 -1.2608  2.2260
 1206SOL    HW215078   2.513   0.962  12.502 -1.5571 -0.8234 -1.8562
 1207SOL     OW15079   3.836   1.560  12.614  0.2096  0.8051 -0.1226
 1207SOL    HW115080   3.822   1.559  12.520  1.5528 -0.4349 -0.3067
 1207SOL    HW215081   3.746   1.546  12.644  0.4231 -0.7012 -0.1448
 1208SOL     OW15082   3.808   4.475   6.081 -0.1081  0.1153  0.3040
 1208SOL    HW115083   3.844   4.502   5.997  2.2656 -0.6504  1.0727
 1208SOL    HW215084   3.757   4.552   6.108 -0.7843 -0.4675  0.7112
 1209SOL     OW15085   0.225   2.352   6.511 -0.3102 -0.3486  0.3813
 1209SOL    HW115086   0.281   2.362   6.434  0.9745  0.2969  1.3945
 1209SOL    HW215087   0.178   2.435   6.502 -1.5897 -1.0888  0.2143
 1210SOL     OW15088   0.354   1.965   7.284 -0.5402 -0.3310  0.1127
 1210SOL    HW115089   0.419   2.033   7.266  0.3463 -1.4985 -1.1288
 1210SOL    HW215090   0.277   2.005   7.245 -0.3789 -1.1648 -1.0720
 1211SOL     OW15091   0.425   2.238   3.206  0.0357 -0.3768 -1.0767
 1211SOL    HW115092   0.464   2.318   3.242 -0.9377  0.5361 -2.0609
 1211SOL    HW215093   0.339   2.239   3.248  0.4798  4.5395 -0.2834
 1212SOL     OW15094   4.679   0.312   3.914 -0.0628 -0.6083  0.4537
 1212SOL    HW115095   4.646   0.399   3.890 -2.0447 -1.1314  1.2480
 1212SOL    HW215096   4.650   0.256   3.842 -1.7115  1.4390 -0.5152
 1213SOL     OW15097   3.528   0.165   7.408 -0.0452  0.4765 -0.1771
 1213SOL    HW115098   3.483   0.224   7.468  1.1412  0.9322  0.2643
 1213SOL    HW215099   3.609   0.216   7.401  1.6669 -2.1287  0.8209
 1214SOL     OW15100   0.934   0.617  12.142 -0.0683  0.5450  0.2777
 1214SOL    HW115101   0.852   0.658  12.115 -0.1748  0.3470  0.2993
 1214SOL    HW215102   0.969   0.671  12.213 -1.2583  1.2012  0.3613
 1215SOL     OW15103   1.142   2.556   9.171 -0.0208 -0.3813 -0.0531
 1215SOL    HW115104   1.099   2.636   9.141  0.4189 -0.4768 -0.9567
 1215SOL    HW215105   1.217   2.592   9.218 -0.5662  0.6894 -0.0118
 1216SOL     OW15106   1.085   3.979   4.431 -0.0684  0.0433 -0.3536
 1216SOL    HW115107   1.117   4.052   4.484  3.3967 -2.2051  0.6078
 1216SOL    HW215108   1.166   3.946   4.392 -0.0962  0.3307 -0.6547
 1217SOL     OW15109   2.070   3.625  16.902  0.3806  0.0659 -0.5305
 1217SOL    HW115110   2.113   3.569  16.968  0.2808  1.7205  0.9417
 1217SOL    HW215111   2.122   3.703  16.919 -0.3150  0.5285 -0.5237
 1218SOL     OW15112   4.577   3.725   4.250  0.1931  0.2026 -0.7252
 1218SOL    HW115113   4.534   3.803   4.217  1.6155  1.4706  0.4462
 1218SOL    HW215114   4.516   3.716   4.323  0.7648 -1.7447 -0.4716
 1219SOL     OW15115   3.782   0.277   7.420  0.6850  0.4472  0.1256
 1219SOL    HW115116   3.789   0.371   7.441  1.6660  0.9486 -2.4596
 1219SOL    HW215117   3.867   0.256   7.383  0.2758 -0.8691 -0.0455
 1220SOL     OW15118   4.460   3.024   7.718 -0.2772 -0.3967 -0.5746
 1220SOL    HW115119   4.466   3.115   7.690  0.1379 -0.7245 -1.5379
 1220SOL    HW215120   4.460   2.985   7.631  0.9743 -2.0779  0.1658
 1221SOL     OW15121   4.531   0.970   0.639  0.1129  0.2108 -0.7403
 1221SOL    HW115122   4.597   0.973   0.708  1.7285 -1.9219 -2.2118
 1221SOL    HW215123   4.458   0.919   0.673 -0.4399 -0.8226 -3.4452
 1222SOL     OW15124   0.367   2.343   6.202 -0.3509  0.8041  0.4186
 1222SOL    HW115125   0.349   2.420   6.147 -2.7921 -0.8086 -1.0115
 1222SOL    HW215126   0.405   2.397   6.271  1.9387  1.3719 -1.2661
 1223SOL     OW15127   3.650   0.568   6.491  0.2939  0.9769  0.1289
 1223SOL    HW115128   3.564   0.600   6.465 -0.2374 -1.1983 -0.8214
 1223SOL    HW215129   3.640   0.473   6.483  0.2878  0.8698  1.4636
 1224SOL     OW15130   2.806   0.682  15.993  0.3119 -0.1888 -0.6297
 1224SOL    HW115131   2.757   0.677  16.075 -0.9748  3.0708 -1.2178
 1224SOL    HW215132   2.781   0.773  15.978 -1.1824 -0.4059  0.5452
 1225SOL     OW15133   1.025   1.636   4.555  0.1699  0.4658  0.4568
 1225SOL    HW115134   1.060   1.574   4.619  0.9140 -0.6559 -1.0390
 1225SOL    HW215135   1.093   1.666   4.495 -0.0477 -1.4913 -0.7586
 1226SOL     OW15136   2.437   3.772   3.567  0.6663  0.2292 -0.1399
 1226SOL    HW115137   2.382   3.741   3.639  1.7945 -2.8800 -0.5927
 1226SOL    HW215138   2.445   3.689   3.519  1.3218  0.7132 -0.8602
 1227SOL     OW15139   1.313   1.122   9.780 -0.5097  0.4736 -0.5151
 1227SOL    HW115140   1.240   1.068   9.810  0.8397 -0.7966  0.5224
 1227SOL    HW215141   1.284   1.138   9.691  0.1111  0.3792 -0.7323
 1228SOL     OW15142   3.168   2.470   6.285 -0.2900  0.3575  0.3975
 1228SOL    HW115143   3.074   2.449   6.282 -0.6437  2.1165 -1.0431
 1228SOL    HW215144   3.180   2.474   6.190 -0.0090 -1.4668  0.3594
 1229SOL     OW15145   4.421   0.252   8.069  0.0618 -0.1514 -0.6073
 1229SOL    HW115146   4.487   0.277   8.005 -1.0176  1.1672 -1.2053
 1229SOL    HW215147   4.382   0.335   8.097  1.0379  0.1524 -0.1323
 1230SOL     OW15148   1.271   4.332   5.958 -0.0969 -0.1672  0.0069
 1230SOL    HW115149   1.190   4.346   6.006  1.0644  2.0482  1.3591
 1230SOL    HW215150   1.263   4.378   5.874 -0.5092  0.8703  0.6091
 1231SOL     OW15151   1.588   2.172   2.405  0.2352  0.7193  0.1320
 1231SOL    HW115152   1.580   2.166   2.310 -1.8852  1.0213  0.2880
 1231SOL    HW215153   1.623   2.085   2.427 -1.2172 -0.3672 -1.9510
 1232SOL     OW15154   0.129   3.134  17.493  0.3408 -0.2889  0.1453
 1232SOL    HW115155   0.182   3.055  17.484  1.4452  0.7027 -2.0783
 1232SOL    HW215156   0.151   3.176  17.409  0.1957 -0.2963  0.1024
 1233SOL     OW15157   0.845   2.753   8.005 -0.3380 -0.5444 -0.0275
 1233SOL    HW115158   0.790   2.678   7.982 -1.1332 -0.1655  0.6100
 1233SOL    HW215159   0.856   2.784   7.915 -0.0596  2.6596  1.1035
 1234SOL     OW15160   3.743   0.047   4.481  0.4030  0.3014 -0.2901
 1234SOL    HW115161   3.678   0.113   4.505  0.0359  0.0396 -0.5693
 1234SOL    HW215162   3.777   0.084   4.399 -0.5742 -1.8408 -1.6565
 1235SOL     OW15163   0.434   1.038   5.116  0.0355 -0.0983 -0.6793
 1235SOL    HW115164   0.395   0.962   5.159  1.5171 -0.4542  0.0162
 1235SOL    HW215165   0.372   1.055   5.045 -0.9702  0.5840  0.3483
 1236SOL     OW15166   0.334   0.217  13.652 -0.0864 -0.3802  0.3982
 1236SOL    HW115167   0.285   0.137  13.632  0.5782 -1.5602  3.4936
 1236SOL    HW215168   0.418   0.172  13.652 -1.8331 -3.6472 -1.6570
 1237SOL     OW15169   3.178   4.292   7.878 -0.2659 -0.2094 -0.6438
 1237SOL    HW115170   3.084   4.298   7.895  0.1164  0.4909  1.2021
 1237SOL    HW215171   3.215   4.287   7.967 -0.1190 -2.1406 -0.8142
 1238SOL     OW15172   0.132   2.873   7.479  0.7541 -0.1578 -0.0460
 1238SOL    HW115173   0.104   2.929   7.407 -0.1319  1.4925  1.5856
 1238SOL    HW215174   0.065   2.804   7.474  0.4445  0.1930 -0.6980
 1239SOL     OW15175   3.217   2.178  11.707 -0.1237  0.3156  0.2238
 1239SOL    HW115176   3.264   2.096  11.695 -0.9719 -0.1093 -0.1455
 1239SOL    HW215177   3.223   2.192  11.802 -0.5898 -2.8128  0.6994
 1240SOL     OW15178   2.435   3.747   8.787  0.1337 -0.2046  0.1326
 1240SOL    HW115179   2.349   3.750   8.744  0.7781  1.6616 -1.0478
 1240SOL    HW215180   2.414   3.696   8.866 -0.1943  1.4559  1.1262
 1241SOL     OW15181   3.041   3.404   8.220  0.0402 -0.1135  0.4000
 1241SOL    HW115182   3.129   3.371   8.239  1.0221  1.9588 -0.5418
 1241SOL    HW215183   3.004   3.316   8.213 -1.9664  0.7481  0.0274
 1242SOL     OW15184   3.027   3.678   1.194  0.0609 -0.2779 -0.0280
 1242SOL    HW115185   3.083   3.689   1.271  0.5520  0.7409 -0.5322
 1242SOL    HW215186   2.985   3.763   1.187 -1.4350 -0.9684  0.7563
 1243SOL     OW15187   2.064   1.611   1.735 -0.0068  0.1629  0.0387
 1243SOL    HW115188   2.105   1.615   1.648  0.2923 -2.3051  0.0879
 1243SOL    HW215189   2.025   1.524   1.731  2.3352 -0.8140 -1.7360
 1244SOL     OW15190   1.416   1.833   7.251 -0.1664  0.0526 -0.1855
 1244SOL    HW115191   1.347   1.778   7.288  1.1229 -1.3793  0.0918
 1244SOL    HW215192   1.399   1.917   7.295  0.5341  1.1133 -1.9396
 1245SOL     OW15193   0.250   3.538   4.478  0.2079  0.2663 -0.3705
 1245SOL    HW115194   0.305   3.466   4.445  0.4163  1.5147 -2.7609
 1245SOL    HW215195   0.211   3.572   4.398 -0.7588 -1.1753 -0.5152
 1246SOL     OW15196   0.528   4.416   6.154 -0.5537 -0.2132  0.6132
 1246SOL    HW115197   0.456   4.477   6.135  0.3369  0.4992 -0.4878
 1246SOL    HW215198   0.609   4.467   6.155 -1.1087  0.7360 -2.0243
 1247SOL     OW15199   0.281   0.936  17.652  0.4387 -0.2818 -0.2308
 1247SOL    HW115200   0.208   0.914   0.017  1.5646 -2.1428  0.5266
 1247SOL    HW215201   0.256   1.021  17.617 -0.8245 -0.5590  0.0040
 1248SOL     OW15202   0.172   1.298  16.657 -0.1219  0.1126  0.2657
 1248SOL    HW115203   0.164   1.209  16.690  0.5106 -0.0928 -0.1457
 1248SOL    HW215204   0.092   1.305  16.605  0.1315  0.4511 -0.0841
 1249SOL     OW15205   0.747   3.225   8.328  0.5755 -0.2317 -0.1578
 1249SOL    HW115206   0.802   3.256   8.257 -1.4704  2.0061 -0.7878
 1249SOL    HW215207   0.741   3.130   8.320  0.3407 -0.5052  2.9650
 1250SOL     OW15208   1.758   4.503   9.850  0.5517 -0.0589 -0.2955
 1250SOL    HW115209   1.741   4.481   9.941 -1.3447  0.4590 -0.5093
 1250SOL    HW215210   1.698   4.437   9.814  0.2112 -0.1754  0.4887
 1251SOL     OW15211   2.424   1.436  13.682  0.0627  0.1283 -0.0125
 1251SOL    HW115212   2.365   1.455  13.755  1.7611  1.4057  1.0336
 1251SOL    HW215213   2.402   1.345  13.662  0.6977  0.0906 -0.5309
 1252SOL     OW15214   2.298   0.774   2.183  0.7857 -0.4362 -0.1492
 1252SOL    HW115215   2.240   0.810   2.117  2.6663  0.7823 -1.1106
 1252SOL    HW215216   2.340   0.851   2.220  0.8757 -0.4094 -0.3118
 1253SOL     OW15217   0.340   2.167   5.849 -0.0130  0.4107 -0.4045
 1253SOL    HW115218   0.272   2.222   5.888 -0.8863 -0.4991 -0.6478
 1253SOL    HW215219   0.352   2.223   5.772  0.0165  0.2468 -0.5208
 1254SOL     OW15220   2.109   0.609   1.734 -0.3705  0.1097  0.3086
 1254SOL    HW115221   2.097   0.554   1.657 -1.9979  1.1704 -0.1882
 1254SOL    HW215222   2.078   0.552   1.804  0.7360 -1.2602 -0.3187
 1255SOL     OW15223   3.165   3.889   3.374  0.7725  0.0223  0.5475
 1255SOL    HW115224   3.199   3.803   3.398  1.1484 -0.8316 -3.1306
 1255SOL    HW215225   3.124   3.907   3.458 -0.9801 -0.4436 -0.2123
 1256SOL     OW15226   0.133   3.757   5.669 -0.1952  0.0630 -0.1309
 1256SOL    HW115227   0.164   3.691   5.730  0.2268  0.5158  0.1372
 1256SOL    HW215228   0.043   3.724   5.661 -0.7726  1.7623 -0.6469
 1257SOL     OW15229   1.740   0.279   4.864  0.5541  0.0710 -0.0438
 1257SOL    HW115230   1.805   0.285   4.793  1.9220  2.2602  1.3914
 1257SOL    HW215231   1.673   0.226   4.822 -0.4731  0.2266  1.4193
 1258SOL     OW15232   1.815   1.904   6.854  0.4062 -0.2335  0.5266
 1258SOL    HW115233   1.870   1.911   6.776  0.9615 -0.1275  0.9287
 1258SOL    HW215234   1.861   1.838   6.905 -0.4197 -1.5164 -0.4171
 1259SOL     OW15235   0.429   0.402   7.680  0.1124 -0.1321 -0.0340
 1259SOL    HW115236   0.335   0.385   7.675  0.3556 -0.9941 -1.5685
 1259SOL    HW215237   0.462   0.447   7.603  2.1106 -0.5877  0.5474
 1260SOL     OW15238   4.550   1.972   7.679  0.7082  0.0200 -0.2088
 1260SOL    HW115239   4.539   2.043   7.616  3.5416  0.1688 -0.5264
 1260SOL    HW215240   4.599   2.016   7.748 -3.1505  2.6105  0.8838
 1261SOL     OW15241   2.007   3.858  11.402  0.1676  0.1156 -0.0740
 1261SOL    HW115242   2.098   3.835  11.386 -0.0631 -1.4729  0.8195
 1261SOL    HW215243   1.977   3.767  11.407  1.3088 -0.2337  0.3487
 1262SOL     OW15244   4.656   1.448   5.789  0.5166  0.7529 -0.0611
 1262SOL    HW115245   4.679   1.372   5.843 -0.2418  0.1958 -0.5117
 1262SOL    HW215246   4.717   1.515   5.819  1.3243 -0.3215  0.7170
 1263SOL     OW15247   3.028   3.106  11.989 -0.5233 -0.0111 -0.1285
 1263SOL    HW115248   3.123   3.096  11.983 -0.3775  1.3436 -0.2605
 1263SOL    HW215249   3.003   3.033  12.046  0.1497 -0.9721 -1.0906
 1264SOL     OW15250   2.178   1.321   6.708  0.4023 -0.2535  0.0609
 1264SOL    HW115251   2.103   1.284   6.662 -0.0248  1.3302 -0.4966
 1264SOL    HW215252   2.227   1.244   6.737 -1.3091 -1.9988 -1.6951
 1265SOL     OW15253   0.735   4.652   6.492 -0.5504 -0.2097  0.0018
 1265SOL    HW115254   0.651   4.612   6.470 -1.0313 -1.4237  4.0320
 1265SOL    HW215255   0.759   4.604   6.570 -0.3893  0.7509  0.5506
 1266SOL     OW15256   2.304   4.718   3.320 -0.0211  0.0485 -0.5996
 1266SOL    HW115257   2.338   0.072   3.275 -0.5755  0.1148 -0.9112
 1266SOL    HW215258   2.369   4.704   3.388  1.1432 -3.0504 -2.3632
 1267SOL     OW15259   2.753   0.287   9.883 -0.1005 -0.6072  0.0193
 1267SOL    HW115260   2.748   0.191   9.883 -0.4579 -0.5972 -1.7200
 1267SOL    HW215261   2.659   0.308   9.878 -0.3174 -1.1096  1.8869
 1268SOL     OW15262   2.872   0.525   1.115 -0.5464 -0.5231 -0.4928
 1268SOL    HW115263   2.951   0.474   1.094  0.0365  0.3799 -0.4883
 1268SOL    HW215264   2.831   0.474   1.185  2.4645 -2.4513 -0.0966
 1269SOL     OW15265   4.175   0.684  12.189  0.1946 -0.4399 -0.4052
 1269SOL    HW115266   4.148   0.672  12.098  1.2953  0.8151 -0.8827
 1269SOL    HW215267   4.227   0.605  12.201 -0.0610 -0.1453  2.5350
 1270SOL     OW15268   0.811   3.342   3.295  0.2166 -0.5718  0.0136
 1270SOL    HW115269   0.879   3.386   3.244 -0.1579  0.6612  0.5837
 1270SOL    HW215270   0.846   3.253   3.295 -0.4935 -0.8461  0.2193
 1271SOL     OW15271   2.526   4.515  13.738  0.4336 -0.3108 -0.0837
 1271SOL    HW115272   2.494   4.424  13.742 -1.5163  0.3521 -0.5535
 1271SOL    HW215273   2.468   4.549  13.669 -3.5753 -0.9381  2.9774
 1272SOL     OW15274   0.259   1.429   4.036  0.0664  0.1025  0.7174
 1272SOL    HW115275   0.189   1.456   4.097  0.3144 -0.4982  1.2690
 1272SOL    HW215276   0.302   1.356   4.081  1.8749  1.5373  1.2932
 1273SOL     OW15277   2.689   0.325   3.013 -0.2894  0.2277 -0.4926
 1273SOL    HW115278   2.720   0.415   2.998 -2.4897  1.1444  0.4978
 1273SOL    HW215279   2.748   0.277   2.955  0.0961  0.9818 -0.7376
 1274SOL     OW15280   4.540   4.137  13.767  0.4041 -0.1909  0.4548
 1274SOL    HW115281   4.490   4.218  13.755 -1.1457 -1.1299  0.5563
 1274SOL    HW215282   4.490   4.096  13.838  0.3932  1.5140  1.4322
 1275SOL     OW15283   0.047   1.610   7.194  0.1864  0.4839 -0.3620
 1275SOL    HW115284   0.063   1.694   7.237 -1.9635  0.2573  0.8678
 1275SOL    HW215285   0.137   1.580   7.207 -0.6634 -1.4151  1.2285
 1276SOL     OW15286   2.217   0.117   8.969 -0.1415  0.4191 -0.2198
 1276SOL    HW115287   2.211   0.203   8.927  0.1199 -0.0718 -1.2674
 1276SOL    HW215288   2.210   0.131   9.063  1.4695  3.2029 -0.5152
 1277SOL     OW15289   2.108   0.014   8.738  0.3119  0.2892  0.2410
 1277SOL    HW115290   2.186   4.714   8.688  0.2583  0.1460  0.2223
 1277SOL    HW215291   2.143   0.041   8.823  1.8020  1.3677 -0.7328
 1278SOL     OW15292   2.715   1.608  11.490 -0.1628  0.1164 -0.0248
 1278SOL    HW115293   2.686   1.632  11.578  1.4979 -1.3967  0.9292
 1278SOL    HW215294   2.767   1.686  11.469 -0.6404  1.4005  3.4994
 1279SOL     OW15295   2.070   1.991   0.693  0.1488  1.0828 -0.3838
 1279SOL    HW115296   2.088   1.927   0.624 -0.4828  0.7400 -0.2369
 1279SOL    HW215297   2.025   2.060   0.645 -2.6653 -0.1421  0.4876
 1280SOL     OW15298   1.680   1.544  10.623  0.0464 -0.4351 -0.1663
 1280SOL    HW115299   1.607   1.584  10.575  0.1390 -1.6654 -1.3263
 1280SOL    HW215300   1.711   1.624  10.665 -1.2431  0.4795 -0.9308
 1281SOL     OW15301   4.069   3.217   7.184 -0.4829 -0.3365 -0.2862
 1281SOL    HW115302   4.018   3.206   7.264 -0.3074  0.8326 -0.0068
 1281SOL    HW215303   4.085   3.311   7.191  0.7147 -0.5289 -0.4773
 1282SOL     OW15304   1.543   4.662   7.833  0.3068 -0.2244 -0.2115
 1282SOL    HW115305   1.493   4.588   7.801  0.5709  0.2600 -1.7338
 1282SOL    HW215306   1.636   4.642   7.828  0.4823  1.1887 -2.4668
 1283SOL     OW15307   0.137   2.728   2.868 -0.4894 -0.2232 -0.2487
 1283SOL    HW115308   0.178   2.641   2.875 -0.4684 -0.1520  0.4879
 1283SOL    HW215309   0.216   2.780   2.854  0.2494 -1.0657  0.6759
 1284SOL     OW15310   2.303   0.160   5.889  0.2993 -0.1660 -0.4795
 1284SOL    HW115311   2.354   0.207   5.823 -0.9693 -0.2428 -1.5219
 1284SOL    HW215312   2.269   0.099   5.823 -2.1533  2.4530 -1.6404
 1285SOL     OW15313   3.053   3.951   3.134 -0.0821 -0.4057 -0.4409
 1285SOL    HW115314   2.959   3.960   3.144 -0.1518  0.5023 -1.8231
 1285SOL    HW215315   3.081   3.950   3.225  1.2608  1.6468 -0.8169
 1286SOL     OW15316   1.866   2.202   9.242 -0.2480  0.8432 -0.3430
 1286SOL    HW115317   1.949   2.156   9.253 -1.7535 -1.6754  0.3407
 1286SOL    HW215318   1.882   2.289   9.279 -0.2152  1.2334 -1.2595
 1287SOL     OW15319   1.499   4.614   4.926  0.1966  0.1729 -0.0545
 1287SOL    HW115320   1.475   4.551   4.858  0.4981 -1.0348  0.9486
 1287SOL    HW215321   1.494   4.552   4.999  0.3446 -0.6912 -0.7830
 1288SOL     OW15322   0.863   3.417   8.126  0.0283 -0.3186  0.3961
 1288SOL    HW115323   0.805   3.472   8.073 -1.1099  0.8150  2.7844
 1288SOL    HW215324   0.947   3.463   8.118  0.8598 -1.5756  1.8180
 1289SOL     OW15325   2.925   0.141   5.739  0.0998  0.1109  0.7360
 1289SOL    HW115326   2.924   0.168   5.647  0.7072 -1.2501  0.3330
 1289SOL    HW215327   2.847   0.189   5.766 -0.8336 -1.5765  1.0314
 1290SOL     OW15328   2.145   3.308   0.156  0.0508  0.6816 -0.0939
 1290SOL    HW115329   2.089   3.276   0.227  0.0592  1.2609  0.1746
 1290SOL    HW215330   2.234   3.294   0.189  1.2130  3.0657 -2.2160
 1291SOL     OW15331   3.459   3.954   3.280  0.1554  0.2990  0.3595
 1291SOL    HW115332   3.452   3.927   3.189 -0.0507  1.9159 -0.1068
 1291SOL    HW215333   3.386   3.915   3.328  0.3576  1.8298  1.9198
 1292SOL     OW15334   2.525   2.508   1.842  0.3896 -0.2832  0.0241
 1292SOL    HW115335   2.476   2.528   1.762  0.9267 -1.0917 -0.5128
 1292SOL    HW215336   2.610   2.517   1.797  0.3670 -2.2310 -0.4053
 1293SOL     OW15337   3.598   0.076   2.661  0.3714 -0.3239  0.2392
 1293SOL    HW115338   3.572   0.105   2.574 -2.2582  2.4250  1.9304
 1293SOL    HW215339   3.547   4.719   2.671 -0.8837  0.2862 -1.2269
 1294SOL     OW15340   3.324   1.782  12.293  0.0290 -0.0373 -0.1405
 1294SOL    HW115341   3.350   1.841  12.364 -0.1095  1.6425 -1.4903
 1294SOL    HW215342   3.407   1.741  12.271 -1.0603 -0.9017 -2.5604
 1295SOL     OW15343   4.637   3.102   4.231  0.2670  0.7257 -0.2420
 1295SOL    HW115344   4.609   3.023   4.186  1.4714  0.3634 -0.3574
 1295SOL    HW215345   4.685   3.157   4.169  0.0653  2.7992  1.4008
 1296SOL     OW15346   3.672   2.079   2.013  0.4273 -0.5988  0.1537
 1296SOL    HW115347   3.717   2.118   2.087 -0.3258 -0.1420  0.3772
 1296SOL    HW215348   3.668   2.150   1.950  2.8702 -1.1141 -0.5843
 1297SOL     OW15349   0.267   2.167  14.848  0.8145 -0.3083  0.3808
 1297SOL    HW115350   0.301   2.097  14.792  0.2636 -0.8143  0.6753
 1297SOL    HW215351   0.347   2.180  14.899  1.4751 -0.8624 -0.5188
 1298SOL     OW15352   2.382   2.244   6.013 -0.8972 -0.3405  0.2048
 1298SOL    HW115353   2.382   2.298   5.934 -0.0988  1.0057  1.1313
 1298SOL    HW215354   2.317   2.176   5.991 -0.0138 -0.3615 -2.3495
 1299SOL     OW15355   0.210   1.024   2.374 -0.3469  0.4548  0.9103
 1299SOL    HW115356   0.241   0.946   2.329  1.7827  1.5447  0.4738
 1299SOL    HW215357   0.294   1.068   2.392  0.6232 -1.3094  0.6858
 1300SOL     OW15358   4.256   0.537   7.823  0.3024 -0.5224 -0.3251
 1300SOL    HW115359   4.192   0.543   7.894  2.0101 -0.9622  1.2301
 1300SOL    HW215360   4.197   0.522   7.749  0.4093  0.0967 -0.5309
 1301SOL     OW15361   1.314   1.587  10.792  0.2403 -0.7045 -0.6351
 1301SOL    HW115362   1.248   1.647  10.825  2.5645  1.3609  0.1607
 1301SOL    HW215363   1.387   1.637  10.825 -1.0759  1.2311 -0.6809
 1302SOL     OW15364   3.772   4.123   1.988 -0.5255 -0.1265 -0.0024
 1302SOL    HW115365   3.769   4.030   1.964 -1.7475 -0.1158  0.1050
 1302SOL    HW215366   3.827   4.119   2.066  1.0727 -0.1915 -1.1465
 1303SOL     OW15367   4.708   2.640   5.404  0.1108  0.5501  0.2272
 1303SOL    HW115368   4.658   2.645   5.485 -1.4809 -3.2619 -0.5295
 1303SOL    HW215369   0.059   2.692   5.436 -0.0729  1.6211 -1.0549
 1304SOL     OW15370   1.763   4.689   3.227 -0.2096 -0.6949  0.2820
 1304SOL    HW115371   1.813   4.641   3.292 -0.6061 -0.8679  0.4633
 1304SOL    HW215372   1.671   4.689   3.256  0.0699  1.2173  1.2362
 1305SOL     OW15373   4.713   2.025  12.625  0.1109  0.0967  0.7437
 1305SOL    HW115374   4.620   2.030  12.601  1.4089  2.1492 -3.7778
 1305SOL    HW215375   0.044   2.032  12.546 -0.9595 -2.5428 -0.2384
 1306SOL     OW15376   3.477   2.793  11.274  0.1555 -0.2814  0.3598
 1306SOL    HW115377   3.482   2.725  11.207  0.1376  0.4973 -0.4328
 1306SOL    HW215378   3.487   2.732  11.347  2.3905  0.5151  0.7174
 1307SOL     OW15379   3.397   1.681   4.388 -0.0759 -0.0135 -0.2041
 1307SOL    HW115380   3.330   1.615   4.371 -0.2565  0.3364 -0.8415
 1307SOL    HW215381   3.474   1.631   4.363 -1.2987 -2.3930  0.8142
 1308SOL     OW15382   3.323   1.576   6.896  0.2781 -0.0547 -0.1293
 1308SOL    HW115383   3.345   1.534   6.813  1.0164 -0.0422  0.0660
 1308SOL    HW215384   3.373   1.657   6.886  3.9501 -1.9936  2.5302
 1309SOL     OW15385   4.427   1.953  10.755  0.3771  0.3519  0.3776
 1309SOL    HW115386   4.364   1.885  10.734  1.0323  0.1580 -0.9530
 1309SOL    HW215387   4.440   1.993  10.669  2.3191  1.2564  1.0757
 1310SOL     OW15388   2.559   1.077  13.719  0.0948  0.2153 -0.4591
 1310SOL    HW115389   2.486   1.124  13.679 -0.7554 -0.9383 -0.2528
 1310SOL    HW215390   2.580   1.014  13.651 -0.8003 -1.6172  0.9665
 1311SOL     OW15391   4.217   1.750  10.697  0.5112  0.0713 -0.1652
 1311SOL    HW115392   4.165   1.702  10.633  1.9945 -0.4268 -0.9913
 1311SOL    HW215393   4.170   1.756  10.780  0.5709 -0.2335 -0.1089
 1312SOL     OW15394   2.647   2.190   6.263 -0.5914 -0.1014 -0.1814
 1312SOL    HW115395   2.664   2.145   6.345 -1.3415 -0.5206 -0.2606
 1312SOL    HW215396   2.598   2.265   6.297  0.3872 -0.3530  1.7513
 1313SOL     OW15397   0.041   2.894   5.714 -0.2922 -0.1301  0.0423
 1313SOL    HW115398   0.028   2.805   5.746 -0.7173 -0.2888 -0.5544
 1313SOL    HW215399   4.672   2.924   5.714 -0.5875 -1.0973  2.6630
 1314SOL     OW15400   2.937   3.655   5.486  0.3349 -0.8503  0.0249
 1314SOL    HW115401   2.997   3.639   5.559 -1.3784  1.4836  1.9467
 1314SOL    HW215402   2.993   3.645   5.409 -1.0344  1.9145 -1.3249
 1315SOL     OW15403   3.221   1.012  13.432 -1.2012 -0.6141  0.1158
 1315SOL    HW115404   3.207   1.084  13.493  2.2612 -0.2144  0.4461
 1315SOL    HW215405   3.165   0.943  13.469 -0.0651 -0.9789  1.1791
 1316SOL     OW15406   0.262   0.022  15.056 -0.1641 -0.1602  0.4078
 1316SOL    HW115407   0.194   0.033  15.122 -0.3889  0.7260  0.0302
 1316SOL    HW215408   0.210   0.044  14.979  2.0210 -0.3284 -1.1505
 1317SOL     OW15409   3.538   0.842   3.621  0.0830 -0.2925  0.1968
 1317SOL    HW115410   3.551   0.857   3.528 -0.5337  0.2939  0.2040
 1317SOL    HW215411   3.445   0.858   3.638 -0.0623 -2.0136  0.9497
 1318SOL     OW15412   1.886   2.691   4.035  0.6322 -0.1947 -0.4632
 1318SOL    HW115413   1.811   2.749   4.025  2.3305  2.0791  0.1573
 1318SOL    HW215414   1.940   2.741   4.096  0.9936  0.1353 -1.0612
 1319SOL     OW15415   3.656   2.250   3.222  0.1679  0.0663  0.1505
 1319SOL    HW115416   3.722   2.264   3.154  0.8478  1.9412  1.2151
 1319SOL    HW215417   3.706   2.205   3.291  1.5523 -0.7233 -1.3599
 1320SOL     OW15418   3.184   1.057  10.684 -0.3421 -0.4407  0.3506
 1320SOL    HW115419   3.097   1.092  10.698  0.9638  2.7219  0.4480
 1320SOL    HW215420   3.232   1.139  10.670 -1.2658  0.4578  2.6127
 1321SOL     OW15421   1.240   0.195  13.319  0.1646  0.3099 -0.4097
 1321SOL    HW115422   1.296   0.243  13.258  1.3871 -0.2891  0.2225
 1321SOL    HW215423   1.213   0.118  13.269 -3.7624 -0.3166  2.6437
 1322SOL     OW15424   4.639   2.335   5.538  0.0758 -0.8060 -0.1939
 1322SOL    HW115425   4.559   2.319   5.590 -0.2543 -0.8262 -0.7118
 1322SOL    HW215426   4.611   2.360   5.450  1.8056 -1.9133 -1.0361
 1323SOL     OW15427   3.528   3.697   0.578  0.2828  0.1286  0.6035
 1323SOL    HW115428   3.447   3.747   0.573  2.0804  2.9971  0.3685
 1323SOL    HW215429   3.550   3.689   0.671  1.7881 -0.2418  0.2154
 1324SOL     OW15430   3.397   1.888  15.153  0.1281 -0.2323 -0.1300
 1324SOL    HW115431   3.332   1.835  15.200  0.6282 -0.3757  0.4045
 1324SOL    HW215432   3.421   1.832  15.079 -1.1234 -0.4850 -0.3497
 1325SOL     OW15433   0.770   4.660   3.840  0.1439 -0.2458  1.0864
 1325SOL    HW115434   0.689   4.652   3.790  0.8586 -0.3889 -0.0495
 1325SOL    HW215435   0.830   4.682   3.769 -0.4504  0.9202  0.9452
 1326SOL     OW15436   1.483   2.866   7.916 -0.0178  0.0522  0.5504
 1326SOL    HW115437   1.491   2.771   7.905  3.0164  0.1775  1.5911
 1326SOL    HW215438   1.407   2.876   7.972  0.4366 -1.8888  1.5102
 1327SOL     OW15439   3.842   3.752   0.548 -0.2612  0.2625 -0.0798
 1327SOL    HW115440   3.857   3.813   0.620 -2.8693  1.6093 -0.6683
 1327SOL    HW215441   3.787   3.684   0.587  0.7579 -0.3785  0.2254
 1328SOL     OW15442   0.187   2.631   6.586 -0.2911 -0.1792 -0.3056
 1328SOL    HW115443   0.205   2.675   6.503 -0.4840  1.4167  0.4938
 1328SOL    HW215444   0.105   2.674   6.611 -0.0365  1.5687 -2.4883
 1329SOL     OW15445   3.356   0.251   0.795  0.3191 -0.2871  0.2036
 1329SOL    HW115446   3.297   0.311   0.749 -1.6840 -1.9783  0.5122
 1329SOL    HW215447   3.404   0.212   0.722  0.3256  1.2436 -0.5942
 1330SOL     OW15448   0.550   4.154  11.950 -0.6274 -0.1825  0.1411
 1330SOL    HW115449   0.502   4.071  11.957  1.2194 -1.2110  0.6028
 1330SOL    HW215450   0.634   4.115  11.925  0.6319  2.5237  0.1040
 1331SOL     OW15451   1.898   0.537   3.632  0.2154 -0.5486  0.1243
 1331SOL    HW115452   1.976   0.539   3.577 -0.1618 -0.7465 -0.4257
 1331SOL    HW215453   1.886   0.442   3.640  0.2533 -0.5908 -0.2948
 1332SOL     OW15454   0.804   3.408  10.555 -0.0893  0.2476 -0.1879
 1332SOL    HW115455   0.853   3.327  10.566 -0.9252 -0.0600  1.2839
 1332SOL    HW215456   0.719   3.381  10.591 -0.4134  1.2187 -0.2365
 1333SOL     OW15457   0.830   0.321  12.746  0.2750 -0.0513  0.0851
 1333SOL    HW115458   0.744   0.283  12.763  1.1315 -1.3979  1.3695
 1333SOL    HW215459   0.815   0.414  12.731  0.4509 -0.3900 -2.2692
 1334SOL     OW15460   1.827   1.214   5.866 -0.0272  0.0763  0.1576
 1334SOL    HW115461   1.852   1.243   5.778  0.6820  2.7755  1.2353
 1334SOL    HW215462   1.886   1.265   5.922  2.0429 -2.1462  0.0216
 1335SOL     OW15463   2.334   3.792   4.920 -0.3211 -0.1602  0.1520
 1335SOL    HW115464   2.303   3.766   5.006 -0.5896  0.9158  0.3775
 1335SOL    HW215465   2.422   3.754   4.911  0.5678  1.3074  2.5296
 1336SOL     OW15466   0.518   2.445   0.861  0.7104  0.1697  0.2724
 1336SOL    HW115467   0.588   2.380   0.858 -0.8379 -1.4518 -1.3153
 1336SOL    HW215468   0.510   2.486   0.775  0.3374  0.7399  0.5799
 1337SOL     OW15469   2.435   3.590   4.299  0.4682 -0.0859  0.0938
 1337SOL    HW115470   2.415   3.605   4.391  0.9538  0.3136  0.1389
 1337SOL    HW215471   2.349   3.564   4.266 -0.0193 -0.0596  1.3678
 1338SOL     OW15472   4.482   3.313   3.481  0.0404 -0.6156  0.0499
 1338SOL    HW115473   4.422   3.326   3.555  0.8673 -1.0885  0.8091
 1338SOL    HW215474   4.550   3.377   3.501  1.1329 -1.5642 -0.6399
 1339SOL     OW15475   1.624   3.958   9.301 -0.3463 -0.4057 -0.5519
 1339SOL    HW115476   1.548   3.943   9.245  0.1596 -0.8979 -1.0957
 1339SOL    HW215477   1.653   3.870   9.323 -2.1249 -0.9155 -0.3025
 1340SOL     OW15478   0.002   3.386   2.520 -0.1377 -0.2774 -0.1057
 1340SOL    HW115479   0.056   3.404   2.597 -1.3065 -1.3000  0.9472
 1340SOL    HW215480   4.668   3.320   2.559  0.1120  0.0458  0.7982
 1341SOL     OW15481   3.952   1.546   7.340 -0.4857 -0.0488 -0.3045
 1341SOL    HW115482   3.927   1.562   7.249 -0.0704  0.4692 -0.3280
 1341SOL    HW215483   3.987   1.635   7.353  0.5674 -0.6568  1.0016
 1342SOL     OW15484   0.595   1.226  16.158  0.6183  0.3007  0.3828
 1342SOL    HW115485   0.665   1.249  16.097 -0.7115  1.0007 -0.8705
 1342SOL    HW215486   0.606   1.131  16.153  1.6697  0.2811  2.7708
 1343SOL     OW15487   3.428   2.407  14.117  0.0833 -0.0684 -0.3268
 1343SOL    HW115488   3.358   2.466  14.142  0.8533 -0.4660  2.8351
 1343SOL    HW215489   3.402   2.379  14.029  1.1978 -0.5307 -0.5163
 1344SOL     OW15490   0.257   2.661  13.414 -0.4037 -0.2639 -0.2402
 1344SOL    HW115491   0.263   2.747  13.456 -1.0704 -0.1093 -0.4519
 1344SOL    HW215492   0.303   2.601  13.472 -2.6010 -1.5073  0.2080
 1345SOL     OW15493   2.603   0.324  14.178 -0.1767  0.0248  0.6869
 1345SOL    HW115494   2.667   0.254  14.191 -1.5244 -1.1311  1.0919
 1345SOL    HW215495   2.596   0.328  14.082  1.4044  0.8379  0.6062
 1346SOL     OW15496   1.828   3.900   4.188 -0.5038 -0.0151  0.4545
 1346SOL    HW115497   1.869   3.893   4.102  0.5938 -1.1848  1.0785
 1346SOL    HW215498   1.900   3.936   4.240 -1.2588 -1.7401  2.6655
 1347SOL     OW15499   2.215   0.641   4.979 -0.2706  0.0102  0.3442
 1347SOL    HW115500   2.135   0.684   5.008 -1.5453 -0.9977 -1.6329
 1347SOL    HW215501   2.173   0.582   4.916  2.0894 -1.8785  0.5263
 1348SOL     OW15502   3.111   1.652   8.281 -1.1614  0.3018  0.1835
 1348SOL    HW115503   3.114   1.586   8.350 -1.7056  3.6085  3.3983
 1348SOL    HW215504   3.150   1.729   8.322  0.2458 -0.2912 -0.0392
 1349SOL     OW15505   2.800   1.815   2.778  0.2133 -0.2893 -0.5995
 1349SOL    HW115506   2.726   1.876   2.774 -0.2380 -0.7739  0.4128
 1349SOL    HW215507   2.873   1.877   2.777  0.7739 -0.9646 -1.6621
 1350SOL     OW15508   0.557   0.284   4.163  0.1304 -0.8176  0.6204
 1350SOL    HW115509   0.556   0.269   4.068 -2.8469 -1.7440  0.7829
 1350SOL    HW215510   0.629   0.343   4.181  1.2484 -1.3149 -2.2357
 1351SOL     OW15511   1.724   2.019  16.782 -0.3710  0.2942 -0.0712
 1351SOL    HW115512   1.743   2.080  16.853 -4.8139  0.8770  0.6124
 1351SOL    HW215513   1.697   2.077  16.711 -1.2828  0.9609  0.8219
 1352SOL     OW15514   3.853   2.604  12.022  0.3323  0.4126 -0.2227
 1352SOL    HW115515   3.842   2.510  12.039  0.7806  0.5435  0.8316
 1352SOL    HW215516   3.761   2.629  12.024 -0.0601 -1.1250  1.9314
 1353SOL     OW15517   3.858   2.807   4.861  0.4207 -0.4961  0.2919
 1353SOL    HW115518   3.941   2.836   4.899  1.5528 -1.7975 -1.1771
 1353SOL    HW215519   3.875   2.795   4.768 -0.6318  2.4086 -0.2518
 1354SOL     OW15520   0.062   4.441   3.922 -0.4870 -0.4186  0.0001
 1354SOL    HW115521   4.721   4.499   3.880 -0.1385 -1.9028 -2.5991
 1354SOL    HW215522   0.053   4.356   3.879  0.7501 -0.8606  0.6088
 1355SOL     OW15523   3.463   4.060   8.891 -0.4383 -0.1688 -0.2338
 1355SOL    HW115524   3.533   4.113   8.929 -0.9451 -0.7439  1.4942
 1355SOL    HW215525   3.490   3.971   8.911  1.8910  0.6244  0.1826
 1356SOL     OW15526   3.760   4.454   8.033  0.1443  0.1146 -0.8083
 1356SOL    HW115527   3.745   4.534   7.982  1.4949  1.3200  0.6814
 1356SOL    HW215528   3.680   4.454   8.087  0.6342 -0.3387 -0.0850
 1357SOL     OW15529   2.587   1.949   0.076  0.0379 -0.5947  0.0636
 1357SOL    HW115530   2.552   2.004   0.146 -1.6486 -2.1272  0.4402
 1357SOL    HW215531   2.594   2.012   0.004  0.2420 -1.1421 -0.3956
 1358SOL     OW15532   2.010   1.494   9.363 -0.6009 -0.4610 -0.3345
 1358SOL    HW115533   2.084   1.544   9.327  0.3763 -1.3307  0.4606
 1358SOL    HW215534   1.987   1.438   9.289  1.0734 -0.7246 -0.6656
 1359SOL     OW15535   4.530   3.470   0.802 -0.0408 -0.3503  0.4059
 1359SOL    HW115536   4.548   3.542   0.863  0.6463 -0.5027  0.3817
 1359SOL    HW215537   4.511   3.517   0.721  0.5560  0.1748  0.5660
 1360SOL     OW15538   1.559   4.071   3.395  0.0634  0.1213 -0.4733
 1360SOL    HW115539   1.599   4.154   3.422  1.3082  0.2698 -2.6766
 1360SOL    HW215540   1.644   4.029   3.380  0.7163  0.6263  1.7808
 1361SOL     OW15541   3.267   3.548   7.101  0.3426 -0.2298 -0.0434
 1361SOL    HW115542   3.348   3.576   7.060  0.8373 -0.1674  0.9636
 1361SOL    HW215543   3.295   3.546   7.193  0.5757  1.7546 -0.0559
 1362SOL     OW15544   1.589   1.554   1.183 -0.4194  0.0446 -0.6170
 1362SOL    HW115545   1.658   1.620   1.183  0.6506 -1.0715 -1.6199
 1362SOL    HW215546   1.530   1.597   1.245 -1.3471 -1.4011 -0.4912
 1363SOL     OW15547   0.520   0.096   1.779 -0.2290 -0.3169 -0.4577
 1363SOL    HW115548   0.442   0.137   1.742 -0.7714 -0.0400  0.9890
 1363SOL    HW215549   0.592   0.154   1.752  1.2122 -1.4306  0.9746
 1364SOL     OW15550   0.554   3.003  10.512 -0.2004 -0.1705  0.4181
 1364SOL    HW115551   0.618   2.932  10.509 -0.7165 -0.6107 -0.1182
 1364SOL    HW215552   0.498   2.964  10.445  0.0298 -1.8661  1.2223
 1365SOL     OW15553   0.601   1.302   8.082  0.0599 -0.6329 -0.1435
 1365SOL    HW115554   0.624   1.308   7.990 -0.5814 -0.4958 -0.2960
 1365SOL    HW215555   0.571   1.212   8.095 -2.4880  0.2249 -0.1280
 1366SOL     OW15556   2.987   1.351   3.730 -0.5137  0.2908 -0.6166
 1366SOL    HW115557   3.020   1.382   3.645  0.1386  1.7940  0.1822
 1366SOL    HW215558   2.984   1.439   3.768 -2.0661 -0.3780  0.8148
 1367SOL     OW15559   1.982   2.558  10.622  0.2354 -1.0607 -0.0705
 1367SOL    HW115560   1.909   2.616  10.600  0.5445 -0.7402 -0.2673
 1367SOL    HW215561   1.986   2.579  10.716 -0.0395 -0.4435 -0.1921
 1368SOL     OW15562   1.600   2.541   8.179  0.3719 -0.0343 -0.0140
 1368SOL    HW115563   1.583   2.505   8.266 -1.4488 -0.9156 -0.7526
 1368SOL    HW215564   1.688   2.508   8.160  0.1937 -1.1943  1.1550
 1369SOL     OW15565   1.029   1.894  14.385 -0.7557 -0.0900 -0.0461
 1369SOL    HW115566   0.935   1.876  14.390 -0.6524 -0.4070  0.6514
 1369SOL    HW215567   1.030   1.986  14.412  0.0943 -0.4761  1.1988
 1370SOL     OW15568   0.701   4.555  12.186  0.0836 -0.1120 -0.3268
 1370SOL    HW115569   0.694   4.473  12.137  0.2534 -1.4910  1.9519
 1370SOL    HW215570   0.687   4.619  12.117 -2.9575 -0.9141 -0.4410
 1371SOL     OW15571   0.379   1.187   4.049 -0.1729  0.5583  0.3118
 1371SOL    HW115572   0.304   1.145   4.008  0.3451 -0.6990  0.6646
 1371SOL    HW215573   0.446   1.122   4.026 -1.7548 -1.4103  1.2963
 1372SOL     OW15574   3.987   1.717   7.735 -0.7459 -0.0578 -0.1406
 1372SOL    HW115575   4.065   1.722   7.680 -0.8741 -1.3354 -0.4391
 1372SOL    HW215576   3.998   1.637   7.786 -0.1509 -0.8048 -1.4383
 1373SOL     OW15577   1.283   0.982   3.046  0.1127  0.5276 -0.6829
 1373SOL    HW115578   1.221   0.910   3.031 -1.7751  1.8457  0.9216
 1373SOL    HW215579   1.224   1.057   3.042  1.4390  1.6544  1.4705
 1374SOL     OW15580   3.907   1.691   2.989  0.3999 -0.2039  0.0731
 1374SOL    HW115581   3.853   1.751   3.041 -1.9492 -0.4518 -2.0296
 1374SOL    HW215582   3.839   1.623   2.983  1.4923 -1.2843 -0.1050
 1375SOL     OW15583   1.764   3.793  16.849  0.2975 -0.1123  0.1117
 1375SOL    HW115584   1.804   3.739  16.917  1.8239  2.1181  0.9625
 1375SOL    HW215585   1.762   3.736  16.772  0.3396 -1.4552  1.1108
 1376SOL     OW15586   3.065   1.010  17.670 -0.0305  0.3672 -0.2919
 1376SOL    HW115587   2.976   1.027   0.008  0.0575 -2.3350  1.5341
 1376SOL    HW215588   3.108   0.996   0.062  1.7810  2.0853 -0.9419
 1377SOL     OW15589   2.593   1.338   0.822 -0.2510  1.0607  0.1363
 1377SOL    HW115590   2.607   1.429   0.798 -0.9652  1.0006 -0.5218
 1377SOL    HW215591   2.571   1.300   0.736 -0.3587  0.1625  0.5554
 1378SOL     OW15592   1.842   2.038   1.308  0.6538 -0.0621  0.1038
 1378SOL    HW115593   1.785   2.109   1.336  0.0644 -0.3599 -0.3407
 1378SOL    HW215594   1.780   1.967   1.324  0.5634 -0.3825 -1.6834
 1379SOL     OW15595   4.556   0.646   7.331 -0.1722 -0.3187 -0.7868
 1379SOL    HW115596   4.575   0.739   7.321  1.9920 -0.5704  1.1494
 1379SOL    HW215597   4.643   0.613   7.351  0.5546  1.6737 -0.6421
 1380SOL     OW15598   4.260   0.129   1.883 -0.2589 -0.1131 -0.5005
 1380SOL    HW115599   4.229   0.205   1.933  1.0971 -0.2223  0.5073
 1380SOL    HW215600   4.284   0.073   1.957  1.2682  0.2277 -0.7331
 1381SOL     OW15601   2.659   2.417  14.928 -0.0472 -0.4319  0.3365
 1381SOL    HW115602   2.674   2.338  14.979  0.2167 -1.5504 -1.4838
 1381SOL    HW215603   2.578   2.449  14.967  0.4375  0.5477  0.5470
 1382SOL     OW15604   0.852   0.060   8.701 -0.2974  0.4443  0.0988
 1382SOL    HW115605   0.829   0.145   8.663 -0.2980  0.0306 -0.8366
 1382SOL    HW215606   0.768   0.018   8.722 -0.7125 -0.5419 -3.4834
 1383SOL     OW15607   2.323   0.468  10.906  0.3474  0.5532  0.1499
 1383SOL    HW115608   2.326   0.430  10.819  0.6741  2.4766 -0.6762
 1383SOL    HW215609   2.348   0.386  10.949  0.5534  1.3834  1.6050
 1384SOL     OW15610   0.351   2.056   7.773  0.3135  0.2220  0.5340
 1384SOL    HW115611   0.416   2.064   7.843  0.4795  1.9451  0.1669
 1384SOL    HW215612   0.389   2.114   7.707 -1.4876  1.8543  0.9581
 1385SOL     OW15613   1.146   1.830   0.413 -0.1763 -0.0968 -0.0978
 1385SOL    HW115614   1.168   1.738   0.427 -0.5460 -0.2158 -0.2955
 1385SOL    HW215615   1.132   1.871   0.498  1.0174  1.2779 -0.5552
 1386SOL     OW15616   2.341   2.715  13.077 -0.6070  0.5173  0.2430
 1386SOL    HW115617   2.259   2.732  13.124  0.2427 -1.7313  2.5776
 1386SOL    HW215618   2.294   2.674  13.005 -1.7338 -2.3235  2.6077
 1387SOL     OW15619   2.019   3.678   0.631  0.7035  0.5084 -0.4429
 1387SOL    HW115620   2.079   3.722   0.692  0.7479  2.1527 -1.6879
 1387SOL    HW215621   2.054   3.678   0.542 -1.1139 -0.2309 -1.1550
 1388SOL     OW15622   2.685   4.064  16.476  0.0789  0.1984  0.1817
 1388SOL    HW115623   2.758   4.116  16.442 -1.9006  2.4450 -0.5755
 1388SOL    HW215624   2.720   4.041  16.563  3.0523  1.5651 -0.6448
 1389SOL     OW15625   2.151   1.550   5.958 -0.3639  0.2265 -0.3652
 1389SOL    HW115626   2.149   1.640   5.988  0.5413  0.6908 -1.6705
 1389SOL    HW215627   2.108   1.562   5.873 -0.7169 -0.3212 -0.2630
 1390SOL     OW15628   4.168   2.190   8.363 -0.0031 -0.1352  0.1093
 1390SOL    HW115629   4.131   2.185   8.450 -0.4902  0.4084 -0.0715
 1390SOL    HW215630   4.088   2.184   8.311  0.5228 -2.1848 -0.4752
 1391SOL     OW15631   0.006   3.224   9.409 -0.4843 -0.4297  0.6990
 1391SOL    HW115632   0.011   3.251   9.501  0.8470 -0.0203  0.4965
 1391SOL    HW215633   0.071   3.154   9.412 -0.0696  0.0021  1.7585
 1392SOL     OW15634   3.315   1.612  13.918  1.0083 -0.0592  0.2923
 1392SOL    HW115635   3.312   1.640  14.010 -1.4363 -0.8093  0.4215
 1392SOL    HW215636   3.259   1.679  13.879 -1.6135 -1.1909  2.1332
 1393SOL     OW15637   3.180   2.705   7.553  0.3236  0.4547  0.0485
 1393SOL    HW115638   3.163   2.719   7.459  1.0071 -0.1292 -0.1684
 1393SOL    HW215639   3.165   2.795   7.582  0.2133  0.6422 -0.5804
 1394SOL     OW15640   1.545   2.546   0.235 -0.0378 -0.1926  0.2786
 1394SOL    HW115641   1.494   2.615   0.278  1.4252 -0.1647  1.9912
 1394SOL    HW215642   1.495   2.472   0.270 -1.2813  0.1019 -0.8936
 1395SOL     OW15643   2.766   3.354   6.135 -0.0142  0.4938  0.5906
 1395SOL    HW115644   2.835   3.399   6.087  1.3915 -2.1284  0.1425
 1395SOL    HW215645   2.688   3.408   6.118  0.1166  0.5888  0.3080
 1396SOL     OW15646   1.982   0.760   7.230  0.1564 -0.5254  0.1849
 1396SOL    HW115647   2.008   0.713   7.309 -1.1923  0.8762  1.4541
 1396SOL    HW215648   1.911   0.814   7.264  0.3527 -0.4845  0.5326
 1397SOL     OW15649   2.246   1.333  17.079 -0.8399  0.1046 -0.3692
 1397SOL    HW115650   2.328   1.302  17.118 -1.4846  0.2784  1.1522
 1397SOL    HW215651   2.180   1.302  17.142 -0.0294 -0.8741  0.0023
 1398SOL     OW15652   2.404   2.576  13.565 -0.0460  0.0448  0.3910
 1398SOL    HW115653   2.329   2.575  13.505 -0.6160 -0.4943  1.1227
 1398SOL    HW215654   2.457   2.644  13.523  2.1880 -2.4901 -0.9021
 1399SOL     OW15655   3.150   2.845  17.500  0.2904  0.1042 -0.1446
 1399SOL    HW115656   3.189   2.837  17.587 -0.0564 -0.4783 -0.0421
 1399SOL    HW215657   3.175   2.934  17.477  1.3525  0.0254  0.7211
 1400SOL     OW15658   3.014   1.879   7.946 -0.2099  0.3108  0.2464
 1400SOL    HW115659   2.975   1.963   7.971 -0.5029 -0.2219  1.5601
 1400SOL    HW215660   3.094   1.910   7.904  0.1029 -1.1709 -0.2733
 1401SOL     OW15661   3.177   0.665   2.306  0.0238  0.4996 -0.0818
 1401SOL    HW115662   3.268   0.687   2.286 -0.1021 -1.0020 -2.3641
 1401SOL    HW215663   3.187   0.570   2.317 -0.7223  0.3994 -0.2416
 1402SOL     OW15664   0.623   0.396   4.445  0.0183  0.1781  0.1473
 1402SOL    HW115665   0.553   0.462   4.452 -1.1108 -1.0461  0.4034
 1402SOL    HW215666   0.591   0.324   4.498  0.3610  0.3497  0.5915
 1403SOL     OW15667   3.927   1.422   5.174  0.3466 -0.0983  0.1904
 1403SOL    HW115668   3.879   1.393   5.251  1.0276  1.2053  1.1060
 1403SOL    HW215669   3.981   1.345   5.164  0.6345  0.1609 -0.2368
 1404SOL     OW15670   3.977   1.939   8.834  0.1626  0.7240  0.4478
 1404SOL    HW115671   3.889   1.976   8.836 -0.1033  0.2363 -1.8478
 1404SOL    HW215672   3.961   1.856   8.879  0.6013  1.1188  1.3263
 1405SOL     OW15673   1.934   0.908   5.400  0.1474  0.0108 -0.0586
 1405SOL    HW115674   1.903   0.973   5.463 -1.2478 -0.4466 -0.2831
 1405SOL    HW215675   1.853   0.864   5.374 -1.3635  0.7511  3.4791
 1406SOL     OW15676   0.460   1.971   2.386 -0.4905  0.2855  0.6810
 1406SOL    HW115677   0.470   2.048   2.442  2.0977 -0.2767  0.9922
 1406SOL    HW215678   0.366   1.981   2.369 -0.2798  1.8222  0.4699
 1407SOL     OW15679   3.972   3.941  11.554  0.3302 -0.0252  0.0811
 1407SOL    HW115680   3.904   3.946  11.487 -0.3144 -0.7077  0.6898
 1407SOL    HW215681   4.050   3.926  11.501  0.6790 -0.3155  0.6724
 1408SOL     OW15682   1.987   3.563   8.931  0.5121 -0.8759  0.7901
 1408SOL    HW115683   1.900   3.523   8.926 -0.2275  1.1133 -2.1266
 1408SOL    HW215684   1.975   3.651   8.965  1.1988 -0.4337 -0.1203
 1409SOL     OW15685   0.398   3.027   4.974  0.2629  0.6516 -0.4476
 1409SOL    HW115686   0.412   3.036   4.880 -0.9708 -1.1964 -0.7999
 1409SOL    HW215687   0.350   2.944   4.973 -1.6985  1.7655  0.5946
 1410SOL     OW15688   0.000   0.574   7.927 -0.0764 -0.1733  0.0372
 1410SOL    HW115689   4.661   0.502   7.917 -1.0301  0.7413 -0.6856
 1410SOL    HW215690   4.651   0.638   7.920 -1.7395 -1.7645  2.6166
 1411SOL     OW15691   4.575   3.731  13.814 -0.1177 -0.1034  0.2701
 1411SOL    HW115692   4.516   3.798  13.848 -0.9676 -0.1008 -1.1890
 1411SOL    HW215693   4.529   3.647  13.812 -2.3356  1.1277 -0.2586
 1412SOL     OW15694   3.182   1.099  14.173 -0.1826  1.0086  0.3883
 1412SOL    HW115695   3.175   1.073  14.265  1.2352  2.3065  0.8568
 1412SOL    HW215696   3.265   1.068  14.136 -0.3608 -2.3797  2.7786
 1413SOL     OW15697   0.782   1.220  10.177 -0.0118  0.1094  0.0861
 1413SOL    HW115698   0.745   1.284  10.116 -0.8580 -2.0992 -1.7081
 1413SOL    HW215699   0.720   1.149  10.160  0.9069 -0.3556 -1.3117
 1414SOL     OW15700   1.386   1.615  16.070  0.7506 -0.1516  0.0329
 1414SOL    HW115701   1.369   1.677  16.141  0.7761  1.0773 -1.0339
 1414SOL    HW215702   1.411   1.535  16.115  2.3743 -0.1821 -0.9568
 1415SOL     OW15703   4.364   2.162  12.183  0.0719 -0.3671 -0.2239
 1415SOL    HW115704   4.276   2.126  12.197  0.4910 -0.6235  1.7380
 1415SOL    HW215705   4.365   2.159  12.087  0.9737  0.5148 -0.2367
 1416SOL     OW15706   0.880   2.926  16.260  0.2461  0.3084  0.5797
 1416SOL    HW115707   0.952   2.945  16.321  0.0819 -1.3831  1.3211
 1416SOL    HW215708   0.802   2.955  16.307 -0.4952 -0.2100 -0.3440
 1417SOL     OW15709   2.949   4.136   1.744 -0.5644 -0.0642 -0.2715
 1417SOL    HW115710   2.980   4.066   1.801  1.5754  0.4500 -0.8172
 1417SOL    HW215711   2.891   4.174   1.811  0.8344  0.7579  0.4783
 1418SOL     OW15712   1.268   0.637   5.747  0.1694 -0.8792 -0.0505
 1418SOL    HW115713   1.265   0.591   5.663  0.6271 -0.6976 -0.1652
 1418SOL    HW215714   1.361   0.639   5.770 -0.7963  0.9208  3.7405
 1419SOL     OW15715   2.278   0.096   9.782  0.2252  0.2847  0.0038
 1419SOL    HW115716   2.359   0.050   9.762 -2.1337 -3.6088 -0.8429
 1419SOL    HW215717   2.231   0.070   9.702  1.1401 -0.3714 -0.3211
 1420SOL     OW15718   3.083   1.438  15.574  0.4266  0.5026 -0.1568
 1420SOL    HW115719   3.107   1.421  15.665 -0.3938 -1.8455 -0.3600
 1420SOL    HW215720   3.067   1.532  15.576  0.4697  0.4403  2.9974
 1421SOL     OW15721   0.725   0.686   6.220  0.5376 -0.5849  0.6204
 1421SOL    HW115722   0.819   0.676   6.207  0.5231 -1.1260  0.9448
 1421SOL    HW215723   0.720   0.781   6.230 -0.8891 -0.5389 -0.4652
 1422SOL     OW15724   1.668   3.637  15.644  0.1884 -0.3620  0.7074
 1422SOL    HW115725   1.678   3.731  15.654  2.3960 -0.5237 -0.0780
 1422SOL    HW215726   1.577   3.633  15.614  0.6019 -2.8769 -0.2568
 1423SOL     OW15727   4.603   3.547   7.160  0.1276 -0.2792  0.4382
 1423SOL    HW115728   4.559   3.628   7.133  1.9108  0.1614 -1.1483
 1423SOL    HW215729   4.531   3.512   7.212  0.0925 -0.8764 -0.0180
 1424SOL     OW15730   3.499   4.489   3.076 -0.6696 -0.0991  0.1139
 1424SOL    HW115731   3.420   4.439   3.057  0.0739 -0.8563 -1.0058
 1424SOL    HW215732   3.510   4.477   3.170  0.1045 -1.6509 -0.1810
 1425SOL     OW15733   3.100   2.799   4.312  0.2246  0.1435  0.5842
 1425SOL    HW115734   3.047   2.876   4.292 -1.3206 -1.4765 -1.4993
 1425SOL    HW215735   3.100   2.795   4.407 -2.2996 -2.6570  0.4618
 1426SOL     OW15736   1.177   3.955   8.529 -0.5943 -0.3247 -0.1161
 1426SOL    HW115737   1.248   3.996   8.479 -0.6772 -0.6887 -0.5313
 1426SOL    HW215738   1.189   4.001   8.612 -0.4992 -2.4311  1.0227
 1427SOL     OW15739   2.570   2.940   7.032 -0.3410  0.0667  0.0270
 1427SOL    HW115740   2.512   2.924   7.107  0.2285 -2.9269 -0.1660
 1427SOL    HW215741   2.505   2.965   6.967 -0.2934 -1.5251 -0.6347
 1428SOL     OW15742   3.273   0.599  12.661 -0.0019 -0.2237 -0.3987
 1428SOL    HW115743   3.339   0.668  12.651 -0.4596  0.4721  1.4485
 1428SOL    HW215744   3.201   0.652  12.628  0.1056  0.5180  0.5552
 1429SOL     OW15745   2.879   1.809   3.621 -0.0695  0.5510 -0.1953
 1429SOL    HW115746   2.824   1.832   3.546 -1.4430  1.0131  0.9652
 1429SOL    HW215747   2.966   1.801   3.583 -0.1608  0.1631 -0.3178
 1430SOL     OW15748   2.446   1.392  10.301  0.8029 -0.2184 -0.3587
 1430SOL    HW115749   2.382   1.416  10.368  2.2237  0.1541  0.8687
 1430SOL    HW215750   2.503   1.322  10.334  1.2536  0.0964 -0.4778
 1431SOL     OW15751   2.291   2.793   3.183  0.4452 -0.5576 -0.2315
 1431SOL    HW115752   2.316   2.843   3.105 -1.7738 -0.3290 -0.8007
 1431SOL    HW215753   2.375   2.787   3.228 -0.2877  2.1174  1.4531
 1432SOL     OW15754   3.429   4.673  17.373  0.3692  0.6781 -0.1219
 1432SOL    HW115755   3.356   4.618  17.401  0.9673  0.3086  0.7071
 1432SOL    HW215756   3.396   0.028  17.418 -1.9916 -0.0865 -0.5390
 1433SOL     OW15757   2.152   3.107   7.350 -0.0515  1.0700 -0.3706
 1433SOL    HW115758   2.165   3.026   7.300 -2.9085  0.6615 -0.4209
 1433SOL    HW215759   2.065   3.095   7.387  0.4675  2.1388  1.1747
 1434SOL     OW15760   1.250   0.373   6.494  0.2634  0.2418 -0.0013
 1434SOL    HW115761   1.277   0.443   6.435 -0.0572  0.4282  0.0715
 1434SOL    HW215762   1.199   0.415   6.563  0.7375  2.1173 -0.7742
 1435SOL     OW15763   2.527   2.018   6.100 -0.1190  0.4027 -0.1132
 1435SOL    HW115764   2.452   2.037   6.156  0.2746  2.3735 -0.2306
 1435SOL    HW215765   2.592   2.077   6.139  0.0748  0.2853 -0.2628
 1436SOL     OW15766   1.718   0.800   7.301 -0.3060  0.1819 -0.3160
 1436SOL    HW115767   1.674   0.814   7.384 -2.0078 -0.2808 -1.1536
 1436SOL    HW215768   1.682   0.721   7.261 -1.8224 -0.0588  1.5830
 1437SOL     OW15769   2.018   2.008   8.151  0.2097  0.2838  0.0382
 1437SOL    HW115770   2.029   1.921   8.114  1.0634  1.1064 -1.6318
 1437SOL    HW215771   2.012   2.053   8.067  0.2211 -2.1317 -1.2487
 1438SOL     OW15772   3.160   2.723   7.135 -0.7389 -0.2088  0.4138
 1438SOL    HW115773   3.119   2.675   7.207 -2.1481  0.7059  0.2239
 1438SOL    HW215774   3.113   2.806   7.130  0.4751  0.4764  0.5048
 1439SOL     OW15775   1.163   0.926   7.902  0.3926  0.2501  0.1181
 1439SOL    HW115776   1.080   0.906   7.859  0.3804  0.7998 -0.1223
 1439SOL    HW215777   1.185   0.842   7.941 -0.3451 -0.7363 -1.5955
 1440SOL     OW15778   0.660   3.407   7.778 -0.0537  0.3618  0.1540
 1440SOL    HW115779   0.723   3.339   7.756 -1.9772 -1.1209 -0.7386
 1440SOL    HW215780   0.615   3.405   7.694 -2.5302 -2.4601  1.5400
 1441SOL     OW15781   3.889   2.992  10.087 -0.0552  0.3507 -0.0906
 1441SOL    HW115782   3.936   3.023  10.010 -0.2419 -1.2354 -0.8309
 1441SOL    HW215783   3.924   3.058  10.147  0.7900  1.2205 -1.5546
 1442SOL     OW15784   0.160   3.525   8.792  0.2681  0.2855  0.1581
 1442SOL    HW115785   0.124   3.545   8.706 -0.6986  0.5224  0.6152
 1442SOL    HW215786   0.244   3.491   8.764 -1.2407 -1.8525 -1.7915
 1443SOL     OW15787   0.862   3.962   2.182  0.3683 -0.3459 -0.4568
 1443SOL    HW115788   0.904   4.048   2.175  1.0858 -0.5593  1.0130
 1443SOL    HW215789   0.823   3.964   2.095  0.1929 -2.1684 -0.4159
 1444SOL     OW15790   2.371   1.584   2.578 -0.5807  0.1141 -0.3258
 1444SOL    HW115791   2.332   1.669   2.596  0.8401  0.9136 -1.0330
 1444SOL    HW215792   2.449   1.589   2.633 -0.2912  0.6291 -0.7856
 1445SOL     OW15793   2.972   0.040   0.023  0.6335 -0.6150  0.3217
 1445SOL    HW115794   2.973   0.119  17.662 -0.7021 -0.2224  0.8615
 1445SOL    HW215795   3.034   0.053   0.095  0.0664  0.2855  0.6508
 1446SOL     OW15796   3.653   0.121  10.720  0.1335  0.0637 -0.6632
 1446SOL    HW115797   3.581   0.083  10.772  0.1766 -0.0756 -0.7052
 1446SOL    HW215798   3.606   0.192  10.676 -1.0724  1.4538  2.8607
 1447SOL     OW15799   2.998   0.586   4.025 -0.0937 -0.4974 -0.3440
 1447SOL    HW115800   3.019   0.667   3.978 -0.6880  0.5027  1.1283
 1447SOL    HW215801   3.009   0.604   4.118 -1.2453  0.5532 -0.4075
 1448SOL     OW15802   0.878   2.559   7.141 -0.4471 -0.2479  0.0515
 1448SOL    HW115803   0.947   2.512   7.186  0.6851  0.6368 -0.7669
 1448SOL    HW215804   0.808   2.562   7.206  0.5899 -1.4431  1.2017
 1449SOL     OW15805   4.638   1.281   0.303  0.0593 -0.3177 -0.1595
 1449SOL    HW115806   4.697   1.206   0.308  1.4753  0.8568  0.6052
 1449SOL    HW215807   4.575   1.256   0.370 -1.3900 -0.2698 -1.4815
 1450SOL     OW15808   3.563   3.827   6.936 -0.3337 -0.2409  0.1684
 1450SOL    HW115809   3.545   3.819   7.029 -2.5819  2.2010 -0.0840
 1450SOL    HW215810   3.587   3.919   6.928 -1.0261 -0.0369  0.4794
 1451SOL     OW15811   1.834   1.641   6.645  0.2891  0.3720  0.4336
 1451SOL    HW115812   1.899   1.689   6.697  0.3268 -0.4364  1.1285
 1451SOL    HW215813   1.764   1.667   6.704 -2.5903 -1.0865 -2.3643
 1452SOL     OW15814   2.916   1.634   4.184  0.4740  0.0861  0.3939
 1452SOL    HW115815   2.938   1.722   4.153 -2.0174 -0.8404 -3.9441
 1452SOL    HW215816   2.973   1.623   4.259 -0.9457  1.9962  1.7642
 1453SOL     OW15817   4.572   0.414   4.891  0.6047 -0.0484 -0.0904
 1453SOL    HW115818   4.561   0.426   4.985  1.8377 -0.1890  0.0744
 1453SOL    HW215819   4.556   0.506   4.871 -0.0694 -0.0089  0.6338
 1454SOL     OW15820   3.697   0.834   8.573 -0.0424 -0.1552  0.1808
 1454SOL    HW115821   3.660   0.919   8.551 -0.4159 -0.4080 -0.1578
 1454SOL    HW215822   3.677   0.831   8.666 -0.2599 -1.4812  0.0894
 1455SOL     OW15823   1.120   1.958   4.494  0.2581 -0.3133 -0.1392
 1455SOL    HW115824   1.113   1.869   4.460 -1.0139 -0.6472  0.9787
 1455SOL    HW215825   1.213   1.972   4.480  0.9419 -2.4820  2.1366
 1456SOL     OW15826   2.092   0.367   4.399 -0.0692 -0.6202  0.4582
 1456SOL    HW115827   2.065   0.281   4.433 -2.2322 -0.1980 -0.1945
 1456SOL    HW215828   2.041   0.376   4.319 -0.9386 -1.1191  0.9527
 1457SOL     OW15829   4.347   0.749   1.069 -0.1528  0.1700 -0.1481
 1457SOL    HW115830   4.313   0.804   1.139 -0.4489 -2.0582  1.4607
 1457SOL    HW215831   4.298   0.668   1.083  0.0687  0.0708  0.0469
 1458SOL     OW15832   1.385   2.319  17.156 -0.0440  0.0716  0.4573
 1458SOL    HW115833   1.394   2.259  17.231  3.7172 -0.0945 -0.1049
 1458SOL    HW215834   1.316   2.370  17.198  0.8436  0.9284  0.8718
 1459SOL     OW15835   3.383   3.329   5.229  0.3424  0.2476  0.5472
 1459SOL    HW115836   3.381   3.278   5.148  0.2214  2.4042 -0.8071
 1459SOL    HW215837   3.454   3.285   5.276  0.5063 -1.9737 -1.7714
 1460SOL     OW15838   0.274   2.487   2.880  0.2200  0.0390 -0.0067
 1460SOL    HW115839   0.359   2.510   2.843 -0.1431 -1.0106 -1.4925
 1460SOL    HW215840   0.265   2.395   2.855 -0.1224  0.2817 -0.7885
 1461SOL     OW15841   3.122   1.328  14.008  0.0324 -0.0403  0.5381
 1461SOL    HW115842   3.121   1.248  14.060  1.0832 -0.2953  0.1815
 1461SOL    HW215843   3.212   1.337  13.977 -0.8430 -1.2275 -2.3710
 1462SOL     OW15844   3.809   0.057   0.532 -0.6316  0.2836  0.4057
 1462SOL    HW115845   3.846   0.146   0.527  0.5214 -0.0939  2.6980
 1462SOL    HW215846   3.833   0.027   0.619 -0.4608 -0.8818 -0.0424
 1463SOL     OW15847   1.241   1.996  10.777  0.1849  0.4002 -1.0268
 1463SOL    HW115848   1.334   1.976  10.780  0.6401  2.7057  0.1468
 1463SOL    HW215849   1.205   1.937  10.843 -0.8323  1.1184 -0.9335
 1464SOL     OW15850   4.106   3.969   6.008 -0.4013  0.6827  0.0435
 1464SOL    HW115851   4.185   4.023   6.006  1.0535 -1.4621  0.3340
 1464SOL    HW215852   4.126   3.911   5.934  2.5550 -0.5468  1.8218
 1465SOL     OW15853   4.290   3.281   3.266 -0.0793 -0.0784  1.0393
 1465SOL    HW115854   4.322   3.204   3.220 -1.0691  0.3583 -0.3908
 1465SOL    HW215855   4.341   3.278   3.347  0.0246 -0.8594  0.9467
 1466SOL     OW15856   3.097   3.240   2.997 -0.1238  0.0264 -0.1319
 1466SOL    HW115857   3.037   3.213   2.927  2.6496 -0.2465 -2.3802
 1466SOL    HW215858   3.053   3.208   3.076 -0.1975  1.2388  0.3186
 1467SOL     OW15859   1.372   0.675  11.494  0.5188  0.2805  0.3728
 1467SOL    HW115860   1.283   0.706  11.478 -0.4298 -2.3260  0.5862
 1467SOL    HW215861   1.385   0.628  11.412  0.0945 -0.9745  1.0302
 1468SOL     OW15862   1.315   3.583  11.307  0.0435  0.3265 -0.2464
 1468SOL    HW115863   1.316   3.668  11.352 -0.3736  0.7716 -1.0689
 1468SOL    HW215864   1.333   3.610  11.217  1.4363 -3.3917 -1.0570
 1469SOL     OW15865   0.037   1.459   3.650 -0.6003 -0.3293 -0.5494
 1469SOL    HW115866   0.036   1.392   3.718  0.4531  0.3919  0.1619
 1469SOL    HW215867   0.117   1.503   3.680 -1.2368  0.2840  0.2391
 1470SOL     OW15868   2.422   2.478   4.544 -0.1337  0.1539  0.5396
 1470SOL    HW115869   2.470   2.514   4.469 -1.9214  1.0184 -0.1916
 1470SOL    HW215870   2.364   2.551   4.568 -1.6850 -1.0569  0.4417
 1471SOL     OW15871   3.661   2.229  12.725 -0.3808  0.2979 -0.3684
 1471SOL    HW115872   3.685   2.175  12.649  2.6757 -0.8112  1.3596
 1471SOL    HW215873   3.721   2.190  12.789 -1.3408 -2.5091 -1.1781
 1472SOL     OW15874   3.935   0.388   5.628 -0.1475 -0.3962 -0.3093
 1472SOL    HW115875   4.000   0.458   5.635 -0.7698  0.1412  0.0705
 1472SOL    HW215876   3.991   0.313   5.651  0.9239  0.0941 -1.3404
 1473SOL     OW15877   0.127   1.303  13.645 -0.2152  1.0419  0.1416
 1473SOL    HW115878   0.078   1.221  13.644  0.8224  0.4412 -1.9823
 1473SOL    HW215879   0.152   1.320  13.554 -1.7650 -0.1838 -0.5023
 1474SOL     OW15880   4.521   4.437  13.981 -0.3478 -0.0990 -0.3514
 1474SOL    HW115881   4.617   4.429  13.981 -0.3593 -0.2367 -0.1174
 1474SOL    HW215882   4.490   4.399  14.063  0.3078  0.3246  0.0865
 1475SOL     OW15883   4.660   2.304   3.325 -0.2678  0.5193 -0.0737
 1475SOL    HW115884   0.004   2.263   3.269 -0.3719 -1.1124  0.9883
 1475SOL    HW215885   4.636   2.382   3.275 -0.6190 -0.1224 -0.9064
 1476SOL     OW15886   1.405   1.120   4.864  0.2064  0.1371 -0.1046
 1476SOL    HW115887   1.484   1.067   4.870  0.0033 -0.3912 -2.4243
 1476SOL    HW215888   1.359   1.074   4.934  2.5461 -1.3298  0.4623
 1477SOL     OW15889   3.575   0.639  11.324 -0.5162 -0.6991  0.3880
 1477SOL    HW115890   3.542   0.552  11.300  0.6495 -1.3555  1.1519
 1477SOL    HW215891   3.651   0.614  11.378  0.4154 -1.3242 -1.1936
 1478SOL     OW15892   2.140   2.181   9.532  0.1929  0.8364 -0.1503
 1478SOL    HW115893   2.185   2.228   9.603 -1.8773  0.0695  1.6732
 1478SOL    HW215894   2.081   2.255   9.523 -2.4540 -1.4402 -1.3596
 1479SOL     OW15895   4.030   3.959   2.907  0.3329 -0.4142 -0.0103
 1479SOL    HW115896   4.124   3.949   2.922  0.2792 -0.2820  0.4214
 1479SOL    HW215897   4.009   3.867   2.890 -0.4187 -0.3184  0.3852
 1480SOL     OW15898   3.397   2.503   7.238 -0.3026 -0.1163 -0.4767
 1480SOL    HW115899   3.437   2.590   7.230 -0.6897  0.5581  5.0088
 1480SOL    HW215900   3.306   2.530   7.243 -0.5060 -0.9532  0.3298
 1481SOL     OW15901   2.764   1.499   1.891  0.3209  0.1269 -0.3779
 1481SOL    HW115902   2.762   1.594   1.898  2.7861  0.4049 -3.1138
 1481SOL    HW215903   2.811   1.488   1.808 -0.6694 -0.6818 -0.8348
 1482SOL     OW15904   0.637   3.672   2.510  0.2491  0.4362  0.9681
 1482SOL    HW115905   0.713   3.655   2.454  0.2182 -2.1968  1.7453
 1482SOL    HW215906   0.623   3.760   2.474  1.7812 -1.3771 -4.1720
 1483SOL     OW15907   3.968   0.794  11.732 -0.3712 -0.2861 -0.1930
 1483SOL    HW115908   4.042   0.849  11.707 -0.0752 -1.0132 -0.8962
 1483SOL    HW215909   3.895   0.853  11.713 -1.4824 -1.2611  1.1068
 1484SOL     OW15910   3.995   1.566   6.240 -0.4519  0.2473 -0.4939
 1484SOL    HW115911   4.085   1.538   6.223 -1.0501 -0.9686 -1.7989
 1484SOL    HW215912   3.939   1.490   6.220  0.6564 -0.7081  0.0594
 1485SOL     OW15913   3.040   4.000  16.255  0.3848  0.7330 -0.4042
 1485SOL    HW115914   2.987   3.923  16.279 -0.7719  1.2695 -1.2277
 1485SOL    HW215915   2.996   4.066  16.308 -0.7318 -0.7537  0.5414
 1486SOL     OW15916   3.322   0.129   5.633  0.1079  0.0960  0.1801
 1486SOL    HW115917   3.394   0.168   5.582 -0.5042 -1.3445 -1.8097
 1486SOL    HW215918   3.366   0.043   5.639 -2.3845 -1.0346  1.9795
 1487SOL     OW15919   2.699   1.897   2.177  0.1698 -0.5105  0.2893
 1487SOL    HW115920   2.693   1.931   2.088 -3.0025 -1.6080  0.0784
 1487SOL    HW215921   2.607   1.870   2.182  0.5665 -1.9645 -0.0711
 1488SOL     OW15922   4.222   1.320  15.024 -0.1004 -0.4612 -0.1974
 1488SOL    HW115923   4.273   1.260  14.969 -0.6126 -1.0880  0.0215
 1488SOL    HW215924   4.251   1.399  14.977 -0.3835 -0.2552 -0.0279
 1489SOL     OW15925   1.833   3.980  12.413  0.0418  0.0770 -0.1241
 1489SOL    HW115926   1.786   3.917  12.359 -1.0063  0.4882  0.3197
 1489SOL    HW215927   1.884   4.011  12.338  0.9537 -0.3798  0.3023
 1490SOL     OW15928   1.669   4.045   9.773  0.2230 -0.3686  0.0500
 1490SOL    HW115929   1.753   4.079   9.744  0.3703  0.4557  1.4651
 1490SOL    HW215930   1.612   4.061   9.698  0.2339 -1.2524 -0.1479
 1491SOL     OW15931   2.332   2.112   6.285  0.4013  0.1731  0.2157
 1491SOL    HW115932   2.266   2.180   6.275 -1.2873 -1.1697  2.0527
 1491SOL    HW215933   2.367   2.128   6.373  2.9982 -0.4197 -0.6965
 1492SOL     OW15934   1.109   0.301   9.273  0.3861 -0.5379  0.3088
 1492SOL    HW115935   1.080   0.257   9.194 -1.7326  1.0527  0.1956
 1492SOL    HW215936   1.160   0.377   9.244 -0.8312 -0.0289 -0.4701
 1493SOL     OW15937   0.489   1.501  16.198 -0.8161 -0.9828  0.0775
 1493SOL    HW115938   0.471   1.543  16.113 -1.1110  0.6117  0.9279
 1493SOL    HW215939   0.583   1.497  16.180 -0.7085 -1.5818  0.8207
 1494SOL     OW15940   4.616   1.504   3.105 -0.6163 -0.8723  0.4447
 1494SOL    HW115941   4.635   1.591   3.069 -1.6447 -1.7140 -2.0879
 1494SOL    HW215942   4.604   1.529   3.196  1.2709  1.7777 -0.0165
 1495SOL     OW15943   1.886   4.523  16.596 -0.1561 -0.4683  0.2529
 1495SOL    HW115944   1.952   4.590  16.613 -0.6963 -0.3187  1.7593
 1495SOL    HW215945   1.888   4.535  16.501  1.6149  0.5161  0.4249
 1496SOL     OW15946   0.123   1.647   8.047 -0.8800 -0.9128 -0.0694
 1496SOL    HW115947   0.184   1.642   8.120 -2.1284  3.4213  1.2907
 1496SOL    HW215948   0.074   1.567   8.064 -2.6204  0.0402 -0.5422
 1497SOL     OW15949   1.027   3.140   3.639 -0.9258 -0.2027 -0.0405
 1497SOL    HW115950   1.074   3.171   3.561 -0.2461  1.3337  0.9766
 1497SOL    HW215951   1.086   3.073   3.674 -1.3153  0.3543  1.6878
 1498SOL     OW15952   4.692   0.048   8.012 -0.4643  0.4813  0.3268
 1498SOL    HW115953   4.621   0.051   7.948  0.1319 -0.5123 -0.3801
 1498SOL    HW215954   0.021   4.698   7.977 -0.0176  2.1067 -2.3336
 1499SOL     OW15955   0.248   3.646   9.796  0.0878 -0.0846  0.2671
 1499SOL    HW115956   0.233   3.656   9.890 -1.6602 -1.5019  0.1335
 1499SOL    HW215957   0.342   3.664   9.792  0.0823 -0.2321 -0.4587
 1500SOL     OW15958   0.904   0.715   5.802  0.6349 -0.4861 -0.0472
 1500SOL    HW115959   0.810   0.730   5.800  0.4911 -1.7921 -2.2990
 1500SOL    HW215960   0.933   0.764   5.725  0.4369 -0.3421 -0.0309
 1501SOL     OW15961   1.321   1.173   6.503 -0.2349 -0.6130 -0.0801
 1501SOL    HW115962   1.275   1.089   6.516 -0.0873 -1.0765 -2.5659
 1501SOL    HW215963   1.330   1.200   6.594  0.1582 -1.2242  0.0622
 1502SOL     OW15964   3.036   3.709   5.225  1.1004  0.0275 -0.5310
 1502SOL    HW115965   3.120   3.731   5.185  0.2290  0.1391 -2.3062
 1502SOL    HW215966   3.008   3.658   5.149 -0.3813 -1.1357  0.7596
 1503SOL     OW15967   2.426   2.556   7.046 -0.0438 -0.2360  0.0535
 1503SOL    HW115968   2.369   2.631   7.028  0.8931  0.4111 -0.2136
 1503SOL    HW215969   2.493   2.597   7.100 -0.2476 -0.8565  0.7895
 1504SOL     OW15970   3.660   2.453   8.762 -0.5300 -0.0994  0.1983
 1504SOL    HW115971   3.623   2.375   8.721  2.0111 -0.5437 -1.1791
 1504SOL    HW215972   3.752   2.436   8.782 -0.8954 -0.1287  1.8653
 1505SOL     OW15973   2.564   2.343   3.134  0.5287 -0.1074 -0.0528
 1505SOL    HW115974   2.566   2.387   3.049  0.9138  1.8660  0.9763
 1505SOL    HW215975   2.480   2.298   3.127  0.0515  0.7495  0.1585
 1506SOL     OW15976   3.953   4.580   1.269  0.2213 -0.0980 -0.2136
 1506SOL    HW115977   4.006   4.609   1.344  1.2817  0.9138 -1.3601
 1506SOL    HW215978   4.021   4.532   1.223  1.0814  1.5190 -0.6158
 1507SOL     OW15979   3.588   1.714   7.261 -0.2412 -0.6738  0.7019
 1507SOL    HW115980   3.646   1.677   7.194  0.0716  0.6560  0.2475
 1507SOL    HW215981   3.598   1.808   7.245 -3.6852 -0.3908  0.2531
 1508SOL     OW15982   1.879   3.492  15.374 -0.3117 -0.6529 -0.1636
 1508SOL    HW115983   1.859   3.410  15.419  0.5582 -1.4329 -1.2105
 1508SOL    HW215984   1.884   3.544  15.455 -2.3068 -1.2930  0.3706
 1509SOL     OW15985   1.687   2.625   5.862  0.1971 -0.2171  0.6409
 1509SOL    HW115986   1.698   2.719   5.877 -1.7529 -0.1214  1.3755
 1509SOL    HW215987   1.629   2.617   5.937 -1.8226  3.0027 -0.5882
 1510SOL     OW15988   0.175   4.379   2.534  0.2408 -0.9899 -0.4155
 1510SOL    HW115989   0.136   4.316   2.474  1.5606 -1.1886 -1.0397
 1510SOL    HW215990   0.265   4.351   2.547  0.2646 -0.7868 -0.1176
 1511SOL     OW15991   3.478   1.584   7.608 -0.0052  0.2644 -0.3930
 1511SOL    HW115992   3.399   1.599   7.661 -0.0783  0.3330 -0.5229
 1511SOL    HW215993   3.542   1.587   7.679  0.2311 -1.3187 -0.5430
 1512SOL     OW15994   3.734   0.045   4.876  0.0345  0.1623  0.5553
 1512SOL    HW115995   3.656   0.088   4.911 -2.9325 -3.0627 -2.1209
 1512SOL    HW215996   3.688   4.694   4.837 -1.1842  1.2521 -0.0691
 1513SOL     OW15997   2.973   4.418   4.086 -0.3690 -0.1748  0.4764
 1513SOL    HW115998   3.028   4.360   4.138  0.4327 -0.0341 -0.2171
 1513SOL    HW215999   2.908   4.354   4.055 -2.1137  1.4157  0.8735
 1514SOL     OW16000   2.384   2.596   5.868  0.1816  0.3885  0.4286
 1514SOL    HW116001   2.292   2.620   5.882  0.6579  2.0378  0.7397
 1514SOL    HW216002   2.373   2.503   5.848  2.7692  0.2788 -0.4469
 1515SOL     OW16003   2.041   0.453  14.462  0.1889 -0.2229  0.2831
 1515SOL    HW116004   2.119   0.401  14.482  0.4698  0.3852  0.7575
 1515SOL    HW216005   2.013   0.471  14.551 -1.6818  0.1417 -0.3833
 1516SOL     OW16006   2.686   2.260  11.232  0.6539  0.0033  0.2294
 1516SOL    HW116007   2.636   2.189  11.191  0.2672  0.5068 -0.1571
 1516SOL    HW216008   2.649   2.332  11.182 -0.3797 -0.4660  0.3121
 1517SOL     OW16009   4.248   3.306   0.458  0.4601  0.4109  0.2716
 1517SOL    HW116010   4.297   3.232   0.424 -0.0537 -0.4053  1.2993
 1517SOL    HW216011   4.269   3.299   0.551  0.4506  1.5641  0.3701
 1518SOL     OW16012   3.805   2.888   2.319  0.1070  0.0466 -0.2962
 1518SOL    HW116013   3.837   2.825   2.255  0.6610  2.4427 -2.3946
 1518SOL    HW216014   3.834   2.970   2.279 -1.3874  0.7471  0.0581
 1519SOL     OW16015   4.179   0.360  14.639  0.1458  0.2890  0.6591
 1519SOL    HW116016   4.107   0.297  14.639 -0.0204  0.4804  0.9997
 1519SOL    HW216017   4.169   0.392  14.550  0.2897 -0.9805  0.1940
 1520SOL     OW16018   3.517   3.835   9.262  0.1754 -0.0949 -0.3930
 1520SOL    HW116019   3.475   3.768   9.209  0.9537 -2.2570  1.6993
 1520SOL    HW216020   3.608   3.806   9.268  0.1654  0.0973  0.7741
 1521SOL     OW16021   4.112   4.527   9.395  0.0907  0.4836 -0.2612
 1521SOL    HW116022   4.149   4.606   9.356  0.8264 -0.1954 -0.9517
 1521SOL    HW216023   4.033   4.559   9.439  0.5408  0.5977  0.4733
 1522SOL     OW16024   1.169   2.885   8.567  0.5530 -0.6096  0.1726
 1522SOL    HW116025   1.237   2.937   8.524  0.8358 -0.9970  0.1561
 1522SOL    HW216026   1.091   2.911   8.518  0.6069 -1.1464 -0.1922
 1523SOL     OW16027   0.625   1.885   6.948  0.2937 -0.5908  0.4995
 1523SOL    HW116028   0.582   1.946   7.008 -1.1850 -0.2300 -0.9147
 1523SOL    HW216029   0.580   1.919   6.870  2.1147  1.7710  0.4715
 1524SOL     OW16030   2.233   4.277   2.739  0.0683  0.5253 -0.2105
 1524SOL    HW116031   2.271   4.350   2.787  1.1982  0.6079 -1.2118
 1524SOL    HW216032   2.262   4.290   2.648 -1.2826  3.9058 -0.1278
 1525SOL     OW16033   0.335   3.058   4.162 -0.5042  0.3257 -0.1969
 1525SOL    HW116034   0.244   3.050   4.132 -0.8542  0.4511  0.8250
 1525SOL    HW216035   0.356   2.966   4.178 -1.4531  0.4304  1.6906
 1526SOL     OW16036   0.225   0.019   7.112  0.2460  0.6754  0.4296
 1526SOL    HW116037   0.305   4.693   7.090 -1.6035 -1.9643 -0.4833
 1526SOL    HW216038   0.240   0.107   7.076 -0.4152  0.4086 -0.5089
 1527SOL     OW16039   4.246   3.994  12.289 -0.1877 -0.6574 -0.4433
 1527SOL    HW116040   4.278   4.031  12.371 -2.3756  2.4039 -0.9462
 1527SOL    HW216041   4.158   3.971  12.319  1.0970  0.9817  4.6205
 1528SOL     OW16042   0.789   2.614   3.642  0.1601 -0.4863 -0.2000
 1528SOL    HW116043   0.821   2.694   3.683  0.7612 -1.1055  0.5340
 1528SOL    HW216044   0.784   2.645   3.552 -1.6937 -1.9201 -0.6031
 1529SOL     OW16045   0.885   3.642   9.655 -0.1271  0.1837  0.1202
 1529SOL    HW116046   0.902   3.684   9.740 -0.2243 -1.0373  0.7474
 1529SOL    HW216047   0.971   3.656   9.616  0.0508  0.5325  0.6347
 1530SOL     OW16048   4.655   1.227  16.463 -0.1728 -0.5991  0.3019
 1530SOL    HW116049   4.693   1.166  16.400 -0.0461  0.3638 -0.5391
 1530SOL    HW216050   4.580   1.179  16.498  0.0224 -0.1312  1.3751
 1531SOL     OW16051   3.782   3.789   7.707 -0.1435  0.4237  0.3566
 1531SOL    HW116052   3.864   3.787   7.757  0.5421 -3.0322 -0.8804
 1531SOL    HW216053   3.756   3.881   7.707 -0.1155  0.4175 -1.3918
 1532SOL     OW16054   0.791   2.926   8.240  0.2904 -0.3274 -0.4521
 1532SOL    HW116055   0.862   2.919   8.176  2.3258 -1.7713  1.9392
 1532SOL    HW216056   0.742   2.846   8.221 -3.3904  1.6398  0.7312
 1533SOL     OW16057   1.276   2.561  15.325  0.3660 -0.4019  0.2309
 1533SOL    HW116058   1.260   2.654  15.343  4.3869 -0.0201  1.6829
 1533SOL    HW216059   1.339   2.551  15.396  1.1765 -2.2863 -0.7486
 1534SOL     OW16060   2.471   1.562   5.285  0.2778 -0.0163 -0.3640
 1534SOL    HW116061   2.403   1.589   5.346 -0.3689  0.0364 -1.0989
 1534SOL    HW216062   2.426   1.595   5.207 -0.7990 -1.9428 -0.5369
 1535SOL     OW16063   2.412   1.878   2.187 -0.3743 -0.3027 -0.1424
 1535SOL    HW116064   2.408   1.783   2.200 -2.4886 -0.0358  1.0234
 1535SOL    HW216065   2.320   1.897   2.204  0.0861  0.3621  1.5988
 1536SOL     OW16066   0.950   2.137   2.676  0.2668 -0.0851 -0.1182
 1536SOL    HW116067   0.868   2.091   2.661 -0.0386  1.3364 -2.8000
 1536SOL    HW216068   0.940   2.175   2.764 -0.8939 -2.4466  0.7591
 1537SOL     OW16069   2.412   3.456   6.745 -0.2489 -0.1664  0.2658
 1537SOL    HW116070   2.373   3.461   6.833 -0.1336 -0.8683  0.3587
 1537SOL    HW216071   2.360   3.389   6.701  0.0037 -0.4322  0.3672
 1538SOL     OW16072   3.009   4.121   0.426 -0.2706 -0.1055 -0.5791
 1538SOL    HW116073   3.018   4.028   0.405  0.9694 -0.3747  1.0802
 1538SOL    HW216074   2.941   4.153   0.367  0.1870  0.4021 -0.8369
 1539SOL     OW16075   1.060   1.398   6.123 -0.3048  0.2009 -0.5724
 1539SOL    HW116076   1.010   1.477   6.145 -1.8111 -0.3790 -1.9588
 1539SOL    HW216077   1.065   1.342   6.201 -2.6071 -0.8719 -1.1810
 1540SOL     OW16078   4.610   2.999  13.766 -0.7469 -0.0314 -0.2414
 1540SOL    HW116079   4.688   2.949  13.788 -0.1217 -0.2402 -2.8566
 1540SOL    HW216080   4.542   2.932  13.758  0.6123 -1.3237 -0.9061
 1541SOL     OW16081   1.388   0.136  17.235  0.1031  0.6124  0.2386
 1541SOL    HW116082   1.394   0.210  17.296  2.2032  1.4256 -0.9326
 1541SOL    HW216083   1.473   0.133  17.190  0.5501 -0.6755  1.2024
 1542SOL     OW16084   2.892   3.259   4.322 -0.5918  0.7746  1.0172
 1542SOL    HW116085   2.875   3.345   4.284  1.3421  0.2398 -1.0302
 1542SOL    HW216086   2.883   3.284   4.415 -0.6016 -0.0441  1.2335
 1543SOL     OW16087   0.505   2.828  13.697 -0.3427 -0.6857  0.1901
 1543SOL    HW116088   0.563   2.896  13.662 -1.6452  0.5800  0.5233
 1543SOL    HW216089   0.431   2.843  13.639  0.4779  1.8476 -0.1863
 1544SOL     OW16090   2.794   3.410   8.743 -0.4371 -0.0965 -0.4209
 1544SOL    HW116091   2.781   3.481   8.680  0.6141 -0.1170 -0.6631
 1544SOL    HW216092   2.732   3.344   8.710 -1.9496  0.7810  0.6871
 1545SOL     OW16093   1.177   3.289   8.669 -0.6245  0.2886 -0.6100
 1545SOL    HW116094   1.266   3.294   8.634  1.3438 -1.7645  4.1535
 1545SOL    HW216095   1.110   3.335   8.619 -1.6619  0.6415  1.1028
 1546SOL     OW16096   4.473   2.985  14.554 -0.0042  0.4294  0.4039
 1546SOL    HW116097   4.402   2.948  14.605 -1.0695  1.2043 -0.5160
 1546SOL    HW216098   4.496   2.911  14.497 -0.1642 -1.3407  2.6770
 1547SOL     OW16099   1.040   2.847   8.164 -0.0226 -0.3307 -0.2939
 1547SOL    HW116100   1.080   2.786   8.226  3.3313  0.2634 -1.8836
 1547SOL    HW216101   0.974   2.797   8.116  0.9774 -1.6904 -0.2411
 1548SOL     OW16102   3.389   0.381  17.321  0.1386  0.4334  0.7271
 1548SOL    HW116103   3.387   0.343  17.409  1.9959  0.0530  0.5917
 1548SOL    HW216104   3.334   0.321  17.272  0.4968  2.4749 -2.1734
 1549SOL     OW16105   4.284   0.193   7.695  0.0431  0.0289  0.3171
 1549SOL    HW116106   4.218   0.259   7.714 -2.2004 -1.9360 -0.7219
 1549SOL    HW216107   4.304   0.214   7.604  1.4479 -1.1533  0.3478
 1550SOL     OW16108   4.712   0.988  13.639 -0.0718  0.1402  0.6283
 1550SOL    HW116109   0.023   0.981  13.729  0.7013 -1.2675  0.2246
 1550SOL    HW216110   4.626   0.951  13.655 -0.5283  1.0436  0.3031
 1551SOL     OW16111   4.017   4.564   4.776 -0.2288  0.3524 -0.6222
 1551SOL    HW116112   4.010   4.658   4.793 -2.4578  0.0916 -0.1255
 1551SOL    HW216113   4.012   4.566   4.680  0.4071 -0.3943 -0.6754
 1552SOL     OW16114   2.252   0.100   7.966 -0.2869 -0.5537 -0.3572
 1552SOL    HW116115   2.162   0.119   7.942 -1.1997  0.1293  3.5085
 1552SOL    HW216116   2.230   0.037   8.035  3.2333 -0.9080  0.4551
 1553SOL     OW16117   1.788   1.196  11.807 -0.2248 -0.3310  0.3282
 1553SOL    HW116118   1.701   1.156  11.809 -0.7165  0.6016 -2.3506
 1553SOL    HW216119   1.835   1.132  11.860 -0.5355 -0.5067  0.3911
 1554SOL     OW16120   0.121   0.401  17.642 -0.0488  0.4233 -0.7793
 1554SOL    HW116121   0.188   0.411   0.018 -0.8242  0.0526  0.0339
 1554SOL    HW216122   0.088   0.490  17.638 -1.5653 -0.1067  0.1677
 1555SOL     OW16123   4.511   3.956   4.983  0.5615 -0.1910 -0.1216
 1555SOL    HW116124   4.447   3.887   5.001 -0.5052  0.4408 -1.4906
 1555SOL    HW216125   4.562   3.959   5.064 -0.0511  0.6385  0.2303
 1556SOL     OW16126   1.172   0.688   3.341 -0.4138  0.7071 -0.1994
 1556SOL    HW116127   1.118   0.733   3.276 -1.4254 -0.2936 -0.0384
 1556SOL    HW216128   1.107   0.630   3.381 -0.7150  0.7500 -0.6219
 1557SOL     OW16129   4.647   0.732   5.941  0.7476  0.3398  0.1645
 1557SOL    HW116130   4.646   0.794   6.014 -0.4718  0.2200  0.2504
 1557SOL    HW216131   0.017   0.713   5.949  0.7374  0.5663  0.7964
 1558SOL     OW16132   0.644   2.135  10.006 -0.1957  0.6261  0.0423
 1558SOL    HW116133   0.645   2.128   9.911 -1.3853 -0.7089  0.1290
 1558SOL    HW216134   0.725   2.183  10.026  0.9553 -0.6872 -1.4897
 1559SOL     OW16135   3.192   3.887   0.119  0.1933 -0.3067  0.5010
 1559SOL    HW116136   3.169   3.885   0.212  0.4464  1.6732  0.6030
 1559SOL    HW216137   3.210   3.980   0.108 -0.7027 -0.1657  0.2045
 1560SOL     OW16138   0.542   2.204   1.485  0.3434  0.1984 -0.2073
 1560SOL    HW116139   0.568   2.197   1.393 -0.2474 -1.3603 -0.2620
 1560SOL    HW216140   0.627   2.234   1.518  0.1415  0.4912  0.0435
 1561SOL     OW16141   1.103   2.264   5.090 -0.3154 -0.0719 -0.2211
 1561SOL    HW116142   1.073   2.284   5.001 -0.3145 -1.1257 -0.4561
 1561SOL    HW216143   1.096   2.344   5.141  0.0443 -0.4192  0.3741
 1562SOL     OW16144   3.814   4.340   7.152 -0.0899  0.1590 -0.2877
 1562SOL    HW116145   3.897   4.313   7.193 -0.0647 -1.4175 -1.3840
 1562SOL    HW216146   3.845   4.359   7.064  1.2406 -3.2203 -0.5509
 1563SOL     OW16147   1.515   0.989   2.829 -0.0243  0.5369 -0.2849
 1563SOL    HW116148   1.441   0.929   2.842  0.9628 -0.5368  0.4212
 1563SOL    HW216149   1.514   1.025   2.918 -1.0170 -1.0580  0.3475
 1564SOL     OW16150   4.194   4.561  15.723 -0.3105 -0.1056 -0.3144
 1564SOL    HW116151   4.196   4.510  15.641 -3.5057 -2.0793  0.8574
 1564SOL    HW216152   4.266   4.525  15.775  0.3320  0.1998 -0.9905
 1565SOL     OW16153   1.602   2.202  10.800 -0.5920 -0.0425  0.4969
 1565SOL    HW116154   1.618   2.204  10.705  1.0291 -1.6591  0.7498
 1565SOL    HW216155   1.575   2.111  10.813 -2.3797  0.6434  1.6169
 1566SOL     OW16156   1.703   0.920   0.788  0.1039 -0.1383 -0.0416
 1566SOL    HW116157   1.645   0.856   0.830  1.1520 -1.0434  0.0236
 1566SOL    HW216158   1.785   0.876   0.810  0.1278  0.5132  1.1808
 1567SOL     OW16159   2.641   1.451   3.500  0.4028 -0.1554  0.5192
 1567SOL    HW116160   2.728   1.436   3.462  0.3568  1.6428 -0.3154
 1567SOL    HW216161   2.660   1.533   3.546  2.7191 -0.1453 -0.4144
 1568SOL     OW16162   1.296   3.161  14.582  0.5546  0.1258  0.1581
 1568SOL    HW116163   1.214   3.123  14.615  1.7800 -2.1523  0.6173
 1568SOL    HW216164   1.285   3.250  14.614 -0.2521  0.7974 -1.9589
 1569SOL     OW16165   3.693   4.134   3.510  0.1094 -0.2664  0.4521
 1569SOL    HW116166   3.747   4.113   3.586 -0.8198  1.3530  1.5628
 1569SOL    HW216167   3.623   4.188   3.546  1.2483  2.7095 -1.6767
 1570SOL     OW16168   4.408   4.560   4.371  0.2006 -0.5223  0.2993
 1570SOL    HW116169   4.457   4.572   4.289 -1.0577  2.8131  0.0345
 1570SOL    HW216170   4.380   4.468   4.371  0.2651 -0.5377  1.0918
 1571SOL     OW16171   2.511   3.535  11.021 -0.2004 -0.0744  0.1288
 1571SOL    HW116172   2.562   3.607  11.059 -0.0443 -0.5676  0.8614
 1571SOL    HW216173   2.564   3.456  11.031  1.7147  1.2955  0.8542
 1572SOL     OW16174   0.971   3.219   5.899  0.6842 -0.0137 -0.1567
 1572SOL    HW116175   0.961   3.124   5.906  1.5872 -0.0851  0.0982
 1572SOL    HW216176   1.032   3.227   5.826  1.3729 -0.3627  0.3872
 1573SOL     OW16177   1.455   4.635  13.345 -0.4901  0.9810  0.1527
 1573SOL    HW116178   1.421   4.545  13.346  1.2054  0.3759  2.3843
 1573SOL    HW216179   1.461   4.650  13.439  1.3571 -0.1404  0.2033
 1574SOL     OW16180   4.029   1.074   3.013  0.2126  0.5920  0.5332
 1574SOL    HW116181   4.052   1.118   2.931  1.2609 -2.7823 -0.9932
 1574SOL    HW216182   4.014   1.152   3.066  1.9920  1.3496 -0.0808
 1575SOL     OW16183   3.691   1.156  17.542 -0.2661  0.4880  0.1689
 1575SOL    HW116184   3.702   1.061  17.548 -2.1517  0.1257 -1.9551
 1575SOL    HW216185   3.758   1.176  17.477  0.0479 -1.6916 -0.1764
 1576SOL     OW16186   3.414   3.033   9.773 -0.6520  0.3308 -0.0814
 1576SOL    HW116187   3.381   3.059   9.687  2.4345  1.8677 -0.8190
 1576SOL    HW216188   3.336   2.988   9.804  0.0608  0.9023  2.5029
 1577SOL     OW16189   1.769   0.275  12.807 -0.2666  0.2161 -0.5365
 1577SOL    HW116190   1.681   0.312  12.801 -0.7581 -0.4969  1.9394
 1577SOL    HW216191   1.747   0.186  12.835  0.2984  0.8265  1.9279
 1578SOL     OW16192   2.863   1.547  10.394  0.0247 -0.6482  0.0434
 1578SOL    HW116193   2.919   1.624  10.399  0.6823 -1.3062  3.3249
 1578SOL    HW216194   2.800   1.586  10.334  1.3471  0.1813 -0.7931
 1579SOL     OW16195   0.282   2.561  12.439 -0.4603 -0.0024 -0.3944
 1579SOL    HW116196   0.262   2.477  12.397 -0.2530  0.0146 -0.5270
 1579SOL    HW216197   0.370   2.569  12.402 -0.2945 -1.6660 -0.3656
 1580SOL     OW16198   4.561   2.730   5.026  0.2870 -0.1654 -0.0678
 1580SOL    HW116199   4.651   2.747   4.999  0.2716  1.0082  0.6188
 1580SOL    HW216200   4.549   2.637   5.007 -5.6143  0.7089 -0.7508
 1581SOL     OW16201   1.165   0.957  14.722 -0.1691  0.1986  0.3215
 1581SOL    HW116202   1.077   0.970  14.688  0.2620  1.3755 -0.3455
 1581SOL    HW216203   1.205   1.035  14.683  1.4880 -0.1094  1.3862
 1582SOL     OW16204   2.000   1.903   6.266 -0.0159 -0.1420  0.5820
 1582SOL    HW116205   1.987   1.996   6.247  1.8783  0.0052  0.0113
 1582SOL    HW216206   2.066   1.917   6.333  0.7202 -2.1203  0.2606
 1583SOL     OW16207   3.220   2.176   8.201  0.1430 -0.4497 -0.6186
 1583SOL    HW116208   3.160   2.237   8.159  0.2160  0.1376  0.1273
 1583SOL    HW216209   3.303   2.222   8.184  1.0403 -0.8884  2.5914
 1584SOL     OW16210   1.742   2.363  17.179 -0.2918 -0.3049 -0.4122
 1584SOL    HW116211   1.697   2.419  17.117 -1.1017 -0.2756  0.2021
 1584SOL    HW216212   1.721   2.394  17.267  1.3663  1.2256 -0.5662
 1585SOL     OW16213   0.622   2.561   5.708  0.3200 -0.8480 -0.2487
 1585SOL    HW116214   0.619   2.587   5.800  0.4707 -0.7274 -0.2784
 1585SOL    HW216215   0.598   2.645   5.671  0.2589 -0.3643  0.8862
 1586SOL     OW16216   4.242   2.926   9.106  0.3334  0.1007  0.1235
 1586SOL    HW116217   4.283   2.852   9.060  0.9054  1.5172 -1.6586
 1586SOL    HW216218   4.307   2.948   9.172  2.1921 -0.7290 -1.4273
 1587SOL     OW16219   2.992   2.012  11.742 -0.2423 -0.5973 -0.0077
 1587SOL    HW116220   3.057   2.079  11.721 -0.6268 -0.2618 -0.1423
 1587SOL    HW216221   2.968   1.978  11.656 -0.9954  1.0317 -0.4442
 1588SOL     OW16222   2.328   3.261   3.514  0.5178 -0.6104 -0.1578
 1588SOL    HW116223   2.261   3.228   3.575 -0.2354 -2.3651 -1.9449
 1588SOL    HW216224   2.326   3.356   3.525 -2.2982 -0.6653 -0.1573
 1589SOL     OW16225   0.051   1.281   6.948 -0.7502  0.3994  0.3580
 1589SOL    HW116226   4.703   1.328   6.991  0.6728  0.1969  2.9005
 1589SOL    HW216227   0.063   1.204   7.004  0.6330 -0.8004 -1.5708
 1590SOL     OW16228   0.411   2.160   2.038 -0.3911  0.0459 -0.2774
 1590SOL    HW116229   0.375   2.219   2.104 -1.7579 -0.8090 -0.2453
 1590SOL    HW216230   0.341   2.094   2.036 -3.3708  3.2138  0.7683
 1591SOL     OW16231   0.659   3.107   1.532  0.2643 -0.1661 -0.5415
 1591SOL    HW116232   0.692   3.019   1.510 -2.8890 -1.2104 -1.0393
 1591SOL    HW216233   0.694   3.117   1.621  0.7690 -0.0946 -0.7469
 1592SOL     OW16234   2.208   0.440  11.313 -0.1290 -0.4170  0.2551
 1592SOL    HW116235   2.173   0.364  11.360 -1.8382  1.1360  1.4973
 1592SOL    HW216236   2.250   0.391  11.242 -1.1567 -1.4082  0.3345
 1593SOL     OW16237   4.611   3.739  15.556  0.6578  0.1796 -1.0138
 1593SOL    HW116238   4.628   3.728  15.650  1.0188  0.8234 -1.0035
 1593SOL    HW216239   4.549   3.813  15.561  0.9725  0.2882  1.3233
 1594SOL     OW16240   2.152   3.133   2.508 -0.4741  0.0635  0.2517
 1594SOL    HW116241   2.114   3.157   2.423 -0.5681  3.1283  1.1465
 1594SOL    HW216242   2.129   3.213   2.556 -0.7618  1.0675 -1.5644
 1595SOL     OW16243   1.201   0.945   7.531 -0.3533 -0.3885 -0.0013
 1595SOL    HW116244   1.239   0.956   7.444  1.9840  1.3449  1.2142
 1595SOL    HW216245   1.126   1.004   7.521 -0.0969 -0.2261 -0.9369
 1596SOL     OW16246   0.715   4.108   6.541  0.0417  0.1744  0.0661
 1596SOL    HW116247   0.687   4.023   6.573 -0.1768 -0.5640 -2.0750
 1596SOL    HW216248   0.752   4.080   6.457 -0.4454 -1.2957  0.3532
 1597SOL     OW16249   0.286   4.715   3.467 -0.0948 -0.6186  0.1133
 1597SOL    HW116250   0.369   4.673   3.488  0.5013 -0.3794 -1.7469
 1597SOL    HW216251   0.315   0.045   3.393 -1.2731  1.7285  1.3120
 1598SOL     OW16252   0.553   3.632   5.879  0.7998 -0.0353  0.8730
 1598SOL    HW116253   0.647   3.615   5.876  0.5975 -1.2981  1.6940
 1598SOL    HW216254   0.549   3.726   5.860  0.9084 -0.2196 -0.0261
 1599SOL     OW16255   1.346   0.147   5.065 -0.6961  0.3512  0.0010
 1599SOL    HW116256   1.397   0.195   5.130  0.2446 -1.5503  0.6867
 1599SOL    HW216257   1.410   0.090   5.020  1.4214  2.2629  0.5803
 1600SOL     OW16258   3.206   2.658   3.235 -0.2681 -0.2079  0.6074
 1600SOL    HW116259   3.257   2.578   3.248  0.6509  0.6744  2.4488
 1600SOL    HW216260   3.117   2.626   3.245 -1.5254  2.3077 -2.4902
 1601SOL     OW16261   4.427   2.004   9.222 -0.2459 -0.0984 -0.6993
 1601SOL    HW116262   4.430   1.959   9.138  1.0968  1.6784 -1.6166
 1601SOL    HW216263   4.511   2.050   9.216 -0.1040 -0.4839 -1.6527
 1602SOL     OW16264   2.702   0.695   3.890  0.4684  0.3613 -0.4158
 1602SOL    HW116265   2.788   0.691   3.849  0.6418  2.5908 -0.2887
 1602SOL    HW216266   2.641   0.662   3.824  0.3080  1.0872 -0.6346
 1603SOL     OW16267   3.432   4.360   8.920 -0.0394 -0.2908  0.2802
 1603SOL    HW116268   3.448   4.329   8.831 -0.2685  1.5470 -0.4202
 1603SOL    HW216269   3.455   4.284   8.973 -0.6874 -0.5165  0.2397
 1604SOL     OW16270   1.329   3.006   8.144 -0.1095 -0.1843  0.2738
 1604SOL    HW116271   1.411   3.053   8.159 -0.1578 -0.2137  0.6281
 1604SOL    HW216272   1.367   2.918   8.139  0.8055  0.2001  0.3361
 1605SOL     OW16273   2.647   2.641   7.784  0.1516 -0.4026 -0.1075
 1605SOL    HW116274   2.617   2.555   7.812  0.2925 -0.2351  0.5572
 1605SOL    HW216275   2.681   2.666   7.869  0.5602  1.1025 -0.7019
 1606SOL     OW16276   1.664   4.134  14.121  0.0853 -0.0531  0.1902
 1606SOL    HW116277   1.716   4.139  14.201 -1.5194  1.7637  1.1082
 1606SOL    HW216278   1.573   4.127  14.151 -0.2407 -0.8494 -0.9991
 1607SOL     OW16279   2.017   2.424   1.522 -0.2924  0.0202 -0.1908
 1607SOL    HW116280   2.010   2.435   1.617 -0.0208  0.4389 -0.2182
 1607SOL    HW216281   2.090   2.364   1.509 -0.5530 -0.3367 -0.0144
 1608SOL     OW16282   1.300   1.831   1.818 -0.4292  0.1929 -0.1910
 1608SOL    HW116283   1.324   1.745   1.785  1.3019  0.9782 -0.9823
 1608SOL    HW216284   1.204   1.823   1.817 -0.2540 -1.4142 -3.4437
 1609SOL     OW16285   0.558   4.050   7.665  0.2827  0.4468  0.9573
 1609SOL    HW116286   0.524   4.073   7.579  1.2697 -3.2727 -0.4573
 1609SOL    HW216287   0.618   4.121   7.687  0.2438  0.6832  0.3036
 1610SOL     OW16288   4.375   1.643   9.138 -0.2395  0.1309 -0.5162
 1610SOL    HW116289   4.460   1.649   9.183 -1.4100 -0.7880  1.8118
 1610SOL    HW216290   4.380   1.679   9.050  1.1485  0.1880 -0.4234
 1611SOL     OW16291   4.081   2.641   9.096 -0.1829  0.5335 -0.0685
 1611SOL    HW116292   4.087   2.546   9.109  1.0841  0.7140  0.6669
 1611SOL    HW216293   4.172   2.651   9.068  0.3337 -1.6280  0.8709
 1612SOL     OW16294   1.363   3.810   6.080 -0.0317 -0.0770  0.0245
 1612SOL    HW116295   1.306   3.836   6.152 -3.9987 -0.9501 -2.8098
 1612SOL    HW216296   1.358   3.890   6.028 -0.7825 -0.6779 -0.8236
 1613SOL     OW16297   2.723   1.484   8.969  0.4324  0.3329  0.2656
 1613SOL    HW116298   2.759   1.442   8.891  1.3346  1.1806  0.2299
 1613SOL    HW216299   2.746   1.416   9.033  2.2389 -0.1417 -0.9140
 1614SOL     OW16300   4.273   2.191  12.679  0.2471  0.1762 -0.4731
 1614SOL    HW116301   4.312   2.261  12.731 -0.1060  0.4612 -0.5905
 1614SOL    HW216302   4.266   2.251  12.604  0.9614  0.6570 -0.1478
 1615SOL     OW16303   4.431   0.743  11.536  0.2776 -0.4389 -0.2772
 1615SOL    HW116304   4.470   0.817  11.581 -1.5564 -0.5465  1.4723
 1615SOL    HW216305   4.341   0.769  11.514  0.6893  0.4989 -0.8874
 1616SOL     OW16306   1.314   0.322   8.192 -0.2309  0.4517  0.0764
 1616SOL    HW116307   1.344   0.379   8.122  0.2129 -0.0268 -0.1291
 1616SOL    HW216308   1.252   0.381   8.234 -0.2663 -1.2239  2.4147
 1617SOL     OW16309   4.257   4.249   8.815 -0.2376  0.2006 -0.4186
 1617SOL    HW116310   4.198   4.226   8.743  1.5431  1.5206 -2.2721
 1617SOL    HW216311   4.213   4.317   8.866 -0.5835  0.0551 -0.5196
 1618SOL     OW16312   3.709   0.437   2.974  0.8943 -0.1156  0.1493
 1618SOL    HW116313   3.740   0.391   2.896  0.8402  0.1247 -0.0126
 1618SOL    HW216314   3.617   0.411   2.977  0.9830 -0.4668 -0.2320
 1619SOL     OW16315   1.853   0.413   2.916 -0.4311  0.0015 -0.3279
 1619SOL    HW116316   1.839   0.381   3.006 -0.5781 -0.7261 -0.6112
 1619SOL    HW216317   1.777   0.469   2.903  0.0560  0.8197  0.3488
 1620SOL     OW16318   1.947   4.515   3.742 -0.0236 -0.1354  0.0206
 1620SOL    HW116319   2.024   4.464   3.765  1.9819  2.3278 -1.2459
 1620SOL    HW216320   1.902   4.449   3.689  1.6075 -2.2751  1.2978
 1621SOL     OW16321   0.510   1.844   4.697 -0.2334 -0.9006 -0.4802
 1621SOL    HW116322   0.512   1.776   4.764  2.3058 -0.1343  0.2104
 1621SOL    HW216323   0.496   1.790   4.619  1.6804 -1.8363 -0.1703
 1622SOL     OW16324   1.007   3.627  14.110 -0.1114 -0.0222  0.8449
 1622SOL    HW116325   1.048   3.586  14.034 -0.6584  1.0277 -0.0143
 1622SOL    HW216326   1.031   3.718  14.091 -0.8972  0.0690  0.3106
 1623SOL     OW16327   2.474   4.302   6.333  0.0652 -0.0929 -0.6868
 1623SOL    HW116328   2.494   4.388   6.370  1.4870 -0.5690 -0.3572
 1623SOL    HW216329   2.436   4.336   6.252 -1.9265  2.4320  1.3067
 1624SOL     OW16330   3.479   4.101   6.933  0.5036  0.2821  0.2792
 1624SOL    HW116331   3.504   4.138   6.848 -0.6435  1.0742  0.2875
 1624SOL    HW216332   3.555   4.120   6.989  1.2002  3.0203 -1.5769
 1625SOL     OW16333   3.045   2.220  11.487  0.0632 -0.2501  0.3349
 1625SOL    HW116334   3.132   2.203  11.523  0.3255  0.8650  0.2271
 1625SOL    HW216335   3.020   2.128  11.479 -2.1209  0.5531 -1.9617
 1626SOL     OW16336   1.969   1.351   6.985 -0.0039  1.0186  0.3357
 1626SOL    HW116337   1.908   1.334   7.056 -0.0327  1.0402  0.3158
 1626SOL    HW216338   2.009   1.264   6.984 -1.7988  0.1854  1.6401
 1627SOL     OW16339   2.642   0.881  13.561  0.0126  0.1727  0.3909
 1627SOL    HW116340   2.556   0.881  13.520 -0.6584  0.2236  1.7872
 1627SOL    HW216341   2.704   0.885  13.489  0.3390 -0.9544  0.6080
 1628SOL     OW16342   4.674   2.470   4.994  0.7482  0.1098  0.8432
 1628SOL    HW116343   0.040   2.472   4.957  1.0169 -3.6355  1.2521
 1628SOL    HW216344   4.654   2.377   4.998 -2.7128  0.8202  0.5242
 1629SOL     OW16345   3.690   3.536   7.176  0.5858 -0.1541  0.5893
 1629SOL    HW116346   3.732   3.535   7.262  0.8663 -3.3125  0.4156
 1629SOL    HW216347   3.629   3.610   7.174 -1.7950 -2.1100  0.9823
 1630SOL     OW16348   0.870   1.557  13.351  0.1918 -0.0958  0.3884
 1630SOL    HW116349   0.904   1.524  13.434  0.1916 -3.9581 -1.1263
 1630SOL    HW216350   0.946   1.560  13.293 -0.3402  0.9197 -0.2455
 1631SOL     OW16351   2.121   0.443  16.696 -0.8114 -0.0079 -0.2236
 1631SOL    HW116352   2.187   0.465  16.762 -1.7318  3.0775 -0.3221
 1631SOL    HW216353   2.076   0.377  16.749  0.5669 -0.8100 -0.0568
 1632SOL     OW16354   2.948   3.157   6.201 -0.0291  0.4173  0.3735
 1632SOL    HW116355   2.892   3.232   6.179  1.7445  0.7745 -2.9954
 1632SOL    HW216356   2.909   3.086   6.151  0.2875  1.4487 -1.3611
 1633SOL     OW16357   0.073   3.481   7.996  0.0925 -0.3579 -0.1829
 1633SOL    HW116358   0.016   3.405   8.011 -2.9000  1.8276 -0.5782
 1633SOL    HW216359   0.003   3.545   7.987 -0.9657 -1.3234  1.0849
 1634SOL     OW16360   2.213   0.992  15.885  0.0310  0.4592  0.0932
 1634SOL    HW116361   2.164   0.947  15.954 -2.2215  2.4906 -0.1832
 1634SOL    HW216362   2.146   1.024  15.825  2.0145  1.9706 -1.2852
 1635SOL     OW16363   3.485   2.580   2.539  0.2414 -0.0392 -0.4101
 1635SOL    HW116364   3.477   2.654   2.478 -0.8201  0.3869  0.2410
 1635SOL    HW216365   3.528   2.514   2.484  0.6302 -1.2237  1.3355
 1636SOL     OW16366   2.357   0.625  11.479 -0.6498 -0.5325  0.4982
 1636SOL    HW116367   2.326   0.564  11.412  0.0099 -1.5559  1.1290
 1636SOL    HW216368   2.418   0.669  11.420  1.0346 -0.6307  2.1705
 1637SOL     OW16369   3.180   4.466  17.384  0.0159 -0.4049  0.0777
 1637SOL    HW116370   3.151   4.429  17.467  0.2487 -2.2529 -0.6698
 1637SOL    HW216371   3.103   4.516  17.355  1.0101  0.1099 -1.6805
 1638SOL     OW16372   3.574   3.313   5.683  0.2218  0.0025 -0.0411
 1638SOL    HW116373   3.543   3.396   5.720  0.1025 -0.7320  1.4950
 1638SOL    HW216374   3.539   3.247   5.743  4.8411 -0.9732  1.5766
 1639SOL     OW16375   0.800   1.243  15.370  0.5620  0.4154 -0.0593
 1639SOL    HW116376   0.743   1.181  15.324 -2.1025  1.2865  1.9997
 1639SOL    HW216377   0.878   1.235  15.316  0.0470  1.4247 -0.9701
 1640SOL     OW16378   3.990   3.081   2.781 -0.1694 -0.0770  0.4976
 1640SOL    HW116379   3.928   3.043   2.843  0.0549  0.4386  1.0414
 1640SOL    HW216380   3.986   3.013   2.714  0.1607 -0.3687  0.7778
 1641SOL     OW16381   2.371   0.939   5.804 -0.2754 -0.3206  0.5427
 1641SOL    HW116382   2.280   0.964   5.823 -0.2306  0.0763  0.2369
 1641SOL    HW216383   2.387   0.971   5.715  2.5901  0.3312  1.3151
 1642SOL     OW16384   2.044   3.626  16.619 -0.0667  0.2772  0.3905
 1642SOL    HW116385   2.020   3.603  16.709  0.2496  0.2291  0.4644
 1642SOL    HW216386   2.139   3.616  16.629 -0.2579 -0.9934  0.8999
 1643SOL     OW16387   1.384   1.819   4.684 -0.3085 -0.0960  0.0666
 1643SOL    HW116388   1.366   1.771   4.604  3.6629 -0.5693 -0.5621
 1643SOL    HW216389   1.473   1.789   4.704 -0.6443 -0.9871  0.2321
 1644SOL     OW16390   0.494   4.400  13.981 -0.2622  0.5929  0.1577
 1644SOL    HW116391   0.428   4.461  13.948 -0.7682 -0.1518 -0.1995
 1644SOL    HW216392   0.444   4.337  14.033 -0.9780 -1.2342 -2.7792
 1645SOL     OW16393   3.861   0.033   2.764 -0.2637  0.1533  0.1123
 1645SOL    HW116394   3.812   4.689   2.812 -2.0230  0.9885 -0.5040
 1645SOL    HW216395   3.788   0.057   2.706 -1.1462  0.7817  1.4605
 1646SOL     OW16396   4.118   2.607   4.527  0.0715  0.0170 -0.7191
 1646SOL    HW116397   4.206   2.588   4.496 -0.2944 -0.4373 -1.5013
 1646SOL    HW216398   4.104   2.534   4.587  2.3531  1.7894  1.9497
 1647SOL     OW16399   0.853   1.072   4.809 -1.1325  0.2441 -0.2063
 1647SOL    HW116400   0.926   1.032   4.856 -1.4656 -0.1892 -0.0712
 1647SOL    HW216401   0.789   1.094   4.876 -1.3174 -0.2538 -0.2254
 1648SOL     OW16402   0.008   1.423   8.158 -0.4129  0.0180  0.2323
 1648SOL    HW116403   4.643   1.456   8.138  0.3705  2.5993  1.0230
 1648SOL    HW216404   4.714   1.375   8.239 -1.9664 -0.2516 -0.2367
 1649SOL     OW16405   1.540   4.154   8.689  0.4025  0.0709  0.0626
 1649SOL    HW116406   1.602   4.223   8.715  0.5392  0.1997 -0.6073
 1649SOL    HW216407   1.600   4.089   8.653 -0.6255  0.3003 -2.0413
 1650SOL     OW16408   1.095   2.887  10.956 -0.5049  0.1511 -0.3575
 1650SOL    HW116409   1.064   2.925  11.038  1.3749 -0.9991  0.8940
 1650SOL    HW216410   1.012   2.892  10.909 -1.0336 -0.3322  0.5190
 1651SOL     OW16411   2.924   4.234   0.968  0.7349  0.1933  0.5768
 1651SOL    HW116412   2.987   4.265   0.902 -2.2241  0.7193 -2.0216
 1651SOL    HW216413   2.937   4.140   0.951 -2.3711 -0.0128 -0.6465
 1652SOL     OW16414   2.816   3.876   4.834  0.4773  0.0231 -0.1736
 1652SOL    HW116415   2.908   3.851   4.844  0.7698  1.6629  1.2112
 1652SOL    HW216416   2.803   3.874   4.739  0.8226  1.8442 -0.2418
 1653SOL     OW16417   4.265   4.097   3.336  0.3498 -0.3932 -0.4706
 1653SOL    HW116418   4.247   4.026   3.275 -1.8208 -0.0638 -0.2170
 1653SOL    HW216419   4.287   4.043   3.412 -0.7819 -0.4275 -0.1698
 1654SOL     OW16420   3.113   3.390   9.334  0.0553 -0.1892 -0.1036
 1654SOL    HW116421   3.157   3.305   9.334 -0.3985 -0.4257  2.0723
 1654SOL    HW216422   3.102   3.399   9.240 -2.9100 -0.4290  0.2241
 1655SOL     OW16423   2.005   2.899  15.903 -0.1538 -0.5445  0.1049
 1655SOL    HW116424   1.940   2.924  15.837 -0.3748 -0.6347  0.2858
 1655SOL    HW216425   2.015   2.982  15.951  0.1927 -0.2982 -0.3991
 1656SOL     OW16426   0.508   0.714   1.528  0.5840 -0.3022 -0.0323
 1656SOL    HW116427   0.562   0.693   1.604  1.2238 -1.5330 -0.8200
 1656SOL    HW216428   0.580   0.745   1.473 -0.7977  2.3139 -0.3528
 1657SOL     OW16429   3.009   2.309  10.373  0.1573 -0.2444 -0.3620
 1657SOL    HW116430   3.085   2.365  10.392 -0.9200  0.5068  1.8271
 1657SOL    HW216431   2.940   2.375  10.365  1.0248  0.8039  0.6961
 1658SOL     OW16432   2.571   3.250  16.565  0.0407  0.4716  0.5223
 1658SOL    HW116433   2.624   3.279  16.492 -0.5125  0.4776  0.1261
 1658SOL    HW216434   2.494   3.223  16.516  0.0434 -0.2132  0.8794
 1659SOL     OW16435   2.601   2.311   9.019 -0.1746 -0.3568  0.4972
 1659SOL    HW116436   2.674   2.310   9.080  0.0979 -1.2011  0.1676
 1659SOL    HW216437   2.619   2.389   8.967 -1.4040  0.0234  0.6468
 1660SOL     OW16438   4.284   1.669   6.177  0.5888  0.1556 -0.4616
 1660SOL    HW116439   4.258   1.729   6.107  0.6710 -1.9998 -2.3215
 1660SOL    HW216440   4.365   1.633   6.139 -1.1660 -2.2669 -1.8963
 1661SOL     OW16441   0.269   1.522   8.246 -0.6320  0.2560  0.0862
 1661SOL    HW116442   0.303   1.586   8.308 -0.7396  2.4171 -2.0877
 1661SOL    HW216443   0.200   1.479   8.295  0.5277  0.1688  1.6477
 1662SOL     OW16444   1.077   1.827  11.421  0.6986  0.3390  0.2696
 1662SOL    HW116445   1.126   1.846  11.502 -0.5494 -0.3236  1.1719
 1662SOL    HW216446   1.055   1.919  11.409 -0.2710 -0.0913 -1.1555
 1663SOL     OW16447   0.512   0.018   5.727  0.1173  0.1661  0.3739
 1663SOL    HW116448   0.539   0.004   5.818  0.3448 -0.4292  0.2116
 1663SOL    HW216449   0.547   0.106   5.712 -0.0902  0.4659  1.5644
 1664SOL     OW16450   4.521   4.594   5.180  0.3700  0.0196  0.0177
 1664SOL    HW116451   4.480   4.680   5.192 -1.1623 -0.8094  0.7464
 1664SOL    HW216452   4.564   4.601   5.095 -0.0419  0.3017 -0.1667
 1665SOL     OW16453   0.815   2.068  10.945  0.3774 -0.1810 -0.6314
 1665SOL    HW116454   0.755   2.102  11.012 -0.2872  0.1078 -1.3661
 1665SOL    HW216455   0.853   2.146  10.906  1.0374 -1.0137 -1.6478
 1666SOL     OW16456   1.363   4.464   4.753  0.2249 -0.1069 -0.3109
 1666SOL    HW116457   1.304   4.505   4.689  0.8048 -0.5338 -1.1155
 1666SOL    HW216458   1.333   4.374   4.763 -4.6639  1.5835  0.0058
 1667SOL     OW16459   1.090   2.681   4.293  0.1489  0.0125 -0.3652
 1667SOL    HW116460   1.034   2.693   4.216 -1.5027  0.8167  0.9854
 1667SOL    HW216461   1.061   2.759   4.340 -0.0389 -1.8169  2.5336
 1668SOL     OW16462   1.591   4.311   9.788 -0.1197 -0.6046 -0.2426
 1668SOL    HW116463   1.616   4.224   9.820  1.9412  0.1154  0.1325
 1668SOL    HW216464   1.498   4.313   9.812  0.1351  0.7535  0.6671
 1669SOL     OW16465   2.865   1.118   5.192  0.4342 -0.1836  0.4433
 1669SOL    HW116466   2.943   1.160   5.157  0.2074 -2.2545 -2.5464
 1669SOL    HW216467   2.846   1.064   5.115  1.0812 -0.0030  0.1577
 1670SOL     OW16468   2.508   1.245  13.381 -0.3642 -0.2548  0.6171
 1670SOL    HW116469   2.472   1.332  13.395  0.0085  0.3914 -2.4044
 1670SOL    HW216470   2.448   1.190  13.432 -1.6924 -0.9943 -1.7451
 1671SOL     OW16471   1.322   1.808  16.253 -0.3859 -0.2865  0.1870
 1671SOL    HW116472   1.312   1.896  16.216  0.9929 -0.4063 -0.4509
 1671SOL    HW216473   1.326   1.821  16.348 -1.5201 -0.7422  0.3038
 1672SOL     OW16474   1.776   0.437   7.037  0.2994  0.0370 -0.4255
 1672SOL    HW116475   1.733   0.462   7.119 -1.8913  0.7478 -1.7938
 1672SOL    HW216476   1.865   0.427   7.070 -0.2676  0.6799  1.2701
 1673SOL     OW16477   4.567   3.964   3.447 -0.2456 -0.1572 -0.4906
 1673SOL    HW116478   4.484   3.931   3.481 -1.5293  2.0957 -1.4295
 1673SOL    HW216479   4.565   3.937   3.355 -0.2851  1.0887 -0.8563
 1674SOL     OW16480   2.946   3.097  17.669  0.0534  0.0919 -0.0910
 1674SOL    HW116481   2.973   3.175   0.025  0.2266  0.1695 -0.3131
 1674SOL    HW216482   2.937   3.147  17.588 -1.9270  2.0837  1.3798
 1675SOL     OW16483   2.491   0.080   5.369  0.1722 -0.0104 -0.0291
 1675SOL    HW116484   2.402   0.047   5.360  0.0794  0.6445 -1.5567
 1675SOL    HW216485   2.518   0.087   5.278 -3.1896 -0.3337 -1.0594
 1676SOL     OW16486   1.000   3.125   5.193  0.9801  0.5547 -0.1883
 1676SOL    HW116487   0.995   3.114   5.098  0.1159 -0.1369 -0.0654
 1676SOL    HW216488   0.945   3.201   5.214  0.0792  0.1488 -1.1036
 1677SOL     OW16489   2.166   1.923   9.852  0.2876  0.3483 -0.0200
 1677SOL    HW116490   2.211   1.907   9.935  1.8689  0.3968 -0.8814
 1677SOL    HW216491   2.083   1.876   9.866  0.5337 -0.4103 -1.1343
 1678SOL     OW16492   4.148   2.554   6.764 -0.4829 -0.2250 -0.0977
 1678SOL    HW116493   4.061   2.592   6.776  0.5790  2.7812 -2.2076
 1678SOL    HW216494   4.190   2.590   6.842 -1.6242 -0.0218  0.4220
 1679SOL     OW16495   3.695   0.156  15.423 -0.3534 -0.3269 -0.9500
 1679SOL    HW116496   3.764   0.184  15.483 -1.3053  0.2500 -0.1271
 1679SOL    HW216497   3.701   0.061  15.414  0.3719 -0.3006 -0.7311
 1680SOL     OW16498   1.007   2.308   8.664 -0.1410 -0.4142 -0.0969
 1680SOL    HW116499   1.045   2.268   8.742 -0.6081 -0.5208  0.0756
 1680SOL    HW216500   0.953   2.374   8.707  0.1650  1.1510 -2.0972
 1681SOL     OW16501   1.410   0.753  13.931 -0.1489  0.5775  0.3877
 1681SOL    HW116502   1.421   0.841  13.895  0.1355  0.3284 -0.1496
 1681SOL    HW216503   1.434   0.765  14.023  0.5213  0.7967  0.1865
 1682SOL     OW16504   2.742   3.518  13.127  0.6693 -0.0255 -0.1461
 1682SOL    HW116505   2.778   3.605  13.108  0.6653 -0.2065 -0.9672
 1682SOL    HW216506   2.729   3.498  13.034  2.2662 -0.3866 -0.2744
 1683SOL     OW16507   2.873   2.311   6.843 -0.0460  0.0069  0.2941
 1683SOL    HW116508   2.905   2.394   6.807  1.5579 -1.2495 -1.1698
 1683SOL    HW216509   2.778   2.319   6.844 -0.1847 -1.9190  1.5419
 1684SOL     OW16510   2.637   0.564   0.895 -0.4636 -0.4894 -0.2854
 1684SOL    HW116511   2.704   0.559   0.964 -0.1575 -0.9478 -0.6092
 1684SOL    HW216512   2.562   0.557   0.953 -0.1225 -0.7630  0.1243
 1685SOL     OW16513   2.324   3.162  14.769 -0.0923 -0.1504 -0.1604
 1685SOL    HW116514   2.295   3.094  14.830  3.7991 -1.1706  0.5729
 1685SOL    HW216515   2.234   3.187  14.750  0.0343 -0.1747 -0.8070
 1686SOL     OW16516   3.552   1.605  12.542  0.0687 -0.0101 -0.6067
 1686SOL    HW116517   3.512   1.526  12.507 -0.1664 -0.0989 -0.1304
 1686SOL    HW216518   3.627   1.614  12.482  1.3679 -0.2650  0.9766
 1687SOL     OW16519   3.229   0.495   4.623  0.0417  0.1261 -0.0899
 1687SOL    HW116520   3.284   0.504   4.701 -2.0387  1.6392  1.2167
 1687SOL    HW216521   3.233   0.400   4.614  1.4900  0.3569 -2.0764
 1688SOL     OW16522   0.302   3.479   6.637 -0.1901  0.6145  0.6237
 1688SOL    HW116523   0.225   3.501   6.585  0.6194 -0.6338 -1.1173
 1688SOL    HW216524   0.365   3.537   6.594 -1.9490  0.9973 -1.4224
 1689SOL     OW16525   3.289   1.895   3.375  0.1960  0.4430  0.0031
 1689SOL    HW116526   3.301   1.981   3.334 -2.1636  1.1272  0.7379
 1689SOL    HW216527   3.320   1.842   3.301 -0.3224 -0.4834  0.4513
 1690SOL     OW16528   3.376   3.321   1.284  0.5904  0.6227  0.3933
 1690SOL    HW116529   3.331   3.330   1.200  1.2796 -1.9765 -0.2421
 1690SOL    HW216530   3.303   3.289   1.337  0.9297  1.5186  1.4013
 1691SOL     OW16531   2.167   3.032  12.920  0.3720 -0.4431 -0.1015
 1691SOL    HW116532   2.212   3.079  12.990 -0.1446  1.5489 -1.1162
 1691SOL    HW216533   2.231   3.031  12.849  0.2489 -1.1108 -0.2055
 1692SOL     OW16534   4.489   0.839   4.315 -0.1128 -0.0323 -0.1749
 1692SOL    HW116535   4.393   0.844   4.314 -0.1184 -0.0691  0.2243
 1692SOL    HW216536   4.496   0.781   4.240  1.3361 -2.4744  1.8721
 1693SOL     OW16537   0.908   2.283   7.561  0.1670  0.8391 -0.0364
 1693SOL    HW116538   0.886   2.327   7.643 -1.1397 -0.3727  0.2685
 1693SOL    HW216539   0.953   2.202   7.585 -1.4089 -0.7544 -2.3943
 1694SOL     OW16540   0.168   0.856   4.186 -0.0570  0.0955 -0.3103
 1694SOL    HW116541   0.204   0.903   4.111 -1.1281 -1.5257 -1.8632
 1694SOL    HW216542   0.108   0.790   4.151  2.0201 -0.7450 -2.2809
 1695SOL     OW16543   2.712   2.601   8.931 -0.1002  0.4352 -0.2758
 1695SOL    HW116544   2.760   2.657   8.870  0.1559 -0.6749 -1.0891
 1695SOL    HW216545   2.751   2.632   9.013 -1.5685  2.3368 -0.2708
 1696SOL     OW16546   3.259   3.039  11.284  0.3556  0.2815 -0.0775
 1696SOL    HW116547   3.229   2.995  11.363 -1.0187  2.3252  0.5439
 1696SOL    HW216548   3.198   3.111  11.271  0.8137  1.1057  2.3288
 1697SOL     OW16549   2.889   2.616  15.647 -0.2139 -0.0687  0.2986
 1697SOL    HW116550   2.845   2.688  15.601 -0.3855 -0.0642  0.4665
 1697SOL    HW216551   2.854   2.628  15.735  0.9710  1.7773  0.5148
 1698SOL     OW16552   0.545   3.836   4.783 -0.0333 -0.3835 -0.2847
 1698SOL    HW116553   0.597   3.755   4.782 -1.5398 -1.3299 -1.1166
 1698SOL    HW216554   0.486   3.821   4.710 -0.2187 -0.6520 -0.0816
 1699SOL     OW16555   3.780   1.615   4.634  0.0027  0.1470  0.2369
 1699SOL    HW116556   3.814   1.556   4.701  1.8301  1.7008  0.6900
 1699SOL    HW216557   3.778   1.563   4.554 -0.8308 -0.2969  0.5479
 1700SOL     OW16558   1.681   4.651  10.200  0.3234 -0.7477 -0.8248
 1700SOL    HW116559   1.703   4.582  10.263 -0.5252  0.4576  0.8098
 1700SOL    HW216560   1.769   4.686  10.185  0.4289  0.8178  3.1839
 1701SOL     OW16561   0.515   0.670  11.301 -0.0336  0.3760 -0.4597
 1701SOL    HW116562   0.503   0.761  11.330 -0.8501  0.7002 -1.8130
 1701SOL    HW216563   0.480   0.673  11.212  0.2477 -3.0349 -0.6892
 1702SOL     OW16564   0.665   0.677   8.044 -0.0765 -0.0568 -0.4525
 1702SOL    HW116565   0.691   0.706   7.957  0.5392 -0.3969 -0.3838
 1702SOL    HW216566   0.599   0.744   8.061  1.0756  0.6543  1.2448
 1703SOL     OW16567   1.296   4.004   7.713  0.1269 -1.0067  0.1284
 1703SOL    HW116568   1.271   4.047   7.795  3.6501  2.8332 -0.7686
 1703SOL    HW216569   1.372   3.953   7.739  0.9653  0.3426  0.3511
 1704SOL     OW16570   2.449   0.004   6.606  0.4073 -0.2941  0.4602
 1704SOL    HW116571   2.407   4.641   6.602  0.6743 -0.5100  2.1050
 1704SOL    HW216572   2.504   4.721   6.528  0.2501 -1.7199  0.4512
 1705SOL     OW16573   1.543   0.983   1.269 -0.4198 -0.1549  0.5941
 1705SOL    HW116574   1.635   0.962   1.289 -0.4386  0.9944  1.9196
 1705SOL    HW216575   1.538   1.073   1.300 -1.8355  0.6257 -1.8868
 1706SOL     OW16576   3.724   3.885  15.296  0.2687 -0.1334 -0.4461
 1706SOL    HW116577   3.801   3.927  15.257  0.4352 -1.3482 -1.4367
 1706SOL    HW216578   3.731   3.926  15.382 -3.8351 -0.6382  0.1073
 1707SOL     OW16579   3.937   2.733   3.145 -0.4394  0.1399 -0.2846
 1707SOL    HW116580   3.914   2.750   3.054 -2.2216 -0.4440  0.0358
 1707SOL    HW216581   4.023   2.773   3.150  0.9051 -2.7417 -0.1187
 1708SOL     OW16582   0.845   1.944   5.238  0.1285  0.0334 -0.4253
 1708SOL    HW116583   0.829   1.957   5.145  1.1157 -0.3291 -0.6470
 1708SOL    HW216584   0.890   2.025   5.262 -0.9772  0.8422 -1.0768
 1709SOL     OW16585   2.778   2.020   1.276 -0.6684 -0.0792  0.7856
 1709SOL    HW116586   2.864   2.041   1.239  0.6008 -1.8557  2.7663
 1709SOL    HW216587   2.789   2.038   1.369  0.6959 -2.6100  1.1135
 1710SOL     OW16588   4.173   0.111   6.379 -0.0644 -0.4118  0.2065
 1710SOL    HW116589   4.142   0.087   6.466 -0.2047 -2.1424 -0.3212
 1710SOL    HW216590   4.193   0.204   6.392 -0.6174 -0.1090 -1.0616
 1711SOL     OW16591   0.964   1.096   7.462 -0.0726  0.3404  0.4511
 1711SOL    HW116592   0.970   1.190   7.476  1.3839  0.2571  0.3828
 1711SOL    HW216593   0.901   1.071   7.529 -0.6496  0.8129  0.0853
 1712SOL     OW16594   3.654   3.083   8.334  0.0935 -0.2933 -0.0716
 1712SOL    HW116595   3.742   3.118   8.349  0.7630 -1.9348 -0.1467
 1712SOL    HW216596   3.663   3.093   8.239 -1.4058 -0.3687 -0.2313
 1713SOL     OW16597   0.688   3.539   9.499 -0.2206  0.2926 -0.0446
 1713SOL    HW116598   0.772   3.548   9.545  0.3326 -1.9243 -0.5985
 1713SOL    HW216599   0.676   3.444   9.510  4.6068 -0.4470 -1.2340
 1714SOL     OW16600   2.563   1.281   4.955 -0.0864 -0.1966 -0.4855
 1714SOL    HW116601   2.485   1.260   4.903 -0.1511 -1.0375 -0.0428
 1714SOL    HW216602   2.595   1.363   4.916 -0.2451  0.1022  0.0057
 1715SOL     OW16603   3.999   2.092   3.205 -0.0861 -0.0457  0.1492
 1715SOL    HW116604   4.085   2.131   3.190  0.1849 -1.4991 -2.0224
 1715SOL    HW216605   3.954   2.136   3.133 -1.3174 -0.0413  0.9325
 1716SOL     OW16606   0.560   2.647  11.985 -0.0728  0.4591  0.8201
 1716SOL    HW116607   0.519   2.659  11.899 -0.4476 -2.1094  0.6511
 1716SOL    HW216608   0.611   2.566  11.977 -0.5314  0.2829 -0.2547
 1717SOL     OW16609   3.354   2.919   2.849 -0.4683  0.2740 -0.0266
 1717SOL    HW116610   3.370   2.825   2.856  1.3780  0.7865  2.5132
 1717SOL    HW216611   3.405   2.942   2.927  0.4139 -0.5501 -0.3634
 1718SOL     OW16612   3.985   0.225   3.606 -0.2162 -0.2218 -0.0867
 1718SOL    HW116613   3.979   0.319   3.624 -2.3727 -0.8212  2.2961
 1718SOL    HW216614   3.904   0.212   3.556 -0.3246 -1.0178  0.2988
 1719SOL     OW16615   0.083   0.381  12.259 -0.3994  0.2842  0.4810
 1719SOL    HW116616   0.056   0.289  12.251 -1.8485  0.5239  2.6522
 1719SOL    HW216617   0.097   0.390  12.353 -0.6593 -0.5701  0.6045
 1720SOL     OW16618   2.034   4.291   5.518 -0.6032  0.7326 -0.3209
 1720SOL    HW116619   1.958   4.311   5.465 -1.4221  0.2674  0.6697
 1720SOL    HW216620   2.107   4.284   5.457 -0.5959 -1.8244 -0.0340
 1721SOL     OW16621   1.326   3.913   9.724  0.0286  0.2648 -0.2031
 1721SOL    HW116622   1.413   3.930   9.687 -0.4257  2.4345 -0.2642
 1721SOL    HW216623   1.312   3.989   9.781 -1.0723 -0.8313  0.9757
 1722SOL     OW16624   4.076   1.627   5.083 -0.6590  0.4612  0.1074
 1722SOL    HW116625   4.024   1.564   5.133 -0.0357 -1.0778 -1.1805
 1722SOL    HW216626   4.167   1.601   5.095 -0.9326 -0.0380  1.0342
 1723SOL     OW16627   4.092   1.103   3.820  0.7894  0.6369 -0.4296
 1723SOL    HW116628   4.180   1.133   3.796  1.4998 -0.7715  0.4272
 1723SOL    HW216629   4.057   1.173   3.875  1.2873  0.8129 -0.3354
 1724SOL     OW16630   4.494   4.494   8.058 -0.5956  0.4199  0.3124
 1724SOL    HW116631   4.475   4.544   7.979 -0.1097  2.1126  1.2647
 1724SOL    HW216632   4.463   4.561   8.120 -0.3843  1.4438 -0.6835
 1725SOL     OW16633   2.368   2.538  12.419  0.0544 -0.1903  0.4922
 1725SOL    HW116634   2.289   2.531  12.365  0.9793 -0.8052 -0.7875
 1725SOL    HW216635   2.410   2.618  12.386  3.2128 -1.0371  2.4878
 1726SOL     OW16636   2.868   2.014   5.061  0.3527  0.6245  0.4290
 1726SOL    HW116637   2.787   2.001   5.013  0.3726  1.6164  0.1215
 1726SOL    HW216638   2.927   2.031   4.987  1.8055  4.5660  2.4706
 1727SOL     OW16639   0.705   1.596   6.592 -0.3107  1.1115  0.0072
 1727SOL    HW116640   0.702   1.603   6.496 -0.9347  0.5199 -0.0103
 1727SOL    HW216641   0.716   1.687   6.620  0.3705  0.5248  1.6489
 1728SOL     OW16642   2.927   0.048   6.964 -0.4073  0.3497  0.1748
 1728SOL    HW116643   2.991   0.076   7.029  0.6214 -0.1946 -0.5993
 1728SOL    HW216644   2.989   0.025   6.894 -1.5406  1.1268 -1.0918
 1729SOL     OW16645   4.032   0.556   3.701  0.6098 -0.2195 -0.3275
 1729SOL    HW116646   4.064   0.543   3.612  3.3454  0.7297  0.5350
 1729SOL    HW216647   4.084   0.631   3.730  1.8314 -0.4946 -1.7790
 1730SOL     OW16648   1.470   3.694   3.686  0.0200  0.1067  0.2634
 1730SOL    HW116649   1.388   3.708   3.732  0.7200  1.3572  1.1234
 1730SOL    HW216650   1.529   3.740   3.746  1.4012 -0.3078 -0.7607
 1731SOL     OW16651   2.035   1.341   0.678  0.0509  0.2293  0.0956
 1731SOL    HW116652   2.063   1.430   0.699  2.0091 -0.6418  1.1821
 1731SOL    HW216653   2.101   1.321   0.611 -0.3064  1.0520 -0.5063
 1732SOL     OW16654   0.363   1.214  11.492  0.0521  0.4466 -0.2417
 1732SOL    HW116655   0.380   1.266  11.571  2.1774 -1.4252  0.5633
 1732SOL    HW216656   0.292   1.161  11.528  0.4294 -0.2163 -0.4743
 1733SOL     OW16657   3.978   4.296   5.108  0.4860 -0.4106  0.0423
 1733SOL    HW116658   4.032   4.299   5.029 -0.3220  0.4521 -0.4876
 1733SOL    HW216659   3.893   4.273   5.068 -0.2065  0.3200  1.1035
 1734SOL     OW16660   2.981   1.502   0.837 -0.4134 -0.3550 -0.8329
 1734SOL    HW116661   2.950   1.582   0.794  0.0806  0.4582  0.3080
 1734SOL    HW216662   2.902   1.458   0.868 -0.0017  0.2593  1.1282
 1735SOL     OW16663   3.135   0.902   6.181  0.2835 -0.2526  0.2735
 1735SOL    HW116664   3.102   0.991   6.184  0.0267 -0.3775  1.2018
 1735SOL    HW216665   3.063   0.866   6.129  1.1656 -0.3986 -0.8552
 1736SOL     OW16666   2.055   0.907   1.482  0.1472 -0.2919 -0.4700
 1736SOL    HW116667   2.110   0.972   1.438  0.1312 -1.6406 -2.4996
 1736SOL    HW216668   2.078   0.913   1.574 -0.5118  1.8683 -0.4416
 1737SOL     OW16669   1.192   1.147   9.537 -0.1671 -0.4980 -0.0767
 1737SOL    HW116670   1.115   1.181   9.583  1.0959  1.2735  0.7399
 1737SOL    HW216671   1.235   1.230   9.515  0.3888 -0.5008  1.0010
 1738SOL     OW16672   1.410   2.245   5.057  0.5918  0.8070 -0.0962
 1738SOL    HW116673   1.316   2.265   5.054  0.2389 -0.9399 -1.1807
 1738SOL    HW216674   1.411   2.194   4.976  0.3659  0.8643 -0.1350
 1739SOL     OW16675   3.240   2.224   6.593  0.0351 -0.1682 -0.4307
 1739SOL    HW116676   3.335   2.230   6.605 -0.0579  1.7549 -0.6981
 1739SOL    HW216677   3.225   2.130   6.598 -0.7197 -0.0773 -0.9415
 1740SOL     OW16678   1.522   1.010   2.021 -0.4083  0.0942 -0.2813
 1740SOL    HW116679   1.429   1.019   2.003 -0.5373 -0.3033  0.1907
 1740SOL    HW216680   1.549   1.098   2.048 -0.0592 -1.0274  3.0128
 1741SOL     OW16681   2.861   2.697  16.069  1.2751  0.4371  0.3081
 1741SOL    HW116682   2.783   2.678  16.017  0.7244  0.2286  1.2124
 1741SOL    HW216683   2.903   2.611  16.065 -0.8368 -0.5212 -1.4154
 1742SOL     OW16684   3.325   4.484   4.139  0.1390  0.0557 -0.2946
 1742SOL    HW116685   3.311   4.402   4.091  2.0824 -0.1155 -0.5791
 1742SOL    HW216686   3.250   4.539   4.119  1.6405  1.9918 -0.5722
 1743SOL     OW16687   2.632   0.098   4.240  0.0756 -0.4291 -0.1201
 1743SOL    HW116688   2.690   0.065   4.309  1.6543  0.8859 -0.7968
 1743SOL    HW216689   2.688   0.138   4.173  0.8102 -0.4337  0.4916
 1744SOL     OW16690   1.742   3.913  15.613 -0.4553  0.3874 -0.2084
 1744SOL    HW116691   1.688   3.976  15.565 -1.5529 -2.0942 -2.2441
 1744SOL    HW216692   1.812   3.911  15.548 -0.1962  0.8473  0.0527
 1745SOL     OW16693   1.124   1.288   9.112 -0.2486 -0.1740  0.3208
 1745SOL    HW116694   1.143   1.254   9.024  1.7357 -0.3023  0.8127
 1745SOL    HW216695   1.043   1.246   9.142 -0.7957  2.0099  1.9145
 1746SOL     OW16696   3.781   0.331  16.209  0.5761  0.0372 -0.1693
 1746SOL    HW116697   3.701   0.314  16.160  0.4031 -1.6252  0.7074
 1746SOL    HW216698   3.782   0.425  16.188 -0.3778  0.2616  0.8023
 1747SOL     OW16699   4.546   4.355   8.788 -0.2198  0.4188 -0.6937
 1747SOL    HW116700   4.471   4.312   8.830  1.1438 -1.8272 -0.5532
 1747SOL    HW216701   4.584   4.280   8.743  0.3092 -0.6956  1.5872
 1748SOL     OW16702   3.559   0.601   9.119 -0.6322 -0.2481 -0.1221
 1748SOL    HW116703   3.482   0.544   9.121  0.0768 -1.2831 -2.0978
 1748SOL    HW216704   3.575   0.610   9.025  0.7435 -1.8250 -0.0578
 1749SOL     OW16705   2.446   1.629  17.510 -0.0899  0.3815  0.0752
 1749SOL    HW116706   2.517   1.669  17.459 -0.9653  2.3674  0.4139
 1749SOL    HW216707   2.497   1.553  17.540 -1.4161 -1.1788 -1.5825
 1750SOL     OW16708   2.234   3.826   8.606 -0.0170  0.2124  0.2465
 1750SOL    HW116709   2.188   3.750   8.570 -1.0056  0.8706  0.1262
 1750SOL    HW216710   2.179   3.903   8.590  2.3084  1.6978 -0.7880
 1751SOL     OW16711   3.419   1.717   6.425 -0.2335  0.9198  0.3032
 1751SOL    HW116712   3.474   1.659   6.373  1.3103  1.9794  0.7570
 1751SOL    HW216713   3.364   1.751   6.354 -1.1391  2.6288  1.8108
 1752SOL     OW16714   0.406   3.148   4.556 -0.4443  0.4171 -0.4837
 1752SOL    HW116715   0.321   3.115   4.527 -1.5132  2.2682  0.5356
 1752SOL    HW216716   0.412   3.227   4.502  1.4855  1.2027  0.8685
 1753SOL     OW16717   3.588   3.148   3.020 -0.4450  0.2639 -0.5330
 1753SOL    HW116718   3.584   3.238   3.051  0.1062 -0.0049  0.3330
 1753SOL    HW216719   3.509   3.111   3.061 -0.2325 -0.3737 -0.6959
 1754SOL     OW16720   1.492   2.955  10.815  0.2184  0.4756  0.6394
 1754SOL    HW116721   1.525   2.865  10.810  1.5280  1.0141 -0.5135
 1754SOL    HW216722   1.494   2.975  10.908 -0.9242 -0.0712  0.7835
 1755SOL     OW16723   4.622   0.077   0.480  0.0052 -0.2777 -0.6350
 1755SOL    HW116724   4.548   0.118   0.434 -0.4605  0.7941  1.0648
 1755SOL    HW216725   4.571   0.063   0.560  0.6148  1.6341  0.0930
 1756SOL     OW16726   1.676   1.967   3.416  0.3113  0.1457 -0.4271
 1756SOL    HW116727   1.607   2.011   3.466 -1.0080 -0.5329 -1.6660
 1756SOL    HW216728   1.709   2.043   3.368  0.0986 -0.4294 -1.4883
 1757SOL     OW16729   1.194   0.859   6.942 -0.1715 -0.1992 -0.0593
 1757SOL    HW116730   1.142   0.936   6.920  0.6235  0.0078 -1.1997
 1757SOL    HW216731   1.274   0.880   6.892  0.7687  0.2167  1.6337
 1758SOL     OW16732   4.667   1.818  16.681  0.0666 -0.2286  0.4142
 1758SOL    HW116733   4.683   1.814  16.775 -1.0946 -0.3168  0.6042
 1758SOL    HW216734   0.025   1.866  16.661 -1.9452  2.6178 -0.8210
 1759SOL     OW16735   1.249   1.214  15.303 -0.7352  0.2943  0.7350
 1759SOL    HW116736   1.166   1.181  15.271 -1.3399 -0.7044  3.3480
 1759SOL    HW216737   1.230   1.204  15.396  0.8642 -1.3510  0.9050
 1760SOL     OW16738   1.000   0.239   2.511 -0.4082  0.5242  0.2525
 1760SOL    HW116739   1.086   0.246   2.468 -0.1732  1.7159  0.9123
 1760SOL    HW216740   0.980   0.330   2.533  0.3574  0.8534 -0.3721
 1761SOL     OW16741   4.441   2.859   3.500 -0.2722 -0.4709 -0.8911
 1761SOL    HW116742   4.402   2.900   3.577  0.7551  1.6558 -1.4999
 1761SOL    HW216743   4.498   2.796   3.544 -1.3767 -0.3973  0.6510
 1762SOL     OW16744   1.377   0.927  16.572 -0.4164 -0.4280  0.1292
 1762SOL    HW116745   1.375   0.894  16.482  0.8391 -0.1485  0.0099
 1762SOL    HW216746   1.441   0.864  16.605  1.4929  3.0181  3.0503
 1763SOL     OW16747   4.610   1.190  14.311  0.2065  0.6590 -0.4182
 1763SOL    HW116748   4.631   1.146  14.228  1.2744  0.4833 -0.0631
 1763SOL    HW216749   4.518   1.212  14.295 -0.3702 -0.2964  1.5551
 1764SOL     OW16750   3.000   0.775   1.140 -0.1545  0.4624 -0.2970
 1764SOL    HW116751   2.939   0.847   1.156 -0.7503 -0.1751  0.3053
 1764SOL    HW216752   2.944   0.702   1.165 -0.7740  1.3715  0.9562
 1765SOL     OW16753   2.108   1.109   7.002 -0.4123  0.1508  0.1433
 1765SOL    HW116754   2.049   1.088   6.929 -0.4942  0.6622  0.0614
 1765SOL    HW216755   2.180   1.050   6.979 -0.5594  0.5058 -1.2052
 1766SOL     OW16756   3.614   3.553   3.898 -0.2309 -0.0636 -0.6514
 1766SOL    HW116757   3.609   3.622   3.832  1.5048 -1.2308 -2.0073
 1766SOL    HW216758   3.560   3.485   3.859  2.0293 -2.3482  0.2203
 1767SOL     OW16759   4.032   4.432  13.068 -0.0799  0.1723 -0.0987
 1767SOL    HW116760   4.031   4.462  13.158 -0.4616  0.5385 -0.2233
 1767SOL    HW216761   3.940   4.418  13.046  0.1541 -0.0675 -0.9618
 1768SOL     OW16762   2.214   0.600   4.246  0.5696 -0.6626 -0.3378
 1768SOL    HW116763   2.228   0.688   4.280 -1.0770 -0.9013  0.9491
 1768SOL    HW216764   2.205   0.548   4.326  2.4685 -0.0939  0.2273
 1769SOL     OW16765   2.916   0.767   6.012 -0.1168 -0.2029 -0.2164
 1769SOL    HW116766   2.855   0.703   6.048 -3.1780  1.1369 -2.9850
 1769SOL    HW216767   2.924   0.740   5.920  1.0155  2.1966 -0.8252
 1770SOL     OW16768   3.156   3.124   3.919 -0.1885 -0.2305 -0.3518
 1770SOL    HW116769   3.100   3.090   3.849 -0.0485 -0.7686 -0.2029
 1770SOL    HW216770   3.242   3.107   3.880  0.4000  0.0395  0.8290
 1771SOL     OW16771   1.020   3.886   8.938 -0.1871 -0.0064  0.1677
 1771SOL    HW116772   0.957   3.860   9.006 -0.4581  2.1534  0.7358
 1771SOL    HW216773   1.099   3.840   8.969 -0.9659 -0.5998  1.3145
 1772SOL     OW16774   0.075   3.356   4.817  0.1395  0.1933 -0.0859
 1772SOL    HW116775   0.143   3.409   4.775 -0.4084  1.4272  0.5891
 1772SOL    HW216776   4.717   3.408   4.814 -0.2775 -0.4222  0.3047
 1773SOL     OW16777   1.668   4.431   9.542  0.1737  0.3260 -0.1587
 1773SOL    HW116778   1.727   4.356   9.531  0.5622  0.6643 -0.3978
 1773SOL    HW216779   1.614   4.398   9.613 -0.9910  1.4743 -0.5082
 1774SOL     OW16780   1.107   3.407   6.069  0.2959 -0.4627 -0.4362
 1774SOL    HW116781   1.075   3.336   6.015 -0.8498 -0.6678  0.4985
 1774SOL    HW216782   1.163   3.454   6.008 -0.0677 -0.3563 -0.6891
 1775SOL     OW16783   1.585   0.658   4.920 -0.0948 -0.4242 -0.4248
 1775SOL    HW116784   1.538   0.576   4.931  0.4376 -0.5087  1.2139
 1775SOL    HW216785   1.672   0.623   4.903  0.0217  0.1938 -1.1432
 1776SOL     OW16786   0.710   0.478  16.923 -0.1768  0.1722 -0.0247
 1776SOL    HW116787   0.679   0.544  16.862  0.1456 -0.2008 -0.5867
 1776SOL    HW216788   0.771   0.439  16.860 -0.9881 -1.3849  0.1448
 1777SOL     OW16789   1.981   3.626  17.338 -0.7191  0.3355  0.2942
 1777SOL    HW116790   2.050   3.671  17.288  0.0741  0.5804  1.6050
 1777SOL    HW216791   1.968   3.697  17.400 -0.9132  2.7883 -2.5367
 1778SOL     OW16792   2.264   3.892   7.433  0.1057  0.5439 -0.4060
 1778SOL    HW116793   2.238   3.802   7.448  0.8974  0.3390 -0.2772
 1778SOL    HW216794   2.357   3.898   7.452 -0.0104 -1.4261  0.7133
 1779SOL     OW16795   1.591   2.617   1.206  0.2906 -0.2153  0.0134
 1779SOL    HW116796   1.631   2.645   1.288 -2.2444 -0.9402  1.5052
 1779SOL    HW216797   1.524   2.559   1.242  0.0840 -0.6445 -1.0572
 1780SOL     OW16798   1.497   2.635   7.785 -0.0399 -0.0202 -0.4256
 1780SOL    HW116799   1.437   2.588   7.843  1.3479  0.1996  1.1907
 1780SOL    HW216800   1.569   2.573   7.773  0.3827  0.5220 -0.6600
 1781SOL     OW16801   2.364   1.799   6.277 -1.0776  0.1857  0.5295
 1781SOL    HW116802   2.445   1.847   6.261 -1.2794 -0.1200 -1.3629
 1781SOL    HW216803   2.384   1.723   6.223 -1.6319  0.2305  0.2619
 1782SOL     OW16804   3.152   4.346   4.671 -0.5346  0.2617 -0.4295
 1782SOL    HW116805   3.235   4.357   4.716 -1.4285 -2.5796  1.9357
 1782SOL    HW216806   3.109   4.424   4.705 -0.8524 -0.6442  1.2379
 1783SOL     OW16807   3.663   3.343   4.063  0.1154  0.3024 -0.1753
 1783SOL    HW116808   3.644   3.279   3.995 -0.9598 -0.7707  1.1293
 1783SOL    HW216809   3.651   3.426   4.017 -1.4040  0.8233  1.1364
 1784SOL     OW16810   0.318   3.020   2.611  0.8347 -0.2900 -0.0210
 1784SOL    HW116811   0.345   3.110   2.629  0.6972  0.2216 -2.3935
 1784SOL    HW216812   0.339   2.976   2.694  1.5686  0.7160  0.3327
 1785SOL     OW16813   4.368   0.778   7.718 -0.5251  0.3437  0.3921
 1785SOL    HW116814   4.322   0.702   7.755 -0.2325  1.4443  2.9595
 1785SOL    HW216815   4.363   0.834   7.795 -2.5626  0.5696  0.1050
 1786SOL     OW16816   0.575   2.333   8.098 -0.2255  0.4751  0.4956
 1786SOL    HW116817   0.557   2.398   8.166  1.7981 -0.3033  1.7655
 1786SOL    HW216818   0.669   2.318   8.105 -0.4137 -0.4374  1.1605
 1787SOL     OW16819   2.415   0.344   6.458  0.7254  0.2918  0.5653
 1787SOL    HW116820   2.339   0.288   6.473 -0.6258  1.7557 -0.9045
 1787SOL    HW216821   2.393   0.391   6.378  0.1753  0.5822  0.8856
 1788SOL     OW16822   0.290   0.694   7.320  0.6931  0.5640  0.2694
 1788SOL    HW116823   0.231   0.752   7.271  0.9793 -0.7366 -1.6014
 1788SOL    HW216824   0.355   0.756   7.352  0.4225  0.1776  1.5907
 1789SOL     OW16825   2.200   3.764   4.077 -0.0554  0.6127 -0.3693
 1789SOL    HW116826   2.164   3.741   4.163 -0.1938  0.4757 -0.4641
 1789SOL    HW216827   2.123   3.786   4.023  0.3884  0.1535 -1.1850
 1790SOL     OW16828   0.518   2.644   4.582 -0.6633  0.2172  0.0245
 1790SOL    HW116829   0.593   2.699   4.560 -1.0472  0.0301 -1.7624
 1790SOL    HW216830   0.546   2.554   4.599  0.1171  0.4548 -0.0269
 1791SOL     OW16831   0.424   3.372   4.344 -0.0180 -0.2569 -0.3561
 1791SOL    HW116832   0.503   3.425   4.337  1.8509 -2.8092  1.2527
 1791SOL    HW216833   0.381   3.381   4.259 -0.5236 -0.3640 -0.1192
 1792SOL     OW16834   2.029   3.978  16.010  0.2802  1.0167  0.1676
 1792SOL    HW116835   2.020   3.884  16.025  1.3648  0.4402 -2.6495
 1792SOL    HW216836   1.947   4.002  15.967 -0.2557 -1.3016 -0.0870
 1793SOL     OW16837   4.481   1.174  12.851 -0.0518 -0.1467 -0.0962
 1793SOL    HW116838   4.466   1.117  12.776  0.5327 -0.2976 -0.0975
 1793SOL    HW216839   4.394   1.184  12.891 -0.8445  0.1344 -1.8866
 1794SOL     OW16840   2.967   0.447   5.358  0.2087  0.3849 -0.0323
 1794SOL    HW116841   3.039   0.471   5.299  0.6930  0.7851  0.7159
 1794SOL    HW216842   2.904   0.518   5.349 -2.3645 -2.0786 -1.1494
 1795SOL     OW16843   3.228   2.898   6.340 -0.5509 -0.0866 -0.0755
 1795SOL    HW116844   3.245   2.985   6.303 -2.9368  0.1452 -0.6381
 1795SOL    HW216845   3.319   2.875   6.359 -0.0492  0.7818 -1.4424
 1796SOL     OW16846   2.317   1.901   0.297  0.0410 -0.4493 -0.2570
 1796SOL    HW116847   2.349   1.837   0.234 -0.0005 -0.7980  0.0776
 1796SOL    HW216848   2.334   1.979   0.244 -1.1483  0.7882  1.1937
 1797SOL     OW16849   0.185   0.450   3.355  0.5855 -0.2207  0.3283
 1797SOL    HW116850   0.214   0.533   3.318  0.6563  0.1084  1.1113
 1797SOL    HW216851   0.266   0.403   3.337 -0.6237 -2.2626  0.1251
 1798SOL     OW16852   2.913   4.196   6.522  0.5354  0.5848 -0.5611
 1798SOL    HW116853   3.006   4.219   6.515  0.6640  0.4652  0.8469
 1798SOL    HW216854   2.883   4.286   6.518 -1.1515  0.0691  0.4788
 1799SOL     OW16855   0.332   2.309  13.315  0.5999 -0.4223 -0.4113
 1799SOL    HW116856   0.243   2.300  13.350  0.7626  0.0741  0.1368
 1799SOL    HW216857   0.370   2.241  13.371 -2.0949  0.0412  2.0259
 1800SOL     OW16858   1.046   2.330   6.896  0.4210 -0.6185  0.0644
 1800SOL    HW116859   1.051   2.390   6.821  2.2498 -1.5488 -0.5630
 1800SOL    HW216860   1.070   2.248   6.853 -0.4003 -1.2758  0.8674
 1801SOL     OW16861   1.619   2.734   3.477  0.4873  0.9357  0.5728
 1801SOL    HW116862   1.564   2.812   3.471  1.4153  1.6866  1.7868
 1801SOL    HW216863   1.613   2.691   3.392 -1.5227 -1.3335  1.8370
 1802SOL     OW16864   0.096   3.331   7.317 -0.5146 -0.0350 -0.9466
 1802SOL    HW116865   0.078   3.376   7.235  0.5833  0.4575 -0.9119
 1802SOL    HW216866   0.058   3.392   7.380 -1.0024  0.6227 -1.8764
 1803SOL     OW16867   3.199   0.466  16.805  0.3542  0.7780 -0.5516
 1803SOL    HW116868   3.194   0.372  16.820 -0.6155  1.1086  1.1223
 1803SOL    HW216869   3.253   0.490  16.880 -0.9166  1.0727  0.2597
 1804SOL     OW16870   1.439   1.519   8.430 -0.5560  0.5226 -0.3690
 1804SOL    HW116871   1.404   1.573   8.359 -0.1060  0.2503 -0.7963
 1804SOL    HW216872   1.455   1.585   8.497  1.1915 -0.0957 -0.1939
 1805SOL     OW16873   1.656   3.497   7.741 -0.3108 -0.4879 -0.2806
 1805SOL    HW116874   1.566   3.503   7.772  0.3594  0.2272  1.5178
 1805SOL    HW216875   1.658   3.502   7.645 -1.9650 -1.6679 -0.3802
 1806SOL     OW16876   3.832   2.657   2.847  0.4677 -0.0504 -0.0135
 1806SOL    HW116877   3.808   2.597   2.776  2.0433 -1.2071  0.4621
 1806SOL    HW216878   3.790   2.735   2.810  1.5949  0.4858 -0.1460
 1807SOL     OW16879   2.410   2.976  13.267  0.1388  0.2838 -0.2464
 1807SOL    HW116880   2.336   2.925  13.298 -0.8367  2.4544  1.0466
 1807SOL    HW216881   2.474   2.906  13.254 -1.2129 -0.5540 -2.2311
 1808SOL     OW16882   0.125   2.210   7.796  0.1581 -0.1338  0.7604
 1808SOL    HW116883   0.209   2.166   7.795 -1.9421 -4.0900 -0.5134
 1808SOL    HW216884   0.142   2.258   7.877 -0.3377  0.7882  0.3206
 1809SOL     OW16885   0.710   2.740  10.806 -0.1293  0.6606 -0.2151
 1809SOL    HW116886   0.753   2.817  10.844 -2.3246  2.0370 -0.5334
 1809SOL    HW216887   0.643   2.789  10.759 -1.7336 -1.9945 -0.7394
 1810SOL     OW16888   2.454   2.322  15.560  0.0710  0.1452 -0.0349
 1810SOL    HW116889   2.446   2.233  15.527  0.3902  0.2696 -0.4469
 1810SOL    HW216890   2.542   2.335  15.524  0.8464 -0.0987  1.7701
 1811SOL     OW16891   3.676   3.571  16.737 -0.3017  0.0494 -0.0935
 1811SOL    HW116892   3.725   3.538  16.812 -0.4016 -0.0808 -0.0849
 1811SOL    HW216893   3.733   3.631  16.689 -0.0138 -1.3836 -1.5386
 1812SOL     OW16894   2.593   2.092   0.614 -0.0072 -0.3479  0.8417
 1812SOL    HW116895   2.548   2.159   0.665  1.6013  1.3829 -0.0188
 1812SOL    HW216896   2.665   2.078   0.675 -0.4380  0.2358  1.4801
 1813SOL     OW16897   2.825   4.536   8.858  0.2891  0.2346  0.8816
 1813SOL    HW116898   2.842   4.584   8.939  0.5896  1.0073  0.3681
 1813SOL    HW216899   2.835   4.448   8.894 -1.4270  1.0927  3.4253
 1814SOL     OW16900   4.607   2.540  10.714  0.0283  0.7172  0.3060
 1814SOL    HW116901   4.605   2.629  10.679  2.5443  0.6652 -0.0021
 1814SOL    HW216902   4.605   2.558  10.808 -0.1779 -0.1615  0.4691
 1815SOL     OW16903   0.036   3.913  15.375 -1.1133  0.3706  0.2665
 1815SOL    HW116904   0.014   3.821  15.387 -0.8716  0.7911  3.8849
 1815SOL    HW216905   0.066   3.941  15.461  2.1951 -1.4133 -0.3324
 1816SOL     OW16906   0.466   3.498   4.939  0.8896  0.1269  0.0308
 1816SOL    HW116907   0.541   3.444   4.917  0.0829 -0.4090 -1.4126
 1816SOL    HW216908   0.417   3.441   4.998  0.4001 -0.8103 -1.2733
 1817SOL     OW16909   3.476   1.298   0.694  0.2044  0.1242  0.0884
 1817SOL    HW116910   3.458   1.386   0.661 -0.3050  0.6027  1.5885
 1817SOL    HW216911   3.417   1.300   0.770 -0.2144 -0.1870 -0.2221
 1818SOL     OW16912   1.926   0.672   4.308  0.6158 -0.2680  0.0665
 1818SOL    HW116913   1.974   0.656   4.390  1.5358  1.1839 -0.2001
 1818SOL    HW216914   1.975   0.746   4.274 -0.1910  0.8864  1.4111
 1819SOL     OW16915   3.882   1.052   5.308  0.0025 -0.2185 -0.4480
 1819SOL    HW116916   3.873   1.032   5.215  0.4268 -0.3801 -0.4535
 1819SOL    HW216917   3.911   0.966   5.338  1.2715 -0.6848 -3.0443
 1820SOL     OW16918   4.365   4.007   8.507  0.8529 -0.1129 -0.5590
 1820SOL    HW116919   4.329   4.087   8.467  1.1683  0.7261  0.8434
 1820SOL    HW216920   4.295   3.982   8.567 -1.5593  0.7959 -2.9622
 1821SOL     OW16921   3.144   3.724   3.845 -0.1970 -0.5963 -0.3268
 1821SOL    HW116922   3.144   3.632   3.818 -0.4613 -0.7978  0.3770
 1821SOL    HW216923   3.234   3.743   3.817  0.0266  0.4630  1.1350
 1822SOL     OW16924   3.992   2.793   5.610  0.5634 -0.1982 -0.5623
 1822SOL    HW116925   3.948   2.861   5.661 -0.5812  0.0728 -1.9055
 1822SOL    HW216926   3.989   2.847   5.531  0.6597 -1.1841 -1.2521
 1823SOL     OW16927   0.467   3.900  11.996 -0.3437  0.0521 -0.5456
 1823SOL    HW116928   0.548   3.883  12.044 -0.5642 -1.4232 -0.6902
 1823SOL    HW216929   0.398   3.905  12.061  0.7156  0.3801  0.5543
 1824SOL     OW16930   4.321   2.599   5.395 -0.3306 -0.3203  0.0178
 1824SOL    HW116931   4.259   2.664   5.428 -1.8396 -0.6555 -2.1820
 1824SOL    HW216932   4.399   2.620   5.447 -0.0638 -0.1594 -0.4531
 1825SOL     OW16933   0.588   3.064   5.764 -0.3171 -0.1750  0.1390
 1825SOL    HW116934   0.519   3.080   5.700  0.1751  3.0798  0.3866
 1825SOL    HW216935   0.656   3.120   5.726 -0.4064 -0.2013 -0.0585
 1826SOL     OW16936   1.645   0.181  10.803 -0.1114 -0.0316  0.2107
 1826SOL    HW116937   1.609   0.221  10.882  4.0635  0.6653  1.7285
 1826SOL    HW216938   1.719   0.238  10.782 -0.1781  0.3562  1.0303
 1827SOL     OW16939   2.235   3.426   5.468  0.6656 -0.5339  0.1689
 1827SOL    HW116940   2.282   3.506   5.449 -0.9515  0.5167  0.5698
 1827SOL    HW216941   2.176   3.456   5.537 -0.3223 -2.3542  0.1313
 1828SOL     OW16942   3.586   2.701   5.886 -0.1282  0.2940 -0.2695
 1828SOL    HW116943   3.675   2.712   5.919  0.9941  0.6950 -3.4786
 1828SOL    HW216944   3.581   2.757   5.808  0.0414  2.6146  1.3787
 1829SOL     OW16945   0.127   1.395  12.269 -0.1835 -0.6164 -0.0656
 1829SOL    HW116946   0.157   1.378  12.358  0.4027  0.9328  0.0263
 1829SOL    HW216947   0.135   1.490  12.281  1.5205 -0.7767  0.0347
 1830SOL     OW16948   3.148   2.048  12.158 -0.0845 -0.1652  0.4234
 1830SOL    HW116949   3.191   2.082  12.079 -1.5390 -0.2307 -0.3827
 1830SOL    HW216950   3.067   2.097  12.165 -0.3389 -0.6953  1.2601
 1831SOL     OW16951   2.046   1.010   2.775 -0.1383 -0.2146  0.6260
 1831SOL    HW116952   2.127   1.052   2.805  0.0314  0.4621 -0.8006
 1831SOL    HW216953   2.070   0.981   2.687 -2.2068  0.3265 -0.1079
 1832SOL     OW16954   1.722   2.440   4.018  0.1573 -0.2083 -0.3388
 1832SOL    HW116955   1.781   2.366   4.025 -1.0120 -1.4159 -3.0364
 1832SOL    HW216956   1.783   2.514   4.027  1.6663 -1.4169 -0.8163
 1833SOL     OW16957   4.373   1.313   3.221  0.0507  0.4717  0.3452
 1833SOL    HW116958   4.281   1.334   3.208 -0.4406 -1.2742  0.9511
 1833SOL    HW216959   4.420   1.333   3.140  0.9490 -2.7886  0.0488
 1834SOL     OW16960   3.798   2.419   1.219 -0.1165  0.6589  0.2141
 1834SOL    HW116961   3.844   2.445   1.139 -2.3830  0.5291 -1.1593
 1834SOL    HW216962   3.801   2.323   1.223  0.2289  0.5769 -1.7804
 1835SOL     OW16963   4.690   3.162   8.464  0.3828 -0.6357  0.5810
 1835SOL    HW116964   0.038   3.180   8.401 -0.8606 -3.7614 -1.7156
 1835SOL    HW216965   4.674   3.068   8.457 -0.1184 -0.4608 -0.5704
 1836SOL     OW16966   2.547   1.482  13.454  0.0513 -0.1357 -0.1246
 1836SOL    HW116967   2.602   1.557  13.477 -2.6229  1.9642 -0.6187
 1836SOL    HW216968   2.509   1.452  13.537  2.1814 -1.4382  0.4060
 1837SOL     OW16969   4.701   4.087   2.546  0.3486 -0.0429  0.2222
 1837SOL    HW116970   0.055   4.118   2.497  0.9711 -0.8932  0.6655
 1837SOL    HW216971   4.640   4.153   2.513 -1.7651 -2.2331 -0.2337
 1838SOL     OW16972   0.834   1.709   2.738  0.2472 -0.4107  0.5685
 1838SOL    HW116973   0.797   1.736   2.822 -0.4884  0.0679  0.0944
 1838SOL    HW216974   0.874   1.628   2.769  3.1709  0.6360 -0.5024
 1839SOL     OW16975   3.768   0.679  16.808  0.0230 -0.0347  0.5240
 1839SOL    HW116976   3.845   0.623  16.795 -0.3877 -0.2549 -0.8970
 1839SOL    HW216977   3.703   0.616  16.839  1.2453 -1.4756  0.1318
 1840SOL     OW16978   2.235   1.058  12.888  0.8617  0.3012 -1.0057
 1840SOL    HW116979   2.176   1.107  12.945 -0.8464 -0.7999 -1.8496
 1840SOL    HW216980   2.316   1.099  12.918  0.1076  0.7456  0.3983
 1841SOL     OW16981   2.426   4.269   8.855  0.0222  0.3637  0.2040
 1841SOL    HW116982   2.491   4.322   8.901 -2.0951  2.5041  0.7412
 1841SOL    HW216983   2.480   4.197   8.822 -0.5088 -0.2508  0.6745
 1842SOL     OW16984   2.443   3.498   7.924 -0.2329  0.4972  0.0584
 1842SOL    HW116985   2.510   3.495   7.993  1.3063 -2.0558 -1.5059
 1842SOL    HW216986   2.381   3.555   7.968  1.9366  2.3396  0.6983
 1843SOL     OW16987   0.199   3.777   6.650  0.0883 -0.7914 -0.1472
 1843SOL    HW116988   0.112   3.799   6.618  0.2004 -2.0163 -1.2898
 1843SOL    HW216989   0.255   3.779   6.573  0.3672 -1.2131  0.0449
 1844SOL     OW16990   2.446   1.985   6.600 -0.5281  0.0782  0.3671
 1844SOL    HW116991   2.450   2.046   6.673 -0.3765  1.5968 -0.8917
 1844SOL    HW216992   2.535   2.000   6.568 -0.2899 -1.0605  0.5104
 1845SOL     OW16993   1.123   4.122   7.002  0.3108 -0.3321 -0.6125
 1845SOL    HW116994   1.155   4.052   7.058 -0.0161  1.0034  1.2648
 1845SOL    HW216995   1.202   4.166   6.970  0.9519 -0.9746  0.0890
 1846SOL     OW16996   2.801   2.738   0.395  0.6727  0.6222  0.0492
 1846SOL    HW116997   2.826   2.804   0.460  0.7001  1.1249 -0.4743
 1846SOL    HW216998   2.843   2.662   0.435  4.8301  0.6801 -4.2100
 1847SOL     OW16999   1.773   1.356  16.222  0.1619 -0.4766 -0.2581
 1847SOL    HW117000   1.825   1.301  16.164  3.6203  2.6940 -0.2025
 1847SOL    HW217001   1.802   1.356  16.313 -1.0237 -2.5750  0.0994
 1848SOL     OW17002   1.717   4.344   8.772  0.6220  0.1792  0.0890
 1848SOL    HW117003   1.809   4.367   8.781  0.9074 -0.5141 -1.0203
 1848SOL    HW217004   1.676   4.430   8.783  3.7075  1.5555  0.7932
 1849SOL     OW17005   2.977   0.554  16.668  0.0087  0.6307  0.1824
 1849SOL    HW117006   3.051   0.507  16.707  0.3494 -0.3155 -1.5972
 1849SOL    HW217007   2.911   0.545  16.737 -1.4522 -0.8977 -1.4206
 1850SOL     OW17008   0.164   2.700   8.088  0.0270 -0.3571  0.4012
 1850SOL    HW117009   0.146   2.787   8.125 -2.3670  0.5061 -2.7528
 1850SOL    HW217010   0.071   2.679   8.098 -0.2564  0.5945 -0.1498
 1851SOL     OW17011   4.349   4.574   2.427 -0.0467 -0.2743 -0.4205
 1851SOL    HW117012   4.269   4.565   2.478  0.2473  0.6624  0.2111
 1851SOL    HW217013   4.394   4.622   2.497 -2.5657  0.3814  0.7440
 1852SOL     OW17014   1.440   1.711   4.197  0.2847 -0.4452  0.4012
 1852SOL    HW117015   1.389   1.638   4.162 -0.3373  0.2515 -0.1517
 1852SOL    HW217016   1.515   1.709   4.136 -1.1674  1.0322 -1.4323
 1853SOL     OW17017   0.932   4.674  13.668 -0.0601 -0.4137  0.4096
 1853SOL    HW117018   0.972   4.649  13.751  2.2145  1.3629 -0.1612
 1853SOL    HW217019   0.906   0.042  13.687  0.0130 -0.3471  0.1844
 1854SOL     OW17020   4.567   4.526   5.460 -0.9232  0.1490 -0.1602
 1854SOL    HW117021   4.519   4.544   5.379 -1.9502  0.9155  0.6180
 1854SOL    HW217022   4.633   4.595   5.461 -3.6637  2.8087 -0.4492
 1855SOL     OW17023   2.542   0.463   0.141  0.1908  0.1508 -0.6924
 1855SOL    HW117024   2.611   0.459   0.075 -1.2530  0.2974 -2.1988
 1855SOL    HW217025   2.525   0.557   0.139  2.5084  0.6384  2.2353
 1856SOL     OW17026   0.380   0.564   4.032  0.7039 -0.0991  0.2190
 1856SOL    HW117027   0.414   0.512   3.959 -0.0793  1.3343 -1.1758
 1856SOL    HW217028   0.346   0.493   4.088  0.7580  0.0443  0.4324
 1857SOL     OW17029   1.283   4.227   0.488 -0.0168 -0.8936  0.3036
 1857SOL    HW117030   1.249   4.314   0.509  0.7649 -0.4091 -0.4865
 1857SOL    HW217031   1.237   4.178   0.557  1.5387  1.5478  3.0889
 1858SOL     OW17032   0.931   3.656   8.320 -0.0119  0.0689  0.6750
 1858SOL    HW117033   0.958   3.570   8.288  2.8228  1.2801 -0.2732
 1858SOL    HW217034   0.841   3.666   8.291  0.0312  2.4743  1.3963
 1859SOL     OW17035   3.951   2.122   8.538 -0.4279 -0.0970  0.3277
 1859SOL    HW117036   3.930   2.215   8.545  1.2254  0.3385 -0.6287
 1859SOL    HW217037   3.871   2.078   8.568 -1.4782  2.7663  1.7766
 1860SOL     OW17038   3.865   0.469   5.221  0.5895  0.3013 -0.1765
 1860SOL    HW117039   3.915   0.510   5.151  3.7678 -0.0477  1.8437
 1860SOL    HW217040   3.803   0.411   5.178 -1.7898  0.9012  2.3915
 1861SOL     OW17041   3.722   0.195  14.549 -0.5406 -0.3188 -0.1714
 1861SOL    HW117042   3.811   0.213  14.517 -0.1312 -3.0058 -0.5468
 1861SOL    HW217043   3.694   0.286  14.566  1.3858  0.0873  0.8322
 1862SOL     OW17044   3.169   2.217   2.198 -0.2974  0.2123  0.3489
 1862SOL    HW117045   3.107   2.193   2.266 -0.6925 -0.2257 -0.1655
 1862SOL    HW217046   3.157   2.145   2.137  2.8787 -1.3243  1.5484
 1863SOL     OW17047   0.067   2.892   0.540  0.0549 -0.1366  0.4608
 1863SOL    HW117048   0.116   2.933   0.612  0.2984  1.4577 -0.6135
 1863SOL    HW217049   0.013   2.966   0.513 -0.8809 -0.5763  1.1685
 1864SOL     OW17050   0.571   0.065   8.735  0.3836  0.1469  0.3252
 1864SOL    HW117051   0.513   0.069   8.811  1.2481  0.7806  0.9480
 1864SOL    HW217052   0.561   4.697   8.706  1.3290 -0.0361  0.5891
 1865SOL     OW17053   2.731   2.033   2.562  0.2227 -0.1802  0.3975
 1865SOL    HW117054   2.791   1.982   2.507 -0.7582 -1.0442  0.1196
 1865SOL    HW217055   2.776   2.115   2.580  1.0532 -0.1465 -1.8384
 1866SOL     OW17056   4.185   0.945  11.649 -0.5029 -0.5844  0.3503
 1866SOL    HW117057   4.233   0.949  11.566  0.7810  0.2931  1.1352
 1866SOL    HW217058   4.246   0.973  11.717  1.7466 -0.3889 -1.7470
 1867SOL     OW17059   4.213   2.733  13.608 -0.3067 -0.4057 -0.0623
 1867SOL    HW117060   4.277   2.780  13.662 -0.4322 -0.2124 -0.0819
 1867SOL    HW217061   4.232   2.646  13.643 -0.8021 -1.0957 -1.5404
 1868SOL     OW17062   0.571   1.839   5.071  0.3564 -0.8725  0.0250
 1868SOL    HW117063   0.545   1.925   5.104  0.2024 -1.2840  0.9786
 1868SOL    HW217064   0.629   1.863   4.999 -0.9780  0.2961 -0.6710
 1869SOL     OW17065   4.219   1.441   4.661  0.1097 -0.2218  0.1222
 1869SOL    HW117066   4.226   1.515   4.721  1.8934  1.9696 -2.8193
 1869SOL    HW217067   4.169   1.480   4.590  0.3047 -2.3874 -1.2226
 1870SOL     OW17068   2.466   3.400  13.153 -0.4651  0.0568  0.6637
 1870SOL    HW117069   2.450   3.346  13.230 -0.9983  1.4135  1.5119
 1870SOL    HW217070   2.538   3.456  13.183 -0.0636  0.3994 -0.9458
 1871SOL     OW17071   3.087   0.207  13.499 -0.3878  0.3040  0.1844
 1871SOL    HW117072   3.137   0.133  13.533 -0.3152  0.9575  1.5096
 1871SOL    HW217073   3.159   0.264  13.472 -1.1221 -0.5417 -3.5150
 1872SOL     OW17074   2.491   1.010   9.945 -0.0460 -0.1440  0.3487
 1872SOL    HW117075   2.527   0.922   9.952  0.5637  0.1273  0.6726
 1872SOL    HW217076   2.572   1.061   9.953  0.2831 -0.4717 -0.9597
 1873SOL     OW17077   0.819   3.913   6.014  0.1847  0.3216  0.1387
 1873SOL    HW117078   0.739   3.938   5.968  0.5302  0.3904 -0.4218
 1873SOL    HW217079   0.790   3.843   6.073  0.3856  1.3197  1.4102
 1874SOL     OW17080   2.370   4.046   9.344  0.2959 -0.2798 -0.1170
 1874SOL    HW117081   2.359   3.992   9.265 -1.8374  0.2996 -0.2027
 1874SOL    HW217082   2.356   4.135   9.311  0.1444 -0.0912  0.4500
 1875SOL     OW17083   3.070   1.976  17.559  0.2853 -0.5951  0.0170
 1875SOL    HW117084   3.138   1.964  17.626  0.2787 -2.2942 -0.2828
 1875SOL    HW217085   3.047   1.885  17.542 -0.4891 -0.2028 -0.9884
 1876SOL     OW17086   3.146   0.836  10.809  0.4895 -0.3249 -0.4550
 1876SOL    HW117087   3.178   0.770  10.747  0.5654  0.7547 -1.5613
 1876SOL    HW217088   3.161   0.910  10.750  2.6431 -0.3606  0.0211
 1877SOL     OW17089   3.265   3.595   6.122 -0.3897 -0.3959 -0.1390
 1877SOL    HW117090   3.318   3.558   6.052 -1.4321 -0.7726 -0.7344
 1877SOL    HW217091   3.308   3.680   6.131  0.5192 -1.0538  1.8261
 1878SOL     OW17092   2.143   4.700   2.058  0.5565  0.4023  0.3430
 1878SOL    HW117093   2.099   4.692   2.142 -0.5694 -1.1159 -0.3894
 1878SOL    HW217094   2.072   0.006   2.000  1.2475  0.3482 -0.5366
 1879SOL     OW17095   1.309   0.830   1.854  0.5193  0.0019  0.0391
 1879SOL    HW117096   1.345   0.758   1.803 -1.9337 -2.4776  1.8097
 1879SOL    HW217097   1.303   0.900   1.789 -0.3073 -1.1935 -1.1733
 1880SOL     OW17098   2.727   1.232   9.706 -0.0438  1.0666  0.5758
 1880SOL    HW117099   2.705   1.319   9.672 -2.5104 -0.1270 -0.8698
 1880SOL    HW217100   2.777   1.195   9.634  0.3317 -0.3756  1.5749
 1881SOL     OW17101   1.535   0.717   0.878  0.0625 -0.0745 -0.3844
 1881SOL    HW117102   1.523   0.622   0.884 -2.1642  0.1475 -1.0779
 1881SOL    HW217103   1.470   0.733   0.809 -1.1027  0.9754  0.9585
 1882SOL     OW17104   4.337   3.704   1.519  0.1982 -0.6005  0.0977
 1882SOL    HW117105   4.264   3.641   1.518 -1.8717  1.8187 -1.4062
 1882SOL    HW217106   4.335   3.745   1.605  2.8285  1.4429 -0.8114
 1883SOL     OW17107   1.468   4.185  10.116  0.5236 -0.2938  0.6309
 1883SOL    HW117108   1.441   4.113  10.173  0.6354 -1.5308 -0.9015
 1883SOL    HW217109   1.415   4.179  10.037  1.2280 -2.9876  0.3691
 1884SOL     OW17110   3.424   1.376   2.196 -0.6095  0.2339  0.0105
 1884SOL    HW117111   3.416   1.471   2.194  2.3349  0.4607 -1.8566
 1884SOL    HW217112   3.442   1.361   2.103 -0.0720  1.9080 -0.1434
 1885SOL     OW17113   2.561   0.221   5.152  0.0260 -0.0062 -0.0422
 1885SOL    HW117114   2.498   0.219   5.080 -0.2421 -0.6848  0.2065
 1885SOL    HW217115   2.541   0.302   5.199  1.5023  1.6864 -2.3444
 1886SOL     OW17116   4.386   3.296   4.626  0.2549  0.5512  0.5449
 1886SOL    HW117117   4.414   3.259   4.543 -1.3249  2.9325 -1.0757
 1886SOL    HW217118   4.392   3.229   4.694 -1.1803  0.2309  0.3592
 1887SOL     OW17119   3.906   2.157   5.293  0.4378 -0.2799  0.2407
 1887SOL    HW117120   3.865   2.243   5.287 -1.0555 -0.9948  0.2033
 1887SOL    HW217121   3.846   2.101   5.342  0.1676 -1.4458 -1.4218
 1888SOL     OW17122   1.264   1.736   4.407 -0.2546  0.0566  0.1354
 1888SOL    HW117123   1.269   1.642   4.420  0.4469  0.4795  2.9417
 1888SOL    HW217124   1.327   1.740   4.335 -0.0235 -1.2473  0.2761
 1889SOL     OW17125   4.527   3.100  11.412 -0.9071 -1.2846 -0.5687
 1889SOL    HW117126   4.461   3.038  11.443 -0.4591 -1.7207 -0.4921
 1889SOL    HW217127   4.522   3.158  11.488  0.1809  0.4443 -1.8143
 1890SOL     OW17128   0.940   3.894   5.541 -0.7915 -0.3977 -0.3474
 1890SOL    HW117129   1.025   3.914   5.502 -1.4594  0.1992 -1.4923
 1890SOL    HW217130   0.956   3.801   5.556  1.0551  0.1986  1.5002
 1891SOL     OW17131   2.334   2.842   5.314 -0.2216  0.1901 -0.0813
 1891SOL    HW117132   2.266   2.861   5.379 -1.2042 -0.7238 -0.8455
 1891SOL    HW217133   2.358   2.752   5.335 -0.3404  0.3178  0.6031
 1892SOL     OW17134   1.775   0.993   8.515  0.4283  0.3257 -0.1215
 1892SOL    HW117135   1.843   0.933   8.485  0.0938  0.0994 -0.4280
 1892SOL    HW217136   1.700   0.974   8.459  0.9691 -1.2046 -0.3210
 1893SOL     OW17137   1.526   2.215   6.875 -0.4071  0.3539  0.3006
 1893SOL    HW117138   1.558   2.293   6.829  1.1434  1.1087  2.6452
 1893SOL    HW217139   1.520   2.150   6.805  0.5451 -2.0336  2.4552
 1894SOL     OW17140   1.215   4.699   8.933 -0.2135 -0.1868  0.2081
 1894SOL    HW117141   1.123   4.673   8.929 -0.2282  0.1339 -1.4999
 1894SOL    HW217142   1.209   0.049   8.871 -1.1824  1.2850  2.0068
 1895SOL     OW17143   1.980   0.926  13.183 -0.0311  0.1842  0.4561
 1895SOL    HW117144   1.944   0.904  13.268 -2.7062  2.4478 -0.1072
 1895SOL    HW217145   2.067   0.958  13.208  0.4659  0.1465 -1.1975
 1896SOL     OW17146   3.628   4.515  11.567 -0.0505  0.5363  0.9193
 1896SOL    HW117147   3.576   4.547  11.493  0.0945  1.9631  1.4340
 1896SOL    HW217148   3.692   4.458  11.524 -2.2278 -1.5660  0.5122
 1897SOL     OW17149   1.439   0.456   4.988 -0.1336 -0.1949 -0.0685
 1897SOL    HW117150   1.410   0.389   4.926 -2.3949  0.7200  0.0055
 1897SOL    HW217151   1.367   0.462   5.050  1.3678  1.0031  1.5422
 1898SOL     OW17152   0.410   2.369  17.119  0.0102 -0.1799  0.1128
 1898SOL    HW117153   0.333   2.317  17.095 -0.5978  1.2070 -0.9312
 1898SOL    HW217154   0.436   2.412  17.038 -2.6986  2.7078  0.7953
 1899SOL     OW17155   3.582   2.321  14.310  0.3331  0.3858 -0.0068
 1899SOL    HW117156   3.528   2.344  14.233  1.5423  0.2259 -0.8979
 1899SOL    HW217157   3.527   2.358  14.380 -1.4107 -0.8375 -0.7276
 1900SOL     OW17158   2.224   0.282  12.381  0.2146 -0.1848  0.1611
 1900SOL    HW117159   2.142   0.281  12.333  0.0449  2.3141  0.4146
 1900SOL    HW217160   2.289   0.236  12.328  0.2713 -0.5749  0.5709
 1901SOL     OW17161   3.618   3.110   5.937  0.1622 -0.1007  0.3118
 1901SOL    HW117162   3.694   3.161   5.908  2.2524 -3.0068  0.7075
 1901SOL    HW217163   3.634   3.033   5.882 -0.2568  0.5110 -0.6724
 1902SOL     OW17164   0.343   3.908   6.133  0.3724  0.9514  0.2509
 1902SOL    HW117165   0.437   3.904   6.119  0.2401  3.1079 -1.3076
 1902SOL    HW217166   0.319   4.001   6.133 -0.0743  0.8486 -0.6657
 1903SOL     OW17167   2.040   4.129   1.882 -0.3264  0.0250 -0.3770
 1903SOL    HW117168   2.055   4.039   1.910 -1.5325 -0.5668 -1.6514
 1903SOL    HW217169   1.970   4.125   1.817 -0.9456  0.2221  0.2776
 1904SOL     OW17170   0.480   4.409  13.622  0.2499 -0.2119  0.0643
 1904SOL    HW117171   0.479   4.375  13.532 -1.0672 -1.7932  0.6835
 1904SOL    HW217172   0.431   4.344  13.672  2.8785 -0.4426  2.3722
 1905SOL     OW17173   4.194   2.152   2.044  0.2171  0.0382  0.1280
 1905SOL    HW117174   4.194   2.057   2.050  0.9768  0.0080 -0.3343
 1905SOL    HW217175   4.120   2.172   1.987 -1.5081 -2.6575  1.4176
 1906SOL     OW17176   4.368   0.429  10.848 -0.0062 -0.1367 -0.2586
 1906SOL    HW117177   4.310   0.452  10.921 -1.8397 -4.0260 -0.4568
 1906SOL    HW217178   4.343   0.493  10.782  1.8392  0.2868 -0.5535
 1907SOL     OW17179   1.474   2.527   4.508 -0.1143 -0.1684 -0.4938
 1907SOL    HW117180   1.518   2.509   4.425  1.7707 -0.4562  0.5603
 1907SOL    HW217181   1.476   2.622   4.513  0.2077 -0.2840  1.6862
 1908SOL     OW17182   0.289   3.705   9.446  0.2034  0.7164  0.6052
 1908SOL    HW117183   0.341   3.749   9.514 -0.9641 -0.7033  2.4092
 1908SOL    HW217184   0.203   3.747   9.445  0.0855  0.5025  1.5507
 1909SOL     OW17185   3.305   1.572   8.515  0.0283 -0.0432 -0.4442
 1909SOL    HW117186   3.243   1.562   8.587  0.1681  1.8890 -0.0385
 1909SOL    HW217187   3.345   1.654   8.545  0.3825  0.1160 -1.3514
 1910SOL     OW17188   3.514   3.946   1.978 -0.4663 -0.4033 -0.2160
 1910SOL    HW117189   3.535   4.032   1.940 -0.9568 -0.2034 -0.0294
 1910SOL    HW217190   3.600   3.904   1.978 -1.0116 -1.5199  0.5256
 1911SOL     OW17191   2.485   0.958   1.108 -0.0606 -0.2009 -0.5020
 1911SOL    HW117192   2.461   1.048   1.086  1.5177  0.6477  1.2319
 1911SOL    HW217193   2.397   0.923   1.094 -0.8987  1.9013 -0.5907
 1912SOL     OW17194   2.805   1.875   8.797 -0.6098 -0.3177 -0.2286
 1912SOL    HW117195   2.787   1.866   8.890 -0.5242 -1.1310 -0.2876
 1912SOL    HW217196   2.820   1.969   8.792  2.3768 -0.8106 -0.4007
 1913SOL     OW17197   4.115   4.681   2.775  0.2212  0.3177 -0.0384
 1913SOL    HW117198   4.162   0.028   2.820  1.3171  0.8715 -2.0864
 1913SOL    HW217199   4.024   4.708   2.788  0.2851  0.3503  0.3401
 1914SOL     OW17200   2.686   3.453   5.451 -0.1167 -0.2714 -0.4171
 1914SOL    HW117201   2.735   3.534   5.468 -0.2735 -0.4116  0.6796
 1914SOL    HW217202   2.617   3.456   5.518  1.7720 -0.5011  1.5161
 1915SOL     OW17203   0.864   2.096   8.101 -0.5899 -0.0824  0.3421
 1915SOL    HW117204   0.860   2.020   8.159 -0.4076 -2.0983 -2.2563
 1915SOL    HW217205   0.948   2.085   8.055 -0.8564  1.9795 -0.6059
 1916SOL     OW17206   0.623   2.391   6.735  0.0325  0.4137  0.5473
 1916SOL    HW117207   0.640   2.442   6.656 -0.6053 -2.4442 -1.4353
 1916SOL    HW217208   0.637   2.463   6.796 -0.3616  0.3520  0.7116
 1917SOL     OW17209   2.940   2.260   4.929 -0.0102 -0.1723 -0.0617
 1917SOL    HW117210   2.983   2.345   4.922  0.4051 -0.2592  1.3458
 1917SOL    HW217211   3.005   2.208   4.976  0.4237  0.3039 -0.1389
 1918SOL     OW17212   0.173   4.480   7.437  0.2847  0.1858 -0.3461
 1918SOL    HW117213   0.268   4.487   7.432  0.2399  1.8748  1.2795
 1918SOL    HW217214   0.158   4.422   7.362  2.6713 -1.3342  0.3798
 1919SOL     OW17215   3.169   4.212   0.619  0.0886  0.1243 -0.7508
 1919SOL    HW117216   3.084   4.221   0.577 -0.1141 -2.1390 -0.8556
 1919SOL    HW217217   3.226   4.185   0.547 -0.4261  0.2557 -1.2008
 1920SOL     OW17218   0.832   2.224  16.006  0.0642 -0.1197  0.0741
 1920SOL    HW117219   0.755   2.187  15.963 -0.2712  1.2863 -0.5618
 1920SOL    HW217220   0.804   2.314  15.990 -0.8567 -0.5319 -0.6508
 1921SOL     OW17221   3.404   3.010   0.235  0.5878  0.7075 -0.3276
 1921SOL    HW117222   3.435   3.081   0.179  1.0045  1.2197  0.5493
 1921SOL    HW217223   3.338   3.051   0.291  0.8694  1.2503 -0.4029
 1922SOL     OW17224   3.251   0.376   0.038  0.0553 -0.2341 -0.2929
 1922SOL    HW117225   3.295   0.455   0.006  2.5295 -1.4550  0.0272
 1922SOL    HW217226   3.314   0.345   0.104  0.9905 -0.0963 -1.1087
 1923SOL     OW17227   1.647   0.953   4.424 -0.2735 -0.5300 -0.8667
 1923SOL    HW117228   1.641   0.868   4.467 -0.9974 -0.0959 -0.1206
 1923SOL    HW217229   1.577   1.002   4.467  0.0139 -1.1327  0.2789
 1924SOL     OW17230   3.378   3.264  12.547  0.4672 -0.1529  0.1966
 1924SOL    HW117231   3.447   3.237  12.487  0.2483 -3.2788  1.3598
 1924SOL    HW217232   3.328   3.321  12.488  0.8549 -0.3586 -0.3345
 1925SOL     OW17233   0.262   0.069   2.433  0.4718 -0.5620 -0.2523
 1925SOL    HW117234   0.252   0.106   2.345  3.0080  1.0119  0.1219
 1925SOL    HW217235   0.271   4.698   2.418  1.8064 -0.2897 -1.1073
 1926SOL     OW17236   2.488   2.332   6.451 -0.0636 -0.0414 -0.2559
 1926SOL    HW117237   2.480   2.385   6.372  0.5812 -0.1697 -0.4043
 1926SOL    HW217238   2.551   2.376   6.508 -0.9476  1.8256 -0.7010
 1927SOL     OW17239   0.732   4.568   6.159 -0.0643 -0.0937  0.2063
 1927SOL    HW117240   0.716   4.618   6.079  1.9258  0.8763  0.4143
 1927SOL    HW217241   0.813   4.608   6.189  0.5487 -0.9822 -0.2714
 1928SOL     OW17242   1.337   0.049   8.470  0.6426  0.2269 -0.5847
 1928SOL    HW117243   1.399   0.111   8.432  0.6169 -0.3988 -1.6179
 1928SOL    HW217244   1.300   0.094   8.547  0.2833 -0.6749 -0.2311
 1929SOL     OW17245   3.662   1.089   3.073 -0.2685 -0.2723  0.4953
 1929SOL    HW117246   3.684   1.097   2.980 -2.0750  0.1257  0.0973
 1929SOL    HW217247   3.624   1.002   3.083 -0.3151 -0.8052 -4.2972
 1930SOL     OW17248   1.575   3.715   6.493  0.0830  0.2570 -0.9472
 1930SOL    HW117249   1.496   3.666   6.470  0.2443  0.4015 -1.8260
 1930SOL    HW217250   1.603   3.687   6.580  0.7267 -0.5017 -1.3979
 1931SOL     OW17251   3.406   0.560   5.136 -0.1605  0.0417 -0.2935
 1931SOL    HW117252   3.406   0.520   5.223  0.5925 -0.3213 -0.4548
 1931SOL    HW217253   3.499   0.560   5.110  0.0494  4.1018  0.4645
 1932SOL     OW17254   2.781   1.308  11.994  0.4522  0.2702  0.1101
 1932SOL    HW117255   2.839   1.384  11.994  3.1570 -1.7631 -1.2055
 1932SOL    HW217256   2.727   1.338  11.921  1.1461  1.5078  0.1000
 1933SOL     OW17257   0.424   2.626  17.244  0.0221 -0.3312 -0.4859
 1933SOL    HW117258   0.427   2.539  17.206 -0.0381 -0.2804 -0.6084
 1933SOL    HW217259   0.468   2.603  17.326 -3.0144  0.4551  1.3497
 1934SOL     OW17260   1.660   3.422   7.091 -0.1616 -0.2777  0.4387
 1934SOL    HW117261   1.738   3.368   7.078  1.0906  1.2632  1.6640
 1934SOL    HW217262   1.697   3.491   7.145  1.6088 -0.7065 -0.2110
 1935SOL     OW17263   1.160   3.536  13.898 -0.1248 -0.0203  0.0864
 1935SOL    HW117264   1.176   3.532  13.804  0.9170  0.7207  0.2287
 1935SOL    HW217265   1.246   3.573  13.919  0.2307 -2.3684  2.7525
 1936SOL     OW17266   3.627   1.829   8.246  0.3172 -0.0633 -0.1179
 1936SOL    HW117267   3.593   1.906   8.291 -1.9905 -1.4484  0.5339
 1936SOL    HW217268   3.622   1.852   8.153  0.5680  2.1906  0.4400
 1937SOL     OW17269   3.337   3.886   0.524  0.3842  0.4858 -0.2152
 1937SOL    HW117270   3.353   3.969   0.480 -1.9127  1.6213  1.1182
 1937SOL    HW217271   3.268   3.850   0.468 -0.6055  0.0658  1.2972
 1938SOL     OW17272   4.722   1.315   8.543  0.0700  0.0213 -0.8635
 1938SOL    HW117273   0.029   1.400   8.512  1.0411 -0.3875 -1.0426
 1938SOL    HW217274   4.715   1.334   8.636 -1.5927  1.4391 -1.2858
 1939SOL     OW17275   0.405   3.519   4.118  0.0193 -0.5302  0.3835
 1939SOL    HW117276   0.471   3.582   4.089 -1.9990  1.6447  0.4669
 1939SOL    HW217277   0.331   3.537   4.061 -0.1577  0.4615  0.9244
 1940SOL     OW17278   0.325   4.598   1.659  0.0619  0.6253  0.2297
 1940SOL    HW117279   0.391   4.611   1.591 -0.7133  3.6617  0.0850
 1940SOL    HW217280   0.264   4.536   1.620 -0.0588  1.4172 -0.8152
 1941SOL     OW17281   1.857   4.603  15.436 -0.3990 -0.0835  0.3125
 1941SOL    HW117282   1.803   4.668  15.392 -0.2418 -0.0179  0.2171
 1941SOL    HW217283   1.841   4.525  15.382  0.8534  0.1393 -0.3855
 1942SOL     OW17284   3.312   0.395   6.072 -0.0517  0.4080  0.2655
 1942SOL    HW117285   3.264   0.451   6.011  1.4802  2.6146  1.1068
 1942SOL    HW217286   3.241   0.349   6.117 -0.5584  1.1298  0.1988
 1943SOL     OW17287   2.956   0.201   2.396 -0.4289 -0.0892 -0.3673
 1943SOL    HW117288   2.946   0.264   2.324 -2.7929 -0.5687 -0.4477
 1943SOL    HW217289   2.891   0.237   2.455  0.3570 -1.8156  1.5526
 1944SOL     OW17290   1.644   0.367  17.060  0.2019 -0.9305  0.3868
 1944SOL    HW117291   1.602   0.404  17.139  1.6594 -2.1648  1.7232
 1944SOL    HW217292   1.620   0.275  17.071 -0.3304 -0.4969  2.9527
 1945SOL     OW17293   2.777   1.305   1.011 -0.1520 -0.1084 -0.3205
 1945SOL    HW117294   2.703   1.317   0.952  2.2045 -2.0478 -3.6293
 1945SOL    HW217295   2.748   1.369   1.076  1.5736  1.7613 -1.3926
 1946SOL     OW17296   3.929   0.431  15.837 -0.0611  0.1077 -0.3819
 1946SOL    HW117297   3.969   0.470  15.915 -0.3234 -0.6236  0.1160
 1946SOL    HW217298   3.994   0.371  15.800  0.5889  2.6750 -3.4719
 1947SOL     OW17299   0.032   4.320  14.846  0.3967 -0.2700  0.1081
 1947SOL    HW117300   4.668   4.315  14.804  1.1399  1.5923 -1.6349
 1947SOL    HW217301   0.002   4.344  14.933 -0.0328  0.5242 -0.2617
 1948SOL     OW17302   0.802   0.692  12.520  0.1037 -0.3980 -0.8618
 1948SOL    HW117303   0.745   0.674  12.446 -0.9500  0.1730 -0.1850
 1948SOL    HW217304   0.759   0.644  12.591 -0.1612 -0.1102 -0.8305
 1949SOL     OW17305   2.556   0.635   7.249 -0.2074 -0.0939  0.4753
 1949SOL    HW117306   2.509   0.559   7.213 -0.7987  0.3972  0.2182
 1949SOL    HW217307   2.517   0.713   7.210  1.1564 -0.7897 -2.2866
 1950SOL     OW17308   4.611   3.643   5.677  0.6565 -0.0014 -0.1790
 1950SOL    HW117309   4.586   3.631   5.769 -0.7563  0.5185 -0.4847
 1950SOL    HW217310   4.533   3.697   5.659 -0.0585 -0.9188  0.1887
 1951SOL     OW17311   2.670   2.611   7.131  0.0109  0.8037  0.1529
 1951SOL    HW117312   2.692   2.581   7.219  0.5702 -0.1718 -0.3199
 1951SOL    HW217313   2.756   2.639   7.099  0.2258  1.6141  1.4503
 1952SOL     OW17314   3.845   0.286   0.015 -0.2858  0.0068 -0.1502
 1952SOL    HW117315   3.899   0.264  17.632 -0.1311 -1.7526  0.4725
 1952SOL    HW217316   3.818   0.203   0.056 -1.7659  1.0224  0.9357
 1953SOL     OW17317   2.606   1.500  13.176 -0.3409  0.7662 -0.7911
 1953SOL    HW117318   2.593   1.518  13.269 -0.4130 -1.9324 -0.2783
 1953SOL    HW217319   2.648   1.414  13.173  1.1986  1.4383  0.8286
 1954SOL     OW17320   2.326   2.002   4.965 -0.1439 -0.2692  0.3347
 1954SOL    HW117321   2.298   1.984   4.875  2.4131  0.2674 -0.5967
 1954SOL    HW217322   2.242   2.007   5.009 -0.0282  1.9200  0.3153
 1955SOL     OW17323   2.405   3.902   8.296 -0.8860  0.0069  0.6444
 1955SOL    HW117324   2.393   3.827   8.354 -0.2560 -0.8639 -0.3475
 1955SOL    HW217325   2.314   3.919   8.270 -0.7100  0.5351  0.3858
 1956SOL     OW17326   2.996   2.363   5.792  0.5639  0.4912  0.2708
 1956SOL    HW117327   2.921   2.339   5.737  0.5318  2.0512 -0.3630
 1956SOL    HW217328   2.964   2.446   5.827 -0.7831 -0.1103  0.4601
 1957SOL     OW17329   3.352   3.658   6.875  0.1490  0.4344  0.2655
 1957SOL    HW117330   3.423   3.722   6.881  0.9932 -0.4934  0.1897
 1957SOL    HW217331   3.306   3.684   6.795  1.2985  0.8501 -0.2639
 1958SOL     OW17332   1.990   1.205  12.376 -0.0190 -0.6381  0.3306
 1958SOL    HW117333   2.057   1.189  12.442 -0.7532  2.9342  1.9514
 1958SOL    HW217334   2.031   1.279  12.331 -1.2802  1.0186  1.8932
 1959SOL     OW17335   0.907   0.402  16.748  0.0206 -0.0848 -0.3499
 1959SOL    HW117336   0.957   0.400  16.829 -0.7796 -1.4643  0.1147
 1959SOL    HW217337   0.928   0.316  16.711  0.3537  0.4105 -1.3238
 1960SOL     OW17338   4.375   3.287  16.628  0.3559  0.0748 -0.0927
 1960SOL    HW117339   4.415   3.206  16.596 -0.1097 -1.0273  2.1729
 1960SOL    HW217340   4.283   3.262  16.633 -0.5277  3.3371 -0.0543
 1961SOL     OW17341   4.095   1.318   8.618 -0.0875 -0.3997  0.4295
 1961SOL    HW117342   4.064   1.299   8.706 -2.7900  0.4179 -0.3379
 1961SOL    HW217343   4.070   1.410   8.604  2.1735  0.0451 -0.8082
 1962SOL     OW17344   2.847   1.768   1.867 -0.7468  0.1104  0.3559
 1962SOL    HW117345   2.874   1.765   1.776 -0.1322  1.0014  0.5107
 1962SOL    HW217346   2.781   1.838   1.870 -0.9135  0.0523 -2.6596
 1963SOL     OW17347   1.163   3.314   5.720 -0.2077  0.1222 -0.2981
 1963SOL    HW117348   1.169   3.323   5.625  1.3209  0.1189 -0.2015
 1963SOL    HW217349   1.173   3.403   5.753 -1.9121  0.7590 -1.5026
 1964SOL     OW17350   4.100   0.657   0.760  0.1800 -0.0855 -0.0462
 1964SOL    HW117351   4.116   0.744   0.796 -0.8848  1.3167 -2.8996
 1964SOL    HW217352   4.173   0.609   0.798  0.3019 -0.9832 -1.4082
 1965SOL     OW17353   1.031   0.391   4.806  0.5886 -0.0946 -0.4024
 1965SOL    HW117354   1.083   0.455   4.759 -2.2853  2.1341 -0.5524
 1965SOL    HW217355   0.939   0.415   4.791  0.6423  0.1667 -0.3172
 1966SOL     OW17356   4.249   2.920   4.405  0.4168 -0.2391 -0.3073
 1966SOL    HW117357   4.208   2.947   4.323 -0.2180 -1.2912 -0.3335
 1966SOL    HW217358   4.172   2.876   4.441  0.3050  0.2434  0.0557
 1967SOL     OW17359   1.465   2.334   7.154  0.3927  0.7010 -0.4360
 1967SOL    HW117360   1.391   2.315   7.212 -1.2770 -0.1676 -2.8384
 1967SOL    HW217361   1.425   2.336   7.067  0.1868  0.5466 -0.3445
 1968SOL     OW17362   3.864   2.431   2.597 -0.6516 -0.5841 -0.0240
 1968SOL    HW117363   3.814   2.388   2.666 -0.7569 -0.1980  0.1382
 1968SOL    HW217364   3.846   2.366   2.529  0.3500 -1.1818  0.2701
 1969SOL     OW17365   0.434   3.064   1.722 -0.1864  0.5053  0.2375
 1969SOL    HW117366   0.366   3.054   1.789  0.5630 -0.7308  0.8033
 1969SOL    HW217367   0.458   3.156   1.737  1.5842 -0.3065  2.3981
 1970SOL     OW17368   0.905   0.719  10.338  0.0628  0.5001  0.4279
 1970SOL    HW117369   0.920   0.628  10.361 -1.3075 -0.2049 -1.4609
 1970SOL    HW217370   0.812   0.736  10.353 -0.2057 -0.4336 -0.1938
 1971SOL     OW17371   1.610   1.462   0.774 -0.1710 -0.2388  0.3746
 1971SOL    HW117372   1.596   1.425   0.686 -1.1840 -0.8747  0.8016
 1971SOL    HW217373   1.626   1.555   0.760  0.9842 -0.5770 -0.5562
 1972SOL     OW17374   1.161   2.217   6.356 -0.3425 -0.2245 -0.2066
 1972SOL    HW117375   1.123   2.133   6.330  0.7019 -1.0187  0.8576
 1972SOL    HW217376   1.077   2.242   6.395  0.6436  0.2765  1.6028
 1973SOL     OW17377   2.566   0.967   2.567  0.5469 -0.2173 -0.0001
 1973SOL    HW117378   2.651   0.990   2.530 -0.3149  0.9417 -1.2729
 1973SOL    HW217379   2.531   0.933   2.484 -0.3164  1.5774 -0.3699
 1974SOL     OW17380   2.958   0.860  15.329 -0.2102 -0.3571  0.0094
 1974SOL    HW117381   2.928   0.779  15.290 -1.8351  0.7357 -0.9991
 1974SOL    HW217382   3.014   0.822  15.397 -1.2198  2.2916  2.3192
 1975SOL     OW17383   1.482   4.428   6.451 -0.0133 -0.8371 -0.7157
 1975SOL    HW117384   1.483   4.445   6.357  0.6448  0.1486 -0.5306
 1975SOL    HW217385   1.573   4.405   6.468  0.2952  0.2622 -0.8978
 1976SOL     OW17386   4.113   0.305   5.345 -0.2249 -0.6764  0.2522
 1976SOL    HW117387   4.065   0.388   5.349  0.8638  0.0316 -1.1080
 1976SOL    HW217388   4.178   0.333   5.410 -0.2398 -1.2708  0.5204
 1977SOL     OW17389   1.260   1.844  10.067 -0.6665  0.1711 -0.3741
 1977SOL    HW117390   1.261   1.927  10.115 -1.6362  0.2747 -0.5336
 1977SOL    HW217391   1.342   1.803  10.096 -1.2541 -0.0823  0.9054
 1978SOL     OW17392   1.406   2.582  17.559 -0.2557 -0.2110  0.4014
 1978SOL    HW117393   1.481   2.622  17.603  1.5902 -2.1755 -0.9310
 1978SOL    HW217394   1.362   2.664  17.536 -1.2643 -1.2765 -1.4905
 1979SOL     OW17395   1.801   0.279   1.935  0.1867  0.9681 -0.0589
 1979SOL    HW117396   1.724   0.330   1.963 -0.4702 -1.2175  2.1222
 1979SOL    HW217397   1.872   0.341   1.952  1.7841 -1.1563  0.9951
 1980SOL     OW17398   3.727   3.798  12.581 -0.3860 -0.1164  0.0771
 1980SOL    HW117399   3.695   3.840  12.501  1.3724 -0.2325 -0.6728
 1980SOL    HW217400   3.813   3.767  12.553 -1.1897 -0.7747 -1.6797
 1981SOL     OW17401   2.956   2.554   8.255  0.3172 -0.4074 -0.7254
 1981SOL    HW117402   2.906   2.577   8.334 -1.0093 -1.6940 -1.1895
 1981SOL    HW217403   2.959   2.459   8.261 -1.5871 -0.6132 -3.0644
 1982SOL     OW17404   0.490   0.197   7.327 -0.3109  0.4589  0.0463
 1982SOL    HW117405   0.506   0.104   7.310  1.5726  0.5824  1.1842
 1982SOL    HW217406   0.451   0.189   7.414  1.0750 -0.5065  0.5836
 1983SOL     OW17407   2.603   1.374   6.965  0.2711 -0.6956 -0.5527
 1983SOL    HW117408   2.603   1.391   6.871 -0.4958  0.9501 -0.2527
 1983SOL    HW217409   2.525   1.320   6.976 -0.2106  0.4147  1.5122
 1984SOL     OW17410   3.303   0.014   6.776 -0.3736 -0.0697  0.1023
 1984SOL    HW117411   3.317   4.714   6.868  2.1987 -1.4668 -0.6334
 1984SOL    HW217412   3.339   0.102   6.764 -0.5200  0.0821  0.7456
 1985SOL     OW17413   1.792   0.490   9.407  0.4151  0.3218 -0.5234
 1985SOL    HW117414   1.822   0.502   9.317 -1.0644  1.1096 -0.8970
 1985SOL    HW217415   1.702   0.459   9.401 -0.2360  2.3003 -0.7613
 1986SOL     OW17416   2.754   1.107  17.629  0.9802  0.0264  0.4147
 1986SOL    HW117417   2.749   1.012  17.640  2.6577 -0.2724 -1.4639
 1986SOL    HW217418   2.811   1.136   0.008  0.8121 -0.7665  0.8634
 1987SOL     OW17419   2.845   1.593   4.781  0.0390 -0.0441 -0.1330
 1987SOL    HW117420   2.902   1.517   4.796 -0.1428  0.3014  2.2414
 1987SOL    HW217421   2.794   1.587   4.861  1.3314 -0.3471  0.6763
 1988SOL     OW17422   1.381   4.661  13.064  0.5648  0.3517 -0.6142
 1988SOL    HW117423   1.423   4.646  13.148 -0.7233 -2.3511 -0.4423
 1988SOL    HW217424   1.292   4.681  13.092  0.4806 -1.3499  0.3443
 1989SOL     OW17425   0.474   2.377   3.685 -0.3897  0.6047  0.2054
 1989SOL    HW117426   0.393   2.425   3.699 -0.3685  0.9387 -0.8429
 1989SOL    HW217427   0.535   2.430   3.737 -2.7100  1.0963  2.4051
 1990SOL     OW17428   4.257   4.433  12.926 -0.3708 -0.2325 -0.2394
 1990SOL    HW117429   4.193   4.462  12.991 -1.8545  0.3610 -1.9641
 1990SOL    HW217430   4.325   4.402  12.986 -1.6600 -1.3098  0.6866
 1991SOL     OW17431   1.922   2.609   3.383  0.3093 -0.0193 -0.0051
 1991SOL    HW117432   1.862   2.619   3.309  1.2570  1.8502 -0.5117
 1991SOL    HW217433   1.967   2.691   3.363 -0.3925  0.2771 -0.3539
 1992SOL     OW17434   3.665   2.791   2.682 -0.1585  0.2468 -0.0236
 1992SOL    HW117435   3.621   2.752   2.606 -1.2089 -0.1458  0.7852
 1992SOL    HW217436   3.680   2.878   2.645  0.7714 -0.4253 -1.2715
 1993SOL     OW17437   1.203   4.202   2.914  0.7677  0.1090 -0.3676
 1993SOL    HW117438   1.227   4.291   2.939  0.2723  0.9764 -2.9652
 1993SOL    HW217439   1.271   4.149   2.955  1.0908  0.3492 -0.5944
 1994SOL     OW17440   2.353   0.995   5.278 -0.0474 -0.1859  0.2866
 1994SOL    HW117441   2.370   0.906   5.247  1.5597  0.5986 -1.1263
 1994SOL    HW217442   2.421   1.048   5.236 -0.0916 -0.0355  0.4054
 1995SOL     OW17443   0.611   0.344   3.132  0.0122 -0.1528  0.0446
 1995SOL    HW117444   0.600   0.434   3.101 -1.3824 -0.2138  0.3932
 1995SOL    HW217445   0.557   0.352   3.210  0.2551  0.8655  0.1136
 1996SOL     OW17446   1.820   0.928   6.645 -0.4255  0.1052 -0.2436
 1996SOL    HW117447   1.789   0.909   6.557  0.4506  1.6607 -0.8945
 1996SOL    HW217448   1.914   0.942   6.633  0.1495 -1.9190  1.8437
 1997SOL     OW17449   4.043   3.444   3.715 -0.0367 -0.2264 -0.7053
 1997SOL    HW117450   4.026   3.351   3.728  2.4629 -0.8012 -1.4815
 1997SOL    HW217451   3.991   3.493   3.779 -0.7402 -1.9662  0.0523
 1998SOL     OW17452   3.569   4.104   6.623  0.0693 -0.0909  0.1185
 1998SOL    HW117453   3.574   4.164   6.548 -0.8248  0.6529  0.6524
 1998SOL    HW217454   3.608   4.031   6.575  1.3796 -0.5140  1.8081
 1999SOL     OW17455   3.226   3.152   6.237 -0.0492  0.3255  0.4490
 1999SOL    HW117456   3.227   3.143   6.142  0.4469  0.9476  0.3977
 1999SOL    HW217457   3.141   3.195   6.244 -1.3615 -2.1670  0.0791
 2000SOL     OW17458   1.521   4.141   4.189  0.0160 -1.1669  0.2020
 2000SOL    HW117459   1.603   4.092   4.181 -0.8720 -2.5970 -0.1425
 2000SOL    HW217460   1.498   4.176   4.103 -0.9071  1.5787  1.5783
 2001SOL     OW17461   2.977   0.329   2.919  0.7487  0.4064  0.7311
 2001SOL    HW117462   2.956   0.235   2.921 -1.4861  0.9112  0.3540
 2001SOL    HW217463   3.063   0.322   2.961  1.6013 -2.9343 -1.5943
 2002SOL     OW17464   1.579   0.607   0.539  1.1052  0.1243 -0.0452
 2002SOL    HW117465   1.505   0.635   0.593  0.6717 -2.7536  0.8900
 2002SOL    HW217466   1.620   0.547   0.602 -0.7184 -1.0985 -0.0221
 2003SOL     OW17467   1.521   4.582   5.345  0.2286 -0.0815  0.5659
 2003SOL    HW117468   1.568   4.514   5.393  1.2887  2.4245  3.1516
 2003SOL    HW217469   1.585   4.652   5.332  0.9032 -0.7850  0.1116
 2004SOL     OW17470   0.618   3.737   6.198  0.4065  0.3699  0.0927
 2004SOL    HW117471   0.579   3.715   6.114 -0.9500  2.0435  0.2776
 2004SOL    HW217472   0.650   3.650   6.220 -1.4839 -0.4257 -0.2595
 2005SOL     OW17473   1.737   3.258   3.997  0.0805  0.3906 -0.3999
 2005SOL    HW117474   1.710   3.213   3.917 -2.3982 -0.8935  1.1375
 2005SOL    HW217475   1.664   3.243   4.057  0.0203  0.3328 -0.4881
 2006SOL     OW17476   0.639   3.204  15.271  0.1874 -0.5577  0.5750
 2006SOL    HW117477   0.681   3.200  15.357 -0.0694 -0.8553  0.6860
 2006SOL    HW217478   0.552   3.234  15.297  0.4887  2.5483 -1.9427
 2007SOL     OW17479   2.252   0.337   2.573  0.6391  0.3235  0.1417
 2007SOL    HW117480   2.342   0.358   2.597 -0.1522  2.1127  1.5414
 2007SOL    HW217481   2.200   0.370   2.647  0.5853 -1.6144  0.9614
 2008SOL     OW17482   2.691   3.079   7.946  0.0030 -0.6207 -0.2713
 2008SOL    HW117483   2.618   3.062   7.887  1.2375 -1.5465 -1.5134
 2008SOL    HW217484   2.709   3.168   7.914 -3.6869  0.1610 -0.1582
 2009SOL     OW17485   4.256   3.675   8.408 -0.7749  0.2494 -0.0494
 2009SOL    HW117486   4.249   3.755   8.356 -0.3050  1.1112  1.2012
 2009SOL    HW217487   4.172   3.635   8.388 -0.1217 -0.2954 -1.7791
 2010SOL     OW17488   3.399   3.977  14.059 -0.0007  0.1426 -0.1138
 2010SOL    HW117489   3.366   3.899  14.014  0.5458  0.8112 -1.6701
 2010SOL    HW217490   3.324   4.028  14.088  0.8212  0.6850  1.0462
 2011SOL     OW17491   3.002   2.395  14.341 -0.1101  0.2305 -0.3143
 2011SOL    HW117492   3.018   2.301  14.347  1.0134  0.4295 -0.1958
 2011SOL    HW217493   3.040   2.419  14.426  0.3854 -1.1623 -0.1461
 2012SOL     OW17494   0.791   0.310   2.714  0.2403  0.0420 -0.2073
 2012SOL    HW117495   0.839   0.281   2.637 -1.4613  1.1052 -1.6874
 2012SOL    HW217496   0.713   0.256   2.702  0.7822 -1.3099  2.2374
 2013SOL     OW17497   1.980   4.335   9.750 -0.0174  0.5849 -0.3086
 2013SOL    HW117498   1.958   4.426   9.770 -0.7004  0.0334  1.4240
 2013SOL    HW217499   1.947   4.294   9.830  0.1154  2.4710  0.7020
 2014SOL     OW17500   3.176   1.628  11.154  0.8770  0.4268 -0.2469
 2014SOL    HW117501   3.218   1.636  11.068 -1.7961 -0.2502 -1.6332
 2014SOL    HW217502   3.243   1.573  11.194  0.5183 -0.0864 -0.3495
 2015SOL     OW17503   4.710   0.303   3.470 -0.0894  0.3513 -0.5349
 2015SOL    HW117504   0.050   0.372   3.447 -0.9899  1.7296  1.1571
 2015SOL    HW217505   4.716   0.237   3.400 -0.8044 -2.6884  2.2695
 2016SOL     OW17506   2.700   3.461   4.967 -0.2423  0.2548 -0.3786
 2016SOL    HW117507   2.734   3.386   4.917 -0.6758 -0.8555  1.0255
 2016SOL    HW217508   2.698   3.423   5.055  1.8172  3.1357  0.9071
 2017SOL     OW17509   4.463   0.489  11.971 -0.2979  0.0402 -0.5830
 2017SOL    HW117510   4.515   0.512  12.048  0.2548 -0.9682 -0.6565
 2017SOL    HW217511   4.521   0.425  11.929  1.4394 -0.1089  2.0469
 2018SOL     OW17512   3.564   2.381   4.217 -0.2703  0.3013 -0.0762
 2018SOL    HW117513   3.512   2.411   4.291  1.4090  1.1392  0.7652
 2018SOL    HW217514   3.587   2.291   4.241  0.1602  0.2802 -0.5587
 2019SOL     OW17515   1.242   1.604  11.852 -0.3000 -0.8155  0.1637
 2019SOL    HW117516   1.217   1.658  11.926 -1.4485 -1.1406  0.0090
 2019SOL    HW217517   1.237   1.661  11.775 -2.9293 -0.3309  0.7103
 2020SOL     OW17518   2.448   3.334   2.970  0.6591 -0.0425  0.0545
 2020SOL    HW117519   2.510   3.278   3.016 -0.3999 -1.4462 -0.2362
 2020SOL    HW217520   2.383   3.276   2.931  0.8434 -2.0072  2.6801
 2021SOL     OW17521   3.634   4.623  15.695  0.1486  0.3955 -0.4103
 2021SOL    HW117522   3.569   4.694  15.692 -2.3095 -1.8058  1.0827
 2021SOL    HW217523   3.605   4.574  15.772  0.0731  2.5652  0.9409
 2022SOL     OW17524   1.266   2.238  12.054 -0.4776  1.1102 -0.3378
 2022SOL    HW117525   1.205   2.289  12.001 -1.7655  1.6839  1.6940
 2022SOL    HW217526   1.349   2.266  12.016 -0.5912  1.7629 -0.1125
 2023SOL     OW17527   1.862   3.591   3.519  0.1562 -0.0342 -0.1832
 2023SOL    HW117528   1.853   3.651   3.594  1.2648  0.2008 -0.2285
 2023SOL    HW217529   1.926   3.529   3.555  0.8294  0.3058 -0.7871
 2024SOL     OW17530   2.405   1.066   3.510  0.1117 -0.0125  0.1631
 2024SOL    HW117531   2.423   1.096   3.599  1.7547  0.6255 -0.3817
 2024SOL    HW217532   2.310   1.075   3.503  0.2635  1.5537 -0.0003
 2025SOL     OW17533   1.509   3.689  17.130 -0.0405  0.0854 -0.1165
 2025SOL    HW117534   1.598   3.678  17.162 -0.5084  0.3772  1.2702
 2025SOL    HW217535   1.495   3.596  17.112  2.0969 -0.2974  0.2439
 2026SOL     OW17536   1.591   0.158   5.753  0.1169 -0.6764  0.3591
 2026SOL    HW117537   1.520   0.217   5.727  2.5678  0.6549 -3.2605
 2026SOL    HW217538   1.540   0.110   5.819  1.2628  0.8730  2.4029
 2027SOL     OW17539   4.538   3.566   2.364 -0.5878 -0.1457 -0.2541
 2027SOL    HW117540   4.555   3.657   2.388 -1.5681 -0.0648  0.1547
 2027SOL    HW217541   4.612   3.530   2.413  0.9353  2.9787 -0.2859
 2028SOL     OW17542   3.719   1.010   1.682 -0.1698 -0.6410  0.1338
 2028SOL    HW117543   3.799   1.030   1.633 -1.2028  1.3375 -0.7232
 2028SOL    HW217544   3.668   1.081   1.644 -0.2750  0.5628  2.5162
 2029SOL     OW17545   3.403   0.659   6.429  0.1020 -0.4181 -0.1529
 2029SOL    HW117546   3.424   0.650   6.336  0.1104  3.3121 -0.4976
 2029SOL    HW217547   3.310   0.678   6.421  0.4348  1.6169  0.7639
 2030SOL     OW17548   0.211   3.325  10.187  0.4635 -0.1783  0.2084
 2030SOL    HW117549   0.232   3.232  10.189  1.1246 -0.0004  1.7132
 2030SOL    HW217550   0.232   3.341  10.095 -3.6285  1.0399 -0.5007
 2031SOL     OW17551   3.283   3.024  13.387 -0.0016 -0.5578  0.1429
 2031SOL    HW117552   3.246   3.110  13.407  1.8032 -0.3350  2.5101
 2031SOL    HW217553   3.356   3.040  13.327 -0.5273  1.9969  0.1775
 2032SOL     OW17554   3.933   1.769   2.714  0.0533  0.9743 -0.1599
 2032SOL    HW117555   3.866   1.762   2.782 -0.2392  1.1400 -0.4300
 2032SOL    HW217556   3.978   1.687   2.734  0.4560  1.3332  0.4015
 2033SOL     OW17557   0.689   0.662   1.729  0.3888  0.1583 -0.0388
 2033SOL    HW117558   0.713   0.744   1.773 -1.2579  1.2142 -1.0966
 2033SOL    HW217559   0.658   0.606   1.800  0.1728 -0.2928 -0.4911
 2034SOL     OW17560   4.323   0.261   3.762 -0.1422 -0.3558  0.6466
 2034SOL    HW117561   4.413   0.238   3.739  0.4734  2.2857  0.4091
 2034SOL    HW217562   4.293   0.303   3.681 -1.0458 -0.1131  1.1061
 2035SOL     OW17563   3.280   2.930   4.695 -0.1598 -0.3488 -0.2455
 2035SOL    HW117564   3.258   3.013   4.654 -1.4895 -1.3376 -1.5282
 2035SOL    HW217565   3.198   2.909   4.739 -1.3165  0.1993 -2.1228
 2036SOL     OW17566   1.037   2.926  15.058  0.1591 -0.4973  0.2793
 2036SOL    HW117567   1.006   3.007  15.017  1.5751  0.5651  1.3092
 2036SOL    HW217568   1.049   2.952  15.149  1.2802 -0.1154  0.0262
 2037SOL     OW17569   3.536   3.027  10.317  0.1881  0.0162 -0.0039
 2037SOL    HW117570   3.543   3.122  10.315  0.4275 -0.0237 -1.4706
 2037SOL    HW217571   3.554   3.003  10.226  0.7597 -0.1696  0.1636
 2038SOL     OW17572   1.816   0.503   4.986 -0.6147 -0.2595  0.4950
 2038SOL    HW117573   1.801   0.467   5.074 -0.6506 -1.9240 -0.1854
 2038SOL    HW217574   1.814   0.425   4.930 -0.1315  1.4197 -1.8486
 2039SOL     OW17575   3.857   0.706   3.399  0.4173  0.3159 -0.2681
 2039SOL    HW117576   3.877   0.645   3.329 -1.8070 -1.0522  0.2719
 2039SOL    HW217577   3.814   0.638   3.452  1.1639  0.2987  0.3190
 2040SOL     OW17578   1.032   0.729   6.488 -0.1408 -0.5204  0.9661
 2040SOL    HW117579   0.943   0.763   6.496 -0.7024 -1.0228 -3.0587
 2040SOL    HW217580   1.017   0.677   6.409  0.1695 -0.5569  0.9316
 2041SOL     OW17581   0.242   1.826   7.671 -0.2372  0.3309  0.0869
 2041SOL    HW117582   0.252   1.905   7.724  0.8208 -0.1360  0.5929
 2041SOL    HW217583   0.151   1.801   7.685 -0.5172  0.9268 -0.6945
 2042SOL     OW17584   0.695   0.731  15.327 -0.0063 -0.1792 -0.1258
 2042SOL    HW117585   0.768   0.784  15.359  0.1423 -1.7356  2.1622
 2042SOL    HW217586   0.741   0.684  15.258  1.8936  3.0476 -1.0275
 2043SOL     OW17587   3.263   3.675   8.827 -0.2145  0.0797 -0.2301
 2043SOL    HW117588   3.197   3.704   8.890  0.1475 -0.2598  0.3070
 2043SOL    HW217589   3.226   3.713   8.747 -1.5363  0.0035  0.3578
 2044SOL     OW17590   3.212   0.222  16.916 -0.2274  0.1916 -0.3775
 2044SOL    HW117591   3.195   0.130  16.934 -1.4107  0.5984  0.6312
 2044SOL    HW217592   3.190   0.248  17.006 -1.5649 -1.3359 -0.2625
 2045SOL     OW17593   3.974   3.845   2.402 -0.0363  0.3704  0.2447
 2045SOL    HW117594   4.040   3.914   2.411 -0.2890  0.9347 -2.1800
 2045SOL    HW217595   3.963   3.822   2.494 -2.3668  0.2295 -0.0484
 2046SOL     OW17596   3.799   4.528   4.313  0.5155 -0.8743 -0.0525
 2046SOL    HW117597   3.750   4.595   4.265  0.5802  0.4526  1.7561
 2046SOL    HW217598   3.727   4.522   4.375 -0.1372  0.6903 -0.6483
 2047SOL     OW17599   1.744   3.109   9.963 -0.1387 -0.2635 -0.1551
 2047SOL    HW117600   1.696   3.057   9.897  0.7960 -0.5198 -0.6313
 2047SOL    HW217601   1.719   3.197   9.934 -1.4565 -0.9143 -1.0000
 2048SOL     OW17602   0.008   2.989   0.893 -0.5234 -0.2257 -0.1707
 2048SOL    HW117603   4.679   2.918   0.931  1.4793 -0.5972  1.8491
 2048SOL    HW217604   4.676   3.067   0.882 -1.2917 -0.4177  2.3271
 2049SOL     OW17605   2.447   1.581   3.024 -0.1333  0.2156  0.5938
 2049SOL    HW117606   2.542   1.567   3.025 -0.3245 -0.8924  2.3640
 2049SOL    HW217607   2.428   1.554   2.934 -2.4463  0.4294  1.0377
 2050SOL     OW17608   3.237   1.230   0.379  0.5564 -0.3732  0.9773
 2050SOL    HW117609   3.303   1.208   0.444  1.4959 -1.3780 -0.3200
 2050SOL    HW217610   3.164   1.253   0.437  2.3414 -0.5332  3.2579
 2051SOL     OW17611   4.456   2.207   1.959 -0.0067 -0.2176  0.2216
 2051SOL    HW117612   4.404   2.194   2.038  1.9951  1.3225  1.8094
 2051SOL    HW217613   4.393   2.256   1.906  1.2784  2.1325  0.8424
 2052SOL     OW17614   1.112   1.460   4.748 -0.9136  0.3382  0.0461
 2052SOL    HW117615   1.206   1.447   4.734 -0.4233  1.5822  2.2719
 2052SOL    HW217616   1.103   1.531   4.811  2.5365  1.1212 -0.3049
 2053SOL     OW17617   0.276   4.180   6.199  0.5087 -0.3759 -0.1495
 2053SOL    HW117618   0.212   4.216   6.260  0.4113  0.0787 -0.5197
 2053SOL    HW217619   0.254   4.224   6.117 -1.0391  0.2034  0.5792
 2054SOL     OW17620   0.013   0.896   0.058  0.5182  0.0312  0.0212
 2054SOL    HW117621   4.662   0.929   0.110  0.0841  2.2989 -2.0374
 2054SOL    HW217622   4.686   0.828   0.011 -1.5117  1.2085  0.4446
 2055SOL     OW17623   2.429   1.988   4.172  0.1241 -0.0960  0.0297
 2055SOL    HW117624   2.487   2.023   4.104  1.1092  0.5768  1.2036
 2055SOL    HW217625   2.480   1.920   4.216  0.1907  0.9970  1.6637
 2056SOL     OW17626   1.777   0.567   1.754 -0.1830  0.8534  0.4750
 2056SOL    HW117627   1.829   0.486   1.760  0.8018  1.7075  3.3875
 2056SOL    HW217628   1.772   0.585   1.848  0.4254  0.0097  0.6757
 2057SOL     OW17629   4.509   4.569  15.093 -0.4756  0.4967  0.0214
 2057SOL    HW117630   4.436   4.568  15.155  1.0048  2.1333  1.7986
 2057SOL    HW217631   4.561   4.491  15.110 -0.2266  0.4825 -0.8096
 2058SOL     OW17632   0.714   2.018   3.299  0.2365 -0.2598 -0.0733
 2058SOL    HW117633   0.679   1.932   3.324 -0.4414  0.2281  0.6582
 2058SOL    HW217634   0.663   2.067   3.364  1.3461  0.6030  0.1507
 2059SOL     OW17635   3.145   0.633  14.611  0.6649 -0.0732  0.5177
 2059SOL    HW117636   3.225   0.686  14.614  1.5517 -1.4842  1.9957
 2059SOL    HW217637   3.071   0.688  14.583  1.0044  1.0703  1.8161
 2060SOL     OW17638   2.113   2.836   7.698 -0.2072 -0.1784  0.0859
 2060SOL    HW117639   2.178   2.893   7.656 -0.5554  1.7074  2.0961
 2060SOL    HW217640   2.169   2.759   7.710 -1.4949 -0.8106  1.9054
 2061SOL     OW17641   2.618   1.839   7.479 -0.1527  0.1911 -0.2735
 2061SOL    HW117642   2.628   1.831   7.384  0.0979 -0.7697 -0.1652
 2061SOL    HW217643   2.689   1.784   7.512  0.8904  3.0764  2.2631
 2062SOL     OW17644   0.271   4.164   6.632  0.1962 -0.3408 -0.0695
 2062SOL    HW117645   0.232   4.184   6.717  1.1202  1.3501 -0.0423
 2062SOL    HW217646   0.292   4.071   6.643 -0.3119 -0.6756 -1.9872
 2063SOL     OW17647   0.544   1.550   7.378  0.0748  0.2108  0.2967
 2063SOL    HW117648   0.576   1.607   7.448  0.0134  0.6233 -0.0038
 2063SOL    HW217649   0.628   1.514   7.352 -0.4633  0.2137 -1.4567
 2064SOL     OW17650   2.090   1.743   1.333  0.2540 -0.0312 -0.2062
 2064SOL    HW117651   2.111   1.721   1.242  2.4236  0.1827  0.2415
 2064SOL    HW217652   1.994   1.745   1.330  0.2575 -0.4152 -0.5108
 2065SOL     OW17653   1.508   1.090   7.995  0.3344 -0.4761  0.4275
 2065SOL    HW117654   1.485   1.075   7.904 -1.9723  1.6174  0.6463
 2065SOL    HW217655   1.420   1.106   8.032 -0.2131  0.4797 -1.2916
 2066SOL     OW17656   4.582   4.657  16.151  0.1737 -0.2560 -0.3383
 2066SOL    HW117657   4.547   0.019  16.180  2.9512  0.2697  1.4202
 2066SOL    HW217658   4.515   4.592  16.170 -0.8301  0.6811 -0.6954
 2067SOL     OW17659   1.174   1.144  15.581  0.0153  0.3321  0.0119
 2067SOL    HW117660   1.176   1.049  15.571  2.8389  0.3421  0.4205
 2067SOL    HW217661   1.205   1.150  15.671 -1.4971 -0.1524  0.5648
 2068SOL     OW17662   1.899   3.057   3.052 -0.0727  0.0188 -0.2711
 2068SOL    HW117663   1.903   3.001   2.975 -0.9622  0.7856 -0.8871
 2068SOL    HW217664   1.817   3.106   3.042 -1.0627 -1.3251  1.2592
 2069SOL     OW17665   0.199   2.562   7.567 -0.5116 -0.1946  0.2001
 2069SOL    HW117666   0.182   2.601   7.653 -3.8521 -0.0840 -0.5314
 2069SOL    HW217667   0.289   2.530   7.575 -0.4299 -0.2318 -0.8709
 2070SOL     OW17668   1.278   2.253   1.531 -0.0915  0.1514 -0.3225
 2070SOL    HW117669   1.258   2.162   1.554  1.3712 -0.0711  0.0802
 2070SOL    HW217670   1.292   2.292   1.617 -0.5463 -0.0828 -0.1391
 2071SOL     OW17671   2.422   0.867  13.401 -0.2526 -0.1630  0.0315
 2071SOL    HW117672   2.388   0.955  13.419  1.3088  0.3472  0.5644
 2071SOL    HW217673   2.377   0.844  13.320  0.9864 -1.5570 -0.2639
 2072SOL     OW17674   1.088   4.631   3.036 -0.5989 -0.3856 -0.2786
 2072SOL    HW117675   1.140   4.552   3.050 -0.2902  0.1167  1.3406
 2072SOL    HW217676   0.998   4.601   3.019 -1.2922  1.4469  0.1845
 2073SOL     OW17677   0.207   2.824   4.289  0.1910  0.0543  0.1006
 2073SOL    HW117678   0.276   2.758   4.300  0.4996  0.0748 -1.7257
 2073SOL    HW217679   0.147   2.772   4.236  0.2606  1.2402 -1.1362
 2074SOL     OW17680   0.684   1.520   3.234 -0.3138  0.5680  0.2231
 2074SOL    HW117681   0.714   1.457   3.299  0.2627 -0.8206 -1.4049
 2074SOL    HW217682   0.730   1.484   3.158 -0.8264 -0.6810  0.5135
 2075SOL     OW17683   4.277   2.682   7.515  0.5338  0.4790 -0.0429
 2075SOL    HW117684   4.259   2.748   7.582 -0.4603 -0.0933  0.2650
 2075SOL    HW217685   4.196   2.630   7.514  0.6049  0.4354 -2.3502
 2076SOL     OW17686   0.216   4.190   2.347 -0.6564 -0.1913  0.2634
 2076SOL    HW117687   0.229   4.192   2.252  2.0872 -0.0637  0.6309
 2076SOL    HW217688   0.305   4.203   2.380 -1.2304  2.6173  0.6890
 2077SOL     OW17689   1.478   1.506  13.411 -0.0199 -0.2094 -0.6422
 2077SOL    HW117690   1.529   1.544  13.482  1.7649 -1.2053 -1.3984
 2077SOL    HW217691   1.502   1.569  13.342 -1.4892  0.1253 -0.8522
 2078SOL     OW17692   2.748   0.078  10.226 -0.4263  0.0995  0.4117
 2078SOL    HW117693   2.818   0.140  10.249 -1.4128  1.0041  0.9999
 2078SOL    HW217694   2.782   0.030  10.151 -2.0046 -1.6492  0.8107
 2079SOL     OW17695   0.937   0.288  13.499 -0.4803  0.3034  0.4716
 2079SOL    HW117696   0.928   0.247  13.586  1.2065 -1.0135  0.0063
 2079SOL    HW217697   0.850   0.327  13.488 -0.8653 -0.3864  1.0656
 2080SOL     OW17698   3.294   3.053  12.004 -0.7258  0.0675  0.8492
 2080SOL    HW117699   3.351   2.991  11.959 -0.9283  0.6302 -0.2019
 2080SOL    HW217700   3.310   3.031  12.095  0.0879 -0.5199  0.5663
 2081SOL     OW17701   2.298   2.356   2.292  0.3267 -0.2048 -0.1119
 2081SOL    HW117702   2.339   2.431   2.335  1.1894 -1.7155  1.6916
 2081SOL    HW217703   2.360   2.284   2.307 -0.1672 -0.2304  1.6837
 2082SOL     OW17704   1.705   2.280   1.977  0.3305 -0.4267 -0.1049
 2082SOL    HW117705   1.675   2.213   2.038  0.4549 -1.7285 -1.4821
 2082SOL    HW217706   1.638   2.347   1.992  0.5979 -0.0289 -0.6763
 2083SOL     OW17707   0.911   1.342   6.531 -0.8289 -0.1851  0.0013
 2083SOL    HW117708   0.826   1.323   6.571 -1.7609  1.4243 -1.1810
 2083SOL    HW217709   0.887   1.423   6.485  1.4662  1.7239  2.1850
 2084SOL     OW17710   4.145   0.557   1.239  0.1087  0.7414  0.1844
 2084SOL    HW117711   4.194   0.484   1.202 -0.5448 -0.0800  0.9230
 2084SOL    HW217712   4.071   0.565   1.179  0.7064  0.0602 -0.6349
 2085SOL     OW17713   2.923   3.916   1.212  0.9170 -0.3845  0.1733
 2085SOL    HW117714   2.950   3.965   1.134 -0.2920  0.3966  0.2432
 2085SOL    HW217715   2.960   3.964   1.285  1.1102 -1.7444  0.9624
 2086SOL     OW17716   0.410   0.630   5.532  0.1647 -0.3019 -0.0587
 2086SOL    HW117717   0.496   0.660   5.502  1.2662 -2.2991  1.1153
 2086SOL    HW217718   0.402   0.541   5.499  0.5133 -0.8886  1.4316
 2087SOL     OW17719   2.975   1.301   2.115  0.2265  1.1268  0.3452
 2087SOL    HW117720   2.976   1.292   2.019 -0.2720  0.4965  0.4071
 2087SOL    HW217721   3.062   1.266   2.130  0.5853  2.9158  2.4366
 2088SOL     OW17722   1.519   0.472  17.272  0.2128 -0.0959 -0.1497
 2088SOL    HW117723   1.514   0.567  17.274 -2.3106 -0.2466  0.1568
 2088SOL    HW217724   1.427   0.453  17.292 -0.2606  2.3806 -0.0674
 2089SOL     OW17725   1.540   3.157   9.697  0.2321 -0.1714 -0.0413
 2089SOL    HW117726   1.560   3.237   9.649  0.6924 -0.2670 -0.0101
 2089SOL    HW217727   1.451   3.171   9.729 -0.6782 -2.5400 -1.4947
 2090SOL     OW17728   2.774   1.864   9.070 -0.2460 -0.5598  0.3345
 2090SOL    HW117729   2.680   1.868   9.090 -0.4557  2.3258 -1.2792
 2090SOL    HW217730   2.806   1.933   9.127  0.7339  0.8750 -2.0043
 2091SOL     OW17731   4.033   0.271   7.869 -0.2427 -0.1487  0.0224
 2091SOL    HW117732   4.012   0.341   7.807  0.6886 -0.4333 -0.6282
 2091SOL    HW217733   4.082   0.315   7.938  1.1134  1.8896 -2.2572
 2092SOL     OW17734   2.533   2.403   4.800 -0.2074 -0.2296 -0.2662
 2092SOL    HW117735   2.492   2.422   4.715 -0.2707  0.7209 -0.0212
 2092SOL    HW217736   2.620   2.369   4.778  0.2778  1.1518 -0.4639
 2093SOL     OW17737   3.787   1.291  10.505 -0.7982  0.6383  0.7296
 2093SOL    HW117738   3.720   1.251  10.450 -1.5353 -0.3360  2.3462
 2093SOL    HW217739   3.787   1.375  10.459 -0.4909  1.9947  3.2058
 2094SOL     OW17740   1.052   3.417   9.664  1.0562  0.0206 -0.2417
 2094SOL    HW117741   0.994   3.472   9.610  0.8554 -0.4789 -0.5360
 2094SOL    HW217742   0.984   3.391   9.727  1.2629 -1.0599 -0.4577
 2095SOL     OW17743   1.448   0.937   8.515  0.2316 -0.0426  0.1801
 2095SOL    HW117744   1.498   0.863   8.482 -1.4323 -2.0509  2.1949
 2095SOL    HW217745   1.494   0.943   8.599 -0.4011 -2.6283  0.6927
 2096SOL     OW17746   3.292   1.252  11.404 -0.0071  0.0235 -0.4206
 2096SOL    HW117747   3.237   1.174  11.413 -1.4034  1.4605  3.2827
 2096SOL    HW217748   3.381   1.217  11.398 -0.0111 -0.4851  2.4751
 2097SOL     OW17749   3.662   1.009   1.237  0.0108  0.1447  0.3703
 2097SOL    HW117750   3.591   1.052   1.188  1.1696 -0.6080 -1.9680
 2097SOL    HW217751   3.616   0.930   1.267  0.1690 -0.8250 -1.9150
 2098SOL     OW17752   0.524   0.231   8.251  0.1393 -0.0540  0.1311
 2098SOL    HW117753   0.452   0.254   8.309  1.7343 -0.3875  2.2498
 2098SOL    HW217754   0.498   0.149   8.210  1.3552 -0.5940  0.4355
 2099SOL     OW17755   2.439   1.308   7.832  0.1971 -0.2501  0.7540
 2099SOL    HW117756   2.364   1.252   7.813 -0.8333  2.0283 -1.8699
 2099SOL    HW217757   2.496   1.282   7.759  0.2363 -1.2514  1.1331
 2100SOL     OW17758   0.429   0.285   6.710 -0.3605  0.1728  0.6975
 2100SOL    HW117759   0.513   0.257   6.674 -0.8869 -0.0360 -0.3661
 2100SOL    HW217760   0.460   0.297   6.800 -0.5068 -0.4786  0.8394
 2101SOL     OW17761   4.017   2.152   2.276  0.6598 -0.0010 -0.5735
 2101SOL    HW117762   3.982   2.064   2.267  1.5969 -0.7007  2.6049
 2101SOL    HW217763   4.072   2.167   2.199  1.5156  0.9538  0.2186
 2102SOL     OW17764   4.187   0.697   8.193  0.2582  0.1181  0.1900
 2102SOL    HW117765   4.098   0.690   8.229  0.2951 -1.3462  0.0024
 2102SOL    HW217766   4.186   0.782   8.149  0.2668  0.1098  0.1736
 2103SOL     OW17767   1.570   2.404   3.450 -0.2742 -0.2284  0.1045
 2103SOL    HW117768   1.505   2.452   3.399 -1.5119 -0.7160  1.2504
 2103SOL    HW217769   1.617   2.345   3.390  0.9153  1.6432 -0.7927
 2104SOL     OW17770   2.587   2.530   0.093 -0.6403  0.3277  0.0004
 2104SOL    HW117771   2.678   2.508   0.116 -0.4607  0.8470 -0.2131
 2104SOL    HW217772   2.606   2.611   0.046  0.7178  0.1527  0.2423
 2105SOL     OW17773   2.721   0.781   4.588  0.0472  0.0714  0.2770
 2105SOL    HW117774   2.653   0.787   4.521  0.7556  1.6073 -0.2887
 2105SOL    HW217775   2.740   0.687   4.584 -0.8269 -0.1986  2.2544
 2106SOL     OW17776   4.123   0.686   5.609 -0.3465 -0.1132 -0.3289
 2106SOL    HW117777   4.180   0.731   5.547  0.1017  0.1058  0.2461
 2106SOL    HW217778   4.161   0.712   5.693 -1.7587  0.8317  0.0258
 2107SOL     OW17779   1.484   4.597   7.287 -0.2858 -0.1150 -0.6229
 2107SOL    HW117780   1.412   4.604   7.349 -0.4135  1.0801 -0.9021
 2107SOL    HW217781   1.454   4.646   7.211 -2.7934 -2.3784 -1.0726
 2108SOL     OW17782   4.614   4.710   8.256  0.0715 -0.0553  0.0649
 2108SOL    HW117783   4.679   4.640   8.263  0.2954  0.0894 -0.6154
 2108SOL    HW217784   4.639   0.028   8.173  0.2385  1.4239  0.8245
 2109SOL     OW17785   0.754   2.996   9.627 -0.3957 -0.4449  0.5387
 2109SOL    HW117786   0.672   3.025   9.666 -0.5593 -1.1481  0.7217
 2109SOL    HW217787   0.795   2.962   9.707  0.3548  0.9659  0.7724
 2110SOL     OW17788   1.401   4.196   6.558 -0.1543 -0.4135 -0.3752
 2110SOL    HW117789   1.435   4.217   6.645  0.8692  1.6002 -1.2465
 2110SOL    HW217790   1.435   4.265   6.501  2.1370  0.4158  1.9868
 2111SOL     OW17791   4.380   3.440   8.007 -0.1462 -0.7386  0.1340
 2111SOL    HW117792   4.426   3.357   7.995 -0.0177 -0.8228  1.1889
 2111SOL    HW217793   4.335   3.425   8.090 -2.6105  1.5393 -0.8190
 2112SOL     OW17794   4.504   1.905   5.012 -0.3042 -0.2014 -0.0559
 2112SOL    HW117795   4.581   1.861   5.050 -1.2688 -0.4919  1.5829
 2112SOL    HW217796   4.445   1.910   5.087  0.5696  1.2939  0.5232
 2113SOL     OW17797   3.622   1.841   0.741 -1.2652  0.2916  0.0190
 2113SOL    HW117798   3.563   1.904   0.784 -2.0851 -0.2299 -0.3470
 2113SOL    HW217799   3.704   1.879   0.774 -0.3749 -2.4778  0.9674
 2114SOL     OW17800   4.274   0.580   2.661  0.0957  0.1060 -0.5794
 2114SOL    HW117801   4.230   0.637   2.724 -1.4613 -1.4922 -0.2003
 2114SOL    HW217802   4.327   0.524   2.718 -0.1830  1.1878  0.7534
 2115SOL     OW17803   2.833   3.434   7.534  0.5198  0.2701  0.1863
 2115SOL    HW117804   2.773   3.434   7.460 -0.9584  2.5542  1.3869
 2115SOL    HW217805   2.778   3.469   7.604 -1.1685 -2.2474  0.0943
 2116SOL     OW17806   2.825   2.880  11.958 -0.4686 -0.0314  0.0626
 2116SOL    HW117807   2.821   2.857  12.051 -1.9533 -0.6949 -0.1544
 2116SOL    HW217808   2.875   2.809  11.919 -2.0090  0.7917 -3.3960
 2117SOL     OW17809   3.129   4.088   2.431  0.0244  1.0140  0.0814
 2117SOL    HW117810   3.084   4.105   2.514  0.4074  0.6714  0.3596
 2117SOL    HW217811   3.189   4.162   2.444  0.8706  0.6748 -2.0016
 2118SOL     OW17812   2.230   3.626   5.637 -0.3248  0.2934  0.0666
 2118SOL    HW117813   2.247   3.645   5.544 -1.0595 -0.4085 -0.2132
 2118SOL    HW217814   2.234   3.707   5.688  0.4722  0.2076  0.1472
 2119SOL     OW17815   0.606   4.056   2.597  0.2233 -0.3184 -0.4478
 2119SOL    HW117816   0.610   4.018   2.509 -0.9240 -0.6604 -0.3533
 2119SOL    HW217817   0.687   4.020   2.635  0.3198 -0.1226 -0.4706
 2120SOL     OW17818   3.228   3.413  14.202 -0.0450  0.2179  0.5717
 2120SOL    HW117819   3.252   3.422  14.294  0.6159  0.6317  0.3585
 2120SOL    HW217820   3.314   3.402  14.161 -0.0576  1.1469  0.3066
 2121SOL     OW17821   3.461   2.620   6.632  0.5167 -0.4338  0.1287
 2121SOL    HW117822   3.514   2.698   6.644  0.8748 -0.4341 -1.4774
 2121SOL    HW217823   3.487   2.584   6.547 -0.0043  2.2008 -1.1423
 2122SOL     OW17824   0.629   0.980   1.438  0.3439 -0.1624  0.2883
 2122SOL    HW117825   0.681   0.918   1.386 -2.6985  0.3003 -3.3268
 2122SOL    HW217826   0.542   0.950   1.410  0.8420 -2.7529  1.4566
 2123SOL     OW17827   4.502   3.980   4.179  0.3156  0.1028  0.4943
 2123SOL    HW117828   4.407   3.990   4.183  0.4789  1.9715 -0.3724
 2123SOL    HW217829   4.513   3.967   4.085  2.8552  1.2099  0.6409
 2124SOL     OW17830   0.585   2.177   5.026 -0.4832 -0.2579  0.7422
 2124SOL    HW117831   0.493   2.180   5.054 -0.6979 -1.2720  0.1547
 2124SOL    HW217832   0.631   2.241   5.081 -1.6929  0.9634  0.3337
 2125SOL     OW17833   1.136   1.896   8.877 -0.0234 -0.0775 -0.1256
 2125SOL    HW117834   1.056   1.882   8.927  0.4639 -2.0929  0.0807
 2125SOL    HW217835   1.187   1.932   8.950 -0.2430 -0.0508  0.0162
 2126SOL     OW17836   2.366   3.758   2.809 -0.1445 -0.1521 -0.2226
 2126SOL    HW117837   2.342   3.769   2.717 -0.8067 -0.6131 -0.1045
 2126SOL    HW217838   2.356   3.847   2.844  0.3511 -0.1756 -0.0176
 2127SOL     OW17839   1.900   3.411  13.934 -0.0631  0.0217 -0.5693
 2127SOL    HW117840   1.842   3.450  13.999  1.4068  2.2229 -0.6008
 2127SOL    HW217841   1.957   3.480  13.900  2.2940 -0.5762  2.2206
 2128SOL     OW17842   1.609   0.394   6.195 -0.2867 -0.0973  0.0382
 2128SOL    HW117843   1.629   0.437   6.278  2.8299 -1.1420 -0.1772
 2128SOL    HW217844   1.603   0.303   6.222 -2.2458 -0.3823 -1.3227
 2129SOL     OW17845   1.359   0.361   0.745 -0.9813  0.8956 -0.8958
 2129SOL    HW117846   1.366   0.285   0.803 -1.3634  0.9112 -0.8287
 2129SOL    HW217847   1.375   0.429   0.810 -2.4231 -0.9119  1.3570
 2130SOL     OW17848   2.372   0.083   2.905  0.0550 -0.2589  0.7140
 2130SOL    HW117849   2.392   0.173   2.931 -0.6019  0.3622 -0.9055
 2130SOL    HW217850   2.278   0.093   2.885  0.0612 -3.1040 -0.6502
 2131SOL     OW17851   3.023   4.415   7.583  0.9744  0.2108  0.0684
 2131SOL    HW117852   3.085   4.344   7.594 -1.2718 -2.0965 -2.2272
 2131SOL    HW217853   3.023   4.434   7.489 -2.3411  1.0358  0.2075
 2132SOL     OW17854   0.492   1.258   7.102 -0.0025 -0.1831 -0.7384
 2132SOL    HW117855   0.431   1.282   7.033  2.2698  1.7792 -2.0697
 2132SOL    HW217856   0.539   1.339   7.122  0.0611  0.2205 -2.5649
 2133SOL     OW17857   4.319   0.026   8.450  0.3701  0.3845 -0.0625
 2133SOL    HW117858   4.338   0.010   8.542  0.7791  0.3318 -0.1568
 2133SOL    HW217859   4.235   4.703   8.442  0.6093 -0.2226  0.9059
 2134SOL     OW17860   1.499   2.312  11.948 -0.3595 -0.2737 -0.8806
 2134SOL    HW117861   1.577   2.313  11.892  0.0088  1.1126 -0.3445
 2134SOL    HW217862   1.539   2.275  12.027  1.4105  0.1629 -1.5570
 2135SOL     OW17863   1.131   0.917  16.437 -0.4177  0.4507 -0.0472
 2135SOL    HW117864   1.199   0.920  16.505  1.2135  0.1332 -1.6802
 2135SOL    HW217865   1.164   0.995  16.393 -1.8138  0.1926 -1.5429
 2136SOL     OW17866   1.388   3.207   2.847  0.2230 -0.4127  0.0576
 2136SOL    HW117867   1.430   3.136   2.798 -0.3846 -0.5844 -0.2107
 2136SOL    HW217868   1.467   3.253   2.877 -0.3573 -0.1977  1.2489
 2137SOL     OW17869   0.909   1.769   8.599  0.0120  0.4565 -0.7448
 2137SOL    HW117870   0.900   1.864   8.611  0.9170  0.4157  0.2175
 2137SOL    HW217871   0.987   1.776   8.544  1.8721 -0.9229  1.7049
 2138SOL     OW17872   3.036   0.967   1.558  0.3284  0.4704  0.2082
 2138SOL    HW117873   3.097   1.018   1.506 -0.8494  1.4150 -0.2413
 2138SOL    HW217874   3.044   0.879   1.520 -1.4240 -0.9213  3.0349
 2139SOL     OW17875   4.502   3.601   8.263  0.4336  0.3632  0.3438
 2139SOL    HW117876   4.413   3.614   8.296  0.5578  4.1898 -0.8276
 2139SOL    HW217877   4.502   3.513   8.225 -2.5839 -0.0180  1.2167
 2140SOL     OW17878   3.909   4.237   2.665 -0.1251  0.5257 -0.2900
 2140SOL    HW117879   3.833   4.244   2.723 -0.5114 -0.5626 -0.6665
 2140SOL    HW217880   3.866   4.209   2.584  1.5025 -0.3341 -0.8578
 2141SOL     OW17881   1.158   3.560   7.206  0.5970  0.5984 -0.1237
 2141SOL    HW117882   1.125   3.642   7.170 -2.5854 -0.4938  0.2775
 2141SOL    HW217883   1.218   3.538   7.134  1.7620  1.9007  0.4564
 2142SOL     OW17884   0.435   0.125   8.501  0.0972 -0.2631 -0.2328
 2142SOL    HW117885   0.455   0.103   8.592  0.7776 -0.2804 -0.3938
 2142SOL    HW217886   0.496   0.071   8.452  2.0540  2.2522 -0.5560
 2143SOL     OW17887   0.834   3.232   4.714  0.3744  0.5841 -0.1143
 2143SOL    HW117888   0.841   3.178   4.635 -0.4053  0.4589 -0.0976
 2143SOL    HW217889   0.856   3.315   4.671  0.1415  1.5447  1.6302
 2144SOL     OW17890   3.948   0.221   8.382 -0.0802  0.7925 -0.0265
 2144SOL    HW117891   3.920   0.238   8.472  0.4973 -0.6939  0.4176
 2144SOL    HW217892   4.041   0.244   8.378  0.3329 -1.0178 -0.4181
 2145SOL     OW17893   3.708   1.141  17.099  0.2885 -0.2896 -0.1671
 2145SOL    HW117894   3.709   1.068  17.036  0.0025 -1.4971  1.2342
 2145SOL    HW217895   3.617   1.165  17.113  0.7768 -0.0003  2.4584
 2146SOL     OW17896   1.040   0.353   1.573  0.2223  0.0198 -0.2089
 2146SOL    HW117897   1.026   0.412   1.648  1.4063  1.5223 -1.1855
 2146SOL    HW217898   1.114   0.304   1.608 -0.5392  0.5698  2.2026
 2147SOL     OW17899   3.459   4.448   3.432 -0.4692 -0.5566 -0.3837
 2147SOL    HW117900   3.408   4.444   3.513  0.4152  2.1788  0.2952
 2147SOL    HW217901   3.434   4.537   3.408  0.7417 -0.6189 -1.9074
 2148SOL     OW17902   2.223   1.473   3.122 -0.1913  0.2748 -0.2961
 2148SOL    HW117903   2.204   1.430   3.038 -0.3104 -0.2055 -0.0256
 2148SOL    HW217904   2.289   1.537   3.095  0.7095 -0.3650  0.3785
 2149SOL     OW17905   1.771   3.831   8.967 -0.2204 -0.0113  0.1796
 2149SOL    HW117906   1.756   3.878   9.049 -0.6103  0.9517 -0.4487
 2149SOL    HW217907   1.863   3.852   8.951 -0.4940  2.8116  2.3105
 2150SOL     OW17908   0.111   3.853  13.793 -0.2091  0.4864  0.3485
 2150SOL    HW117909   0.029   3.809  13.817 -0.8665  1.6857  0.3190
 2150SOL    HW217910   0.154   3.782  13.745 -1.8178 -0.3258  0.1100
 2151SOL     OW17911   0.141   3.489   2.117  0.1520  0.1137  0.0152
 2151SOL    HW117912   0.120   3.421   2.181  1.3953 -2.3714 -2.2336
 2151SOL    HW217913   0.109   3.445   2.039  0.1525 -0.3197  0.2615
 2152SOL     OW17914   2.574   3.973  10.865 -0.2713 -0.4629 -0.4578
 2152SOL    HW117915   2.483   3.973  10.895  0.2559  0.8289  1.1944
 2152SOL    HW217916   2.618   3.968  10.950  0.7256  0.3868 -0.9148
 2153SOL     OW17917   1.009   2.651   4.986 -0.5301 -0.0959 -0.1621
 2153SOL    HW117918   1.021   2.595   5.062 -0.4018  1.2466  0.8005
 2153SOL    HW217919   1.101   2.675   4.978 -1.0473  1.4981 -1.4388
 2154SOL     OW17920   3.642   3.862   6.497  0.1118  0.0979  0.5069
 2154SOL    HW117921   3.722   3.817   6.524  1.7017  2.7428  0.0728
 2154SOL    HW217922   3.578   3.790   6.496 -0.5182  0.6977 -1.6617
 2155SOL     OW17923   1.408   4.037   3.006  0.1377  0.0258  0.2039
 2155SOL    HW117924   1.498   4.006   3.015 -0.3721 -1.1213  1.5280
 2155SOL    HW217925   1.379   3.979   2.936  1.1496 -0.5956  0.3098
 2156SOL     OW17926   2.428   3.442  15.777  0.3844 -0.5791 -0.6272
 2156SOL    HW117927   2.337   3.417  15.758  0.3546  0.0073 -1.2674
 2156SOL    HW217928   2.468   3.409  15.696  2.5869  2.2153 -0.6570
 2157SOL     OW17929   2.341   2.819   6.157  0.4285  0.0045 -0.3938
 2157SOL    HW117930   2.292   2.746   6.195  0.4352  1.0388  1.6421
 2157SOL    HW217931   2.299   2.902   6.180 -0.2172  0.1521 -2.1097
 2158SOL     OW17932   2.614   1.610   3.781 -0.2184  0.3510 -0.0514
 2158SOL    HW117933   2.624   1.663   3.702 -1.9058 -0.7828 -1.0405
 2158SOL    HW217934   2.521   1.593   3.763  0.1354 -1.2029 -0.4276
 2159SOL     OW17935   3.065   0.994   0.458 -0.5506 -0.2077 -0.7855
 2159SOL    HW117936   3.138   0.950   0.502  1.6081  1.4165 -2.7153
 2159SOL    HW217937   3.027   1.048   0.527  0.6362  0.3214 -0.5471
 2160SOL     OW17938   3.291   0.938   7.982  0.4046  0.1697  0.3658
 2160SOL    HW117939   3.196   0.927   7.982  0.1187  2.8399  1.0271
 2160SOL    HW217940   3.298   0.988   7.901 -1.2402 -1.4568 -0.7932
 2161SOL     OW17941   2.036   1.789   3.637  0.1545 -0.9411 -0.1388
 2161SOL    HW117942   2.004   1.706   3.670  0.6308 -1.1908 -0.3080
 2161SOL    HW217943   1.985   1.798   3.557 -0.9945  1.9599  0.8852
 2162SOL     OW17944   1.461   1.883   2.053  0.0991  0.3797 -0.2974
 2162SOL    HW117945   1.401   1.880   1.979  0.2030  1.4479 -0.4242
 2162SOL    HW217946   1.535   1.835   2.016 -0.6464 -0.6006 -0.5132
 2163SOL     OW17947   1.206   2.223   2.992  0.0253 -0.3541 -0.1409
 2163SOL    HW117948   1.134   2.244   2.934  0.4041  1.9799  0.2314
 2163SOL    HW217949   1.172   2.137   3.015  0.0707 -0.2886  0.1857
 2164SOL     OW17950   0.996   4.426   1.888 -0.4303  0.1592  0.5178
 2164SOL    HW117951   0.978   4.437   1.981  1.3346 -1.8533  1.1178
 2164SOL    HW217952   0.948   4.494   1.841 -0.1628 -0.5940 -0.8562
 2165SOL     OW17953   3.491   4.645  10.497 -0.2904 -0.4430  0.6314
 2165SOL    HW117954   3.411   4.688  10.468 -0.0365 -0.8423 -0.6689
 2165SOL    HW217955   3.461   4.560  10.528  0.1498 -1.5366 -1.9696
 2166SOL     OW17956   0.919   0.507   4.056  0.0109 -0.4445  0.1706
 2166SOL    HW117957   0.889   0.513   4.147 -0.4391 -0.6817  0.0385
 2166SOL    HW217958   1.012   0.498   4.077  0.4734  2.0634 -0.8609
 2167SOL     OW17959   1.660   2.240   5.752  0.1641  0.7104  0.3435
 2167SOL    HW117960   1.564   2.240   5.750  0.1603  4.3460  0.4431
 2167SOL    HW217961   1.678   2.329   5.722 -1.5019  0.5100 -1.2369
 2168SOL     OW17962   0.079   0.832  11.745  0.3041 -0.1654 -0.7018
 2168SOL    HW117963   0.070   0.836  11.649  0.2847 -0.7286 -0.7265
 2168SOL    HW217964   0.087   0.742  11.777  0.0960 -0.0499 -0.3296
 2169SOL     OW17965   3.745   2.334   5.740 -0.3582 -0.5114  0.8684
 2169SOL    HW117966   3.719   2.422   5.713  0.3678 -0.7329 -0.5357
 2169SOL    HW217967   3.838   2.352   5.750 -0.3419 -0.1960  0.1262
 2170SOL     OW17968   1.774   2.123   7.026  0.1736 -0.0317  0.1026
 2170SOL    HW117969   1.796   2.044   6.976  2.0622  1.6622 -1.7462
 2170SOL    HW217970   1.680   2.120   7.006  0.0313  0.6480  0.6789
 2171SOL     OW17971   3.300   1.553   6.620  0.3528 -0.0944  0.3448
 2171SOL    HW117972   3.336   1.612   6.554  1.7809  1.0679  2.1775
 2171SOL    HW217973   3.207   1.574   6.627  0.2094 -0.5503 -0.1319
 2172SOL     OW17974   0.179   2.140   8.485  0.2157 -0.0869  0.0472
 2172SOL    HW117975   0.125   2.067   8.455  0.9083 -0.3786 -0.4943
 2172SOL    HW217976   0.254   2.097   8.527  1.3272  3.4305  1.6999
 2173SOL     OW17977   1.268   2.602  13.091  0.1099  0.3852 -0.2324
 2173SOL    HW117978   1.326   2.615  13.166  0.6473  0.0571 -0.5923
 2173SOL    HW217979   1.208   2.529  13.106 -0.5389  0.3842 -2.8484
 2174SOL     OW17980   3.705   0.322   7.122 -0.1990  0.5281 -0.2282
 2174SOL    HW117981   3.676   0.258   7.057 -0.8626 -1.1795  1.7375
 2174SOL    HW217982   3.737   0.266   7.193  0.4985  0.7352 -0.3797
 2175SOL     OW17983   1.595   1.146   5.763  0.3470  0.4431  0.5014
 2175SOL    HW117984   1.631   1.092   5.692  3.4925  1.4298  1.3365
 2175SOL    HW217985   1.674   1.179   5.807 -0.8112  2.2904  1.1908
 2176SOL     OW17986   3.572   0.714  12.216  0.0110  0.3649  0.2872
 2176SOL    HW117987   3.546   0.647  12.152 -2.8385  2.0296 -0.2863
 2176SOL    HW217988   3.655   0.678  12.247 -0.5422 -1.9461 -0.9146
 2177SOL     OW17989   2.013   3.236   3.407 -0.0512  0.0258 -1.0021
 2177SOL    HW117990   2.105   3.225   3.384 -0.2646 -0.6178 -1.5758
 2177SOL    HW217991   2.014   3.221   3.501  1.8413  3.4871 -0.4805
 2178SOL     OW17992   2.719   3.725  11.077  0.2513  0.6368  0.1577
 2178SOL    HW117993   2.728   3.817  11.101 -1.2536  0.5568  1.0235
 2178SOL    HW217994   2.787   3.722  11.010  0.1765  0.4185  0.0910
 2179SOL     OW17995   0.407   4.350   6.484 -0.0379 -0.4518 -0.2796
 2179SOL    HW117996   0.446   4.287   6.423 -0.3338 -1.0009  0.0995
 2179SOL    HW217997   0.350   4.288   6.530  1.2388 -2.2203 -1.0913
 2180SOL     OW17998   2.866   3.619   6.548  0.0057 -0.4368  0.2305
 2180SOL    HW117999   2.814   3.670   6.487 -0.3944  0.3489  1.2301
 2180SOL    HW218000   2.801   3.598   6.615 -0.8643 -1.9938 -1.1039
 2181SOL     OW18001   1.843   4.713   4.640  0.1834 -0.1247 -0.0866
 2181SOL    HW118002   1.817   4.625   4.612 -2.6120  0.7907 -0.3446
 2181SOL    HW218003   1.782   0.029   4.703 -1.0952  0.4900 -1.6925
 2182SOL     OW18004   0.254   1.003   7.709 -0.3215 -0.9419  0.6130
 2182SOL    HW118005   0.182   0.977   7.767 -0.8062 -0.1730  0.3516
 2182SOL    HW218006   0.306   1.063   7.762 -0.7629 -0.5767  0.6353
 2183SOL     OW18007   1.911   3.093   6.437 -0.1174 -0.4885  0.3539
 2183SOL    HW118008   1.883   3.128   6.522 -0.6795 -0.2729  0.0781
 2183SOL    HW218009   1.839   3.121   6.381  0.5794 -0.5578 -0.5894
 2184SOL     OW18010   4.364   2.330  12.909  0.1394  0.0082 -0.2046
 2184SOL    HW118011   4.326   2.261  12.963  0.2945  0.6263  0.6908
 2184SOL    HW218012   4.451   2.341  12.949  0.2088  0.9038 -0.6061
 2185SOL     OW18013   2.946   4.178   4.885  0.6831  0.4417 -0.6964
 2185SOL    HW118014   3.023   4.234   4.894  0.5894  0.9505 -3.1366
 2185SOL    HW218015   2.994   4.095   4.888  0.1174  0.0633 -2.1346
 2186SOL     OW18016   1.244   1.936   1.323 -0.1043  0.1910 -0.3218
 2186SOL    HW118017   1.177   1.992   1.362  0.8362 -0.1364  1.7272
 2186SOL    HW218018   1.295   1.902   1.396 -2.0285  0.9281  1.3711
 2187SOL     OW18019   0.971   0.203   9.056 -0.3411 -0.0418  0.8092
 2187SOL    HW118020   0.899   0.168   9.108  0.1009  0.0215  1.4692
 2187SOL    HW218021   0.980   0.142   8.984  1.6098  2.3962 -1.0205
 2188SOL     OW18022   2.273   4.297   9.745 -0.0183 -0.1614 -0.0463
 2188SOL    HW118023   2.256   4.212   9.784 -0.3998  0.0686  0.2787
 2188SOL    HW218024   2.187   4.338   9.741  0.2254  0.5360  1.9988
 2189SOL     OW18025   1.789   2.476   7.976 -0.3594 -0.2796  0.2016
 2189SOL    HW118026   1.853   2.547   7.979  0.6797 -1.2206  0.3226
 2189SOL    HW218027   1.767   2.479   7.883  2.7745  0.0559 -0.5458
 2190SOL     OW18028   2.000   1.343   6.043  0.1699 -0.1163  0.0252
 2190SOL    HW118029   2.054   1.411   6.001 -2.1437  2.5820  1.3839
 2190SOL    HW218030   2.059   1.296   6.102  0.6403  0.7874  0.2841
 2191SOL     OW18031   1.180   3.601   7.618 -0.2292  1.0545  0.2951
 2191SOL    HW118032   1.143   3.688   7.633 -0.0186  1.5324 -1.8471
 2191SOL    HW218033   1.103   3.554   7.650  0.4438  0.2733  0.7678
 2192SOL     OW18034   1.842   2.730   6.225 -0.4267 -0.5107 -0.3844
 2192SOL    HW118035   1.772   2.795   6.227 -1.6693 -1.8947  0.6250
 2192SOL    HW218036   1.866   2.725   6.133 -2.2382 -2.2336 -0.7401
 2193SOL     OW18037   4.623   4.620   3.798 -0.0823  0.1345  0.8189
 2193SOL    HW118038   4.658   4.620   3.709 -0.6802  2.1693  0.5735
 2193SOL    HW218039   4.531   4.630   3.771  0.1716  0.0161 -0.0678
 2194SOL     OW18040   3.521   4.249   5.741 -0.0606 -0.4644  0.3858
 2194SOL    HW118041   3.535   4.303   5.818 -0.5242 -0.3202  0.3701
 2194SOL    HW218042   3.593   4.277   5.684  0.4203 -0.6052  0.9301
 2195SOL     OW18043   2.765   1.221  12.422 -0.6890 -0.0424 -0.5742
 2195SOL    HW118044   2.801   1.152  12.478 -0.6391  0.6229  0.2109
 2195SOL    HW218045   2.798   1.302  12.460 -1.2812 -0.1640  0.2012
 2196SOL     OW18046   1.536   1.708   7.601 -0.2105  0.4588  0.0180
 2196SOL    HW118047   1.629   1.687   7.609  0.0761  1.4491 -0.7615
 2196SOL    HW218048   1.513   1.635   7.543 -0.4422 -0.5297  1.3533
 2197SOL     OW18049   3.946   2.552   3.901 -0.5283 -0.2951 -0.5611
 2197SOL    HW118050   3.906   2.620   3.846 -1.0936 -0.0428  0.1695
 2197SOL    HW218051   4.028   2.535   3.854  0.4250 -0.9008  1.3533
 2198SOL     OW18052   1.256   0.247   6.905 -0.4040 -1.0233  0.6416
 2198SOL    HW118053   1.187   0.244   6.971 -0.0032 -0.2576  1.0879
 2198SOL    HW218054   1.226   0.190   6.834  0.4936 -1.2876  0.4717
 2199SOL     OW18055   4.513   3.355  12.833  0.1841 -0.0778  0.1940
 2199SOL    HW118056   4.439   3.387  12.781  1.0689  1.3784 -0.1805
 2199SOL    HW218057   4.575   3.342  12.760  1.3260 -0.3501  1.2119
 2200SOL     OW18058   1.185   4.202   7.393  0.2096  0.5860 -0.5431
 2200SOL    HW118059   1.199   4.183   7.486 -0.3948  1.3066 -0.3078
 2200SOL    HW218060   1.277   4.203   7.367 -0.6400 -1.1749 -3.5722
 2201SOL     OW18061   2.140   1.398   5.638  0.5378 -0.4142  0.1990
 2201SOL    HW118062   2.223   1.427   5.675 -0.7895 -0.5438  3.2565
 2201SOL    HW218063   2.083   1.469   5.668  0.4157  0.1824 -1.4399
 2202SOL     OW18064   0.643   2.527   3.884  0.2092  0.3958 -0.2710
 2202SOL    HW118065   0.686   2.583   3.820  1.0119  0.4916  0.3502
 2202SOL    HW218066   0.596   2.596   3.931 -0.1650  0.2989 -0.4982
 2203SOL     OW18067   0.512   2.337   4.601  0.0128 -0.3429 -0.1171
 2203SOL    HW118068   0.555   2.325   4.516 -1.2801 -2.5641 -0.4569
 2203SOL    HW218069   0.536   2.262   4.655  4.0038  1.2901  0.4201
 2204SOL     OW18070   2.631   3.683   5.221  0.3524 -0.3011  0.0417
 2204SOL    HW118071   2.633   3.717   5.132  0.5705 -0.7123 -0.1087
 2204SOL    HW218072   2.648   3.589   5.216  1.7943 -0.1201  1.6523
 2205SOL     OW18073   0.998   2.757   6.989  0.0777  0.8206 -0.1886
 2205SOL    HW118074   0.973   2.681   7.041  0.7892  0.9128  0.2840
 2205SOL    HW218075   0.929   2.816   7.019 -0.1437  0.9349 -0.9122
 2206SOL     OW18076   1.964   1.534   3.773  0.1078 -0.1448  0.0553
 2206SOL    HW118077   2.017   1.585   3.834 -0.1789 -2.2971  2.0814
 2206SOL    HW218078   1.879   1.551   3.813  0.2258  1.7435 -0.4737
 2207SOL     OW18079   4.536   0.457  11.144 -0.2042  1.0316 -0.1014
 2207SOL    HW118080   4.516   0.379  11.195 -2.2225  1.5059 -0.1705
 2207SOL    HW218081   4.504   0.527  11.202  3.0912  2.2592  0.2509
 2208SOL     OW18082   2.050   2.493   4.290 -0.2516 -0.1537  0.5572
 2208SOL    HW118083   1.964   2.476   4.328 -1.4813 -0.2903 -2.2789
 2208SOL    HW218084   2.109   2.422   4.314 -1.9695 -1.4170  1.0211
 2209SOL     OW18085   3.427   3.258   0.525  0.5187 -0.5623  0.0901
 2209SOL    HW118086   3.508   3.245   0.476  0.5631  0.0170 -0.0009
 2209SOL    HW218087   3.356   3.216   0.476 -0.3332 -0.0978  0.9153
 2210SOL     OW18088   1.508   0.059  10.575 -0.1431  0.4779  0.4808
 2210SOL    HW118089   1.558   0.135  10.605 -0.4905  1.7388 -2.1230
 2210SOL    HW218090   1.506   0.008  10.656  0.9693  0.9830  0.8198
 2211SOL     OW18091   3.861   4.055   8.486 -0.2383  0.7153  0.1072
 2211SOL    HW118092   3.894   3.984   8.431 -2.2081  1.1949 -1.6978
 2211SOL    HW218093   3.824   4.004   8.558  0.1961 -0.2385 -0.3477
 2212SOL     OW18094   2.716   1.328  17.292  0.5337 -0.0613  0.0845
 2212SOL    HW118095   2.662   1.369  17.359  2.4667  2.6431 -0.0072
 2212SOL    HW218096   2.784   1.390  17.265 -2.2485  2.0091 -2.0764
 2213SOL     OW18097   1.852   3.137   2.044  1.1028  0.1645 -0.0112
 2213SOL    HW118098   1.769   3.097   2.069  0.8458 -0.3722 -1.7343
 2213SOL    HW218099   1.870   3.095   1.960 -1.6515  1.1157 -1.0978
 2214SOL     OW18100   0.417   2.019   4.182 -0.3663  1.3903  0.9722
 2214SOL    HW118101   0.497   2.004   4.130 -1.8624 -2.1563 -0.3241
 2214SOL    HW218102   0.438   1.963   4.257 -1.3376 -1.2922 -0.7480
 2215SOL     OW18103   4.503   4.232   9.057  0.0909  0.4720 -0.5066
 2215SOL    HW118104   4.532   4.319   9.085  0.3834  0.5092 -0.9177
 2215SOL    HW218105   4.419   4.251   9.014  0.0066 -0.6121 -0.8108
 2216SOL     OW18106   2.821   0.226   0.359 -0.3987 -0.4321 -0.9381
 2216SOL    HW118107   2.757   0.294   0.381  0.3824  0.3908 -1.1949
 2216SOL    HW218108   2.895   0.285   0.342 -0.1079 -0.5546 -0.1089
 2217SOL     OW18109   1.818   2.717   4.510  0.1590  0.2634 -0.1743
 2217SOL    HW118110   1.796   2.627   4.485 -0.3748  0.4326 -0.3194
 2217SOL    HW218111   1.739   2.728   4.562  1.0243  2.5506  0.6635
 2218SOL     OW18112   0.187   2.309  16.704 -0.2488 -0.1954 -0.6935
 2218SOL    HW118113   0.226   2.244  16.645  0.7877  1.9005 -2.2964
 2218SOL    HW218114   0.259   2.367  16.727  0.7090 -1.3835 -0.6748
 2219SOL     OW18115   3.511   2.116   9.626  0.3142 -0.6243  0.2871
 2219SOL    HW118116   3.435   2.170   9.602 -0.3813 -1.1141  1.3916
 2219SOL    HW218117   3.533   2.138   9.716 -1.0880  0.3635  0.3843
 2220SOL     OW18118   2.267   3.219  10.874 -0.3929  0.1645  0.1038
 2220SOL    HW118119   2.197   3.206  10.810 -0.6197  1.0272  0.1764
 2220SOL    HW218120   2.340   3.228  10.812  0.2181 -0.5450  0.7174
 2221SOL     OW18121   2.565   0.274  10.159 -0.6269  0.2372  0.4552
 2221SOL    HW118122   2.660   0.268  10.154 -0.7587 -2.3707  1.1269
 2221SOL    HW218123   2.537   0.282  10.068  0.8311  0.6380  0.0448
 2222SOL     OW18124   1.527   0.898   3.171  0.0834  0.1460 -0.2043
 2222SOL    HW118125   1.597   0.962   3.158  1.5010 -1.0783  1.3387
 2222SOL    HW218126   1.462   0.927   3.106  0.5134  1.7951  0.0884
 2223SOL     OW18127   2.381   2.353   0.016 -0.5642  0.2084  0.7298
 2223SOL    HW118128   2.458   2.398   0.052  1.2446 -1.0807 -1.5427
 2223SOL    HW218129   2.408   2.336  17.618 -1.6876  2.2241  0.0011
 2224SOL     OW18130   2.488   0.730   0.030 -0.1959 -0.4539 -0.0769
 2224SOL    HW118131   2.540   0.809   0.013 -1.0483 -0.0732 -0.9091
 2224SOL    HW218132   2.479   0.747   0.123 -1.3300  0.0795 -0.2862
 2225SOL     OW18133   0.294   4.031   8.665 -0.2281 -0.5176 -0.1644
 2225SOL    HW118134   0.305   3.991   8.751 -0.9327 -0.9745 -0.2826
 2225SOL    HW218135   0.321   3.962   8.604 -0.2595  0.3957 -1.1987
 2226SOL     OW18136   3.120   2.583   1.353  0.1180 -0.0532 -0.0899
 2226SOL    HW118137   3.129   2.488   1.352 -0.9972 -0.1516 -0.8203
 2226SOL    HW218138   3.203   2.611   1.392 -0.4226 -0.7604  1.5768
 2227SOL     OW18139   4.587   2.872   8.361  0.0839 -0.0322  0.0442
 2227SOL    HW118140   4.657   2.823   8.318 -1.6765 -1.1666 -1.4958
 2227SOL    HW218141   4.537   2.896   8.283 -0.0142  1.1797  0.4715
 2228SOL     OW18142   1.409   3.614  14.868 -0.3564 -0.0116  0.4363
 2228SOL    HW118143   1.445   3.564  14.941 -2.9664 -1.7526  0.5570
 2228SOL    HW218144   1.348   3.554  14.824  0.7533 -1.1983  0.5166
 2229SOL     OW18145   0.233   4.244  10.357 -0.1770 -0.1650 -0.0638
 2229SOL    HW118146   0.303   4.209  10.301  0.3207 -0.7596  0.9484
 2229SOL    HW218147   0.262   4.331  10.386  1.4131 -0.2661 -1.2957
 2230SOL     OW18148   1.884   2.097  11.067 -0.5816 -0.0436 -0.6290
 2230SOL    HW118149   1.914   2.065  10.981  1.5956 -2.5034  1.0324
 2230SOL    HW218150   1.805   2.147  11.046  1.3918  3.3076 -0.1684
 2231SOL     OW18151   2.011   3.041   9.031 -0.0892 -0.4763  0.8257
 2231SOL    HW118152   1.934   3.097   9.045 -1.4596 -2.2959  0.4982
 2231SOL    HW218153   2.056   3.057   9.114  0.6731 -1.4365  0.5866
 2232SOL     OW18154   0.936   1.639   6.122 -0.1008  0.1371  0.2658
 2232SOL    HW118155   0.992   1.695   6.177 -0.2103  1.0721 -0.5664
 2232SOL    HW218156   0.858   1.694   6.124  0.4633  0.9444  0.3207
 2233SOL     OW18157   0.314   1.735  13.072  0.2824  0.7556 -0.3179
 2233SOL    HW118158   0.363   1.726  12.989  1.9996 -1.7971  0.9664
 2233SOL    HW218159   0.339   1.653  13.114 -2.1289  0.3590  0.2865
 2234SOL     OW18160   1.966   2.638   1.348 -0.7310 -0.5916 -0.3560
 2234SOL    HW118161   1.993   2.573   1.413  0.4877 -0.3665 -0.6334
 2234SOL    HW218162   1.885   2.667   1.390 -0.9924 -1.1028 -0.5154
 2235SOL     OW18163   0.864   3.356   0.153 -0.2156 -0.2096 -0.4148
 2235SOL    HW118164   0.911   3.416   0.095  0.8994 -0.6833 -0.0158
 2235SOL    HW218165   0.830   3.419   0.217  1.0595  1.2350 -1.1541
 2236SOL     OW18166   1.837   1.925  11.326  0.6091 -0.1851  0.1321
 2236SOL    HW118167   1.787   1.859  11.374  0.7617 -1.5870 -1.6164
 2236SOL    HW218168   1.840   1.997  11.388  0.8786 -0.0783 -0.0081
 2237SOL     OW18169   4.606   0.411   5.830 -0.2333 -0.5891  0.0026
 2237SOL    HW118170   4.693   0.450   5.821 -0.7406  1.2515  3.1238
 2237SOL    HW218171   4.560   0.491   5.805 -0.5095 -0.5200  0.7397
 2238SOL     OW18172   4.260   1.543  10.938  0.1288  0.4646 -0.1869
 2238SOL    HW118173   4.333   1.559  10.998  0.9159  1.4533 -1.4143
 2238SOL    HW218174   4.308   1.537  10.856  2.2481  1.4563  0.9599
 2239SOL     OW18175   2.164   4.318   1.675  0.5527 -0.0169  0.4199
 2239SOL    HW118176   2.163   4.236   1.724  1.5538 -0.5594 -0.4748
 2239SOL    HW218177   2.099   4.365   1.728 -0.4025 -0.9688  0.0872
 2240SOL     OW18178   0.433   3.440   5.610 -0.4844 -0.1960 -0.2555
 2240SOL    HW118179   0.448   3.346   5.608 -0.1150 -0.1202 -1.4497
 2240SOL    HW218180   0.517   3.467   5.647 -0.5224 -0.6835  0.1786
 2241SOL     OW18181   3.348   4.698  15.914 -0.5281 -0.2319  0.0975
 2241SOL    HW118182   3.403   4.627  15.882 -0.0237  0.7581 -1.2355
 2241SOL    HW218183   3.368   0.040  15.845 -1.1231  1.4580  1.5101
 2242SOL     OW18184   2.650   4.487   8.187 -0.2726 -0.1069 -0.2349
 2242SOL    HW118185   2.617   4.562   8.137  1.0854  0.3523 -0.4372
 2242SOL    HW218186   2.720   4.536   8.230 -0.5733 -0.4257  0.6159
 2243SOL     OW18187   3.506   3.407   2.271 -0.1414 -0.4716 -0.1059
 2243SOL    HW118188   3.444   3.334   2.274  0.0327 -0.5846  0.7366
 2243SOL    HW218189   3.586   3.364   2.301 -0.1270  0.7698  1.6520
 2244SOL     OW18190   2.111   0.722   2.784 -0.1199 -0.1248 -0.3678
 2244SOL    HW118191   2.069   0.790   2.836  2.7151  1.6979 -0.4199
 2244SOL    HW218192   2.110   0.762   2.697  2.6360 -2.7822 -1.6147
 2245SOL     OW18193   0.761   2.997   8.643  0.2925 -0.3354  0.2227
 2245SOL    HW118194   0.742   2.905   8.661  1.7094 -1.0936 -2.2533
 2245SOL    HW218195   0.824   2.983   8.573  1.3879 -1.1107  1.3568
 2246SOL     OW18196   3.170   1.146   2.404 -0.3806  0.3916  0.2889
 2246SOL    HW118197   3.196   1.173   2.492  1.8907 -0.2524 -0.1702
 2246SOL    HW218198   3.116   1.070   2.426  0.7287 -0.2780  0.6939
 2247SOL     OW18199   1.643   1.960   9.058 -0.0783  0.4491  0.5993
 2247SOL    HW118200   1.733   1.952   9.090 -0.1223  2.0001  1.1509
 2247SOL    HW218201   1.602   1.893   9.113 -1.4423  1.8269  1.2711
 2248SOL     OW18202   4.374   3.744   5.251  0.2740 -0.2976 -0.1816
 2248SOL    HW118203   4.444   3.731   5.187  2.8820  0.5014  2.5333
 2248SOL    HW218204   4.397   3.828   5.290  0.1719  0.0285 -0.8215
 2249SOL     OW18205   3.175   2.436   7.845 -0.3015  0.0330  0.5083
 2249SOL    HW118206   3.090   2.448   7.888 -1.8244 -2.4612 -1.7129
 2249SOL    HW218207   3.233   2.507   7.871  0.7093 -0.7591  0.4056
 2250SOL     OW18208   2.411   4.696   2.657 -0.4132  0.0155 -0.9765
 2250SOL    HW118209   2.430   0.019   2.739  0.7083  0.4151 -1.4549
 2250SOL    HW218210   2.464   0.020   2.592 -0.4942  0.3614 -0.7914
 2251SOL     OW18211   3.664   0.719  15.531 -0.3603 -0.3865 -0.2075
 2251SOL    HW118212   3.657   0.742  15.439  2.7238  0.2096 -0.3038
 2251SOL    HW218213   3.702   0.631  15.522  1.9958  0.5787  0.3552
 2252SOL     OW18214   1.739   4.650   2.956 -0.0541  0.1207  0.1783
 2252SOL    HW118215   1.755   4.664   3.049  3.2114 -0.1707 -0.3387
 2252SOL    HW218216   1.782   0.006   2.922 -1.2974 -0.5632 -2.9845
 2253SOL     OW18217   3.939   3.311   4.462 -0.0911 -0.4291  0.9023
 2253SOL    HW118218   3.912   3.223   4.488  0.2100 -0.9283 -0.4588
 2253SOL    HW218219   4.004   3.327   4.531 -0.6423  0.2113  1.2703
 2254SOL     OW18220   2.883   2.562  11.513 -0.2233 -0.4658 -0.2809
 2254SOL    HW118221   2.871   2.510  11.434  1.0038  1.0234 -1.4522
 2254SOL    HW218222   2.965   2.604  11.487  0.0984 -0.7852  0.2105
 2255SOL     OW18223   0.006   4.644   5.990 -0.4632  0.1348  0.2720
 2255SOL    HW118224   4.718   4.659   6.084 -3.4944 -1.9220  0.2453
 2255SOL    HW218225   0.022   4.550   5.992  1.0150  0.3777  0.3248
 2256SOL     OW18226   3.034   1.724  17.478 -0.0117 -0.0091  0.3814
 2256SOL    HW118227   3.124   1.704  17.505  0.7639 -0.8058 -2.8444
 2256SOL    HW218228   3.045   1.711  17.384  2.0971  0.4334  0.5575
 2257SOL     OW18229   2.286   0.731   8.353 -0.2874  0.1468 -0.6847
 2257SOL    HW118230   2.332   0.653   8.322 -0.5438 -0.1422 -0.3536
 2257SOL    HW218231   2.291   0.800   8.287  0.6746  0.3826 -0.3538
 2258SOL     OW18232   1.391   1.500   3.818  0.5016 -0.4847 -0.1234
 2258SOL    HW118233   1.387   1.595   3.807 -0.1371 -0.4924  0.0045
 2258SOL    HW218234   1.379   1.497   3.913 -0.1901  2.2347 -0.1389
 2259SOL     OW18235   2.332   1.555   3.750 -0.5427  0.1244 -0.4600
 2259SOL    HW118236   2.262   1.509   3.703  0.1427  1.6669 -3.0156
 2259SOL    HW218237   2.326   1.642   3.710  0.7613  0.0955 -0.7304
 2260SOL     OW18238   1.205   2.617   2.109  0.1494 -0.1050  0.1593
 2260SOL    HW118239   1.132   2.555   2.105 -0.8457  1.2471 -2.0909
 2260SOL    HW218240   1.271   2.587   2.046  0.3509 -1.7433  1.1448
 2261SOL     OW18241   1.295   4.696   0.609 -0.0850  0.2279 -0.8902
 2261SOL    HW118242   1.376   4.677   0.563  0.1336 -1.6602  0.2865
 2261SOL    HW218243   1.258   0.049   0.564 -2.0702  1.0896  2.1776
 2262SOL     OW18244   0.835   3.954   1.517  0.6874 -0.2390  0.1210
 2262SOL    HW118245   0.766   3.912   1.465  0.0343 -0.4385  1.1463
 2262SOL    HW218246   0.903   3.888   1.502  0.4352  0.1596 -2.8601
 2263SOL     OW18247   0.375   1.384  11.689  0.5701  0.2556 -0.5815
 2263SOL    HW118248   0.302   1.444  11.699  0.7713  0.4579 -0.3294
 2263SOL    HW218249   0.449   1.432  11.727  1.8094 -0.6680 -1.7879
 2264SOL     OW18250   0.671   0.341   1.238  0.2843  0.3408 -0.4587
 2264SOL    HW118251   0.758   0.333   1.276  0.3704  0.0577 -0.7177
 2264SOL    HW218252   0.674   0.272   1.171  0.6089  1.5161 -1.6530
 2265SOL     OW18253   4.396   1.187   2.931  0.0631  1.0691 -0.0558
 2265SOL    HW118254   4.437   1.116   2.981 -0.4715  1.6322  1.1656
 2265SOL    HW218255   4.475   1.218   2.886  0.4600  0.4549  0.2212
 2266SOL     OW18256   4.064   4.029   3.868 -0.0386 -0.1882 -0.1425
 2266SOL    HW118257   3.974   4.057   3.851 -0.4511 -0.3241  1.7339
 2266SOL    HW218258   4.115   4.106   3.843  0.2624 -0.3827 -0.1337
 2267SOL     OW18259   3.314   3.877   6.397  0.3131 -0.2546  0.0649
 2267SOL    HW118260   3.316   3.900   6.304  3.4016  1.6370  0.5964
 2267SOL    HW218261   3.234   3.923   6.422  1.5978  0.5333  2.7648
 2268SOL     OW18262   3.674   1.421   7.375  0.1254  0.0591  0.2365
 2268SOL    HW118263   3.760   1.460   7.358  0.8588 -1.5086  0.4270
 2268SOL    HW218264   3.623   1.452   7.300  2.3110 -0.1707 -1.3241
 2269SOL     OW18265   2.755   1.301  13.282  0.3736 -0.6473 -0.5345
 2269SOL    HW118266   2.682   1.266  13.335 -0.4477 -2.7176 -3.0391
 2269SOL    HW218267   2.830   1.259  13.325  0.9424 -0.9015 -1.7809
 2270SOL     OW18268   4.061   1.241   7.629 -0.4484 -0.0047  0.1232
 2270SOL    HW118269   3.971   1.216   7.652 -0.6008 -0.4674 -0.9380
 2270SOL    HW218270   4.049   1.284   7.544  0.3641  1.4137  0.7332
 2271SOL     OW18271   2.911   0.276   7.926 -0.3268  0.2175  0.6586
 2271SOL    HW118272   2.851   0.209   7.960  0.2545 -0.2018  0.8640
 2271SOL    HW218273   2.994   0.256   7.971 -0.3178 -0.9443  0.1105
 2272SOL     OW18274   2.895   0.640   7.116  0.4438  0.5124 -0.2013
 2272SOL    HW118275   2.871   0.591   7.037 -1.8054  1.5997 -0.2120
 2272SOL    HW218276   2.813   0.686   7.134  1.4600  2.1205  0.2772
 2273SOL     OW18277   3.448   4.374  14.501  0.1293  0.1672  0.4883
 2273SOL    HW118278   3.396   4.435  14.449 -0.9692 -1.3631 -0.1842
 2273SOL    HW218279   3.400   4.294  14.483  1.1050 -0.0544 -1.1910
 2274SOL     OW18280   2.713   1.861   4.532 -0.5194 -0.8650 -0.1337
 2274SOL    HW118281   2.655   1.920   4.579 -0.8274 -0.6196 -0.8173
 2274SOL    HW218282   2.658   1.835   4.457  0.9608 -0.1364 -1.4590
 2275SOL     OW18283   1.277   1.013   5.096 -0.2069 -0.2590 -0.1199
 2275SOL    HW118284   1.186   1.018   5.066 -0.6134  1.0880  1.3278
 2275SOL    HW218285   1.266   0.993   5.189  3.3809  0.5695  0.4882
 2276SOL     OW18286   0.732   0.901   3.545  0.2686  0.0622  0.2956
 2276SOL    HW118287   0.733   0.819   3.494  0.7714 -0.3154  0.9283
 2276SOL    HW218288   0.714   0.868   3.633  4.5480 -1.8514  0.4565
 2277SOL     OW18289   1.636   4.285   2.961 -0.5457 -0.3259 -0.1811
 2277SOL    HW118290   1.562   4.235   2.997 -0.0095 -1.6369 -0.8953
 2277SOL    HW218291   1.600   4.356   2.908  0.5113 -1.2169 -2.0924
 2278SOL     OW18292   2.733   1.308  11.418 -0.4424 -0.2716  0.1870
 2278SOL    HW118293   2.641   1.290  11.435 -0.9947  1.5787 -0.8042
 2278SOL    HW218294   2.735   1.404  11.413 -0.3455 -0.2261  1.1434
 2279SOL     OW18295   3.962   0.099   8.760  0.5205  0.4714 -0.1338
 2279SOL    HW118296   3.922   0.013   8.753 -1.1057  1.0825  1.6489
 2279SOL    HW218297   3.890   0.149   8.722  0.3676  0.3972  0.0576
 2280SOL     OW18298   1.371   2.707   0.337  0.1017 -0.9221 -0.3640
 2280SOL    HW118299   1.387   2.796   0.305 -1.3392 -0.4283  0.2719
 2280SOL    HW218300   1.277   2.704   0.317  0.3890  0.0798 -1.8956
 2281SOL     OW18301   0.519   0.130   3.633  0.1645  0.5223 -0.0832
 2281SOL    HW118302   0.536   0.041   3.664 -1.3849 -0.2890 -1.5378
 2281SOL    HW218303   0.604   0.170   3.615  1.2846 -0.6063  2.7092
 2282SOL     OW18304   1.664   3.521  15.924 -0.3521 -0.0838 -0.8540
 2282SOL    HW118305   1.692   3.586  15.859  1.9926 -1.3322 -1.0810
 2282SOL    HW218306   1.674   3.560  16.010  2.4603  2.2195 -2.2282
 2283SOL     OW18307   2.610   2.668   6.823 -0.0039  0.0747 -0.0485
 2283SOL    HW118308   2.695   2.708   6.807  0.5836 -2.3148 -2.9357
 2283SOL    HW218309   2.600   2.681   6.917 -0.5454 -0.4813 -0.0289
 2284SOL     OW18310   2.958   4.197  11.882  0.5473 -0.1883 -0.1952
 2284SOL    HW118311   3.050   4.193  11.858  0.5348  0.6199 -0.3837
 2284SOL    HW218312   2.943   4.109  11.915 -0.9770 -0.2467 -1.0401
 2285SOL     OW18313   1.215   3.667   4.521  0.5769 -0.1425  0.2213
 2285SOL    HW118314   1.148   3.717   4.566 -1.9037 -2.0264 -1.3833
 2285SOL    HW218315   1.218   3.598   4.587  0.5180  1.1517  1.5556
 2286SOL     OW18316   2.079   2.978   4.866  0.6288 -0.2050 -0.7397
 2286SOL    HW118317   2.004   2.990   4.808  1.0307 -0.1706 -1.2462
 2286SOL    HW218318   2.143   2.999   4.798  0.1838  0.5215 -0.9352
 2287SOL     OW18319   2.892   1.083   8.974 -0.7063 -0.0475  0.5761
 2287SOL    HW118320   2.879   1.034   8.893 -1.3907  3.2217 -1.3077
 2287SOL    HW218321   2.961   1.033   9.019  0.5569 -0.0989 -1.4032
 2288SOL     OW18322   1.928   2.322   0.958  0.2274  0.3051 -0.0975
 2288SOL    HW118323   1.861   2.329   1.027  0.1364 -0.2893 -0.1278
 2288SOL    HW218324   1.907   2.231   0.938 -2.8396  0.5252  2.0013
 2289SOL     OW18325   0.086   4.376   8.034 -0.2716  0.4829  0.5514
 2289SOL    HW118326   4.715   4.392   8.019 -0.0977 -0.7302 -1.7811
 2289SOL    HW218327   0.086   4.281   8.043  0.2997  0.5140  0.8434
 2290SOL     OW18328   2.711   2.015   1.926 -0.2053  0.6641 -0.2636
 2290SOL    HW118329   2.739   2.105   1.941  1.8482  0.0272 -0.3369
 2290SOL    HW218330   2.649   2.035   1.855 -0.2999  0.4541 -0.2412
 2291SOL     OW18331   0.194   2.019   2.393  0.2582 -0.3913  0.3437
 2291SOL    HW118332   0.124   1.995   2.453  0.0224  1.9825  0.9990
 2291SOL    HW218333   0.151   2.090   2.345  2.1773 -0.1744 -1.0573
 2292SOL     OW18334   0.511   4.185   9.062  0.6164 -0.0714  0.3534
 2292SOL    HW118335   0.564   4.109   9.036  0.4385  0.2016 -0.8113
 2292SOL    HW218336   0.442   4.157   9.121  0.7152 -0.5407  0.2451
 2293SOL     OW18337   2.884   4.291   4.392 -0.1858 -0.1327  0.2930
 2293SOL    HW118338   2.912   4.209   4.350 -0.1851  0.4587 -0.8557
 2293SOL    HW218339   2.961   4.347   4.383  0.4017 -1.1656 -1.1146
 2294SOL     OW18340   1.383   4.022   9.106  0.3897  0.0100 -0.5270
 2294SOL    HW118341   1.414   4.032   9.016  0.7779 -0.1821 -0.4153
 2294SOL    HW218342   1.338   4.106   9.115 -0.9904 -0.9456  1.4824
 2295SOL     OW18343   4.212   4.344   7.963  0.4302  0.5535 -0.4008
 2295SOL    HW118344   4.186   4.411   8.027 -1.1019 -1.3057  0.9252
 2295SOL    HW218345   4.297   4.324   8.003  0.3923 -0.6289 -0.9299
 2296SOL     OW18346   2.056   3.339   5.956 -0.3844  0.1094 -0.7201
 2296SOL    HW118347   2.126   3.372   5.900  1.5658  0.2246  1.7866
 2296SOL    HW218348   2.011   3.421   5.974  0.9640  0.8505 -0.7350
 2297SOL     OW18349   3.131   1.960   0.435 -0.4160 -0.0883 -0.1207
 2297SOL    HW118350   3.038   1.956   0.410 -0.7539  1.5579  0.8951
 2297SOL    HW218351   3.123   2.041   0.485  0.1754 -1.1291  1.6513
 2298SOL     OW18352   1.427   2.094   8.944 -0.1581  0.6274 -0.1689
 2298SOL    HW118353   1.499   2.039   8.976 -2.4151 -1.5855  1.1638
 2298SOL    HW218354   1.357   2.063   9.001 -0.8961 -0.3241 -1.5831
 2299SOL     OW18355   2.080   3.980  12.563  0.0018 -0.1395  0.1195
 2299SOL    HW118356   2.104   4.058  12.513  0.3793 -0.9660 -0.9939
 2299SOL    HW218357   1.998   3.972  12.514 -0.0932  2.3504 -0.1083
 2300SOL     OW18358   3.013   4.165  15.476 -0.5002 -0.6453  0.5658
 2300SOL    HW118359   2.987   4.107  15.404 -0.2091 -1.4034  1.0659
 2300SOL    HW218360   2.924   4.194  15.499 -0.9474 -0.7961 -0.9358
 2301SOL     OW18361   3.999   0.202   0.691  0.2422 -0.1485 -0.2853
 2301SOL    HW118362   3.990   0.238   0.779 -0.4483  0.9519 -0.8135
 2301SOL    HW218363   4.057   0.128   0.712 -1.3791 -0.5932  2.5753
 2302SOL     OW18364   2.446   2.781  14.838 -0.0643 -0.4164  0.2956
 2302SOL    HW118365   2.417   2.748  14.753 -0.6519 -1.3336  0.8492
 2302SOL    HW218366   2.502   2.854  14.814 -2.1289  1.4528  1.1979
 2303SOL     OW18367   4.009   0.135  14.596 -0.3260 -0.4898  0.4175
 2303SOL    HW118368   3.958   0.111  14.674  0.4485 -1.0625  0.7464
 2303SOL    HW218369   3.975   0.082  14.524  1.8070  1.6367 -2.1668
 2304SOL     OW18370   3.625   3.061   3.978 -0.6342  0.1096 -0.6888
 2304SOL    HW118371   3.551   3.005   3.955 -1.6790  1.2209  0.0605
 2304SOL    HW218372   3.647   3.099   3.893  1.3835  3.5191  1.3287
 2305SOL     OW18373   4.052   3.629   5.216  0.6585  0.3574  0.6411
 2305SOL    HW118374   4.098   3.578   5.149 -0.8664  0.1843 -0.2746
 2305SOL    HW218375   4.124   3.632   5.280  0.3148 -0.8947  1.0910
 2306SOL     OW18376   3.289   2.420  11.360  0.6272 -0.4233 -0.3318
 2306SOL    HW118377   3.251   2.476  11.292  1.3261 -1.7785 -1.8293
 2306SOL    HW218378   3.344   2.480  11.410  0.3620  0.7439 -1.4285
 2307SOL     OW18379   2.551   2.268   8.086 -0.0132 -0.1294  0.2786
 2307SOL    HW118380   2.574   2.303   8.173  0.1368 -0.0974  0.2269
 2307SOL    HW218381   2.607   2.191   8.084  0.5788  0.3666 -2.2665
 2308SOL     OW18382   1.958   3.083   7.959 -0.3371 -0.4145 -0.3307
 2308SOL    HW118383   1.882   3.033   7.931  0.9780 -2.4092 -0.2779
 2308SOL    HW218384   1.996   3.056   8.043 -2.2968 -1.0563  0.3523
 2309SOL     OW18385   1.208   0.355   6.120  0.9299 -0.3360  0.3600
 2309SOL    HW118386   1.151   0.345   6.043 -0.9741  0.9108  1.6118
 2309SOL    HW218387   1.283   0.393   6.076  1.1924  0.6772  1.6924
 2310SOL     OW18388   1.301   3.933   3.468  0.1007  0.1328 -0.0112
 2310SOL    HW118389   1.299   3.912   3.375 -2.5721 -1.5445  0.4167
 2310SOL    HW218390   1.387   3.971   3.485  0.0394  1.3852 -2.5060
 2311SOL     OW18391   3.751   0.444  12.008  0.1179 -0.2571  0.2306
 2311SOL    HW118392   3.840   0.422  12.035  0.1935  2.3997  2.0965
 2311SOL    HW218393   3.702   0.437  12.091  0.6825  2.9047  0.7989
 2312SOL     OW18394   1.968   1.204   3.933  0.0565 -0.0605  0.5525
 2312SOL    HW118395   2.045   1.244   3.974 -1.0873  1.4672  1.2098
 2312SOL    HW218396   1.995   1.185   3.843  0.4306 -0.8249  0.8227
 2313SOL     OW18397   3.796   4.359   3.150  0.3635 -0.4680  0.0460
 2313SOL    HW118398   3.821   4.269   3.128  1.1109 -0.6689  1.6947
 2313SOL    HW218399   3.708   4.367   3.113  1.5888  0.6358 -2.6082
 2314SOL     OW18400   3.664   1.467   8.391 -0.1556 -0.2824 -0.0296
 2314SOL    HW118401   3.650   1.532   8.460  0.0256  0.7752 -0.9949
 2314SOL    HW218402   3.584   1.416   8.407  1.5320 -2.6827  0.8399
 2315SOL     OW18403   3.186   0.700   4.447  0.2203  0.4907 -0.1019
 2315SOL    HW118404   3.245   0.775   4.452 -0.6251  1.3338 -2.5135
 2315SOL    HW218405   3.205   0.661   4.532  1.1186  2.5665  0.6665
 2316SOL     OW18406   4.418   0.263   5.691 -0.0584 -0.2468 -0.1039
 2316SOL    HW118407   4.481   0.190   5.684  0.2847 -0.0500  0.9735
 2316SOL    HW218408   4.463   0.314   5.758 -1.1794  1.0544 -0.3426
 2317SOL     OW18409   2.339   0.728   1.306 -0.1874  0.3674  0.4692
 2317SOL    HW118410   2.329   0.739   1.401  0.0106  1.4920  0.3592
 2317SOL    HW218411   2.434   0.710   1.306  0.2492  2.5231  6.6925
 2318SOL     OW18412   3.128   3.294   7.127  0.2669  0.3457 -0.0419
 2318SOL    HW118413   3.139   3.369   7.068 -0.7262  0.0233 -0.6372
 2318SOL    HW218414   3.091   3.333   7.206  3.2607 -0.4146  1.7498
 2319SOL     OW18415   1.135   0.123   8.662  0.4014 -0.4607 -0.1808
 2319SOL    HW118416   1.043   0.104   8.678  0.8332  0.8391  3.9126
 2319SOL    HW218417   1.133   0.218   8.647 -1.4352 -0.4010  0.4902
 2320SOL     OW18418   3.578   1.953   5.262 -0.3237  0.2619 -0.2470
 2320SOL    HW118419   3.613   2.035   5.227 -1.8482  1.0025 -0.0405
 2320SOL    HW218420   3.505   1.992   5.310  0.3182 -1.5554  2.1964
 2321SOL     OW18421   2.577   0.483   2.215  0.4064  0.2555  0.1862
 2321SOL    HW118422   2.598   0.505   2.124  2.9776  2.2582  1.2740
 2321SOL    HW218423   2.490   0.523   2.212  0.9606  1.6319  2.2583
 2322SOL     OW18424   0.595   1.680  15.142  0.0985 -0.0271  0.2279
 2322SOL    HW118425   0.677   1.713  15.106 -0.9741  1.3824 -0.9547
 2322SOL    HW218426   0.606   1.586  15.127 -3.4473 -0.2837 -0.7578
 2323SOL     OW18427   3.385   4.532   8.016  0.3709 -0.4965  0.4114
 2323SOL    HW118428   3.392   4.473   7.941  0.0789  1.8647 -1.4418
 2323SOL    HW218429   3.426   4.478   8.084 -1.4164 -2.1883  0.1445
 2324SOL     OW18430   3.821   2.490   3.142 -0.1325 -0.2193  0.3271
 2324SOL    HW118431   3.859   2.575   3.164 -0.2848 -0.4501  1.4709
 2324SOL    HW218432   3.727   2.500   3.154 -0.3279 -1.2182 -0.3445
 2325SOL     OW18433   4.443   1.027  14.594  0.0115 -0.0534  0.1766
 2325SOL    HW118434   4.500   0.970  14.542  1.4296  1.2742  0.2798
 2325SOL    HW218435   4.498   1.064  14.663  1.0177 -0.2857 -0.5054
 2326SOL     OW18436   0.333   0.094   9.203 -0.4750  0.2369  0.6634
 2326SOL    HW118437   0.249   0.122   9.165  0.3720 -0.0736 -1.4245
 2326SOL    HW218438   0.345   0.150   9.280 -0.9623 -1.1905  1.7788
 2327SOL     OW18439   0.476   1.911   1.077  0.1971 -0.0168  0.4906
 2327SOL    HW118440   0.391   1.904   1.120 -0.7143 -3.8361 -1.8904
 2327SOL    HW218441   0.479   1.820   1.047 -1.8729 -0.2774  1.0595
 2328SOL     OW18442   1.339   4.063   8.282 -0.7461 -0.1133  0.2056
 2328SOL    HW118443   1.296   4.131   8.229  0.2522 -0.7322 -1.4099
 2328SOL    HW218444   1.360   4.127   8.350 -2.4593 -0.2520  0.8507
 2329SOL     OW18445   3.650   0.827   9.174 -0.3035 -0.2628  0.0952
 2329SOL    HW118446   3.677   0.793   9.259  0.3017  0.5751  0.2337
 2329SOL    HW218447   3.602   0.749   9.144 -0.5639  0.1873 -0.6430
 2330SOL     OW18448   4.348   1.209   4.213 -0.0263 -0.2055  0.4377
 2330SOL    HW118449   4.296   1.135   4.181 -1.0315  0.7107 -0.0514
 2330SOL    HW218450   4.433   1.170   4.233  0.4022 -0.5601 -2.1048
 2331SOL     OW18451   0.640   2.848   6.855  0.1524  0.6658 -0.4343
 2331SOL    HW118452   0.547   2.862   6.873 -0.0499 -3.8119  2.0928
 2331SOL    HW218453   0.676   2.870   6.941 -0.3577  1.0629 -0.3260
 2332SOL     OW18454   3.219   0.768   9.179  0.6961  0.2030 -0.5106
 2332SOL    HW118455   3.247   0.677   9.177  2.6061  0.8175 -2.3580
 2332SOL    HW218456   3.267   0.796   9.257 -0.2217  2.1739 -0.6446
 2333SOL     OW18457   1.716   4.050   6.371 -0.0152  0.1624 -0.6405
 2333SOL    HW118458   1.627   4.041   6.405  0.2107 -1.1491 -0.3964
 2333SOL    HW218459   1.750   4.100   6.446  1.6034  0.0303 -1.2785
 2334SOL     OW18460   3.438   2.980  17.534  0.1028  0.1967 -0.8837
 2334SOL    HW118461   3.375   3.052  17.542  2.0708  1.6936  1.1800
 2334SOL    HW218462   3.525   3.020  17.544  0.1043 -0.0445  0.1169
 2335SOL     OW18463   1.901   2.702   0.749  0.2324 -0.3190  0.3950
 2335SOL    HW118464   1.965   2.769   0.775 -0.8197  1.3574 -1.2977
 2335SOL    HW218465   1.949   2.655   0.681  0.8134  2.3263 -1.0619
 2336SOL     OW18466   0.322   0.096   4.454 -0.3401  0.5770 -0.0881
 2336SOL    HW118467   0.319   0.126   4.545 -1.0010  0.4811 -0.0794
 2336SOL    HW218468   0.229   0.111   4.439  0.2933  1.0753 -3.4271
 2337SOL     OW18469   4.422   1.273   4.608  0.1471 -0.6506  0.6932
 2337SOL    HW118470   4.342   1.322   4.589 -0.2606 -2.2317 -1.7965
 2337SOL    HW218471   4.462   1.342   4.661  0.1752  0.3881 -0.6755
 2338SOL     OW18472   3.005   2.425   5.176 -0.1354  0.5362  0.4108
 2338SOL    HW118473   2.989   2.333   5.195  2.3487  0.6910  3.2503
 2338SOL    HW218474   3.093   2.428   5.212  0.1460  1.4397 -0.3358
 2339SOL     OW18475   4.151   2.316  17.330 -0.3797 -0.0054  0.1001
 2339SOL    HW118476   4.182   2.317  17.420  0.8571  0.5917 -0.3341
 2339SOL    HW218477   4.234   2.358  17.306 -0.0302 -1.2106 -0.7755
 2340SOL     OW18478   3.324   4.456  17.000 -0.1146 -0.2292  0.2606
 2340SOL    HW118479   3.259   4.461  16.930 -1.5591  4.0392  1.8639
 2340SOL    HW218480   3.399   4.437  16.943  0.2847 -0.7547  0.9608
 2341SOL     OW18481   2.173   3.449   3.207  0.1216 -0.3494 -0.4057
 2341SOL    HW118482   2.216   3.488   3.130 -3.0067  0.4469 -1.7571
 2341SOL    HW218483   2.191   3.357   3.187  1.2695  0.0569 -1.2163
 2342SOL     OW18484   0.110   4.012   3.632  0.6778 -0.0777 -0.0369
 2342SOL    HW118485   0.181   3.978   3.578  1.0617  2.3149 -1.0378
 2342SOL    HW218486   0.044   3.943   3.636 -0.8514  1.3568 -0.4678
 2343SOL     OW18487   1.330   1.243   6.222  0.0118  0.4425  0.1736
 2343SOL    HW118488   1.331   1.229   6.316  1.8768 -0.5980 -0.0010
 2343SOL    HW218489   1.418   1.275   6.206 -0.3081  1.6289  0.7183
 2344SOL     OW18490   2.144   3.706   0.396  0.5061 -0.3697 -0.2012
 2344SOL    HW118491   2.219   3.646   0.394 -1.2047 -2.5954  1.4807
 2344SOL    HW218492   2.095   3.656   0.331 -1.4232  0.3815  0.6936
 2345SOL     OW18493   4.567   3.807   2.475 -0.0005  0.1548 -1.1267
 2345SOL    HW118494   4.594   3.893   2.442 -0.6162  0.3758 -1.0478
 2345SOL    HW218495   4.592   3.817   2.567  0.9416 -0.9526 -1.2669
 2346SOL     OW18496   1.401   4.247   8.491  0.6958 -0.2081 -0.1277
 2346SOL    HW118497   1.443   4.224   8.573  1.0794  0.8446 -0.0251
 2346SOL    HW218498   1.461   4.311   8.452  1.2853 -0.2149  0.7744
 2347SOL     OW18499   3.353   3.110   5.643 -0.4177  0.1566 -0.2413
 2347SOL    HW118500   3.309   3.035   5.604 -1.4797  0.2193  0.8659
 2347SOL    HW218501   3.282   3.174   5.651 -0.7082 -0.4195  1.7728
 2348SOL     OW18502   0.701   3.692   8.174 -0.0350  0.3778 -0.2683
 2348SOL    HW118503   0.639   3.644   8.120  1.1426 -0.3224 -1.0038
 2348SOL    HW218504   0.643   3.749   8.225 -1.1442 -0.3756 -0.7043
 2349SOL     OW18505   3.150   3.287   5.636 -0.3284 -0.2539 -0.3440
 2349SOL    HW118506   3.055   3.300   5.633 -0.3983 -1.1695 -2.1413
 2349SOL    HW218507   3.169   3.306   5.544 -0.1559 -1.9793 -0.6676
 2350SOL     OW18508   1.497   3.842  13.821  0.1583 -0.2304 -0.0862
 2350SOL    HW118509   1.471   3.922  13.775  0.8624  0.3110  0.4661
 2350SOL    HW218510   1.582   3.874  13.853  0.5898 -0.7878 -0.6846
 2351SOL     OW18511   1.187   1.915   3.229  0.8745 -0.0089  0.4151
 2351SOL    HW118512   1.141   1.960   3.301  2.3673  0.7284  0.9010
 2351SOL    HW218513   1.271   1.959   3.241  0.9134 -0.5615  2.2522
 2352SOL     OW18514   3.314   0.580   8.210  0.1409  0.2253  0.0015
 2352SOL    HW118515   3.401   0.555   8.179 -0.5391  0.5239 -2.1798
 2352SOL    HW218516   3.345   0.626   8.288  0.3374  1.2731 -0.6934
 2353SOL     OW18517   1.043   4.458   8.306  0.2927  0.0616 -0.0842
 2353SOL    HW118518   1.095   4.537   8.320  1.4993 -0.8483  0.5119
 2353SOL    HW218519   0.994   4.489   8.230  0.2509  0.7197  0.2125
 2354SOL     OW18520   1.677   0.768   6.831 -0.3352 -0.3340 -0.2948
 2354SOL    HW118521   1.723   0.817   6.763  0.1948 -0.4343 -0.0031
 2354SOL    HW218522   1.743   0.755   6.899 -1.3311 -1.3377  0.4835
 2355SOL     OW18523   2.187   1.114   1.749  0.1156  0.7304  0.7835
 2355SOL    HW118524   2.258   1.082   1.693  0.0845 -0.2009  1.2725
 2355SOL    HW218525   2.236   1.144   1.826 -0.9674  2.5431  0.7612
 2356SOL     OW18526   3.105   3.502  16.816  0.3531 -0.0016 -0.4008
 2356SOL    HW118527   3.195   3.490  16.784  0.7444 -0.3531  0.8233
 2356SOL    HW218528   3.086   3.424  16.867  2.4417 -0.5461 -0.4471
 2357SOL     OW18529   0.767   0.096   7.011 -0.2028 -0.2496  0.3095
 2357SOL    HW118530   0.728   0.086   7.098 -2.4324 -1.0381 -0.7815
 2357SOL    HW218531   0.737   0.184   6.990  0.0257 -0.0021  1.0199
 2358SOL     OW18532   4.584   0.262   3.063 -0.1476 -0.3079  0.2776
 2358SOL    HW118533   4.517   0.233   3.124 -1.5195  1.0777 -0.5824
 2358SOL    HW218534   4.633   0.179   3.069 -1.3795 -1.0738 -0.2431
 2359SOL     OW18535   2.653   2.165   7.382 -0.5694 -0.1718  0.4937
 2359SOL    HW118536   2.651   2.189   7.474 -0.3541  0.9091  0.2102
 2359SOL    HW218537   2.678   2.073   7.395 -3.2089 -0.8380  0.9048
 2360SOL     OW18538   1.138   3.401   3.845 -0.2503 -0.0993 -0.0085
 2360SOL    HW118539   1.125   3.473   3.782  2.4920 -1.2459 -1.9103
 2360SOL    HW218540   1.202   3.351   3.794  1.7271  3.8520 -1.4857
 2361SOL     OW18541   4.202   4.499  10.658 -0.8918 -0.0803 -0.7123
 2361SOL    HW118542   4.219   4.589  10.686 -2.2901 -0.6207  1.8678
 2361SOL    HW218543   4.259   4.457  10.723  0.2118  2.7007  0.1238
 2362SOL     OW18544   0.989   3.506   3.190 -0.4659 -0.4470 -0.0651
 2362SOL    HW118545   1.070   3.493   3.239 -0.6190  1.1267  0.6297
 2362SOL    HW218546   0.949   3.585   3.227 -0.8730 -0.9015  0.4750
 2363SOL     OW18547   2.945   2.865   8.376 -0.2906 -0.4035  0.1111
 2363SOL    HW118548   2.983   2.816   8.449  0.7350  0.2603  0.0284
 2363SOL    HW218549   2.884   2.920   8.425  0.0350 -0.8661  1.0376
 2364SOL     OW18550   4.059   3.285   7.885 -0.2076  0.3179 -0.4038
 2364SOL    HW118551   4.080   3.281   7.792  0.0486  1.0351 -0.3754
 2364SOL    HW218552   4.023   3.373   7.893 -0.4629  0.1025  0.8190
 2365SOL     OW18553   2.589   2.719  14.232 -0.2670 -0.1463 -0.0554
 2365SOL    HW118554   2.681   2.719  14.205  0.2228  1.3832  1.5990
 2365SOL    HW218555   2.604   2.702  14.325 -0.0029  2.3585  0.3626
 2366SOL     OW18556   4.132   3.735  12.300 -0.6332 -0.2703  0.1809
 2366SOL    HW118557   4.088   3.734  12.216 -0.0716  1.4361 -0.1253
 2366SOL    HW218558   4.223   3.729  12.272 -0.6629  3.0882 -0.5884
 2367SOL     OW18559   2.450   2.606   3.935  0.0755  0.3899  0.7807
 2367SOL    HW118560   2.414   2.520   3.913 -1.7699  1.6454 -1.2042
 2367SOL    HW218561   2.385   2.652   3.988 -2.0062 -0.2386 -1.2019
 2368SOL     OW18562   0.937   3.520   7.720  0.5223  0.0713 -0.0870
 2368SOL    HW118563   0.885   3.595   7.690 -1.3076 -1.9050 -1.8936
 2368SOL    HW218564   0.875   3.457   7.683 -2.3808  1.8949  1.6669
 2369SOL     OW18565   4.533   0.849  14.257 -0.7430  0.2727  0.5930
 2369SOL    HW118566   4.453   0.848  14.203 -0.6757  0.9198  0.4789
 2369SOL    HW218567   4.557   0.939  14.234  1.5136 -0.8201 -1.3254
 2370SOL     OW18568   4.665   4.090   1.809  0.7472 -0.2379 -0.3462
 2370SOL    HW118569   4.623   4.094   1.895  0.0705  0.7305 -0.7297
 2370SOL    HW218570   4.722   4.166   1.823  0.6612 -0.4168  0.9447
 2371SOL     OW18571   3.324   2.785   3.603 -0.4213 -0.1921  0.0167
 2371SOL    HW118572   3.230   2.768   3.603 -0.3991 -0.3111  0.7599
 2371SOL    HW218573   3.367   2.700   3.596 -0.4687 -0.1397 -0.9341
 2372SOL     OW18574   1.386   4.036  13.639 -0.2685 -0.6719  0.5134
 2372SOL    HW118575   1.327   4.041  13.564  1.1044 -1.2158 -0.6057
 2372SOL    HW218576   1.450   4.100  13.608 -1.3155 -0.3695 -1.0482
 2373SOL     OW18577   2.572   0.688   6.469  0.5918  0.2001 -0.1943
 2373SOL    HW118578   2.499   0.654   6.520  0.9858 -2.8256 -1.6250
 2373SOL    HW218579   2.621   0.612   6.436  0.8828  0.5508 -0.5666
 2374SOL     OW18580   0.128   1.528  11.806  0.2261 -0.1390  0.5971
 2374SOL    HW118581   0.072   1.457  11.839 -0.8057 -0.9509 -2.9196
 2374SOL    HW218582   0.159   1.566  11.889 -2.6577 -1.1931  2.1584
 2375SOL     OW18583   3.042   2.896   3.760  0.1825 -0.1802  0.0192
 2375SOL    HW118584   3.025   2.885   3.853 -0.7257  0.6142 -0.0571
 2375SOL    HW218585   2.970   2.849   3.718 -1.1121  1.4148  0.4246
 2376SOL     OW18586   4.508   4.331  14.738 -0.5105  0.0948 -0.3732
 2376SOL    HW118587   4.445   4.391  14.698 -2.4295 -1.3737  0.4711
 2376SOL    HW218588   4.496   4.259  14.677 -1.0489 -0.8643  0.8772
 2377SOL     OW18589   1.331   3.700   3.926  0.2593  0.0157 -0.1704
 2377SOL    HW118590   1.257   3.751   3.958 -0.2969  0.3366 -1.9357
 2377SOL    HW218591   1.311   3.613   3.961 -0.0937 -1.1680 -3.3219
 2378SOL     OW18592   3.222   1.196   8.225  0.1954 -0.0382  0.5521
 2378SOL    HW118593   3.155   1.192   8.158 -2.6929  0.9233  3.3688
 2378SOL    HW218594   3.221   1.104   8.252 -0.3011  0.0619  0.8736
 2379SOL     OW18595   0.993   4.297   8.747 -0.0905 -0.0175  0.0495
 2379SOL    HW118596   1.000   4.202   8.737 -0.7581 -0.1736  1.0414
 2379SOL    HW218597   1.050   4.319   8.674  0.1616  1.9110  0.8264
 2380SOL     OW18598   0.098   0.798  17.200 -0.4149 -0.0548 -0.0636
 2380SOL    HW118599   0.033   0.801  17.271  0.7696  0.2064  1.0188
 2380SOL    HW218600   0.112   0.704  17.198 -1.0295 -0.1159 -1.2239
 2381SOL     OW18601   2.445   2.634  15.077 -0.1523 -0.2225 -0.4804
 2381SOL    HW118602   2.462   2.666  14.989  0.4571 -2.8771 -1.3273
 2381SOL    HW218603   2.493   2.702  15.125  1.0787 -0.4513 -1.3787
 2382SOL     OW18604   1.069   4.397  14.846 -0.3713  0.2167  0.5841
 2382SOL    HW118605   1.074   4.304  14.868  1.5278  0.5426  1.4656
 2382SOL    HW218606   1.149   4.427  14.889  0.7994  1.5574 -2.5415
 2383SOL     OW18607   1.268   2.860   7.317  0.3704 -0.0212  0.2771
 2383SOL    HW118608   1.310   2.933   7.273 -0.2897  0.4146  0.3745
 2383SOL    HW218609   1.276   2.782   7.262 -1.7081 -0.4494  0.5804
 2384SOL     OW18610   1.778   0.214   6.562 -0.5079  0.4158 -0.4751
 2384SOL    HW118611   1.686   0.237   6.564 -0.3678  0.9247  0.4357
 2384SOL    HW218612   1.806   0.268   6.636  1.3694 -0.9928 -0.1583
 2385SOL     OW18613   2.616   1.169   5.517 -0.0748 -0.0948  0.3382
 2385SOL    HW118614   2.691   1.118   5.483  1.1238  0.6723  1.8354
 2385SOL    HW218615   2.605   1.221   5.437 -0.3567 -0.4473  0.1483
 2386SOL     OW18616   3.665   3.666   4.201 -0.0156  0.9683  0.6239
 2386SOL    HW118617   3.720   3.658   4.123 -0.1141 -2.1807  0.9026
 2386SOL    HW218618   3.672   3.761   4.216 -0.7744  0.9225  1.2629
 2387SOL     OW18619   3.967   3.200   3.744  0.3633 -0.7373 -0.7561
 2387SOL    HW118620   3.880   3.228   3.715  0.6326  1.7950  0.9141
 2387SOL    HW218621   3.983   3.149   3.665 -3.5879 -0.5389 -1.7162
 2388SOL     OW18622   3.231   3.492  11.682  0.7616  0.1113  0.0473
 2388SOL    HW118623   3.287   3.415  11.676 -0.1116 -0.5693  0.6298
 2388SOL    HW218624   3.149   3.465  11.640  0.0921  1.7737  0.2535
 2389SOL     OW18625   4.092   2.370  16.406  0.2347 -0.0882 -0.0411
 2389SOL    HW118626   4.143   2.429  16.351  0.3027 -1.6204 -1.6041
 2389SOL    HW218627   4.086   2.433  16.478 -0.3284  1.0560 -1.0926
 2390SOL     OW18628   0.108   4.530   8.262  0.5543 -0.2633  0.2975
 2390SOL    HW118629   0.083   4.460   8.203  1.8914 -0.2208 -0.3355
 2390SOL    HW218630   0.203   4.515   8.268  0.0649 -2.0786  3.0393
 2391SOL     OW18631   4.594   3.287   7.986 -0.3153 -0.6133 -0.1226
 2391SOL    HW118632   4.596   3.301   7.892  1.6363  0.1556  0.0424
 2391SOL    HW218633   4.607   3.192   7.979  0.7123 -0.5025  0.2973
 2392SOL     OW18634   2.819   0.296   8.595 -0.5920 -0.5235  0.6892
 2392SOL    HW118635   2.833   0.386   8.623  0.9600 -0.7563  0.7060
 2392SOL    HW218636   2.838   0.245   8.674 -1.4931 -1.7149  0.1329
 2393SOL     OW18637   3.287   0.024  10.287 -0.0659 -0.3198 -0.2576
 2393SOL    HW118638   3.324   0.023  10.198  2.1360  2.4396  0.6102
 2393SOL    HW218639   3.238   4.665  10.278 -0.6490  0.0947 -0.8678
 2394SOL     OW18640   2.031   3.334   1.405  0.4681 -0.1194  0.2096
 2394SOL    HW118641   1.954   3.388   1.391  1.2570  0.4388 -2.1034
 2394SOL    HW218642   2.099   3.400   1.416  0.2157  0.5945 -2.4662
 2395SOL     OW18643   3.034   4.068  10.370 -0.2188  0.1566  0.0922
 2395SOL    HW118644   2.998   3.980  10.356  0.9393 -0.1509 -0.9983
 2395SOL    HW218645   2.963   4.130  10.358  0.1515  0.3059 -1.3531
 2396SOL     OW18646   1.471   0.672   2.109 -0.2533 -0.3817  0.0325
 2396SOL    HW118647   1.486   0.695   2.201 -1.0290 -0.1366  0.1011
 2396SOL    HW218648   1.521   0.736   2.059  0.2836  0.0835  1.1529
 2397SOL     OW18649   1.706   2.205   7.614 -0.0053  0.1153 -0.1685
 2397SOL    HW118650   1.708   2.130   7.554  1.1712 -1.6300  2.0743
 2397SOL    HW218651   1.636   2.183   7.676  0.3766 -2.2618 -0.5658
 2398SOL     OW18652   0.520   0.650   6.883  0.1242 -0.8222 -0.3792
 2398SOL    HW118653   0.565   0.702   6.816 -2.4143  2.8806  0.7634
 2398SOL    HW218654   0.563   0.686   6.960  0.6681 -0.7485 -0.7185
 2399SOL     OW18655   3.900   3.078  11.957  0.1968 -0.4075  0.3657
 2399SOL    HW118656   3.863   2.993  11.933  3.0526 -2.1236  1.9786
 2399SOL    HW218657   3.818   3.106  11.998  0.2647 -0.7299  0.7248
 2400SOL     OW18658   3.193   0.436   1.708  0.1432 -0.1928 -0.2357
 2400SOL    HW118659   3.181   0.402   1.797 -0.7082  1.6053  0.3435
 2400SOL    HW218660   3.242   0.517   1.725  0.1643 -0.3088  0.2621
 2401SOL     OW18661   3.009   2.583   9.276 -0.1775 -0.2890 -0.6234
 2401SOL    HW118662   3.095   2.545   9.258 -0.5305  0.1928 -3.2428
 2401SOL    HW218663   3.038   2.659   9.327 -1.1031 -0.4387  0.1317
 2402SOL     OW18664   1.865   2.219   4.019 -0.1747 -0.2787  0.3850
 2402SOL    HW118665   1.946   2.167   4.020 -0.8440 -1.3171  0.4893
 2402SOL    HW218666   1.857   2.226   3.924  1.8254 -1.7356  0.1066
 2403SOL     OW18667   3.119   4.650   4.075  0.2902  0.0557 -0.3362
 2403SOL    HW118668   3.083   0.005   4.118  0.2289 -0.2652  0.1934
 2403SOL    HW218669   3.050   4.583   4.075 -1.2278  1.5955  0.4971
 2404SOL     OW18670   2.671   1.231   9.984  0.2527  0.1332  0.6705
 2404SOL    HW118671   2.672   1.244   9.889 -0.8922  0.7851  0.7481
 2404SOL    HW218672   2.591   1.281  10.001  0.8771  0.4761  2.6272
 2405SOL     OW18673   3.243   3.294   7.992 -0.1214 -0.4617  0.4522
 2405SOL    HW118674   3.233   3.389   8.002 -1.6101 -0.6369  0.6388
 2405SOL    HW218675   3.155   3.257   7.986 -0.7448  1.2464 -0.9349
 2406SOL     OW18676   1.697   1.573   2.151 -0.4491 -0.2743 -0.2165
 2406SOL    HW118677   1.713   1.641   2.086 -2.7626  0.5668  0.1091
 2406SOL    HW218678   1.775   1.518   2.141 -1.2031 -1.4647  0.5253
 2407SOL     OW18679   3.956   0.794   5.409 -0.0245  0.9483  0.2806
 2407SOL    HW118680   4.003   0.762   5.486 -0.6365 -1.1448 -0.2189
 2407SOL    HW218681   3.866   0.792   5.442  0.3430  0.1436  1.2543
 2408SOL     OW18682   2.269   2.068  11.109  0.1908  0.1088  0.0616
 2408SOL    HW118683   2.342   2.129  11.119  1.3656 -1.2476 -0.2779
 2408SOL    HW218684   2.311   1.983  11.102  0.4041  0.1629  0.7466
 2409SOL     OW18685   0.276   2.398   4.688  0.0377 -0.5663 -0.0701
 2409SOL    HW118686   0.362   2.367   4.658  0.4586 -0.4983  1.0441
 2409SOL    HW218687   0.264   2.473   4.631  1.1331  0.7856  1.4757
 2410SOL     OW18688   0.190   0.630   7.668  0.4547  0.6903 -0.8391
 2410SOL    HW118689   0.127   0.584   7.722  1.5988 -0.8624 -0.8330
 2410SOL    HW218690   0.151   0.624   7.581  1.3135 -2.6554 -0.9828
 2411SOL     OW18691   4.565   2.444  12.025 -0.4962 -0.5610  0.3597
 2411SOL    HW118692   4.488   2.496  12.045  0.8721  1.1719  1.1534
 2411SOL    HW218693   4.625   2.485  12.087 -1.9499 -0.9243  2.0189
 2412SOL     OW18694   3.942   3.102   4.912 -0.0380 -0.2023 -0.0692
 2412SOL    HW118695   3.912   3.192   4.903  0.7648  0.0300 -0.3807
 2412SOL    HW218696   3.915   3.053   4.834 -1.6077  0.3544  0.1120
 2413SOL     OW18697   0.441   0.591  13.282  0.1104  0.2718  0.2206
 2413SOL    HW118698   0.376   0.577  13.351 -0.6344 -0.6204 -0.6436
 2413SOL    HW218699   0.479   0.503  13.273  1.2653  0.7080  0.9317
 2414SOL     OW18700   3.109   3.921   3.640 -0.1916  0.4032  0.0977
 2414SOL    HW118701   3.165   3.910   3.717 -0.5610 -1.2540  0.1390
 2414SOL    HW218702   3.043   3.852   3.645  2.0981 -1.7523  0.5867
 2415SOL     OW18703   3.970   3.052  13.406 -0.2318  0.3872  0.3302
 2415SOL    HW118704   4.054   3.094  13.426  0.8603 -1.0152 -1.2869
 2415SOL    HW218705   3.988   2.960  13.426  3.1832  0.7156 -1.1038
 2416SOL     OW18706   1.940   4.230  16.372  0.3406 -0.5773 -0.8597
 2416SOL    HW118707   1.945   4.283  16.293  0.6360  1.1744  0.3376
 2416SOL    HW218708   2.018   4.262  16.419  0.4789  1.3162 -2.3811
 2417SOL     OW18709   0.423   2.789   8.465  0.0694 -0.3549  0.0980
 2417SOL    HW118710   0.508   2.769   8.426 -0.7735 -0.3321 -1.7631
 2417SOL    HW218711   0.393   2.705   8.499 -0.1192 -0.6600 -0.8182
 2418SOL     OW18712   1.756   0.552   7.516 -0.1003 -0.3790 -0.8963
 2418SOL    HW118713   1.807   0.622   7.556 -2.1119  0.4240  0.3162
 2418SOL    HW218714   1.799   0.474   7.551  1.3122  0.8901  0.1939
 2419SOL     OW18715   2.606   2.638  10.119 -0.3207 -0.2562 -0.2731
 2419SOL    HW118716   2.575   2.657  10.208  2.4413 -1.3755  0.9208
 2419SOL    HW218717   2.656   2.717  10.104 -0.5937  0.2492  1.4901
 2420SOL     OW18718   4.454   1.422  15.213  0.0984 -0.8437 -0.2160
 2420SOL    HW118719   4.473   1.333  15.243  2.3323 -0.4414 -0.3761
 2420SOL    HW218720   4.368   1.411  15.173 -0.3670  2.1814  0.0092
 2421SOL     OW18721   3.903   0.443  11.317 -0.4013  0.1970 -0.5628
 2421SOL    HW118722   3.901   0.359  11.361  1.3081  0.3738 -0.1267
 2421SOL    HW218723   3.939   0.488  11.393 -0.0072 -1.6915  0.3584
 2422SOL     OW18724   2.320   4.269   9.176 -0.4896  0.1405 -0.7942
 2422SOL    HW118725   2.311   4.338   9.110  1.4432  1.7465  0.6035
 2422SOL    HW218726   2.244   4.222   9.143 -0.2975  0.8979 -2.3550
 2423SOL     OW18727   3.704   1.785  15.425 -0.8321  0.6541  0.2252
 2423SOL    HW118728   3.682   1.845  15.353 -0.0273  0.2587 -0.3524
 2423SOL    HW218729   3.623   1.782  15.476  0.2991  0.6079  2.0160
 2424SOL     OW18730   2.541   3.702   7.195 -0.3292  0.3334  0.2481
 2424SOL    HW118731   2.544   3.740   7.282  0.4668 -0.6254  0.6391
 2424SOL    HW218732   2.634   3.715   7.174 -0.3003  0.8695  0.7224
 2425SOL     OW18733   4.214   3.241   8.528 -0.3800  0.2282 -0.2781
 2425SOL    HW118734   4.205   3.155   8.488  0.9718 -1.0909  2.2290
 2425SOL    HW218735   4.245   3.217   8.615  1.8312  3.7242 -0.1080
 2426SOL     OW18736   0.104   3.934   0.845  0.6429 -0.5736 -0.1886
 2426SOL    HW118737   0.114   3.937   0.749  0.8782  1.9590 -0.0656
 2426SOL    HW218738   0.130   4.024   0.860  0.6332 -0.8273  1.3171
 2427SOL     OW18739   0.314   1.935   8.222  0.5574 -0.1531  0.0466
 2427SOL    HW118740   0.242   1.973   8.173  0.1614  0.0236  0.7640
 2427SOL    HW218741   0.387   1.949   8.162 -0.5261 -0.9563 -1.4761
 2428SOL     OW18742   4.247   0.153   0.485 -0.4922 -0.1513 -0.0250
 2428SOL    HW118743   4.196   0.156   0.566 -0.0478  1.7107  0.1854
 2428SOL    HW218744   4.289   0.069   0.504 -1.5727 -0.8953 -0.8840
 2429SOL     OW18745   2.350   0.667   1.587  0.1543 -0.0415  0.8171
 2429SOL    HW118746   2.400   0.695   1.663  0.9018  1.2360 -0.1417
 2429SOL    HW218747   2.265   0.647   1.625  0.8873 -2.1200  1.3343
 2430SOL     OW18748   2.839   3.563   1.388 -0.4105 -0.1081 -0.3297
 2430SOL    HW118749   2.905   3.625   1.420  1.2646 -2.1175  0.0949
 2430SOL    HW218750   2.901   3.536   1.321  0.8806 -1.8053  1.5687
 2431SOL     OW18751   0.080   2.066   2.942  0.0867  0.1425  0.2251
 2431SOL    HW118752   0.109   1.994   2.886 -1.4513  1.7721 -2.7040
 2431SOL    HW218753   0.140   2.129   2.902  1.0304  0.9885  2.9730
 2432SOL     OW18754   4.355   1.829   3.746  0.2219  0.3700 -0.3246
 2432SOL    HW118755   4.423   1.885   3.782 -0.6615 -0.0058  1.9153
 2432SOL    HW218756   4.408   1.784   3.680  1.2350 -1.7726  1.9308
 2433SOL     OW18757   2.624   2.643   3.013  0.3363  0.3492  0.0481
 2433SOL    HW118758   2.678   2.566   3.030  0.9618  0.5939 -0.8354
 2433SOL    HW218759   2.648   2.701   3.085  0.2190  2.0341 -1.2519
 2434SOL     OW18760   3.048   0.520  10.371 -0.0157  0.5156  0.2652
 2434SOL    HW118761   3.002   0.589  10.419 -1.9358 -0.1764 -0.6066
 2434SOL    HW218762   3.054   0.568  10.289  0.5094 -0.0771 -0.0475
 2435SOL     OW18763   0.363   2.389   7.929 -0.2071 -0.1677 -0.0044
 2435SOL    HW118764   0.423   2.341   7.986 -0.4649 -1.4560 -0.8238
 2435SOL    HW218765   0.300   2.432   7.987 -0.9669 -1.7766  0.3708
 2436SOL     OW18766   1.290   3.097   4.572 -0.1887 -0.1278 -0.3274
 2436SOL    HW118767   1.206   3.051   4.563 -0.9701  1.0203  1.0364
 2436SOL    HW218768   1.266   3.186   4.547 -1.5880 -1.4526 -3.6975
 2437SOL     OW18769   2.386   2.600   2.923 -0.2829 -0.0264 -0.2993
 2437SOL    HW118770   2.469   2.624   2.965 -0.6655 -0.1865  0.5544
 2437SOL    HW218771   2.365   2.688   2.890 -1.1365  0.9091  2.6904
 2438SOL     OW18772   1.161   0.087  17.446 -0.0329 -0.0924  0.0079
 2438SOL    HW118773   1.226   0.020  17.426  0.1947  0.4120 -0.9495
 2438SOL    HW218774   1.085   0.034  17.422 -1.1605  1.4474  0.1372
 2439SOL     OW18775   3.678   3.970   2.307 -0.9024 -0.1657 -0.0112
 2439SOL    HW118776   3.700   4.060   2.331  2.3289 -0.9468 -0.0586
 2439SOL    HW218777   3.582   3.978   2.300 -1.0061 -2.1642 -0.9726
 2440SOL     OW18778   1.793   1.279   1.483 -0.0950 -0.0728  0.4285
 2440SOL    HW118779   1.863   1.313   1.426 -1.2752  1.8208  0.0986
 2440SOL    HW218780   1.831   1.216   1.543  0.9967 -0.0685 -0.2503
 2441SOL     OW18781   2.805   4.226  10.329  0.8375 -0.3026  0.1294
 2441SOL    HW118782   2.742   4.299  10.332  2.3174  1.0431 -1.3523
 2441SOL    HW218783   2.754   4.165  10.381 -1.4921  2.9832  1.7028
 2442SOL     OW18784   0.974   2.349   7.308 -0.0551 -0.1810 -0.0873
 2442SOL    HW118785   0.915   2.287   7.265  2.0249 -1.7616 -0.6382
 2442SOL    HW218786   0.955   2.335   7.401 -1.0059 -0.0384 -0.2608
 2443SOL     OW18787   3.528   0.963   8.958 -0.0245 -0.6598  0.1534
 2443SOL    HW118788   3.559   0.930   9.042 -0.4920 -0.4734  0.4028
 2443SOL    HW218789   3.529   1.057   8.973 -1.6079 -0.8479  1.3839
 2444SOL     OW18790   1.121   4.682   7.673 -0.3686  0.1201  0.0486
 2444SOL    HW118791   1.063   4.612   7.642  0.7312  0.0708 -1.8415
 2444SOL    HW218792   1.108   4.657   7.765  0.6602  1.0256  0.4341
 2445SOL     OW18793   0.546   3.061   9.246  0.2157  0.0147  0.6114
 2445SOL    HW118794   0.563   2.977   9.288 -0.9720 -0.9399 -0.8283
 2445SOL    HW218795   0.572   3.049   9.155  2.4023 -1.7534  1.4539
 2446SOL     OW18796   0.954   1.427  13.579  0.0738  0.1387 -0.6289
 2446SOL    HW118797   0.908   1.343  13.584  0.6689 -0.2246 -1.2543
 2446SOL    HW218798   1.045   1.402  13.564  0.4297  0.9480  0.1640
 2447SOL     OW18799   2.575   1.702  11.709  0.2929  0.0954 -0.0987
 2447SOL    HW118800   2.642   1.759  11.747  1.3635  0.3794 -2.4214
 2447SOL    HW218801   2.576   1.632  11.775  0.6408  0.2799  0.0948
 2448SOL     OW18802   1.560   3.998  10.494  0.2699 -0.7986  0.0343
 2448SOL    HW118803   1.517   4.028  10.574  1.3901 -0.4860  0.5179
 2448SOL    HW218804   1.640   3.961  10.533  1.3148  1.3581 -0.0904
 2449SOL     OW18805   4.124   4.425   3.441 -0.1136 -0.5169  0.0993
 2449SOL    HW118806   4.037   4.392   3.416 -0.3973  1.0420 -1.0223
 2449SOL    HW218807   4.096   4.447   3.530  0.9437 -1.6273  0.6965
 2450SOL     OW18808   0.568   1.004   5.953  0.4474  0.2632  0.4177
 2450SOL    HW118809   0.472   1.005   5.965  0.1178  3.0194 -2.4911
 2450SOL    HW218810   0.572   0.928   5.896  1.2202 -1.2391  2.4748
 2451SOL     OW18811   2.629   3.499   8.120 -0.2855 -0.4104 -0.2055
 2451SOL    HW118812   2.707   3.444   8.112 -1.9922 -2.5964 -1.6772
 2451SOL    HW218813   2.593   3.451   8.195  1.1277  1.4586  1.6802
 2452SOL     OW18814   0.483   0.426   9.038 -0.0791 -0.2457 -0.5194
 2452SOL    HW118815   0.544   0.453   9.106 -1.2550 -0.1092  0.4853
 2452SOL    HW218816   0.418   0.370   9.081  0.7411 -1.2128 -0.5511
 2453SOL     OW18817   4.171   1.439  13.928  0.4477 -0.3665  0.2585
 2453SOL    HW118818   4.121   1.380  13.985  0.6983 -0.5701  0.2704
 2453SOL    HW218819   4.177   1.377  13.855  2.6823 -0.0960  0.2096
 2454SOL     OW18820   1.827   3.166   5.537  0.6451  0.9094 -0.7005
 2454SOL    HW118821   1.763   3.220   5.584  1.7672 -0.6613  2.6267
 2454SOL    HW218822   1.909   3.176   5.584  0.4919 -0.0887 -0.2171
 2455SOL     OW18823   4.551   3.754   9.013  0.8401 -0.5147  0.0297
 2455SOL    HW118824   4.623   3.799   8.971  0.1200 -0.3727 -1.0397
 2455SOL    HW218825   4.591   3.716   9.092 -0.5971  2.1976  2.0698
 2456SOL     OW18826   3.322   2.652   4.632  0.0392 -0.2386 -0.1016
 2456SOL    HW118827   3.320   2.738   4.674  0.6849  0.4129 -1.4333
 2456SOL    HW218828   3.412   2.623   4.650  0.4264  2.1478  1.9114
 2457SOL     OW18829   0.417   1.989   5.279  0.4725 -0.0984  0.1260
 2457SOL    HW118830   0.480   2.034   5.336 -0.1268  0.5285  0.3030
 2457SOL    HW218831   0.388   2.053   5.214  1.3897 -1.7597 -1.9191
 2458SOL     OW18832   1.506   3.737   2.941  0.3843 -0.1591  0.6565
 2458SOL    HW118833   1.568   3.756   3.012 -0.9827  0.1588  1.7585
 2458SOL    HW218834   1.537   3.792   2.869  1.5131 -1.6542  0.0019
 2459SOL     OW18835   3.305   0.476  10.056  0.1336  0.3283  0.1311
 2459SOL    HW118836   3.340   0.550  10.104 -1.4375  2.1347 -1.5193
 2459SOL    HW218837   3.260   0.523   9.986 -1.4268 -1.3345 -0.0084
 2460SOL     OW18838   4.624   0.524   3.131 -1.2438 -0.5215  0.3472
 2460SOL    HW118839   4.611   0.432   3.107 -0.5721 -0.5626  0.1622
 2460SOL    HW218840   4.714   0.526   3.164 -0.5864  0.0166 -1.4756
 2461SOL     OW18841   0.999   0.417  16.482 -0.1643 -0.8882  0.1042
 2461SOL    HW118842   0.968   0.454  16.565  0.9394  1.4348 -0.5080
 2461SOL    HW218843   1.012   0.324  16.500 -0.3769  0.0600  5.0608
 2462SOL     OW18844   1.103   3.771   5.976  0.4560 -0.0023 -0.2269
 2462SOL    HW118845   1.195   3.768   6.001  0.1812  0.4604  0.8301
 2462SOL    HW218846   1.059   3.819   6.046  2.0250 -0.5910  1.1589
 2463SOL     OW18847   4.027   4.485   5.282 -0.1179 -0.5355 -0.5208
 2463SOL    HW118848   4.024   4.402   5.235  0.6063 -0.6696 -0.3335
 2463SOL    HW218849   3.999   4.556   5.225  1.1090  1.7833  1.7262
 2464SOL     OW18850   2.484   0.284   8.982 -0.5621  0.5499  0.3040
 2464SOL    HW118851   2.491   0.230   8.904 -1.5867  0.0948  0.5310
 2464SOL    HW218852   2.519   0.366   8.946  1.2602  0.7339  2.4573
 2465SOL     OW18853   0.041   1.169  12.155 -0.2003 -0.2332 -0.2952
 2465SOL    HW118854   0.081   1.254  12.173  0.1251 -0.7408  1.4223
 2465SOL    HW218855   0.119   1.113  12.153 -0.5954 -0.8013  0.3564
 2466SOL     OW18856   3.100   3.312   5.024  0.1153 -0.2435  0.5363
 2466SOL    HW118857   3.045   3.387   5.001  0.1908 -0.0624  0.9588
 2466SOL    HW218858   3.036   3.251   5.061 -2.1818  0.7850 -1.7134
 2467SOL     OW18859   3.243   3.088   5.928 -0.0723  0.5599  0.4588
 2467SOL    HW118860   3.290   3.075   5.846 -0.0488 -1.1408  0.7294
 2467SOL    HW218861   3.267   3.006   5.972  0.9157 -0.3866 -1.8144
 2468SOL     OW18862   1.269   4.487   9.304  0.1111  0.2732  0.0733
 2468SOL    HW118863   1.361   4.512   9.310  0.6743 -1.3068 -1.7078
 2468SOL    HW218864   1.229   4.518   9.385  1.0785  2.1495 -0.1973
 2469SOL     OW18865   0.685   0.846   4.248 -0.6700  0.3616  0.2034
 2469SOL    HW118866   0.760   0.865   4.305  1.4242 -0.4114 -2.3116
 2469SOL    HW218867   0.614   0.857   4.312  0.8698 -1.9170  2.3436
 2470SOL     OW18868   2.270   2.169   9.789 -0.2661 -0.3722 -0.1606
 2470SOL    HW118869   2.351   2.126   9.763  0.3262 -0.1322  1.3364
 2470SOL    HW218870   2.211   2.098   9.813  1.9210 -2.1527 -0.1676
 2471SOL     OW18871   3.925   0.661  10.326 -0.0245  0.5441  0.5564
 2471SOL    HW118872   3.859   0.607  10.282  0.6069  0.4505 -0.2827
 2471SOL    HW218873   3.872   0.730  10.366  1.3923  1.6896  0.4702
 2472SOL     OW18874   4.411   0.127   7.175  0.1592  0.1204  0.3279
 2472SOL    HW118875   4.462   0.070   7.232  0.4574 -1.9129 -1.9569
 2472SOL    HW218876   4.453   0.212   7.189  1.5951 -0.3864 -0.9012
 2473SOL     OW18877   0.610   2.615   0.639  0.0348 -0.2536  0.0270
 2473SOL    HW118878   0.704   2.628   0.635  0.1828 -1.3346  0.0755
 2473SOL    HW218879   0.593   2.709   0.644  3.0893  0.2666  0.3470
 2474SOL     OW18880   4.554   2.199   3.761  0.5115 -0.0300  1.0762
 2474SOL    HW118881   4.633   2.163   3.802  0.5090  0.0392  1.1411
 2474SOL    HW218882   4.497   2.190   3.837  0.2742 -0.1909  0.8796
 2475SOL     OW18883   0.142   3.630   5.102  0.3227 -0.0983  0.5359
 2475SOL    HW118884   0.197   3.703   5.130 -0.7262  1.2374 -0.9024
 2475SOL    HW218885   0.128   3.651   5.010 -0.9301 -1.1272  0.4947
 2476SOL     OW18886   4.391   4.381  16.959 -0.5131  0.6238  0.4510
 2476SOL    HW118887   4.378   4.304  16.904  2.0031 -1.3729  2.6316
 2476SOL    HW218888   4.421   4.341  17.041  0.4161  0.9066  0.2473
 2477SOL     OW18889   0.501   4.152   7.047  0.0473 -0.0972 -0.5109
 2477SOL    HW118890   0.593   4.129   7.033 -0.0200 -0.8967  0.3235
 2477SOL    HW218891   0.470   4.165   6.957 -0.8016  1.8979  0.0761
 2478SOL     OW18892   0.466   3.135   5.512  0.8224  0.1240 -0.0103
 2478SOL    HW118893   0.463   3.206   5.447 -0.0570 -1.5291 -1.7635
 2478SOL    HW218894   0.374   3.109   5.517 -0.0527  3.8838  3.1933
 2479SOL     OW18895   4.244   2.386   5.911  0.5342  0.1069  0.1793
 2479SOL    HW118896   4.201   2.451   5.855 -1.0181 -2.7069 -1.8845
 2479SOL    HW218897   4.195   2.399   5.992 -1.0900 -0.4823 -0.7168
 2480SOL     OW18898   1.118   0.284   3.225  0.1448 -0.9155 -0.2378
 2480SOL    HW118899   1.134   0.245   3.140  1.0292 -1.9168  0.3923
 2480SOL    HW218900   1.022   0.282   3.227  0.1623  0.0713  1.8754
 2481SOL     OW18901   2.048   1.699   4.249  0.0551 -0.1143  0.6182
 2481SOL    HW118902   2.098   1.739   4.320 -1.8241  0.8579  1.4140
 2481SOL    HW218903   1.983   1.638   4.283  0.6816 -0.3267  1.4067
 2482SOL     OW18904   4.140   4.211  10.900  0.0529 -0.2069 -0.5186
 2482SOL    HW118905   4.150   4.303  10.924 -0.4658 -0.4408  0.6014
 2482SOL    HW218906   4.219   4.201  10.846 -0.2883 -1.2529 -0.8365
 2483SOL     OW18907   3.407   3.156   2.607  0.0200 -0.5309 -0.9822
 2483SOL    HW118908   3.365   3.107   2.677 -0.4289  1.6674  0.2969
 2483SOL    HW218909   3.483   3.189   2.654 -0.8695  1.2864 -0.8137
 2484SOL     OW18910   0.870   1.376  10.441 -0.6204  0.4282  0.2356
 2484SOL    HW118911   0.915   1.295  10.415 -0.4380  0.7816 -0.5579
 2484SOL    HW218912   0.792   1.376  10.385 -1.6891  0.4150  1.7294
 2485SOL     OW18913   2.221   2.489  14.968 -0.1791 -0.3855  0.1385
 2485SOL    HW118914   2.252   2.441  14.892 -2.1872 -2.2010  0.4707
 2485SOL    HW218915   2.278   2.566  14.978  1.7432 -1.8543  0.4786
 2486SOL     OW18916   3.049   2.268   3.168 -0.5250  0.3124  0.2711
 2486SOL    HW118917   3.016   2.357   3.170 -1.5227 -0.0808  1.2928
 2486SOL    HW218918   3.066   2.253   3.261  0.3238  2.4884  0.4541
 2487SOL     OW18919   3.695   2.120   6.829 -0.1778  0.1780  0.0523
 2487SOL    HW118920   3.652   2.205   6.823 -0.2186  0.0617 -1.4262
 2487SOL    HW218921   3.771   2.135   6.772 -0.5515 -0.1735 -0.5446
 2488SOL     OW18922   3.865   1.892   3.327 -0.3366  0.4257  0.4120
 2488SOL    HW118923   3.916   1.901   3.407 -1.6809  1.3096  1.1716
 2488SOL    HW218924   3.910   1.965   3.283 -0.5261  0.3524  0.0985
 2489SOL     OW18925   2.915   0.511   1.846  0.2534  0.8961 -0.3087
 2489SOL    HW118926   2.917   0.504   1.751 -0.0884 -1.8918 -0.0986
 2489SOL    HW218927   2.895   0.602   1.871 -0.4217  0.5132  0.5762
 2490SOL     OW18928   3.337   3.465   7.343  0.5556  0.2199  0.1809
 2490SOL    HW118929   3.266   3.402   7.346  0.7069  0.1317  2.0940
 2490SOL    HW218930   3.354   3.477   7.437 -3.3849 -0.8907  1.0282
 2491SOL     OW18931   3.177   3.544   6.391  0.5529  0.1719 -0.7890
 2491SOL    HW118932   3.208   3.518   6.305  1.3334 -1.1885 -0.1010
 2491SOL    HW218933   3.133   3.627   6.373 -1.3794 -1.0438 -1.6980
 2492SOL     OW18934   2.919   1.752  10.029 -0.0740 -0.1797  0.3812
 2492SOL    HW118935   2.992   1.691  10.039  0.2676  0.5703  2.3277
 2492SOL    HW218936   2.863   1.727  10.103  0.8434 -1.0666  0.7637
 2493SOL     OW18937   2.045   0.921   7.799  0.2456 -0.3344 -0.1795
 2493SOL    HW118938   2.031   0.973   7.877  0.9317 -0.8016  0.2534
 2493SOL    HW218939   2.089   0.977   7.734 -0.2766  0.5743  0.2512
 2494SOL     OW18940   4.709   4.634   6.274  0.5160 -0.0991 -0.3293
 2494SOL    HW118941   4.683   4.680   6.354 -1.1779 -1.5826 -0.0252
 2494SOL    HW218942   0.072   4.597   6.298  1.4236  1.4948 -1.0887
 2495SOL     OW18943   2.305   3.144   2.152  0.4905  0.0323  0.1924
 2495SOL    HW118944   2.386   3.102   2.182  0.9710 -1.0398 -2.5618
 2495SOL    HW218945   2.344   3.224   2.118 -1.9326  1.4743  0.8670
 2496SOL     OW18946   3.538   4.091   4.987 -0.0353 -0.0008  0.6640
 2496SOL    HW118947   3.477   4.062   5.055  0.0789  0.5696  1.0130
 2496SOL    HW218948   3.552   4.006   4.946 -0.4125  0.7575 -1.0223
 2497SOL     OW18949   0.768   2.283   9.321 -0.9323 -0.5433 -0.1849
 2497SOL    HW118950   0.839   2.278   9.385 -2.8916  0.2484  2.0583
 2497SOL    HW218951   0.749   2.377   9.315  0.9326 -0.3100 -2.1267
 2498SOL     OW18952   3.004   2.749   1.021  0.0049  0.2806 -0.6034
 2498SOL    HW118953   2.988   2.799   0.941  1.2903  0.7886 -0.5460
 2498SOL    HW218954   3.098   2.765   1.029 -0.0779 -0.2613  1.4759
 2499SOL     OW18955   0.888   1.866  16.435 -0.6782 -0.0942 -0.2436
 2499SOL    HW118956   0.937   1.814  16.372 -1.4536 -2.1268  0.7877
 2499SOL    HW218957   0.827   1.799  16.467 -0.1644 -0.3161  0.2712
 2500SOL     OW18958   2.319   3.036   7.987  0.0201  0.2576  0.3526
 2500SOL    HW118959   2.245   3.064   8.041 -0.2062  0.1028  0.1249
 2500SOL    HW218960   2.358   2.971   8.045  1.2358  0.4245 -0.2755
 2501SOL     OW18961   3.812   1.279   5.777  0.3074  0.1383  0.3277
 2501SOL    HW118962   3.770   1.249   5.858  1.0162 -0.8409  0.3329
 2501SOL    HW218963   3.764   1.239   5.705 -1.8155 -0.7313  2.2576
 2502SOL     OW18964   4.414   2.294   5.700 -0.2949 -0.1422  0.1311
 2502SOL    HW118965   4.360   2.340   5.764  0.2485  0.9472 -0.1935
 2502SOL    HW218966   4.353   2.251   5.640  0.7120  0.8131 -1.5789
 2503SOL     OW18967   3.499   3.006  11.498  0.0966 -0.0099 -0.1483
 2503SOL    HW118968   3.565   3.038  11.559 -0.5943 -0.8327  1.0439
 2503SOL    HW218969   3.435   2.969  11.559  2.5514 -0.2820  2.2709
 2504SOL     OW18970   4.287   1.556   5.824 -0.0607 -0.7065 -0.1649
 2504SOL    HW118971   4.340   1.526   5.751 -0.7632 -1.4388 -0.3750
 2504SOL    HW218972   4.342   1.628   5.853 -0.1276 -1.2459  1.3241
 2505SOL     OW18973   3.403   2.156   3.265 -0.0980  0.3649 -0.5029
 2505SOL    HW118974   3.443   2.147   3.352 -0.6024 -0.7159 -0.3839
 2505SOL    HW218975   3.481   2.184   3.218  1.0487 -1.9306  0.0498
 2506SOL     OW18976   4.186   4.473   8.963  0.3122  0.1464  0.1014
 2506SOL    HW118977   4.102   4.487   9.008  0.2572 -1.0076  0.3577
 2506SOL    HW218978   4.195   4.562   8.928  1.9837  0.9314  2.5040
 2507SOL     OW18979   4.429   4.229   3.621 -0.2937 -0.8196  0.0351
 2507SOL    HW118980   4.521   4.234   3.646 -0.6468 -0.4904  1.2628
 2507SOL    HW218981   4.409   4.236   3.527 -0.1378 -0.9943 -0.0110
 2508SOL     OW18982   3.551   2.508   3.152 -0.1284 -0.0913 -0.3246
 2508SOL    HW118983   3.491   2.463   3.091 -1.3412  0.2972  0.5752
 2508SOL    HW218984   3.514   2.475   3.234 -1.2824  1.0576 -0.3788
 2509SOL     OW18985   3.201   1.002  17.366  0.2246 -0.7455  0.5253
 2509SOL    HW118986   3.267   1.070  17.381  0.0593 -0.1573 -1.3572
 2509SOL    HW218987   3.117   1.042  17.388  1.5633  1.8627  0.9243
 2510SOL     OW18988   3.453   2.282  16.607  0.3013  0.1926 -0.7414
 2510SOL    HW118989   3.481   2.250  16.693 -0.0181  0.9320 -0.3625
 2510SOL    HW218990   3.490   2.217  16.548 -0.4748  0.4890 -1.5473
 2511SOL     OW18991   1.446   4.028  16.118  0.2256 -0.2079 -0.3735
 2511SOL    HW118992   1.352   4.020  16.134  0.4528 -2.1350  0.0674
 2511SOL    HW218993   1.476   3.943  16.152  2.6428  0.8871  0.2412
 2512SOL     OW18994   2.920   0.870   0.268 -0.0205 -0.0063  0.0895
 2512SOL    HW118995   2.839   0.874   0.320  0.6973  2.8972  0.9620
 2512SOL    HW218996   2.963   0.934   0.324 -0.5674 -1.2790  1.9958
 2513SOL     OW18997   2.348   1.450   1.917  0.3186 -0.2071 -0.6728
 2513SOL    HW118998   2.366   1.486   1.830  0.8953  1.2933  0.0656
 2513SOL    HW218999   2.430   1.475   1.959 -0.7806 -0.4048  1.5972
 2514SOL     OW19000   0.439   2.568   7.250 -0.3535  0.0167  0.2994
 2514SOL    HW119001   0.353   2.588   7.287 -1.4837 -1.7611 -1.3630
 2514SOL    HW219002   0.418   2.541   7.160 -3.3231 -2.3227  1.6881
 2515SOL     OW19003   0.538   3.955   6.779  0.4838 -0.2081  0.3323
 2515SOL    HW119004   0.510   3.983   6.692  1.2917  2.6167  0.9955
 2515SOL    HW219005   0.456   3.945   6.828 -1.0230 -0.4029 -2.2495
 2516SOL     OW19006   4.416   2.532  12.296 -0.0565 -0.4721 -0.1402
 2516SOL    HW119007   4.486   2.530  12.362  1.2266  0.3180 -1.4804
 2516SOL    HW219008   4.382   2.621  12.306 -2.0715 -1.7219  4.0676
 2517SOL     OW19009   2.874   0.331  10.216  0.2764 -0.3109 -0.3965
 2517SOL    HW119010   2.942   0.307  10.152  1.8720  0.9669  0.8194
 2517SOL    HW219011   2.923   0.351  10.296  1.0957  0.0032 -0.9729
 2518SOL     OW19012   0.884   0.266  10.903  0.6220 -0.1770  0.1869
 2518SOL    HW119013   0.813   0.209  10.934  0.3492  0.0163 -0.0880
 2518SOL    HW219014   0.961   0.219  10.936  1.0633 -0.0428 -0.6672
 2519SOL     OW19015   2.828   4.265   6.182 -0.2959 -0.0688  0.0960
 2519SOL    HW119016   2.809   4.342   6.237 -0.5681 -1.1458  1.5097
 2519SOL    HW219017   2.914   4.288   6.147 -1.2369  0.4704 -1.8459
 2520SOL     OW19018   4.672   4.461   4.991  0.2005 -0.4136  0.2275
 2520SOL    HW119019   4.691   4.516   4.916 -0.1093 -0.0221  0.4373
 2520SOL    HW219020   0.010   4.388   4.978  1.6493  0.8381 -0.0450
 2521SOL     OW19021   0.875   4.409   6.786  0.0211  0.1016 -0.4330
 2521SOL    HW119022   0.819   4.483   6.809  2.1661  1.8003 -0.7332
 2521SOL    HW219023   0.849   4.395   6.695  0.9776 -0.9390 -0.5525
 2522SOL     OW19024   3.232   2.794   8.308  0.4360 -0.0431 -0.0243
 2522SOL    HW119025   3.242   2.720   8.367  3.1165 -1.3317 -2.0867
 2522SOL    HW219026   3.139   2.813   8.319  0.8292  0.9292  1.6231
 2523SOL     OW19027   1.103   1.566   9.213  0.3847 -0.3685  0.3909
 2523SOL    HW119028   1.183   1.589   9.259 -1.3170 -0.7386  3.5496
 2523SOL    HW219029   1.091   1.475   9.238 -0.2817 -0.5947 -0.7669
 2524SOL     OW19030   0.280   1.611   3.512  0.2214  0.4359 -0.5693
 2524SOL    HW119031   0.355   1.555   3.491  0.0037  0.3784 -1.2155
 2524SOL    HW219032   0.253   1.589   3.600  1.1029  2.4346  0.2031
 2525SOL     OW19033   2.654   0.403  11.819  0.1468 -0.8696  0.2055
 2525SOL    HW119034   2.699   0.334  11.770  1.5864  0.6045 -0.5660
 2525SOL    HW219035   2.601   0.349  11.878  2.9409 -2.8292  0.9639
 2526SOL     OW19036   0.998   1.925   6.546  0.1505 -0.7427 -0.1943
 2526SOL    HW119037   1.044   1.851   6.507  0.0653 -0.5752 -0.6104
 2526SOL    HW219038   0.973   1.988   6.479 -2.4115 -0.3335  1.1315
 2527SOL     OW19039   2.982   2.054  10.250  0.1478  0.0551 -0.2730
 2527SOL    HW119040   3.059   2.054  10.193  0.8559  0.3340  0.6914
 2527SOL    HW219041   2.988   2.135  10.300 -1.4654 -1.8118  2.9620
 2528SOL     OW19042   4.671   3.878   6.542 -0.1901  0.2941 -0.6424
 2528SOL    HW119043   4.625   3.826   6.477  1.8246  0.7438 -2.4186
 2528SOL    HW219044   4.626   3.958   6.517  1.5863  1.9428  1.4919
 2529SOL     OW19045   1.468   0.722   3.372  0.2243 -0.6197 -0.2603
 2529SOL    HW119046   1.379   0.709   3.339  0.0880  1.2326 -0.6345
 2529SOL    HW219047   1.502   0.772   3.298  2.4193 -1.2894  0.2812
 2530SOL     OW19048   1.019   2.017   7.583  0.5517  0.9555 -0.0185
 2530SOL    HW119049   1.110   2.027   7.609  0.6965 -0.5902  0.0580
 2530SOL    HW219050   0.965   1.984   7.654 -0.1707 -1.3139 -1.5973
 2531SOL     OW19051   4.503   3.432  15.021 -0.0606  0.1388  0.6180
 2531SOL    HW119052   4.507   3.521  15.057 -0.7252 -0.7363  2.8067
 2531SOL    HW219053   4.411   3.407  15.029  0.5069 -2.0539  0.3410
 2532SOL     OW19054   0.004   3.663   3.989 -0.6850  0.0750 -0.2836
 2532SOL    HW119055   4.679   3.627   4.064 -0.4161 -0.5226 -0.3963
 2532SOL    HW219056   4.672   3.741   3.978 -2.2023 -0.6836  1.7543
 2533SOL     OW19057   1.075   1.737   3.496  0.1081  0.1778  0.2754
 2533SOL    HW119058   1.050   1.818   3.452 -0.7621  0.6965  1.7448
 2533SOL    HW219059   1.006   1.714   3.558  0.3725 -1.9529 -0.2383
 2534SOL     OW19060   3.580   0.084  10.107  0.1879  0.2123  0.1073
 2534SOL    HW119061   3.674   0.076  10.092  0.5640  1.3931  1.7812
 2534SOL    HW219062   3.561   0.173  10.078 -0.8944  0.0995  0.4725
 2535SOL     OW19063   2.148   1.340   9.619  0.4246 -0.3156 -0.1741
 2535SOL    HW119064   2.163   1.435   9.616 -0.2408 -0.2310 -0.7768
 2535SOL    HW219065   2.225   1.312   9.569  2.1528  1.6875  1.3552
 2536SOL     OW19066   4.184   3.357  10.364  0.0155  0.1039 -0.0547
 2536SOL    HW119067   4.216   3.431  10.313  0.3667 -0.4394 -0.6061
 2536SOL    HW219068   4.271   3.334  10.394  0.5903  1.8134 -0.3880
 2537SOL     OW19069   0.012   3.392   6.749 -0.0045 -0.2228 -0.1037
 2537SOL    HW119070   0.059   3.475   6.754 -0.1626 -0.1121 -0.4242
 2537SOL    HW219071   4.702   3.378   6.838  1.0007 -3.1399 -0.1725
 2538SOL     OW19072   3.923   3.634   7.372  0.0066 -0.4249 -0.2705
 2538SOL    HW119073   3.994   3.632   7.437  0.5464 -1.0578 -0.8861
 2538SOL    HW219074   3.883   3.719   7.388  0.1373 -0.0629 -1.9175
 2539SOL     OW19075   4.635   3.452   4.157 -0.4306  0.2779  0.0066
 2539SOL    HW119076   4.610   3.536   4.195  0.4033 -0.0024  1.1950
 2539SOL    HW219077   4.666   3.405   4.235 -0.2460 -1.6453 -1.2360
 2540SOL     OW19078   1.942   2.476   5.001  0.2648 -0.0811 -0.4506
 2540SOL    HW119079   1.973   2.500   5.088  1.3257 -2.8921 -0.0502
 2540SOL    HW219080   1.896   2.395   5.021 -0.8323  1.8306  4.6323
 2541SOL     OW19081   3.631   0.513   1.791 -0.4651 -0.7600  0.3513
 2541SOL    HW119082   3.633   0.576   1.719  3.2729  0.7856  1.7618
 2541SOL    HW219083   3.547   0.537   1.829 -0.3777 -0.1642  0.1731
 2542SOL     OW19084   1.299   4.183   2.257 -0.5482  0.2115  0.1794
 2542SOL    HW119085   1.393   4.173   2.273 -0.8674 -0.4471  1.6010
 2542SOL    HW219086   1.275   4.093   2.236 -0.9708  0.5344 -0.7035
 2543SOL     OW19087   2.815   3.618   7.853  0.0408 -0.6774  0.6792
 2543SOL    HW119088   2.739   3.670   7.880 -0.1356 -0.0678 -1.0161
 2543SOL    HW219089   2.857   3.682   7.795 -2.0554  2.8933  3.0843
 2544SOL     OW19090   0.899   2.405   5.463  0.5417 -0.1867 -0.3005
 2544SOL    HW119091   0.942   2.454   5.533  0.4539  1.4840 -1.4296
 2544SOL    HW219092   0.868   2.469   5.399  2.9347  0.3076 -0.9685
 2545SOL     OW19093   3.952   4.535   5.774 -0.2811 -0.1037 -0.1838
 2545SOL    HW119094   4.042   4.502   5.781  0.8336  2.9881 -0.0984
 2545SOL    HW219095   3.904   4.469   5.724 -1.1858  0.6557 -0.3120
 2546SOL     OW19096   0.082   4.414   3.178 -0.2750 -0.3494  0.1915
 2546SOL    HW119097   0.160   4.461   3.149 -0.7384 -0.9860 -2.0874
 2546SOL    HW219098   0.011   4.420   3.114 -1.4057  0.7804  1.5509
 2547SOL     OW19099   0.734   2.019   9.361 -0.0998 -0.0091 -0.0987
 2547SOL    HW119100   0.803   1.977   9.310 -0.6950 -1.0483 -0.0480
 2547SOL    HW219101   0.721   2.101   9.314 -1.5091  1.2380  2.4765
 2548SOL     OW19102   4.268   2.499   8.738  0.2797 -0.7936 -0.8415
 2548SOL    HW119103   4.185   2.510   8.691 -1.2209  2.3091  2.5764
 2548SOL    HW219104   4.275   2.408   8.767  1.5558 -0.5888 -0.5294
 2549SOL     OW19105   1.652   2.508   5.617 -0.1349 -0.5950  0.7424
 2549SOL    HW119106   1.559   2.517   5.598  0.0952  0.0523 -0.0299
 2549SOL    HW219107   1.660   2.565   5.693 -1.9656  0.6953 -0.0434
 2550SOL     OW19108   4.248   0.056   9.336  0.0647  0.1548 -0.2140
 2550SOL    HW119109   4.285   0.100   9.259  0.8313  0.1663  0.1587
 2550SOL    HW219110   4.308   0.082   9.407  1.1438 -0.9886 -0.7110
 2551SOL     OW19111   0.608   0.238   2.301 -0.3318  0.5050 -0.6786
 2551SOL    HW119112   0.527   0.273   2.264 -0.6796  0.4032 -0.0136
 2551SOL    HW219113   0.612   0.164   2.241  1.1371 -0.1951  0.2776
 2552SOL     OW19114   1.748   1.002   2.415 -0.3520 -0.2419 -1.1627
 2552SOL    HW119115   1.721   1.094   2.422 -1.3002 -0.5840 -0.2136
 2552SOL    HW219116   1.821   1.016   2.356  0.6786 -2.9211 -0.4884
 2553SOL     OW19117   2.544   2.660   6.082 -0.1616  0.3285  0.5396
 2553SOL    HW119118   2.507   2.648   5.995 -1.3519  0.4862  1.0225
 2553SOL    HW219119   2.474   2.713   6.119 -1.0228 -0.9161  0.6984
 2554SOL     OW19120   1.536   0.786   5.483  0.1739  0.5922  0.0511
 2554SOL    HW119121   1.501   0.798   5.394 -0.8180 -1.0952  0.2074
 2554SOL    HW219122   1.614   0.739   5.454 -0.1971  0.0048 -0.0011
 2555SOL     OW19123   1.426   3.596  15.407 -0.2744 -0.0421 -0.5168
 2555SOL    HW119124   1.397   3.684  15.429  1.3288  1.0461 -2.7347
 2555SOL    HW219125   1.430   3.557  15.494  0.1870  1.0394 -0.0591
 2556SOL     OW19126   1.555   1.955   7.753  0.6546 -0.2440  0.2186
 2556SOL    HW119127   1.537   1.888   7.687 -1.2234 -0.5158  1.0080
 2556SOL    HW219128   1.617   1.910   7.810  1.4843 -1.1544 -1.4060
 2557SOL     OW19129   1.070   2.837   0.534 -0.1138 -0.0004  0.3566
 2557SOL    HW119130   1.140   2.773   0.526 -1.0027 -0.9401  0.1480
 2557SOL    HW219131   1.000   2.798   0.587 -0.4452  1.0416  0.7114
 2558SOL     OW19132   1.085   2.161   2.058 -0.4685  0.1471 -0.0063
 2558SOL    HW119133   1.162   2.192   2.012 -0.5406  0.0064 -0.2242
 2558SOL    HW219134   1.028   2.238   2.054 -1.7044 -0.8030 -0.9899
 2559SOL     OW19135   0.069   1.408  14.290 -0.1387 -0.6416 -0.3591
 2559SOL    HW119136   0.008   1.335  14.294 -2.0713  1.0927  1.9352
 2559SOL    HW219137   0.038   1.462  14.217  0.1348  0.0988  0.0731
 2560SOL     OW19138   2.132   3.049  11.030 -0.7727 -0.1397  0.5493
 2560SOL    HW119139   2.214   3.002  11.013 -1.2879 -1.1904  0.9222
 2560SOL    HW219140   2.130   3.116  10.962 -0.7101 -0.0718  0.6149
 2561SOL     OW19141   0.994   3.159   4.924  0.1151 -0.3695  0.2438
 2561SOL    HW119142   0.927   3.194   4.866 -0.7176 -2.5638 -0.1144
 2561SOL    HW219143   1.017   3.074   4.886 -0.0976  0.2322 -1.2032
 2562SOL     OW19144   1.424   0.007   5.863 -0.1588 -0.1258 -0.7774
 2562SOL    HW119145   1.350   0.013   5.802 -1.5317  0.0198  0.9117
 2562SOL    HW219146   1.375   4.720   5.944  1.3677  1.8233  0.3776
 2563SOL     OW19147   1.079   3.091   9.705 -0.2874 -0.0750  0.3879
 2563SOL    HW119148   1.028   3.020   9.744 -0.0262 -0.2846  0.3534
 2563SOL    HW219149   1.020   3.165   9.710  0.0482  0.1104  1.4911
 2564SOL     OW19150   3.219   2.473   8.169 -0.0939  0.0193 -0.4767
 2564SOL    HW119151   3.126   2.484   8.189  0.6578  1.2504  2.2614
 2564SOL    HW219152   3.263   2.513   8.244 -0.4982  1.6363 -1.0987
 2565SOL     OW19153   3.910   2.779   5.215 -0.2221  0.1271  0.3993
 2565SOL    HW119154   3.841   2.756   5.153  1.4101  0.8638 -1.6968
 2565SOL    HW219155   3.975   2.720   5.177 -1.5624 -1.0839 -0.0043
 2566SOL     OW19156   0.962   1.338   3.698  0.1470  0.0774  0.6932
 2566SOL    HW119157   1.057   1.352   3.694  0.2202 -1.0668 -1.2831
 2566SOL    HW219158   0.953   1.249   3.666 -0.6549 -0.0999  1.4085
 2567SOL     OW19159   3.347   1.443  13.567  0.0807 -0.1045  0.2719
 2567SOL    HW119160   3.338   1.351  13.588  2.2074 -0.2516  0.4795
 2567SOL    HW219161   3.306   1.437  13.481  0.0949 -0.5941  0.3033
 2568SOL     OW19162   4.290   0.877   1.951  0.1251  0.0636  0.1904
 2568SOL    HW119163   4.211   0.902   1.901  1.2569  1.0365 -1.1092
 2568SOL    HW219164   4.309   0.801   1.895  3.4797 -0.4766  2.1162
 2569SOL     OW19165   2.187   4.671   1.629  0.0032 -0.2326  0.0210
 2569SOL    HW119166   2.124   4.702   1.695  2.1783  1.0046  1.5320
 2569SOL    HW219167   2.241   0.027   1.624  4.3964 -3.2280  0.2072
 2570SOL     OW19168   3.432   0.772   5.368 -0.0413 -0.2700  0.8778
 2570SOL    HW119169   3.350   0.787   5.321  0.7354 -0.5189 -0.5398
 2570SOL    HW219170   3.430   0.681   5.396 -1.2061 -0.0841  1.4435
 2571SOL     OW19171   3.743   1.988   2.938 -0.3560  0.2148 -0.1747
 2571SOL    HW119172   3.732   2.083   2.930 -0.3536  0.2932  0.7801
 2571SOL    HW219173   3.694   1.967   2.858  3.1869 -2.8591 -1.5117
 2572SOL     OW19174   3.800   1.779  15.767 -0.2086 -0.6238 -0.1896
 2572SOL    HW119175   3.834   1.782  15.856  2.4409  0.6282 -1.2645
 2572SOL    HW219176   3.725   1.839  15.771  0.8994  0.8210 -1.1901
 2573SOL     OW19177   4.384   4.589   5.999  0.3969 -0.0135  0.2711
 2573SOL    HW119178   4.309   4.627   6.045  1.2478  1.6052  0.3093
 2573SOL    HW219179   4.445   4.660   6.018 -1.5459  1.0497  2.5590
 2574SOL     OW19180   4.451   0.395   3.476 -0.0214 -0.2334 -0.2398
 2574SOL    HW119181   4.419   0.305   3.484 -2.4617  0.4698 -1.8251
 2574SOL    HW219182   4.544   0.378   3.463 -0.0660 -2.0523  1.9275
 2575SOL     OW19183   2.943   4.472   7.304  0.2167 -0.0587  0.6324
 2575SOL    HW119184   2.928   4.566   7.296 -1.5115 -0.2525  1.5919
 2575SOL    HW219185   3.029   4.461   7.263  0.2628 -1.9358  1.2203
 2576SOL     OW19186   1.582   1.368   6.109 -0.2801 -0.1749  0.7169
 2576SOL    HW119187   1.648   1.433   6.133 -0.4425  0.9012 -1.7126
 2576SOL    HW219188   1.611   1.284   6.144  0.9091 -0.9860 -2.1363
 2577SOL     OW19189   0.441   2.803   3.282  0.3897 -0.2383  0.1363
 2577SOL    HW119190   0.427   2.886   3.236 -3.1711 -1.4927 -1.0793
 2577SOL    HW219191   0.440   2.842   3.369  0.1087  1.2399 -0.5235
 2578SOL     OW19192   0.196   3.220   8.286 -0.0755 -0.2215  0.4516
 2578SOL    HW119193   0.275   3.184   8.326 -0.5097 -0.2370  1.2893
 2578SOL    HW219194   0.208   3.312   8.310 -0.1190 -0.4175  1.2282
 2579SOL     OW19195   3.412   4.019   2.621  0.0730  0.9450 -0.0945
 2579SOL    HW119196   3.329   3.971   2.626  0.3953  0.5813  1.8829
 2579SOL    HW219197   3.471   3.944   2.610  1.5754  2.5330 -2.7480
 2580SOL     OW19198   4.618   4.304   8.387 -0.0232  0.0605 -0.0465
 2580SOL    HW119199   4.524   4.325   8.387 -0.3952 -1.5930  0.3962
 2580SOL    HW219200   4.646   4.332   8.475 -0.6307  1.7181 -0.3794
 2581SOL     OW19201   3.128   3.700   8.397 -0.1274 -0.1941  0.1865
 2581SOL    HW119202   3.114   3.626   8.455 -2.7438 -1.5782 -2.2205
 2581SOL    HW219203   3.163   3.639   8.331  0.6707  2.0782 -1.5114
 2582SOL     OW19204   1.915   1.567   8.277  0.2612 -0.3378 -0.1039
 2582SOL    HW119205   1.868   1.615   8.209  0.0705 -0.5036 -0.0908
 2582SOL    HW219206   1.852   1.570   8.349  0.0240 -0.0941 -0.3226
 2583SOL     OW19207   2.511   1.998   3.226  0.2116 -0.7060  0.2231
 2583SOL    HW119208   2.569   1.925   3.207  0.5279 -0.2287 -0.6439
 2583SOL    HW219209   2.579   2.064   3.237 -0.3194 -0.3153  1.1534
 2584SOL     OW19210   1.565   2.704  10.826  0.1467 -0.2294  0.4286
 2584SOL    HW119211   1.548   2.612  10.810 -0.0863 -0.5185  2.4168
 2584SOL    HW219212   1.601   2.697  10.914  1.0558  1.4425  0.1962
 2585SOL     OW19213   0.390   1.284   3.514 -0.2640  0.2754 -0.0004
 2585SOL    HW119214   0.389   1.274   3.419  0.5937 -1.0628  0.1287
 2585SOL    HW219215   0.298   1.270   3.532 -0.0611 -0.7200  0.2396
 2586SOL     OW19216   1.868   3.131   9.665 -0.5926 -0.6406 -0.7438
 2586SOL    HW119217   1.805   3.142   9.737  0.6923  0.0479  0.2844
 2586SOL    HW219218   1.936   3.174   9.717 -0.0383 -1.0800 -1.1094
 2587SOL     OW19219   0.120   0.883   1.177 -0.0014 -0.1887  0.0731
 2587SOL    HW119220   0.175   0.848   1.247  0.6809  2.1348  0.6995
 2587SOL    HW219221   0.029   0.886   1.205 -0.1134 -0.2060 -0.2884
 2588SOL     OW19222   3.478   1.733   1.013  0.4721  0.3052 -0.2162
 2588SOL    HW119223   3.524   1.692   0.940 -1.5732 -0.2029 -1.2343
 2588SOL    HW219224   3.476   1.658   1.072 -1.1304 -0.8971 -1.7886
 2589SOL     OW19225   2.955   0.780   3.772  0.5481 -0.1476 -0.6729
 2589SOL    HW119226   2.922   0.839   3.704 -1.0457  0.7129  0.8481
 2589SOL    HW219227   2.990   0.847   3.830  0.7992 -0.8182 -0.0613
 2590SOL     OW19228   0.934   0.589   1.993  0.0337 -0.2183 -0.2405
 2590SOL    HW119229   0.998   0.623   2.055  0.1752 -2.0860  0.6387
 2590SOL    HW219230   0.970   0.628   1.913 -1.4822  1.7520  0.0346
 2591SOL     OW19231   0.030   0.405   6.211 -0.7679 -0.1636 -0.1120
 2591SOL    HW119232   0.081   0.380   6.134  1.4093  1.7981  0.6844
 2591SOL    HW219233   4.664   0.373   6.195 -1.1808  1.6066 -1.3834
 2592SOL     OW19234   3.792   1.433   1.171 -0.3617 -0.7933 -0.4737
 2592SOL    HW119235   3.867   1.480   1.133  0.6264 -0.2114  2.1886
 2592SOL    HW219236   3.769   1.391   1.088 -1.1893 -0.4497 -0.4146
 2593SOL     OW19237   0.670   2.154   2.305 -0.0291 -0.7668 -0.6395
 2593SOL    HW119238   0.611   2.188   2.372  0.8108  1.4734 -1.0409
 2593SOL    HW219239   0.611   2.124   2.236 -1.4906  0.2957  0.1529
 2594SOL     OW19240   3.020   3.590  17.218 -0.8980  0.3284 -0.0280
 2594SOL    HW119241   3.028   3.494  17.223  2.4146  0.5942 -0.0473
 2594SOL    HW219242   2.977   3.609  17.302 -0.1998  0.8726  0.2048
 2595SOL     OW19243   4.225   1.380  11.216  0.7102  0.4855 -0.0878
 2595SOL    HW119244   4.298   1.436  11.188  1.1355  0.4138  0.8791
 2595SOL    HW219245   4.245   1.379  11.309  1.1093  0.4215 -0.1718
 2596SOL     OW19246   1.139   0.835   6.191  0.4410  0.4153  0.2383
 2596SOL    HW119247   1.108   0.747   6.211  1.3140 -0.1574 -0.9718
 2596SOL    HW219248   1.234   0.824   6.190  0.6729  2.4362 -1.7422
 2597SOL     OW19249   3.500   3.301  10.305  0.4427 -0.2461  0.3156
 2597SOL    HW119250   3.429   3.358  10.334 -0.3320 -2.5587  2.9067
 2597SOL    HW219251   3.530   3.355  10.231 -1.8356  2.0873  1.0955
 2598SOL     OW19252   1.195   0.039   8.166 -1.1475 -0.4205  0.7315
 2598SOL    HW119253   1.238   0.022   8.250 -0.4336 -1.9664  0.0259
 2598SOL    HW219254   1.191   0.135   8.156 -1.8398 -0.5049  0.2337
 2599SOL     OW19255   0.247   1.344   0.296  0.6902  0.3438 -0.2435
 2599SOL    HW119256   0.274   1.252   0.303  0.5117  0.3286  0.2234
 2599SOL    HW219257   0.180   1.344   0.228  0.9610  0.1518 -0.5102
 2600SOL     OW19258   1.948   1.099   0.265 -0.9114 -0.3278  0.2622
 2600SOL    HW119259   1.945   1.073   0.357  0.5272  1.4619  0.8072
 2600SOL    HW219260   1.866   1.056   0.239 -0.6131  0.6363 -2.2645
 2601SOL     OW19261   4.174   0.423   7.320  0.3082 -1.0415  0.4244
 2601SOL    HW119262   4.123   0.502   7.333  2.0213  0.3578 -1.2839
 2601SOL    HW219263   4.130   0.399   7.238  0.0747  1.3954 -0.1595
 2602SOL     OW19264   3.591   4.162   2.979 -0.0237  0.0285  0.5132
 2602SOL    HW119265   3.544   4.081   3.002 -0.7807  0.0381 -1.0016
 2602SOL    HW219266   3.578   4.209   3.062 -1.1587 -0.6792  0.7441
 2603SOL     OW19267   4.450   3.322  10.403  0.1043  0.5220  0.3042
 2603SOL    HW119268   4.490   3.254  10.349  0.1751 -0.0847  1.1050
 2603SOL    HW219269   4.506   3.311  10.479 -0.9693  0.3182  1.0713
 2604SOL     OW19270   0.554   3.929   5.896 -0.6098  0.1244  0.2842
 2604SOL    HW119271   0.484   3.928   5.830  1.2334  0.9703 -1.6870
 2604SOL    HW219272   0.543   4.020   5.923 -0.9358 -0.3714  1.7920
 2605SOL     OW19273   2.714   2.763   2.771 -0.1069  0.4586 -0.3412
 2605SOL    HW119274   2.706   2.718   2.855 -0.1282  0.7480 -0.1870
 2605SOL    HW219275   2.779   2.828   2.796 -1.8427  1.9760  0.2589
 2606SOL     OW19276   2.788   1.080   0.670 -0.5792 -0.2522 -0.0908
 2606SOL    HW119277   2.816   1.143   0.737  0.6718 -1.8152  0.8428
 2606SOL    HW219278   2.766   1.006   0.726  0.7214 -1.0420 -0.6275
 2607SOL     OW19279   1.712   0.030   7.429  0.5318  0.7741 -0.3457
 2607SOL    HW119280   1.654   0.019   7.354 -0.7048  1.4295  0.5254
 2607SOL    HW219281   1.747   0.118   7.412 -0.7720  1.0344 -1.6404
 2608SOL     OW19282   3.022   1.312  15.361 -0.3999  0.3434  0.1514
 2608SOL    HW119283   3.050   1.350  15.445 -1.1739  1.0358  0.1040
 2608SOL    HW219284   3.002   1.223  15.390  0.7870  0.6381  1.8870
 2609SOL     OW19285   0.173   0.083   8.465  0.3396 -0.2996  0.2911
 2609SOL    HW119286   0.259   0.115   8.493  0.1115  0.3141  0.2867
 2609SOL    HW219287   0.183   0.069   8.371 -1.6726 -0.3425  0.0822
 2610SOL     OW19288   4.506   0.580   3.652 -0.9396  0.3176  0.0019
 2610SOL    HW119289   4.474   0.504   3.604 -1.0922  0.1983  0.2909
 2610SOL    HW219290   4.597   0.570   3.624 -0.6794  2.7707 -0.0427
 2611SOL     OW19291   2.831   2.542  10.354  0.3103  0.1889  0.3747
 2611SOL    HW119292   2.769   2.476  10.324  1.0564  0.2226 -1.2518
 2611SOL    HW219293   2.773   2.603  10.399  2.0078  2.7973 -0.9626
 2612SOL     OW19294   2.234   1.939   9.057  0.4138  0.3372 -0.7506
 2612SOL    HW119295   2.216   1.845   9.066 -1.3443  1.0578  3.2400
 2612SOL    HW219296   2.214   1.977   9.142  0.9773 -0.3795 -0.2841
 2613SOL     OW19297   4.002   2.674   6.192 -0.4108  0.6885 -0.1369
 2613SOL    HW119298   3.936   2.624   6.240  0.3944  2.4481  2.8245
 2613SOL    HW219299   3.966   2.761   6.204 -1.8058  0.2640 -1.2601
 2614SOL     OW19300   0.734   1.496  17.520  0.5954 -0.1583  0.1444
 2614SOL    HW119301   0.640   1.481  17.509  0.8305 -2.7150  1.5689
 2614SOL    HW219302   0.738   1.515  17.614 -0.1842 -0.1397  0.1711
 2615SOL     OW19303   1.449   1.021  16.040  0.4003 -0.0363 -0.2363
 2615SOL    HW119304   1.521   1.079  16.015  1.7645 -0.8199  1.9364
 2615SOL    HW219305   1.414   1.065  16.117 -1.1084  0.4099 -1.1894
 2616SOL     OW19306   1.490   2.657  13.726 -0.2097  0.4317 -0.0477
 2616SOL    HW119307   1.502   2.683  13.818 -1.3653  2.1034 -0.3723
 2616SOL    HW219308   1.396   2.642  13.721 -0.4250  2.3405 -1.5813
 2617SOL     OW19309   2.336   3.523  15.231  0.1393  0.3851 -0.2079
 2617SOL    HW119310   2.375   3.561  15.152  0.7078 -0.1388 -0.1814
 2617SOL    HW219311   2.385   3.442  15.246 -0.2565  0.2590  0.4090
 2618SOL     OW19312   2.039   0.270   1.711  0.5821  0.0445 -0.5167
 2618SOL    HW119313   2.032   0.335   1.641  1.6466 -1.2324 -1.8098
 2618SOL    HW219314   2.121   0.227   1.687 -0.5023 -2.5049  0.3813
 2619SOL     OW19315   1.814   0.094   5.614  0.7478  0.0494  0.5378
 2619SOL    HW119316   1.733   0.103   5.664 -0.2948  1.1830 -1.3347
 2619SOL    HW219317   1.809   0.172   5.558  1.7218 -0.9609 -0.9432
 2620SOL     OW19318   3.293   2.199  10.940  0.4000  0.2485  0.0471
 2620SOL    HW119319   3.240   2.274  10.966  0.1782 -0.3277  1.2319
 2620SOL    HW219320   3.333   2.218  10.855  0.5020  2.6406  0.6405
 2621SOL     OW19321   4.390   3.965   5.350 -0.6811  0.0953  0.1112
 2621SOL    HW119322   4.357   4.046   5.311 -1.1531 -1.0313 -1.8400
 2621SOL    HW219323   4.484   3.984   5.344 -0.8992  1.2074  0.2853
 2622SOL     OW19324   3.860   1.656   5.444  0.5113  0.0732  0.4741
 2622SOL    HW119325   3.909   1.615   5.515  0.0679 -0.2468  0.5946
 2622SOL    HW219326   3.930   1.700   5.395  0.3114 -0.1280  0.0019
 2623SOL     OW19327   1.651   0.035  15.296 -0.5488 -0.0504  0.2237
 2623SOL    HW119328   1.660   0.106  15.231 -1.9428 -0.9522 -0.9347
 2623SOL    HW219329   1.557   0.033  15.313 -0.8914  1.5677 -1.4229
 2624SOL     OW19330   2.619   0.885   3.175 -0.3451  0.1054 -0.3207
 2624SOL    HW119331   2.566   0.815   3.137  0.9776  0.2196 -2.3539
 2624SOL    HW219332   2.676   0.896   3.100 -0.6579 -3.4947 -1.0525
 2625SOL     OW19333   2.406   2.587   9.935 -0.5206  0.1229 -0.1910
 2625SOL    HW119334   2.483   2.599   9.990 -1.6987  2.1936  1.0245
 2625SOL    HW219335   2.348   2.636   9.993 -0.2584 -0.2534  0.3860
 2626SOL     OW19336   4.403   4.105   5.613  0.4291 -0.0040  0.0269
 2626SOL    HW119337   4.392   4.189   5.656 -0.0125 -0.4227  0.7319
 2626SOL    HW219338   4.446   4.125   5.530  2.3115 -0.0767  0.9810
 2627SOL     OW19339   4.595   1.826  10.021 -0.0640 -0.2966  0.0919
 2627SOL    HW119340   4.505   1.805   9.994  0.1499 -0.7165 -0.3075
 2627SOL    HW219341   4.577   1.903  10.075 -0.0846 -0.3608  0.1773
 2628SOL     OW19342   3.453   3.606   4.572 -0.0510  0.1704  0.2028
 2628SOL    HW119343   3.539   3.649   4.581 -0.6910  1.8224 -1.5971
 2628SOL    HW219344   3.468   3.543   4.642 -1.5598  2.0304  2.1869
 2629SOL     OW19345   1.996   2.960   8.786 -0.2168  0.4512 -0.1054
 2629SOL    HW119346   1.935   3.018   8.739 -1.3604  1.0609  2.1508
 2629SOL    HW219347   2.001   2.997   8.874  2.1806 -0.5105  0.1560
 2630SOL     OW19348   4.671   0.927   8.305 -0.0626  0.5738 -0.3718
 2630SOL    HW119349   4.593   0.934   8.359 -1.0520 -2.2652 -1.4395
 2630SOL    HW219350   4.668   0.835   8.279  2.6631  0.7604 -1.3625
 2631SOL     OW19351   0.018   1.730   2.925 -0.2328 -0.8048  0.0771
 2631SOL    HW119352   0.093   1.729   2.985  0.9448  1.0319 -1.3592
 2631SOL    HW219353   0.055   1.783   2.854  0.4548  1.1442  1.9143
 2632SOL     OW19354   0.973   1.096  10.869  0.4055 -0.0931  0.3281
 2632SOL    HW119355   0.936   1.182  10.890 -0.1476  0.1153 -1.4751
 2632SOL    HW219356   1.000   1.101  10.778  0.2293  2.7091  0.4252
 2633SOL     OW19357   1.788   1.077   4.663 -0.0920  0.3017 -0.0650
 2633SOL    HW119358   1.828   1.070   4.577  0.5043  0.1338  0.2299
 2633SOL    HW219359   1.738   1.158   4.648  0.7597  0.9428  0.5935
 2634SOL     OW19360   3.227   1.959  14.517 -0.4011  0.2527 -0.0323
 2634SOL    HW119361   3.253   2.036  14.568 -0.0044 -1.1525  1.9017
 2634SOL    HW219362   3.279   1.974  14.438 -1.2899 -1.2690 -0.8968
 2635SOL     OW19363   2.613   3.792  10.549 -0.3748 -0.5291 -0.3461
 2635SOL    HW119364   2.570   3.751  10.624  0.7597  0.3026  0.7645
 2635SOL    HW219365   2.604   3.721  10.485 -1.8561 -1.1295  0.5151
 2636SOL     OW19366   2.642   0.607   6.131 -0.3662  0.5942  0.0891
 2636SOL    HW119367   2.604   0.613   6.219  0.5733  0.6937  0.4847
 2636SOL    HW219368   2.592   0.680   6.094 -2.8013 -0.7796  0.6439
 2637SOL     OW19369   0.518   1.467   0.336  0.0857  0.2247  0.1961
 2637SOL    HW119370   0.541   1.505   0.251  0.2107  2.8686  1.4306
 2637SOL    HW219371   0.428   1.437   0.326  0.7815 -1.3888 -1.3208
 2638SOL     OW19372   1.925   2.942   4.647  0.1813  0.4659 -0.3715
 2638SOL    HW119373   1.831   2.955   4.630  0.5593  1.6032 -1.6788
 2638SOL    HW219374   1.941   2.853   4.615 -1.9948  0.0734 -0.3844
 2639SOL     OW19375   1.369   0.799   7.333 -0.6372  0.2338 -0.2075
 2639SOL    HW119376   1.423   0.781   7.410  1.2765 -3.6546 -2.4785
 2639SOL    HW219377   1.417   0.754   7.263 -0.6646  0.0462 -0.1034
 2640SOL     OW19378   0.778   0.464   5.498  0.4771 -0.0429 -0.2862
 2640SOL    HW119379   0.759   0.555   5.518 -1.3607 -0.8082  1.4256
 2640SOL    HW219380   0.815   0.465   5.410 -0.6391  1.3571 -0.7321
 2641SOL     OW19381   1.699   1.097   8.250 -0.2655  0.0215 -0.1612
 2641SOL    HW119382   1.665   1.023   8.200 -1.7498  0.8008 -0.2834
 2641SOL    HW219383   1.622   1.149   8.271  0.5757  0.7468  1.1712
 2642SOL     OW19384   1.545   2.902   1.290  0.2834  0.0103 -0.1376
 2642SOL    HW119385   1.508   2.821   1.255  1.0644 -0.5726  0.4035
 2642SOL    HW219386   1.622   2.919   1.236 -0.7552  0.9028 -1.3309
 2643SOL     OW19387   2.853   1.133   9.485  0.4191  0.0597 -0.3610
 2643SOL    HW119388   2.936   1.093   9.458  1.0892  0.7118  0.6875
 2643SOL    HW219389   2.784   1.078   9.448 -0.2678  1.3898 -1.0272
 2644SOL     OW19390   1.879   2.301   9.667 -0.0981 -0.1613  0.8729
 2644SOL    HW119391   1.793   2.339   9.653 -0.6909 -1.1367  1.9206
 2644SOL    HW219392   1.861   2.209   9.649  0.0051  0.1019 -0.5850
 2645SOL     OW19393   3.623   3.224   2.754  0.0382  0.0752 -0.5093
 2645SOL    HW119394   3.709   3.267   2.754  1.3934 -2.6527 -0.1678
 2645SOL    HW219395   3.601   3.227   2.847 -0.5732  1.1785 -0.6952
 2646SOL     OW19396   1.351   1.081   3.352  0.1654 -0.4897  0.8651
 2646SOL    HW119397   1.371   1.009   3.292  0.8810  0.4625 -0.0227
 2646SOL    HW219398   1.434   1.092   3.399 -1.5850 -2.4597  4.4351
 2647SOL     OW19399   1.615   2.619   2.721  0.0774  0.3835 -0.2095
 2647SOL    HW119400   1.641   2.548   2.779 -0.7693  0.3187  0.1003
 2647SOL    HW219401   1.586   2.575   2.640  1.9653 -1.0525 -0.0901
 2648SOL     OW19402   0.239   0.659   6.781 -0.5071 -0.4274 -0.0920
 2648SOL    HW119403   0.333   0.640   6.783  0.0322  2.0828 -0.5736
 2648SOL    HW219404   0.236   0.750   6.750  0.9330 -0.3624 -0.0621
 2649SOL     OW19405   0.185   1.414   2.343  0.6408  0.0406 -0.0702
 2649SOL    HW119406   0.138   1.482   2.391  0.1799 -0.9162  0.8529
 2649SOL    HW219407   0.116   1.351   2.321  1.1213 -0.2409 -0.7719
 2650SOL     OW19408   4.146   3.032   2.448 -0.4938 -0.0954 -0.0135
 2650SOL    HW119409   4.087   2.996   2.515 -0.6353 -0.0684 -0.1232
 2650SOL    HW219410   4.124   2.975   2.374 -0.3944 -0.4812  0.2527
 2651SOL     OW19411   1.286   4.607   5.494  0.2506 -0.5708 -0.6514
 2651SOL    HW119412   1.229   4.664   5.443 -0.2183 -0.0622  0.4280
 2651SOL    HW219413   1.369   4.614   5.448 -0.0872  1.0649 -1.0101
 2652SOL     OW19414   2.170   1.782   1.052 -0.4287  0.0584 -0.0949
 2652SOL    HW119415   2.148   1.873   1.066 -0.7477 -0.3177  1.8397
 2652SOL    HW219416   2.233   1.793   0.980 -2.6124 -1.5965 -2.2535
 2653SOL     OW19417   4.004   3.869   5.368 -0.5124 -0.0195  0.8320
 2653SOL    HW119418   4.015   3.807   5.296 -0.9677  0.5052  0.3025
 2653SOL    HW219419   4.060   3.823   5.430  1.7684 -0.6863 -1.7183
 2654SOL     OW19420   2.471   4.009   7.719 -0.1332 -0.2753  0.0621
 2654SOL    HW119421   2.535   4.079   7.727 -2.0943  1.5359 -0.0233
 2654SOL    HW219422   2.387   4.055   7.707 -0.4124 -0.4932  1.1849
 2655SOL     OW19423   4.147   2.394  13.133 -0.6533 -0.3426  0.1630
 2655SOL    HW119424   4.168   2.487  13.131 -3.7684  0.3691  0.0858
 2655SOL    HW219425   4.121   2.389  13.226 -0.0387 -0.4013  0.3322
 2656SOL     OW19426   2.758   1.731   7.912  0.2632 -0.0399 -0.4131
 2656SOL    HW119427   2.845   1.746   7.950  0.3708  2.3996 -1.6019
 2656SOL    HW219428   2.777   1.746   7.820  1.2151 -1.4931 -0.4504
 2657SOL     OW19429   3.480   0.554  13.365  0.0600  0.0786  0.0162
 2657SOL    HW119430   3.428   0.634  13.357  0.0087 -0.0514 -0.9332
 2657SOL    HW219431   3.565   0.587  13.334 -0.1261 -0.1374 -0.7185
 2658SOL     OW19432   4.117   1.793  12.089 -0.0386 -0.4376  0.3283
 2658SOL    HW119433   4.206   1.773  12.061 -0.7026 -1.2385 -1.2008
 2658SOL    HW219434   4.133   1.861  12.155  0.9162  0.7963 -1.1806
 2659SOL     OW19435   3.313   4.330   5.271  0.5207  0.5160 -0.5368
 2659SOL    HW119436   3.294   4.237   5.276 -0.3469  0.5923 -2.7055
 2659SOL    HW219437   3.250   4.358   5.338 -1.6021 -1.4163 -1.7577
 2660SOL     OW19438   1.349   1.422   0.486  0.1353 -0.5455 -0.1774
 2660SOL    HW119439   1.363   1.497   0.428  0.1874 -0.6959 -0.3609
 2660SOL    HW219440   1.421   1.363   0.464  0.2820 -0.6905  0.7142
 2661SOL     OW19441   2.349   1.710  13.619  0.3164 -0.7096  0.1196
 2661SOL    HW119442   2.336   1.616  13.625  0.0231 -0.6407  0.5579
 2661SOL    HW219443   2.419   1.709  13.684  1.2592  2.0373 -0.8332
 2662SOL     OW19444   1.150   3.835   1.733  0.0543 -0.2549 -0.1259
 2662SOL    HW119445   1.119   3.909   1.680  2.2516  1.8736  1.5455
 2662SOL    HW219446   1.194   3.881   1.804  1.0729  0.4243 -1.1936
 2663SOL     OW19447   2.065   3.778  11.950 -0.4371 -0.0969 -0.1123
 2663SOL    HW119448   2.142   3.765  12.005 -0.4398  3.0683  0.6356
 2663SOL    HW219449   2.076   3.705  11.890  2.0370  0.8792 -0.8255
 2664SOL     OW19450   4.348   2.799   5.937  0.3996 -0.3083 -0.2278
 2664SOL    HW119451   4.300   2.872   5.976 -2.5159 -2.3765 -0.0059
 2664SOL    HW219452   4.337   2.723   5.994 -0.2967 -1.0454 -1.3361
 2665SOL     OW19453   4.499   4.400   6.374 -0.1995  0.2544 -0.1550
 2665SOL    HW119454   4.427   4.420   6.314 -0.2245  0.2052 -0.1406
 2665SOL    HW219455   4.544   4.485   6.366 -0.2155  0.2523 -0.2655
 2666SOL     OW19456   2.140   4.488   2.363 -0.3566 -0.0740 -0.3917
 2666SOL    HW119457   2.095   4.439   2.295  0.8455 -2.8901  0.8517
 2666SOL    HW219458   2.227   4.491   2.324 -0.0215 -3.0017  0.1681
 2667SOL     OW19459   4.482   4.130   3.909 -0.1514  0.2847 -0.3621
 2667SOL    HW119460   4.500   4.211   3.956 -1.0267  0.4884 -0.3736
 2667SOL    HW219461   4.403   4.145   3.858  0.2923 -0.4317 -1.2588
 2668SOL     OW19462   4.330   1.749   7.417  0.2793 -0.0658  0.8213
 2668SOL    HW119463   4.402   1.786   7.365  0.8503 -2.7669 -0.2847
 2668SOL    HW219464   4.350   1.656   7.427 -1.2333 -0.6127 -1.2814
 2669SOL     OW19465   3.260   2.278   9.989  0.8629  0.0974 -0.5837
 2669SOL    HW119466   3.182   2.223   9.985  1.0258 -0.4239  2.7768
 2669SOL    HW219467   3.256   2.337   9.914  3.1913  1.6221  0.4804
 2670SOL     OW19468   2.175   3.443  17.083  0.1150  0.1941 -0.0210
 2670SOL    HW119469   2.163   3.439  17.178  1.5161  0.4734  0.1758
 2670SOL    HW219470   2.207   3.357  17.054  1.0677 -0.1267  1.9981
 2671SOL     OW19471   3.198   3.324  15.457 -0.3937  0.5309 -0.0432
 2671SOL    HW119472   3.266   3.268  15.420 -1.4833 -0.4140 -0.6103
 2671SOL    HW219473   3.211   3.330  15.552  0.0530 -2.7553  0.0809
 2672SOL     OW19474   4.403   4.386   5.630 -0.1764 -0.1986 -0.4065
 2672SOL    HW119475   4.477   4.426   5.585  0.2616 -1.1522 -0.5346
 2672SOL    HW219476   4.328   4.438   5.599  0.8901  1.5003 -0.0775
 2673SOL     OW19477   2.322   2.338   3.463 -0.3193 -0.5228 -0.2891
 2673SOL    HW119478   2.273   2.405   3.510  1.3494 -1.2326  2.4428
 2673SOL    HW219479   2.384   2.394   3.415 -0.7225 -0.6457 -0.9578
 2674SOL     OW19480   0.996   0.147   0.950 -0.2843  0.7188  0.3070
 2674SOL    HW119481   1.050   0.068   0.943  1.4527  2.1108 -1.5067
 2674SOL    HW219482   0.960   0.139   0.862 -1.5362  1.2033  0.7722
 2675SOL     OW19483   3.934   2.421   8.582 -0.1404  0.2214  0.5217
 2675SOL    HW119484   3.953   2.510   8.555  2.5859 -0.3314  0.6350
 2675SOL    HW219485   3.839   2.416   8.569  0.2492 -0.1341 -2.0728
 2676SOL     OW19486   3.890   0.987   2.746  0.4619 -0.0535 -0.0758
 2676SOL    HW119487   3.799   1.013   2.732 -0.4816 -2.4930  1.3353
 2676SOL    HW219488   3.871   0.905   2.793 -1.4137  0.2728 -0.2838
 2677SOL     OW19489   2.532   0.444  11.203  0.5391  0.6107  0.0927
 2677SOL    HW119490   2.472   0.406  11.139 -1.4815  1.9157  1.2426
 2677SOL    HW219491   2.605   0.381  11.204  0.0786  0.0936  1.2437
 2678SOL     OW19492   1.020   1.649   5.842 -0.4553  0.8274 -0.1496
 2678SOL    HW119493   0.988   1.632   5.931 -2.6859 -0.0931 -1.1265
 2678SOL    HW219494   0.995   1.740   5.829 -0.2567  0.9423  0.2631
 2679SOL     OW19495   3.782   0.077   7.670 -0.1394  0.4227  0.3812
 2679SOL    HW119496   3.831   0.000   7.641 -1.5131  0.7375 -2.7565
 2679SOL    HW219497   3.809   0.135   7.599 -0.9153 -0.3599 -0.5505
 2680SOL     OW19498   2.432   1.725   0.088  0.1146 -0.4721  0.9414
 2680SOL    HW119499   2.421   1.688   0.001 -0.5824  0.6309  0.5670
 2680SOL    HW219500   2.507   1.784   0.076 -0.8896  0.4412 -0.8349
 2681SOL     OW19501   2.465   1.216   1.033 -0.2464 -0.3308 -0.0339
 2681SOL    HW119502   2.503   1.228   0.946  2.2943 -0.8846  0.9728
 2681SOL    HW219503   2.379   1.253   1.016 -1.4190 -2.6563  0.8352
 2682SOL     OW19504   0.466   0.680   6.300  0.7925  0.3036  0.2227
 2682SOL    HW119505   0.545   0.670   6.248  0.9156  0.1586  0.4354
 2682SOL    HW219506   0.441   0.587   6.294 -1.9875  1.2074 -1.8972
 2683SOL     OW19507   4.531   0.195   4.742  0.3865 -0.0798 -0.1215
 2683SOL    HW119508   4.449   0.203   4.694  0.1516  2.3895  0.6638
 2683SOL    HW219509   4.541   0.282   4.781 -0.8777 -0.3309  0.7494
 2684SOL     OW19510   3.874   3.043   4.605 -0.7564  0.0896  0.5968
 2684SOL    HW119511   3.893   2.958   4.566 -0.7546  0.7115 -0.7820
 2684SOL    HW219512   3.779   3.034   4.612 -0.6467 -1.3611  0.2010
 2685SOL     OW19513   0.018   4.327   5.589  0.0460 -1.2968  0.2534
 2685SOL    HW119514   4.686   4.332   5.511  0.6980 -0.8072 -0.1665
 2685SOL    HW219515   0.103   4.331   5.545  1.2380  0.8764  2.7677
 2686SOL     OW19516   3.580   0.255   1.628  0.2380  0.3798  0.5334
 2686SOL    HW119517   3.618   0.311   1.695  0.9330  0.2266  0.2770
 2686SOL    HW219518   3.542   0.184   1.680  0.2373  1.2743  1.7499
 2687SOL     OW19519   1.561   2.757   0.026 -0.0333 -0.2613 -0.4537
 2687SOL    HW119520   1.651   2.788   0.015  0.4590 -0.7257  2.4620
 2687SOL    HW219521   1.524   2.820   0.087  2.3961  1.3840 -0.7188
 2688SOL     OW19522   0.484   0.952  11.384 -0.3117  0.6226  0.1866
 2688SOL    HW119523   0.429   1.028  11.404  0.2793  1.4888 -1.5365
 2688SOL    HW219524   0.558   0.975  11.440 -0.9143  0.2021  1.1554
 2689SOL     OW19525   0.688   2.886   8.903  0.2278  0.7112 -0.5840
 2689SOL    HW119526   0.673   2.811   8.846 -0.7471 -0.1187  0.7685
 2689SOL    HW219527   0.597   2.902   8.931 -0.8418 -1.2119 -2.9173
 2690SOL     OW19528   1.494   1.728  10.121  0.1662 -0.3380 -0.2723
 2690SOL    HW119529   1.558   1.660  10.142 -1.6657 -2.5983 -2.0321
 2690SOL    HW219530   1.541   1.810  10.142  0.2648 -0.6263  0.6314
 2691SOL     OW19531   0.318   0.734  16.214 -0.4284 -0.0671  0.2424
 2691SOL    HW119532   0.245   0.672  16.211  1.1889 -2.0375  1.8022
 2691SOL    HW219533   0.271   0.812  16.186 -2.0890 -0.9225  0.6651
 2692SOL     OW19534   1.011   0.715   4.781  0.2956 -0.2509 -0.5877
 2692SOL    HW119535   1.090   0.762   4.754  0.0178 -1.2693 -3.2599
 2692SOL    HW219536   0.961   0.717   4.699 -1.6118 -0.3522  0.5798
 2693SOL     OW19537   0.571   1.934   2.004 -0.1069  0.3348 -0.3180
 2693SOL    HW119538   0.497   1.994   2.001 -0.1464  0.2579 -0.9766
 2693SOL    HW219539   0.630   1.976   1.942 -0.0523 -2.3259 -2.0603
 2694SOL     OW19540   4.282   2.103  13.075  0.4025  0.9621 -0.0192
 2694SOL    HW119541   4.209   2.071  13.127 -0.5567 -0.2240 -2.1101
 2694SOL    HW219542   4.355   2.078  13.132 -0.8478  0.4656  1.3575
 2695SOL     OW19543   0.106   0.030   8.893  0.2798  0.6613 -0.7828
 2695SOL    HW119544   0.158   0.003   8.817  1.1961  1.2508 -0.3579
 2695SOL    HW219545   0.084   4.663   8.920  1.3842  0.4332 -0.6431
 2696SOL     OW19546   1.427   3.510  15.702  0.4522 -0.0204  0.3393
 2696SOL    HW119547   1.455   3.419  15.691 -2.2450 -0.9998  1.6550
 2696SOL    HW219548   1.495   3.551  15.756  1.8587 -0.6040 -0.9853
 2697SOL     OW19549   2.866   3.541   6.988 -0.3299  0.0813 -0.3405
 2697SOL    HW119550   2.834   3.617   6.940  0.3552  0.3427 -0.3871
 2697SOL    HW219551   2.865   3.584   7.074  2.3137  1.7941 -1.1674
 2698SOL     OW19552   1.122   0.798  13.537  0.0350 -0.0530 -0.0599
 2698SOL    HW119553   1.047   0.858  13.536  1.0103  1.1603 -0.2694
 2698SOL    HW219554   1.144   0.815  13.629 -3.4102 -1.1697  0.9904
 2699SOL     OW19555   0.203   1.473  16.068  0.3344 -0.6375 -0.1877
 2699SOL    HW119556   0.138   1.456  15.999  0.6712  2.0986 -1.1996
 2699SOL    HW219557   0.169   1.555  16.103  0.5769 -1.3226  1.6596
 2700SOL     OW19558   1.533   2.538   0.906 -0.2943 -0.1101 -0.2878
 2700SOL    HW119559   1.549   2.556   0.999 -2.8788  0.0909  0.1176
 2700SOL    HW219560   1.565   2.619   0.865  3.3684 -1.0489  0.6999
 2701SOL     OW19561   2.167   4.072   6.727  0.6236 -0.2180 -0.0229
 2701SOL    HW119562   2.128   3.986   6.741 -0.0404 -0.4868 -3.6276
 2701SOL    HW219563   2.259   4.055   6.708  0.2900 -0.1501 -1.7165
 2702SOL     OW19564   4.560   0.139   5.981  0.1312  0.2377 -0.4749
 2702SOL    HW119565   4.573   0.181   5.896  0.4993 -0.1656 -0.6154
 2702SOL    HW219566   4.613   0.059   5.979 -0.7868 -0.3728 -0.1528
 2703SOL     OW19567   2.250   1.521  14.118  0.2037  0.1910  0.4109
 2703SOL    HW119568   2.199   1.548  14.194 -2.0401 -2.2197 -0.2119
 2703SOL    HW219569   2.332   1.474  14.137 -0.0442 -0.7353 -0.8128
 2704SOL     OW19570   2.029   2.805   5.453 -0.7202 -0.6231 -0.0061
 2704SOL    HW119571   1.947   2.762   5.429 -1.4740  0.5682  0.4692
 2704SOL    HW219572   2.073   2.731   5.495 -0.6338  0.9748  2.6575
 2705SOL     OW19573   0.537   3.621   3.328 -0.1647 -0.1012 -0.1417
 2705SOL    HW119574   0.543   3.528   3.352 -1.3076  0.1715  1.2448
 2705SOL    HW219575   0.557   3.663   3.412 -0.2130 -3.1309  1.4114
 2706SOL     OW19576   2.654   3.504   3.677  0.5225  0.4051 -0.3692
 2706SOL    HW119577   2.716   3.518   3.748  0.8533  0.7511 -0.7272
 2706SOL    HW219578   2.572   3.501   3.726  1.4203 -0.4554  1.0904
 2707SOL     OW19579   3.465   2.324   2.942 -0.2689  0.3677  0.3245
 2707SOL    HW119580   3.428   2.348   2.857  2.2010  0.5974 -0.6821
 2707SOL    HW219581   3.397   2.268   2.978  1.8960 -1.9377  0.8346
 2708SOL     OW19582   2.523   0.592   5.805 -0.3469 -0.5191 -0.2417
 2708SOL    HW119583   2.503   0.635   5.888 -0.8494  0.3451 -0.8000
 2708SOL    HW219584   2.499   0.657   5.738 -2.4022  0.3580  1.3406
 2709SOL     OW19585   2.764   4.612   2.759  1.0798 -0.6032  0.2217
 2709SOL    HW119586   2.734   4.534   2.713 -0.3679 -1.0263  1.8570
 2709SOL    HW219587   2.725   4.613   2.847 -2.3216  3.1346 -1.3131
 2710SOL     OW19588   3.255   3.274   4.128  0.0520 -0.2943 -0.5285
 2710SOL    HW119589   3.332   3.224   4.155  0.1384  0.6146  0.8633
 2710SOL    HW219590   3.220   3.226   4.052  0.2461  1.6715 -1.8667
 2711SOL     OW19591   2.506   4.393   5.638 -0.9712 -0.4401 -0.2863
 2711SOL    HW119592   2.573   4.351   5.583  0.0420 -1.3064  1.6221
 2711SOL    HW219593   2.540   4.482   5.643  0.5293 -1.0033 -0.2127
 2712SOL     OW19594   1.752   2.692  10.630 -0.4082 -0.0827 -0.2542
 2712SOL    HW119595   1.686   2.715  10.695  0.7773  1.5240  0.3602
 2712SOL    HW219596   1.699   2.658  10.557  0.1802 -1.1604 -0.1765
 2713SOL     OW19597   0.784   0.078   1.110 -0.5811  0.1439  0.0978
 2713SOL    HW119598   0.859   0.115   1.064  0.8652 -2.3167  0.4671
 2713SOL    HW219599   0.720   0.054   1.043  0.5859  0.6504 -1.2080
 2714SOL     OW19600   0.741   1.592  16.185  0.5324  0.0562 -0.2720
 2714SOL    HW119601   0.759   1.665  16.126 -2.4705  1.6535  0.8337
 2714SOL    HW219602   0.827   1.563  16.216  0.9851  0.2041 -1.3706
 2715SOL     OW19603   4.512   0.487   2.857 -0.1069  0.1879 -0.8606
 2715SOL    HW119604   4.520   0.482   2.953 -2.9209 -0.8361 -0.7020
 2715SOL    HW219605   4.531   0.581   2.849  0.6692  0.3338  2.6523
 2716SOL     OW19606   1.176   4.672   0.876  0.1280 -0.1067 -0.5884
 2716SOL    HW119607   1.214   4.692   0.791 -0.9916  0.5701 -0.9312
 2716SOL    HW219608   1.130   4.591   0.856  0.0598 -0.7938  2.3692
 2717SOL     OW19609   2.701   0.096  16.167  0.4927 -0.4691  0.0140
 2717SOL    HW119610   2.779   0.040  16.172  0.6675 -0.2942 -0.7750
 2717SOL    HW219611   2.647   0.050  16.231 -0.6369  1.4237  0.4260
 2718SOL     OW19612   0.684   0.507   2.122  0.2939 -0.1632  0.3376
 2718SOL    HW119613   0.638   0.466   2.049  0.2489  0.7269 -0.1313
 2718SOL    HW219614   0.762   0.539   2.076 -0.1383 -0.7237 -0.7906
 2719SOL     OW19615   2.364   1.170   1.935 -0.5237  0.6667 -0.7724
 2719SOL    HW119616   2.458   1.184   1.921 -0.7155  0.0254 -2.5653
 2719SOL    HW219617   2.340   1.236   2.001 -0.6714 -0.7576  0.5995
 2720SOL     OW19618   0.202   3.022  10.215  0.1808 -0.8416  0.1276
 2720SOL    HW119619   0.286   2.988  10.245  0.6062 -0.8553 -1.0858
 2720SOL    HW219620   0.198   3.000  10.122 -1.2382  0.2574 -0.0725
 2721SOL     OW19621   4.243   0.034   4.485  0.1388  0.0450  0.0199
 2721SOL    HW119622   4.312   4.702   4.448  0.1641  0.4387 -0.5173
 2721SOL    HW219623   4.164   4.715   4.450  0.1507  1.4841 -1.7600
 2722SOL     OW19624   0.242   2.044   4.399 -0.1458  0.5796 -0.7661
 2722SOL    HW119625   0.329   2.007   4.383  1.2042  2.8358  1.3278
 2722SOL    HW219626   0.239   2.131   4.359  0.9519  1.0991  0.2628
 2723SOL     OW19627   2.865   3.325   5.587 -0.4444 -0.1346  0.1416
 2723SOL    HW119628   2.808   3.256   5.622 -0.3662 -1.1450 -1.7361
 2723SOL    HW219629   2.815   3.380   5.527 -0.5965 -2.8992 -2.2291
 2724SOL     OW19630   2.579   2.291   8.623  0.4483  0.6777 -0.0559
 2724SOL    HW119631   2.585   2.232   8.697 -0.4740 -1.1699 -1.4530
 2724SOL    HW219632   2.560   2.372   8.671  0.2887 -1.0750  2.8374
 2725SOL     OW19633   1.865   0.805  15.788  0.0500  0.1846  0.5561
 2725SOL    HW119634   1.921   0.746  15.737  0.9652  0.5791  1.0916
 2725SOL    HW219635   1.839   0.870  15.723 -0.9902  0.3199  1.1185
 2726SOL     OW19636   2.693   1.797   7.226  0.0327 -0.5891 -0.4496
 2726SOL    HW119637   2.713   1.704   7.217 -2.3215 -1.0639 -0.9095
 2726SOL    HW219638   2.633   1.817   7.154  0.4757  2.4407  0.0403
 2727SOL     OW19639   0.159   1.099   8.411  0.3076  0.0498  0.3572
 2727SOL    HW119640   0.121   1.180   8.446 -2.6436 -0.0880 -2.5726
 2727SOL    HW219641   0.096   1.062   8.350 -0.6829  0.9443  0.8433
 2728SOL     OW19642   4.165   2.888  14.927 -0.3734  0.1989 -0.4779
 2728SOL    HW119643   4.235   2.870  14.990  0.1869 -0.9208 -1.4377
 2728SOL    HW219644   4.219   2.875  14.849  2.3072  1.1800  1.2031
 2729SOL     OW19645   1.971   1.416  10.548 -0.1949 -0.7896 -0.1057
 2729SOL    HW119646   1.926   1.464  10.618 -0.9273 -1.0071 -0.4330
 2729SOL    HW219647   1.912   1.341  10.554 -0.4404 -0.7279 -1.6856
 2730SOL     OW19648   1.609   1.476   5.805  0.2863 -0.1980 -0.2971
 2730SOL    HW119649   1.585   1.446   5.893 -0.4563  0.9925 -0.0974
 2730SOL    HW219650   1.699   1.493   5.831  0.9102  0.9857 -3.3412
 2731SOL     OW19651   3.333   0.240  10.429 -0.1965 -0.4049 -0.6341
 2731SOL    HW119652   3.323   0.164  10.372  0.9428 -2.7132  2.3040
 2731SOL    HW219653   3.241   0.256  10.451  0.0357  0.4553 -0.2972
 2732SOL     OW19654   2.316   2.498  16.462 -0.4021  0.3719 -0.8241
 2732SOL    HW119655   2.252   2.559  16.426 -0.6460  0.8481  0.3919
 2732SOL    HW219656   2.284   2.416  16.425 -2.6616  0.1707  1.5773
 2733SOL     OW19657   1.664   1.753  11.431  0.3122  0.3748  0.1961
 2733SOL    HW119658   1.681   1.686  11.497 -0.0914  0.8196  0.7487
 2733SOL    HW219659   1.622   1.699  11.364 -2.1288  1.6927  0.6594
 2734SOL     OW19660   4.246   3.207   6.980  0.3815  0.3100 -0.2677
 2734SOL    HW119661   4.176   3.212   7.046 -1.8685  2.2126 -2.8078
 2734SOL    HW219662   4.203   3.220   6.896  0.7814  0.4863 -0.4442
 2735SOL     OW19663   3.219   4.560   5.966 -0.4850  0.1581  0.1937
 2735SOL    HW119664   3.167   4.634   5.936  1.0860  2.0259  2.0512
 2735SOL    HW219665   3.234   4.511   5.885  0.5663 -2.8234  2.1907
 2736SOL     OW19666   0.949   3.840   5.195 -0.4105 -0.9791  0.3930
 2736SOL    HW119667   0.956   3.789   5.276  2.3783 -0.9103  0.1666
 2736SOL    HW219668   0.864   3.812   5.160 -0.0713  0.7695 -1.8097
 2737SOL     OW19669   3.459   3.847  15.223 -0.0922  0.0282 -0.9537
 2737SOL    HW119670   3.435   3.935  15.193  2.3527  0.6788 -1.0247
 2737SOL    HW219671   3.555   3.856  15.219 -0.0259  0.2411  1.5584
 2738SOL     OW19672   3.544   3.042  11.825 -0.2462  0.4399  0.2424
 2738SOL    HW119673   3.618   3.028  11.884  1.2171  1.6091 -1.3507
 2738SOL    HW219674   3.487   2.966  11.836  2.4165 -1.1884  2.7119
 2739SOL     OW19675   2.445   1.301  10.669 -0.0876  0.0426  0.0503
 2739SOL    HW119676   2.524   1.350  10.648  1.2954 -2.9973 -1.9537
 2739SOL    HW219677   2.386   1.343  10.608 -1.9261 -0.7311  1.3024
 2740SOL     OW19678   3.318   0.536   1.311  0.0859  0.2217  0.7211
 2740SOL    HW119679   3.329   0.584   1.393  1.1986  1.2956 -0.0642
 2740SOL    HW219680   3.371   0.459   1.329 -1.2236 -0.8565 -0.0867
 2741SOL     OW19681   0.981   2.801  10.700 -0.2619  1.0413  0.4751
 2741SOL    HW119682   1.031   2.851  10.635 -0.3495  1.6278  0.8643
 2741SOL    HW219683   0.916   2.758  10.645 -1.0770  0.9932  1.4895
 2742SOL     OW19684   1.920   4.473   2.572  0.0095 -0.2999  1.2041
 2742SOL    HW119685   1.972   4.478   2.653  1.1196  0.2498  0.4561
 2742SOL    HW219686   1.985   4.504   2.509 -1.0749 -1.8036 -0.6515
 2743SOL     OW19687   0.122   3.626   6.861  0.0340 -0.5831 -0.2003
 2743SOL    HW119688   0.074   3.698   6.902  0.2990  0.1606 -1.1984
 2743SOL    HW219689   0.155   3.672   6.784  0.4655  2.6736  1.9590
 2744SOL     OW19690   2.394   0.602   3.199  0.1619  0.2160  0.4362
 2744SOL    HW119691   2.314   0.655   3.197  0.1940  0.2661  0.4808
 2744SOL    HW219692   2.419   0.594   3.107 -0.8873  0.5524  0.1256
 2745SOL     OW19693   4.172   0.072   5.719  0.1236  0.5329 -0.0665
 2745SOL    HW119694   4.221   0.011   5.663  0.3671  0.5190  0.1641
 2745SOL    HW219695   4.227   0.149   5.707 -0.2267  0.9794  1.1910
 2746SOL     OW19696   1.102   4.193   8.193  0.3248  0.5906  0.6733
 2746SOL    HW119697   1.090   4.276   8.240 -3.0070 -0.1939  1.2349
 2746SOL    HW219698   1.011   4.168   8.176  0.1315  0.2410  2.1931
 2747SOL     OW19699   4.550   3.295   7.689 -0.2585 -0.1775  0.1066
 2747SOL    HW119700   4.590   3.370   7.645  0.0879  0.1037  0.9025
 2747SOL    HW219701   4.463   3.299   7.650 -1.3571  0.9215  2.7033
 2748SOL     OW19702   2.748   2.431   5.450  0.0549 -0.3247 -0.3015
 2748SOL    HW119703   2.775   2.387   5.531  0.0634  1.6227  0.7626
 2748SOL    HW219704   2.825   2.464   5.404  1.3683 -2.0965  0.6241
 2749SOL     OW19705   1.897   2.008   8.765 -0.0607 -0.0426 -0.5308
 2749SOL    HW119706   1.961   1.951   8.722 -0.3412 -1.2880  0.7162
 2749SOL    HW219707   1.836   1.942   8.797  0.1240 -1.1950 -2.5797
 2750SOL     OW19708   3.629   0.413   4.871  0.1473 -0.0998 -0.2844
 2750SOL    HW119709   3.590   0.359   4.802 -0.0502  1.5147 -1.4221
 2750SOL    HW219710   3.597   0.497   4.839 -1.6962 -0.6286  0.1617
 2751SOL     OW19711   3.793   1.382   6.200 -0.6600  1.2463 -0.3172
 2751SOL    HW119712   3.747   1.369   6.283  1.0322 -1.1271  0.2628
 2751SOL    HW219713   3.715   1.402   6.149 -1.8005 -0.9641  0.5912
 2752SOL     OW19714   4.587   1.071   4.031 -0.5116 -0.0031 -1.0084
 2752SOL    HW119715   4.615   1.102   4.117 -0.3231 -0.9497 -0.7220
 2752SOL    HW219716   4.561   0.979   4.035  1.5351 -0.5334  0.5336
 2753SOL     OW19717   4.254   3.963   7.472  0.1784  0.0739 -0.1661
 2753SOL    HW119718   4.332   4.012   7.445  1.0222 -0.2050  1.7217
 2753SOL    HW219719   4.293   3.896   7.528 -2.2727 -1.4679 -0.3037
 2754SOL     OW19720   0.658   3.152  10.861 -0.2958 -0.1397 -0.8539
 2754SOL    HW119721   0.601   3.226  10.883 -1.5051 -0.7822 -1.7710
 2754SOL    HW219722   0.601   3.075  10.860 -1.5733  0.8083 -0.8347
 2755SOL     OW19723   2.383   3.327  13.653 -0.0770  0.1523 -0.0418
 2755SOL    HW119724   2.388   3.263  13.724  3.3991 -2.1004 -2.3214
 2755SOL    HW219725   2.340   3.394  13.706  0.9373 -0.6795  1.8088
 2756SOL     OW19726   0.819   0.467  15.452 -0.5947  0.1593 -0.1212
 2756SOL    HW119727   0.837   0.552  15.412 -1.9709  1.0252  1.1043
 2756SOL    HW219728   0.758   0.428  15.389  0.1568  0.8478 -1.2534
 2757SOL     OW19729   1.731   2.693   2.102  0.3787 -0.2902  0.0315
 2757SOL    HW119730   1.708   2.626   2.166  2.1608 -1.1189 -0.2026
 2757SOL    HW219731   1.821   2.712   2.129 -0.5543  1.3923  1.9704
 2758SOL     OW19732   0.514   4.482  16.659  0.0030 -0.5190 -0.3156
 2758SOL    HW119733   0.604   4.508  16.643 -1.3221  4.6393  0.6672
 2758SOL    HW219734   0.521   4.497  16.754  0.6935 -0.9886 -0.2881
 2759SOL     OW19735   0.610   0.366  11.945 -0.0877 -0.6013  0.0055
 2759SOL    HW119736   0.674   0.314  11.896 -1.2563 -0.7262 -1.3824
 2759SOL    HW219737   0.611   0.447  11.894 -1.4176  0.5350  1.8149
 2760SOL     OW19738   4.622   1.553   2.666  0.3595 -0.3998  0.3633
 2760SOL    HW119739   4.593   1.473   2.710  1.4714 -1.9208 -1.6598
 2760SOL    HW219740   4.571   1.618   2.715  0.2695 -1.6291  1.8858
 2761SOL     OW19741   0.032   2.532   3.863 -0.6913 -0.0469 -0.3579
 2761SOL    HW119742   4.688   2.482   3.911  0.9058 -0.0803  1.7892
 2761SOL    HW219743   4.704   2.609   3.834  0.5966  1.3565  1.1981
 2762SOL     OW19744   1.583   3.745   5.766 -0.0033  0.3194 -0.0236
 2762SOL    HW119745   1.585   3.706   5.853 -1.4114  1.5616  0.5811
 2762SOL    HW219746   1.666   3.790   5.779  0.5619 -0.2287 -1.7394
 2763SOL     OW19747   0.783   1.780  12.893  0.3595  0.2532  0.1922
 2763SOL    HW119748   0.787   1.773  12.798 -1.1376  0.5503  0.1110
 2763SOL    HW219749   0.876   1.763  12.910  0.7078  1.2263 -0.7120
 2764SOL     OW19750   3.064   3.381   7.387 -0.0484 -0.0856 -0.2707
 2764SOL    HW119751   3.085   3.472   7.366  1.5907 -0.4073 -0.0081
 2764SOL    HW219752   3.002   3.397   7.458 -2.0965  3.0609 -2.7327
 2765SOL     OW19753   3.647   4.274   5.276  0.0264  0.1997  0.2031
 2765SOL    HW119754   3.692   4.204   5.228 -1.7381 -0.8882  0.1357
 2765SOL    HW219755   3.559   4.235   5.277  0.4988 -0.9194 -1.9554
 2766SOL     OW19756   3.530   1.469   5.205  0.6353 -0.8689 -0.4137
 2766SOL    HW119757   3.572   1.553   5.187 -2.8226  0.3504 -2.6505
 2766SOL    HW219758   3.450   1.474   5.153 -0.2704 -1.3936  0.9265
 2767SOL     OW19759   3.342   2.425   3.333 -0.6910  0.8486 -0.4569
 2767SOL    HW119760   3.358   2.331   3.325 -0.2429  0.9628 -0.8932
 2767SOL    HW219761   3.372   2.441   3.422  1.2955  1.5108 -1.2620
 2768SOL     OW19762   0.514   1.791  12.888  0.4267  0.2642  0.0392
 2768SOL    HW119763   0.491   1.883  12.878  0.7320  0.4356  0.9266
 2768SOL    HW219764   0.609   1.786  12.904  0.2744  0.1627  0.9273
 2769SOL     OW19765   0.444   2.726   3.978 -0.3555  0.0733 -0.2612
 2769SOL    HW119766   0.455   2.688   4.066  1.1167 -0.6599 -0.7610
 2769SOL    HW219767   0.364   2.776   3.994 -0.6329 -0.9915  1.7339
 2770SOL     OW19768   4.718   2.603   8.431  0.2048  0.4914 -0.0672
 2770SOL    HW119769   4.658   2.590   8.505  0.3178  1.1085  0.1298
 2770SOL    HW219770   0.035   2.687   8.452 -0.2662  1.0701 -1.4875
 2771SOL     OW19771   2.963   2.929   7.093 -0.3063 -0.1813 -0.0609
 2771SOL    HW119772   2.913   2.916   7.173 -1.6014  0.1702 -0.8200
 2771SOL    HW219773   2.895   2.938   7.027  1.1759  2.0343 -1.2917
 2772SOL     OW19774   3.543   1.857   2.042 -0.3844 -0.5142  0.1362
 2772SOL    HW119775   3.498   1.911   2.107 -5.1201 -4.3565  0.0467
 2772SOL    HW219776   3.602   1.931   2.030  0.4921 -0.7092  3.3094
 2773SOL     OW19777   1.582   1.976   6.728 -0.1041  0.3446 -0.1665
 2773SOL    HW119778   1.652   1.944   6.785  1.0941 -1.3278 -2.5602
 2773SOL    HW219779   1.522   1.902   6.739  1.0419 -0.4791  0.5856
 2774SOL     OW19780   2.682   0.648  16.235 -0.1918  0.5530  0.1550
 2774SOL    HW119781   2.708   0.630  16.326 -0.5780  0.7934  0.3120
 2774SOL    HW219782   2.636   0.566  16.221 -2.0540  1.9766 -1.9366
 2775SOL     OW19783   4.405   1.416   8.764 -0.6382  0.6113  0.1424
 2775SOL    HW119784   4.344   1.473   8.812  1.9354  1.7454  2.1049
 2775SOL    HW219785   4.440   1.365   8.837 -0.3278 -1.9887 -1.8455
 2776SOL     OW19786   2.540   4.348   6.633  0.2588 -0.3295  0.1093
 2776SOL    HW119787   2.577   4.385   6.553  3.2946  1.1980  2.2318
 2776SOL    HW219788   2.469   4.411   6.647  0.9630  0.7377 -1.2148
 2777SOL     OW19789   0.522   4.519   3.438  0.3367  0.2502 -0.4020
 2777SOL    HW119790   0.504   4.437   3.393 -1.3167  0.5620 -0.2912
 2777SOL    HW219791   0.618   4.524   3.435  0.1986  1.3262 -2.7732
 2778SOL     OW19792   3.884   3.252  12.538  0.3777 -0.2543  0.0200
 2778SOL    HW119793   3.809   3.193  12.531  0.9821 -1.0850  0.6016
 2778SOL    HW219794   3.931   3.237  12.457 -0.3285 -3.3818  0.1821
 2779SOL     OW19795   1.475   4.080  15.798 -0.2740 -0.5645 -0.1051
 2779SOL    HW119796   1.418   4.132  15.741 -1.9166 -0.8055  1.3087
 2779SOL    HW219797   1.456   4.118  15.883  2.0791 -3.8089  1.8690
 2780SOL     OW19798   3.980   3.031   5.450  0.3588 -0.0087 -0.0519
 2780SOL    HW119799   3.920   3.088   5.498  0.6989  0.0041  0.3579
 2780SOL    HW219800   3.967   3.060   5.360  0.2345 -1.1004 -0.3854
 2781SOL     OW19801   0.464   0.826   7.635 -0.0930  0.2101 -0.4820
 2781SOL    HW119802   0.380   0.867   7.656 -0.2190  0.0705 -0.7140
 2781SOL    HW219803   0.482   0.850   7.545  0.6732  0.9463 -0.1278
 2782SOL     OW19804   1.160   4.125  15.532 -0.0620  0.9321 -0.2070
 2782SOL    HW119805   1.203   4.188  15.590  0.1236  0.4088  0.2142
 2782SOL    HW219806   1.069   4.154  15.537 -0.3708 -0.2657  0.9894
 2783SOL     OW19807   1.022   0.217   5.043  0.7267 -0.4904  0.1879
 2783SOL    HW119808   1.111   0.185   5.062  0.9481  0.9554  1.5588
 2783SOL    HW219809   1.036   0.269   4.964 -1.5453  1.6599  1.2127
 2784SOL     OW19810   1.010   2.230  17.277  0.0373 -0.0027  0.4273
 2784SOL    HW119811   0.917   2.211  17.265  0.3171 -1.4264  0.5496
 2784SOL    HW219812   1.010   2.290  17.351  2.2999  0.7395 -0.1849
 2785SOL     OW19813   3.177   2.983   7.536  0.0748  0.6227 -0.1034
 2785SOL    HW119814   3.140   3.061   7.579  0.0343  0.2536  0.5315
 2785SOL    HW219815   3.155   2.998   7.445 -0.0564 -0.0813 -0.1865
 2786SOL     OW19816   4.594   0.145   8.785 -0.0997  0.3088  0.0252
 2786SOL    HW119817   4.681   0.123   8.816 -0.6333 -1.8758  0.0000
 2786SOL    HW219818   4.587   0.079   8.716 -3.4948 -1.4584  2.0232
 2787SOL     OW19819   1.348   3.770   5.183  0.5350  0.5912  0.1282
 2787SOL    HW119820   1.374   3.684   5.148 -0.4656 -1.1434  3.6288
 2787SOL    HW219821   1.335   3.754   5.277  1.9260  0.0598  0.2271
 2788SOL     OW19822   4.095   0.498   3.454 -0.5095 -0.2983 -0.0162
 2788SOL    HW119823   4.051   0.429   3.405  0.1354 -1.6648  1.2946
 2788SOL    HW219824   4.158   0.527   3.389 -1.2681  1.7430  0.1565
 2789SOL     OW19825   0.523   4.297   2.848  0.0095  0.2644 -0.0407
 2789SOL    HW119826   0.491   4.387   2.844 -1.9978 -0.3852  1.4723
 2789SOL    HW219827   0.611   4.299   2.810 -0.5275  0.6231 -1.2453
 2790SOL     OW19828   1.878   3.895   6.069 -0.2870  0.0869 -0.1575
 2790SOL    HW119829   1.814   3.846   6.119  0.9643 -1.1847  0.1948
 2790SOL    HW219830   1.862   3.989   6.077 -2.1392 -0.1652 -0.8684
 2791SOL     OW19831   1.665   2.857   4.300 -0.5543 -0.0811 -0.8724
 2791SOL    HW119832   1.705   2.814   4.375 -2.4191 -1.0575 -0.4372
 2791SOL    HW219833   1.576   2.821   4.306 -0.4261 -0.2707 -0.1960
 2792SOL     OW19834   2.780   0.771   2.683 -0.1379 -0.2039  0.2138
 2792SOL    HW119835   2.786   0.863   2.707  0.9200 -0.0426 -0.6502
 2792SOL    HW219836   2.862   0.762   2.634 -0.7567  1.4027 -1.1075
 2793SOL     OW19837   3.457   0.648   2.558 -0.0456 -0.5311 -0.3014
 2793SOL    HW119838   3.447   0.671   2.466 -1.6453 -0.1910 -0.0320
 2793SOL    HW219839   3.548   0.620   2.568  0.5121  1.7615  1.1797
 2794SOL     OW19840   1.755   3.623   7.258  0.5958  0.5143 -0.4740
 2794SOL    HW119841   1.716   3.703   7.223  2.7176  0.8846 -2.0005
 2794SOL    HW219842   1.833   3.658   7.301  2.4609 -2.9934 -1.0491
 2795SOL     OW19843   1.177   2.065   2.564 -0.2651  0.7094  0.4037
 2795SOL    HW119844   1.098   2.082   2.616 -0.6655  0.7529 -0.2222
 2795SOL    HW219845   1.172   1.970   2.562  0.0373  0.7001  0.1198
 2796SOL     OW19846   3.618   1.036  14.806  0.0177 -0.7819  0.4114
 2796SOL    HW119847   3.635   1.116  14.856  1.5382 -1.9589  1.7524
 2796SOL    HW219848   3.688   0.984  14.846  1.1236 -0.1449 -0.6702
 2797SOL     OW19849   4.249   0.674   4.289  0.4987 -0.6864 -0.0950
 2797SOL    HW119850   4.169   0.653   4.242  0.0393 -0.3296  0.5253
 2797SOL    HW219851   4.305   0.599   4.269  0.2693 -0.4340 -1.6340
 2798SOL     OW19852   2.544   0.001   9.790  0.6811 -0.0087 -0.7199
 2798SOL    HW119853   2.518   4.639   9.753 -1.1472 -0.2251  1.0212
 2798SOL    HW219854   2.629   4.711   9.831  1.0220  1.7216 -0.8897
 2799SOL     OW19855   2.232   2.587   4.104 -0.2414  0.2627 -0.3705
 2799SOL    HW119856   2.248   2.657   4.168  1.3216 -0.3514 -0.0755
 2799SOL    HW219857   2.164   2.551   4.161 -2.5874  0.7995 -2.8552
 2800SOL     OW19858   4.048   2.249   3.787 -0.0701  0.0737 -0.4352
 2800SOL    HW119859   3.970   2.247   3.732  0.6635 -0.3753 -1.4580
 2800SOL    HW219860   4.097   2.171   3.758  0.7443  1.1271 -1.8984
 2801SOL     OW19861   1.640   2.372  16.703  0.2361  0.7166 -0.3566
 2801SOL    HW119862   1.554   2.352  16.740  0.0069  0.5887 -0.9618
 2801SOL    HW219863   1.653   2.295  16.648 -2.3427  0.4409 -0.6031
 2802SOL     OW19864   3.421   4.393   7.439 -0.7260  0.0510  0.1846
 2802SOL    HW119865   3.393   4.376   7.529 -1.5233  3.6001  0.6171
 2802SOL    HW219866   3.508   4.428   7.460 -0.1553 -1.2361 -0.0879
 2803SOL     OW19867   4.068   1.802   8.592  0.8632  0.4613  0.7892
 2803SOL    HW119868   4.153   1.812   8.635  0.9127  0.0618  0.7886
 2803SOL    HW219869   4.006   1.832   8.658 -0.1022 -0.5148  0.3239
 2804SOL     OW19870   0.904   2.395   3.784  0.0929 -0.3058  0.1744
 2804SOL    HW119871   0.844   2.460   3.747  1.0126  0.7276  0.5000
 2804SOL    HW219872   0.939   2.453   3.852 -0.5080 -1.8174  1.7839
 2805SOL     OW19873   1.002   2.209   3.562 -0.1225 -0.3725  0.8143
 2805SOL    HW119874   0.917   2.246   3.539 -0.8730 -2.6403 -0.0704
 2805SOL    HW219875   1.011   2.238   3.653  0.0390 -2.2062  1.3909
 2806SOL     OW19876   1.177   4.236   9.279 -0.5202 -0.2236  0.5687
 2806SOL    HW119877   1.155   4.235   9.186  0.6304  0.7068  0.2884
 2806SOL    HW219878   1.188   4.331   9.284  0.1977 -0.3432  1.3643
 2807SOL     OW19879   3.321   1.429   4.328  0.1349 -0.0442 -0.5035
 2807SOL    HW119880   3.303   1.385   4.410 -2.3979  3.5146  0.8614
 2807SOL    HW219881   3.408   1.393   4.312 -0.0442 -0.1388 -1.2942
 2808SOL     OW19882   0.072   2.059   3.458 -0.2040  0.3098 -0.1039
 2808SOL    HW119883   0.147   2.015   3.500 -0.2257 -1.3974 -1.8813
 2808SOL    HW219884   0.113   2.094   3.379  0.7701 -2.2388 -0.7027
 2809SOL     OW19885   2.539   2.289   1.475  0.9015 -0.6778 -0.3507
 2809SOL    HW119886   2.499   2.247   1.398  1.2077 -1.3674 -0.1349
 2809SOL    HW219887   2.586   2.359   1.430  1.4800 -0.0850  1.1949
 2810SOL     OW19888   2.285   1.910  10.809 -0.3390 -0.7811 -0.1304
 2810SOL    HW119889   2.265   1.830  10.760  1.6896 -1.9878  1.0181
 2810SOL    HW219890   2.339   1.866  10.875 -2.7648 -1.5785  1.3760
 2811SOL     OW19891   4.634   4.566  10.961 -0.3949  0.7325  0.3829
 2811SOL    HW119892   4.550   4.610  10.969 -2.4417 -2.9204 -0.8295
 2811SOL    HW219893   4.610   4.475  10.979  1.4870  0.0247 -0.6269
 2812SOL     OW19894   3.776   0.396   4.431  0.1201 -0.1103 -0.5056
 2812SOL    HW119895   3.852   0.354   4.469 -1.9058 -3.4906 -0.2059
 2812SOL    HW219896   3.818   0.482   4.425  0.4148 -0.1936  0.4376
 2813SOL     OW19897   4.374   0.765  11.910  0.0137  0.3555 -0.1211
 2813SOL    HW119898   4.279   0.760  11.919  0.0243  0.3879  0.0068
 2813SOL    HW219899   4.387   0.674  11.940 -1.6048  0.5945  1.3476
 2814SOL     OW19900   2.180   0.880  12.677 -0.1944 -0.4047  0.5331
 2814SOL    HW119901   2.211   0.953  12.731  0.8363 -1.1880  1.0156
 2814SOL    HW219902   2.087   0.895  12.696 -0.2783 -0.7521  0.3940
 2815SOL     OW19903   3.451   2.829   8.167 -0.0848  0.0152  0.2168
 2815SOL    HW119904   3.463   2.907   8.114 -2.2098 -0.3337 -0.7881
 2815SOL    HW219905   3.363   2.833   8.205 -0.6189 -0.2172 -0.9997
 2816SOL     OW19906   2.098   0.147   2.802  0.7201 -0.1448 -0.0332
 2816SOL    HW119907   2.092   0.226   2.749  1.1213  1.0768  1.7631
 2816SOL    HW219908   2.005   0.123   2.799  0.9484 -0.8652 -1.5706
 2817SOL     OW19909   1.378   0.080   6.495 -0.0590  0.1641 -0.3628
 2817SOL    HW119910   1.334   0.162   6.475 -1.7722 -0.7279 -0.2677
 2817SOL    HW219911   1.350   0.074   6.586 -2.6013 -0.3183 -1.2003
 2818SOL     OW19912   1.755   3.442   3.042  0.2545 -0.1061 -0.1888
 2818SOL    HW119913   1.805   3.477   3.116 -1.8758 -2.2935  2.2619
 2818SOL    HW219914   1.821   3.448   2.973  1.0587 -0.4237  0.5476
 2819SOL     OW19915   4.554   0.982  11.910 -0.0377 -0.5833  0.1551
 2819SOL    HW119916   4.489   0.912  11.911 -0.1756 -0.4490  0.4277
 2819SOL    HW219917   4.636   0.935  11.895  0.0434 -1.0513  2.0917
 2820SOL     OW19918   3.692   2.166   5.095 -0.7863 -0.8060  0.5005
 2820SOL    HW119919   3.688   2.247   5.147  0.5439  0.3811 -1.2208
 2820SOL    HW219920   3.641   2.182   5.016  2.4654  0.7485 -1.3050
 2821SOL     OW19921   2.488   4.688  15.855  0.4457 -0.1288 -0.3306
 2821SOL    HW119922   2.458   0.035  15.797  5.7362  1.2238 -1.4292
 2821SOL    HW219923   2.583   4.692  15.853  0.4198 -0.2102 -1.3981
 2822SOL     OW19924   1.369   2.579   5.316  0.3079  0.0333  0.0943
 2822SOL    HW119925   1.349   2.556   5.407 -2.8739 -2.5457 -1.2322
 2822SOL    HW219926   1.413   2.501   5.283  2.4358  1.3031 -0.0440
 2823SOL     OW19927   3.366   0.208   1.858 -0.2636  0.2039 -0.3379
 2823SOL    HW119928   3.342   0.237   1.770  0.3743 -2.3141 -1.3326
 2823SOL    HW219929   3.386   0.117   1.837  2.0803  0.5202  0.5064
 2824SOL     OW19930   1.257   2.293   3.441 -0.5873 -0.5455  0.1648
 2824SOL    HW119931   1.259   2.382   3.407 -0.6107 -1.8014 -3.0878
 2824SOL    HW219932   1.165   2.276   3.462 -0.5086 -1.2247 -0.0358
 2825SOL     OW19933   1.722   2.777   8.856  0.1872 -0.1169  0.0876
 2825SOL    HW119934   1.778   2.728   8.796  0.4413  0.9108 -0.5008
 2825SOL    HW219935   1.639   2.733   8.838 -0.1500  1.3703 -1.9783
 2826SOL     OW19936   2.455   2.428   6.199  0.2446 -0.4730 -0.0250
 2826SOL    HW119937   2.508   2.495   6.155  1.0552 -0.7666  0.4966
 2826SOL    HW219938   2.445   2.363   6.129  0.1092  0.2023 -0.6355
 2827SOL     OW19939   0.762   2.057   4.585  0.0188 -0.2433  0.6362
 2827SOL    HW119940   0.795   1.969   4.606  1.0735  0.0921  0.4074
 2827SOL    HW219941   0.684   2.065   4.640 -0.3792  0.6622 -0.0803
 2828SOL     OW19942   3.692   0.344   5.706 -0.1819 -0.1278 -0.3692
 2828SOL    HW119943   3.784   0.352   5.682  0.4083 -2.6606  1.0636
 2828SOL    HW219944   3.659   0.296   5.629 -0.5225  0.5186 -0.6221
 2829SOL     OW19945   1.414   1.962   8.411 -0.1064 -0.1416  0.2721
 2829SOL    HW119946   1.456   1.903   8.473  0.9784  0.6141  0.2620
 2829SOL    HW219947   1.371   2.014   8.479  0.0032  1.1068 -0.6189
 2830SOL     OW19948   3.896   3.428   4.207  0.2136  0.0726  0.6258
 2830SOL    HW119949   3.822   3.380   4.170  0.6760 -0.2672  0.1328
 2830SOL    HW219950   3.915   3.389   4.292 -0.1397 -0.5128  0.4339
 2831SOL     OW19951   1.930   1.219  16.041  0.0014 -0.0490  0.6068
 2831SOL    HW119952   1.936   1.244  15.949 -1.4578  1.1441  0.8245
 2831SOL    HW219953   1.991   1.148  16.058  1.1849  1.2547  1.8798
 2832SOL     OW19954   1.476   0.029  12.690  0.8741 -0.1452  0.1651
 2832SOL    HW119955   1.540   4.718  12.627  0.3262 -1.0314  0.0845
 2832SOL    HW219956   1.436   0.090  12.628  0.7682 -0.8943 -0.5021
 2833SOL     OW19957   1.999   1.508   8.705  1.3960  0.0331  0.4294
 2833SOL    HW119958   2.090   1.523   8.680  1.3219  1.5090  1.0393
 2833SOL    HW219959   1.993   1.552   8.790  2.5214 -1.1334  1.1055
 2834SOL     OW19960   3.546   0.006  14.246 -0.4736  0.0264 -0.6116
 2834SOL    HW119961   3.514   4.656  14.192 -0.6386 -0.3535  0.0039
 2834SOL    HW219962   3.604   4.682  14.306 -1.9464 -0.1208  0.6974
 2835SOL     OW19963   1.927   3.074   5.070  0.3379 -0.4144  0.7573
 2835SOL    HW119964   1.951   3.118   5.151 -2.7436 -2.3605  2.7341
 2835SOL    HW219965   2.013   3.066   5.029  0.2046  1.2084  0.1704
 2836SOL     OW19966   2.832   1.633  17.634  0.4682 -0.0761 -0.6281
 2836SOL    HW119967   2.900   1.693  17.605  1.9332 -0.5013  1.9764
 2836SOL    HW219968   2.888   1.555  17.635  0.3418 -0.1429  0.9485
 2837SOL     OW19969   4.327   3.747  12.722 -0.2265  0.0133 -0.5621
 2837SOL    HW119970   4.334   3.735  12.627 -0.6300 -0.4565 -0.5342
 2837SOL    HW219971   4.269   3.823  12.732 -0.4088  0.0339 -1.7515
 2838SOL     OW19972   1.262   1.434  10.322 -0.0014 -0.0776  0.4108
 2838SOL    HW119973   1.233   1.421  10.412 -1.0121  0.1262  0.1164
 2838SOL    HW219974   1.317   1.511  10.336 -0.9370  0.5262  0.7230
 2839SOL     OW19975   1.098   0.293   7.150 -0.6592  0.1175 -0.4130
 2839SOL    HW119976   1.161   0.246   7.205  2.1155  2.5197 -1.4791
 2839SOL    HW219977   1.127   0.383   7.169 -0.3733  0.0771 -0.6621
 2840SOL     OW19978   1.513   2.629   6.829 -0.4169  0.5445  0.0086
 2840SOL    HW119979   1.569   2.696   6.868 -2.2435  2.8487 -1.3122
 2840SOL    HW219980   1.456   2.619   6.905  1.9763  1.2133  1.8951
 2841SOL     OW19981   3.914   4.689   9.499  0.1275  0.1745 -0.3791
 2841SOL    HW119982   3.859   4.675   9.577  1.2804 -1.4026  0.1535
 2841SOL    HW219983   3.851   4.657   9.434  1.5036 -2.1462 -0.5734
 2842SOL     OW19984   0.441   0.810   8.162 -0.2958 -0.2590  0.1368
 2842SOL    HW119985   0.412   0.753   8.233 -1.1536 -0.4641 -0.3796
 2842SOL    HW219986   0.392   0.779   8.086  2.1566  0.4865 -1.7565
 2843SOL     OW19987   0.306   1.250  16.234 -0.3189 -0.1753 -0.1250
 2843SOL    HW119988   0.269   1.329  16.195  0.9747  0.3139 -0.3605
 2843SOL    HW219989   0.396   1.260  16.205 -0.9487  1.5973 -1.4442
 2844SOL     OW19990   0.627   0.811   2.223  0.4234  0.0503  0.2596
 2844SOL    HW119991   0.610   0.817   2.129  0.6822  2.3558  0.3432
 2844SOL    HW219992   0.631   0.716   2.231  2.0257 -0.0220 -1.3519
 2845SOL     OW19993   3.773   3.320   2.345 -0.3343  0.1046 -0.5605
 2845SOL    HW119994   3.836   3.381   2.308  0.0201 -0.1708 -0.4235
 2845SOL    HW219995   3.800   3.240   2.300  2.0829  0.1661  0.7359
 2846SOL     OW19996   1.059   1.192  14.907 -0.7237 -0.3701 -0.6834
 2846SOL    HW119997   1.111   1.258  14.861  0.1283 -0.3876  0.2540
 2846SOL    HW219998   1.085   1.110  14.864 -0.8488 -0.5597 -0.3919
 2847SOL     OW19999   0.250   0.964  17.047 -0.2374  0.3183 -0.8108
 2847SOL    HW120000   0.327   0.997  17.093 -0.3118 -0.0739 -0.4044
 2847SOL    HW220001   0.204   0.916  17.116  3.4374  0.1964  1.5661
 2848SOL     OW20002   2.167   4.025   5.205 -0.3065 -0.0628 -0.2736
 2848SOL    HW120003   2.175   3.931   5.220 -0.6454 -0.0054  0.2743
 2848SOL    HW220004   2.194   4.029   5.113  0.3667 -0.7977 -0.1043
 2849SOL     OW20005   0.068   2.607   4.201 -0.2473 -0.7840 -0.1233
 2849SOL    HW120006   0.079   2.515   4.174  1.0431 -0.5571 -0.3692
 2849SOL    HW220007   4.706   2.637   4.170  1.1954  2.6180 -0.7817
 2850SOL     OW20008   1.084   4.459   7.347 -0.4950  0.0066 -0.2596
 2850SOL    HW120009   1.067   4.441   7.255 -0.0000 -0.1876 -0.3166
 2850SOL    HW220010   1.124   4.376   7.374  0.2621  0.5140  0.1984
 2851SOL     OW20011   2.442   4.530   8.375 -0.2444 -0.1386  0.1856
 2851SOL    HW120012   2.446   4.457   8.437 -1.5833  0.4708  0.9724
 2851SOL    HW220013   2.501   4.502   8.305  1.2448 -0.1599  1.4333
 2852SOL     OW20014   0.518   4.334   3.205  0.2608  0.0234  0.1591
 2852SOL    HW120015   0.595   4.293   3.244  2.0812  2.8367 -0.5237
 2852SOL    HW220016   0.503   4.281   3.126  1.8913  1.4174 -1.0729
 2853SOL     OW20017   0.662   2.434   8.479  0.1052 -0.0767  0.2832
 2853SOL    HW120018   0.750   2.403   8.458  1.5009  4.6364 -0.8377
 2853SOL    HW220019   0.609   2.375   8.425  2.0726 -0.7424 -0.8907
 2854SOL     OW20020   4.208   3.890   4.454  0.2272  0.5804 -0.0562
 2854SOL    HW120021   4.266   3.936   4.515  0.3623  1.8470 -1.1392
 2854SOL    HW220022   4.222   3.798   4.476 -2.4697  0.3966  0.8348
 2855SOL     OW20023   4.544   0.451   5.147 -0.3027 -0.1145 -0.7112
 2855SOL    HW120024   4.561   0.456   5.241  2.4565  1.2584 -1.2888
 2855SOL    HW220025   4.457   0.412   5.144  0.9342 -3.1402  2.9899
 2856SOL     OW20026   4.653   4.450   0.403 -0.2644  0.5235  0.0573
 2856SOL    HW120027   4.638   4.525   0.460 -0.2870 -0.4189  1.2966
 2856SOL    HW220028   4.584   4.473   0.340 -0.6782 -2.7705 -0.7086
 2857SOL     OW20029   4.197   0.545   4.744  0.0466  0.1802  0.2014
 2857SOL    HW120030   4.103   0.529   4.738  0.4076 -0.3447 -3.7037
 2857SOL    HW220031   4.185   0.606   4.817 -1.7847  1.2907 -1.0197
 2858SOL     OW20032   0.390   2.519   1.906  0.0667  0.0073 -0.9591
 2858SOL    HW120033   0.447   2.560   1.971 -1.8878 -0.3334  0.9721
 2858SOL    HW220034   0.335   2.596   1.890 -4.1835 -2.5171  1.5042
 2859SOL     OW20035   0.692   4.108  17.493 -0.1989  0.2121  0.0393
 2859SOL    HW120036   0.602   4.117  17.462 -0.5980  0.6715  1.3328
 2859SOL    HW220037   0.689   4.076  17.582  2.5613  0.9788  0.4164
 2860SOL     OW20038   1.241   2.012   5.037  0.3839  0.6621  0.2055
 2860SOL    HW120039   1.188   2.089   5.059 -1.2101 -0.3052 -0.2900
 2860SOL    HW220040   1.293   2.041   4.962  0.0557  0.7237 -0.0006
 2861SOL     OW20041   3.922   0.594  10.627  0.1710 -0.4377  0.3601
 2861SOL    HW120042   3.980   0.528  10.664  0.2951 -0.2127  0.5711
 2861SOL    HW220043   3.848   0.535  10.614  0.1692  0.0834 -2.0700
 2862SOL     OW20044   3.093   0.510   3.732  0.2124 -0.3661 -0.0672
 2862SOL    HW120045   3.029   0.439   3.721 -0.9346  0.6954 -0.2677
 2862SOL    HW220046   3.040   0.590   3.733 -1.0539 -1.1910 -1.4814
 2863SOL     OW20047   3.932   4.109   9.174  0.2983 -0.1550 -0.2886
 2863SOL    HW120048   4.002   4.072   9.120  2.2575 -0.5403  2.5288
 2863SOL    HW220049   3.979   4.175   9.226  0.0457  0.4022 -0.7622
 2864SOL     OW20050   0.972   1.552  12.123  0.1538  0.5275 -0.2281
 2864SOL    HW120051   0.884   1.589  12.117 -0.2841 -0.4534  0.0922
 2864SOL    HW220052   1.017   1.632  12.096 -0.2398  0.5895 -0.6932
 2865SOL     OW20053   1.833   1.484   4.105  0.3714  0.4065  0.7683
 2865SOL    HW120054   1.872   1.420   4.045  1.6826 -0.5864  2.6910
 2865SOL    HW220055   1.766   1.531   4.056  0.2608 -1.7313 -1.1821
 2866SOL     OW20056   1.371   2.510   3.290  0.2045  0.5545 -0.0732
 2866SOL    HW120057   1.356   2.573   3.220 -1.3745 -0.5024 -0.6888
 2866SOL    HW220058   1.395   2.436   3.234  0.5606 -0.4699  1.4521
 2867SOL     OW20059   2.780   0.814  14.933 -0.2321  0.6897 -0.0367
 2867SOL    HW120060   2.709   0.829  14.870 -1.6904  1.7145  1.8391
 2867SOL    HW220061   2.851   0.858  14.887  0.6708 -0.5318  0.1736
 2868SOL     OW20062   0.229   3.665   7.566  0.0444  0.4655  0.0399
 2868SOL    HW120063   0.205   3.590   7.620 -0.3897 -0.5634 -1.5789
 2868SOL    HW220064   0.252   3.723   7.639 -0.3708  0.3246  0.2859
 2869SOL     OW20065   3.774   4.090   4.711 -0.0241 -0.4111  0.2006
 2869SOL    HW120066   3.725   4.049   4.640 -1.0948  1.1641  0.0303
 2869SOL    HW220067   3.849   4.031   4.708 -0.3037 -0.7302 -0.5445
 2870SOL     OW20068   3.485   2.650   7.600 -0.9779 -0.3992 -0.3386
 2870SOL    HW120069   3.504   2.591   7.673 -0.9925  0.0603  0.0413
 2870SOL    HW220070   3.390   2.641   7.604 -1.2504  2.9115  0.4947
 2871SOL     OW20071   0.940   1.478   8.056  0.8206  0.3578 -0.5743
 2871SOL    HW120072   0.867   1.465   8.116  1.6872 -1.8706 -0.0074
 2871SOL    HW220073   0.990   1.547   8.099 -0.3807  0.7852  0.1182
 2872SOL     OW20074   1.231   1.230   5.446 -0.1725 -0.2094 -0.8190
 2872SOL    HW120075   1.171   1.304   5.455  0.3952  0.2716 -0.9878
 2872SOL    HW220076   1.276   1.230   5.530 -0.0783  1.1420 -0.8706
 2873SOL     OW20077   3.745   0.897  17.572 -0.4218 -0.2094 -0.4874
 2873SOL    HW120078   3.756   0.849  17.654  1.6400  0.2378 -0.5066
 2873SOL    HW220079   3.716   0.829  17.510 -1.0093 -0.1211 -0.3026
 2874SOL     OW20080   0.108   0.543   5.770 -0.1279 -0.7583 -0.3950
 2874SOL    HW120081   0.092   0.552   5.677 -0.7018 -0.1863 -0.2390
 2874SOL    HW220082   0.138   0.632   5.788 -2.6172 -0.5794  2.9481
 2875SOL     OW20083   4.619   3.765   7.425  0.9021 -0.1875 -0.0948
 2875SOL    HW120084   4.579   3.791   7.508  1.8903 -3.3379  1.3651
 2875SOL    HW220085   4.666   3.840   7.389  1.2791  0.6234  2.1130
 2876SOL     OW20086   1.707   0.299  10.493 -0.1658  0.2351 -0.1893
 2876SOL    HW120087   1.755   0.224  10.528 -0.9382 -0.5883 -0.8751
 2876SOL    HW220088   1.685   0.338  10.577 -0.3215 -0.9046  0.3008
 2877SOL     OW20089   0.656   2.305  12.337 -0.2004  0.0320 -0.0903
 2877SOL    HW120090   0.582   2.248  12.318 -0.6515 -0.9012  4.3660
 2877SOL    HW220091   0.679   2.273  12.425 -1.5155 -1.3819 -0.2710
 2878SOL     OW20092   3.926   4.683  10.604 -0.4104 -0.0348 -0.3374
 2878SOL    HW120093   3.857   4.718  10.548 -0.3355 -1.0335 -1.0592
 2878SOL    HW220094   3.985   4.639  10.543 -1.2832 -0.7639 -0.6651
 2879SOL     OW20095   4.038   4.686   8.449  0.0639  0.1365  0.4364
 2879SOL    HW120096   4.012   4.716   8.362 -0.3579 -2.4439 -0.3263
 2879SOL    HW220097   4.043   0.048   8.494 -0.2969  0.2961  0.1740
 2880SOL     OW20098   0.667   1.206   7.823 -0.1888 -0.9099 -0.2026
 2880SOL    HW120099   0.699   1.163   7.743 -0.4256  0.6187 -1.1079
 2880SOL    HW220100   0.753   1.235   7.852 -1.2685  0.0568  1.9830
 2881SOL     OW20101   1.642   2.664   3.768 -0.2442  0.1174  0.3172
 2881SOL    HW120102   1.612   2.680   3.678  1.3712  1.4490  0.0029
 2881SOL    HW220103   1.680   2.577   3.770  1.2812  0.7626 -0.5178
 2882SOL     OW20104   2.057   2.001  10.178 -0.8779  0.0213  0.0481
 2882SOL    HW120105   2.104   2.081  10.204  1.5749 -1.4715  0.2343
 2882SOL    HW220106   2.123   1.946  10.135  0.2563  1.1617  0.3173
 2883SOL     OW20107   1.055   0.076   0.305 -0.2710 -0.1843  0.4431
 2883SOL    HW120108   1.097   0.092   0.220 -2.0666  0.0645 -0.4014
 2883SOL    HW220109   0.996   0.151   0.311  0.6036  0.5094  0.3247
 2884SOL     OW20110   4.243   1.333   0.664 -0.3111 -1.0038  0.2114
 2884SOL    HW120111   4.298   1.318   0.588  1.2000 -0.6521  1.2399
 2884SOL    HW220112   4.285   1.273   0.726  0.8694  1.1791  1.5048
 2885SOL     OW20113   1.085   2.498   5.234 -0.2140 -0.2244  0.0170
 2885SOL    HW120114   1.159   2.555   5.258  0.3110 -0.1020 -1.9547
 2885SOL    HW220115   1.013   2.524   5.292  1.3727  0.4543  1.7145
 2886SOL     OW20116   2.370   0.441   8.666 -0.7470 -0.7170 -0.0314
 2886SOL    HW120117   2.433   0.399   8.608 -4.5946 -0.8827 -4.0427
 2886SOL    HW220118   2.421   0.516   8.697 -1.9586  0.2155 -0.3025
 2887SOL     OW20119   0.013   1.378   7.626  0.0466  1.0654 -0.4457
 2887SOL    HW120120   0.089   1.421   7.666  0.9243 -0.6543 -0.2632
 2887SOL    HW220121   4.713   1.323   7.700 -0.9324  0.4137 -1.2307
 2888SOL     OW20122   1.522   2.128   2.155 -0.0038  0.0508  0.5128
 2888SOL    HW120123   1.510   2.043   2.113  0.2736 -0.7007  1.9756
 2888SOL    HW220124   1.449   2.176   2.114 -1.1996 -2.6434 -0.5219
 2889SOL     OW20125   3.447   4.345   4.950 -0.4903  0.4328 -0.6381
 2889SOL    HW120126   3.509   4.411   4.982 -0.2950 -0.9789  1.9077
 2889SOL    HW220127   3.496   4.264   4.936 -0.4489  0.1627  1.0673
 2890SOL     OW20128   1.502   0.853   3.619  0.0699 -0.4676  0.1035
 2890SOL    HW120129   1.463   0.829   3.534 -0.8023  2.2001 -0.2513
 2890SOL    HW220130   1.519   0.767   3.657  1.6802 -0.9631 -1.6870
 2891SOL     OW20131   4.210   0.976  10.238 -0.2830 -0.8932 -0.4523
 2891SOL    HW120132   4.139   0.997  10.298  0.0956 -0.3876 -0.1790
 2891SOL    HW220133   4.152   0.946  10.168  0.6350 -1.2901 -1.0453
 2892SOL     OW20134   3.917   2.854   6.615  0.0529 -0.0519 -0.6077
 2892SOL    HW120135   3.940   2.786   6.552 -0.1097  0.2876 -1.0334
 2892SOL    HW220136   3.938   2.935   6.568 -1.5755  0.4452 -0.4966
 2893SOL     OW20137   3.333   4.344   0.774  0.1241 -0.3715  0.0286
 2893SOL    HW120138   3.261   4.283   0.754 -0.1104  0.0141 -0.2937
 2893SOL    HW220139   3.377   4.325   0.692 -0.7723 -1.3128 -0.2403
 2894SOL     OW20140   1.332   4.464  16.262 -0.0085 -0.3347  0.8047
 2894SOL    HW120141   1.365   4.399  16.200  1.9610  1.0842  0.3458
 2894SOL    HW220142   1.417   4.483  16.301  1.0267 -1.0770 -1.0488
 2895SOL     OW20143   2.217   4.269   7.132  0.8391  0.2351  0.4113
 2895SOL    HW120144   2.213   4.194   7.073  1.9252  0.3919  0.1341
 2895SOL    HW220145   2.127   4.297   7.118 -0.0058 -2.3782  0.6346
 2896SOL     OW20146   1.314   3.041   3.195  0.5348  0.0352  0.2339
 2896SOL    HW120147   1.324   3.118   3.139 -0.5550  0.5988  0.8101
 2896SOL    HW220148   1.230   3.011   3.161  0.2524 -1.0951  1.9121
 2897SOL     OW20149   1.931   1.762   2.084  0.3184 -0.1614 -0.4731
 2897SOL    HW120150   1.939   1.779   2.178  1.3761 -2.5279 -0.1322
 2897SOL    HW220151   2.012   1.714   2.065 -1.1554 -2.9129  0.2027
 2898SOL     OW20152   3.359   0.828   4.900  0.4664  0.5768 -0.1094
 2898SOL    HW120153   3.309   0.830   4.982 -2.3709 -0.8592 -1.7875
 2898SOL    HW220154   3.300   0.870   4.837 -0.0371  1.7499  1.1472
 2899SOL     OW20155   3.420   3.971  15.767  0.5541  0.6069 -0.1013
 2899SOL    HW120156   3.353   3.971  15.699 -1.2335 -0.3166  1.6474
 2899SOL    HW220157   3.406   4.062  15.795 -2.0190 -0.2726  1.5105
 2900SOL     OW20158   1.128   0.535  13.269 -0.0556 -0.1358  0.1758
 2900SOL    HW120159   1.163   0.614  13.309  1.9929 -0.7434 -0.4039
 2900SOL    HW220160   1.117   0.579  13.184  1.3361 -0.0726  0.0211
 2901SOL     OW20161   3.734   3.042   2.596 -0.5471 -0.2427  0.2127
 2901SOL    HW120162   3.742   3.103   2.523  1.4937 -0.0065  0.6256
 2901SOL    HW220163   3.709   3.099   2.669 -0.5726 -0.4623  0.3751
 2902SOL     OW20164   4.573   4.036   6.776 -0.1752 -0.5341 -0.1561
 2902SOL    HW120165   4.640   4.101   6.755 -0.9609  0.5987  0.8434
 2902SOL    HW220166   4.500   4.060   6.719 -0.4205 -2.5025 -0.7031
 2903SOL     OW20167   4.137   2.315   4.063  0.1384 -0.2744 -0.3478
 2903SOL    HW120168   4.071   2.292   3.998 -0.5541 -2.0520  1.0176
 2903SOL    HW220169   4.092   2.388   4.107 -1.4102 -1.1985 -0.4143
 2904SOL     OW20170   4.175   2.848  12.768 -0.2682 -0.2747  0.5243
 2904SOL    HW120171   4.215   2.765  12.794  1.7034 -0.1925 -2.2511
 2904SOL    HW220172   4.114   2.852  12.842 -1.4147  5.5074 -0.7240
 2905SOL     OW20173   2.217   0.790   6.391  0.3515  0.0484 -0.3397
 2905SOL    HW120174   2.275   0.749   6.455  0.4644 -1.8213 -1.6421
 2905SOL    HW220175   2.279   0.838   6.337 -1.4504  1.5551 -1.0657
 2906SOL     OW20176   1.106   1.705   4.868  0.5365  0.2059  0.2684
 2906SOL    HW120177   1.095   1.784   4.816  1.3911 -0.1839 -0.5061
 2906SOL    HW220178   1.181   1.732   4.921  1.0888  0.4109 -0.6083
 2907SOL     OW20179   2.872   2.965   1.452  0.0164 -0.6306 -0.4918
 2907SOL    HW120180   2.956   2.942   1.412  0.8099 -0.0333  0.8269
 2907SOL    HW220181   2.808   2.905   1.414 -1.6524  0.0178  1.3041
 2908SOL     OW20182   4.259   0.819  13.521  0.0892 -0.1047  0.1874
 2908SOL    HW120183   4.257   0.733  13.561  1.7326 -0.3616 -0.2537
 2908SOL    HW220184   4.193   0.814  13.452 -0.2269 -0.4092  0.5123
 2909SOL     OW20185   3.456   1.314   8.115 -0.0424  0.0434  0.2269
 2909SOL    HW120186   3.377   1.271   8.147  0.1149 -2.4950 -2.8436
 2909SOL    HW220187   3.439   1.408   8.124 -0.5224  0.1264 -1.5517
 2910SOL     OW20188   0.655   0.964   6.220  0.3987  0.1177  0.9224
 2910SOL    HW120189   0.641   0.979   6.127 -2.1932 -1.6681  1.0426
 2910SOL    HW220190   0.729   1.019   6.247  0.1868  0.5448  0.6406
 2911SOL     OW20191   1.032   2.343   5.986  0.3736  0.2688 -0.8839
 2911SOL    HW120192   1.086   2.264   5.987 -0.4560 -0.3035 -1.5418
 2911SOL    HW220193   0.944   2.306   5.994  0.7483 -0.2305  0.9133
 2912SOL     OW20194   3.302   2.887   3.337 -0.2677 -0.0955 -0.1518
 2912SOL    HW120195   3.308   2.852   3.426  1.3538 -0.6944 -0.4911
 2912SOL    HW220196   3.271   2.807   3.294  0.5905 -0.7275  0.3883
 2913SOL     OW20197   2.064   3.310   2.731  0.7028 -0.2257 -0.0787
 2913SOL    HW120198   1.994   3.249   2.753 -0.0323  1.4749  2.2228
 2913SOL    HW220199   2.047   3.384   2.790 -0.4317 -0.6139  0.0739
 2914SOL     OW20200   3.822   0.398  16.495  0.5460 -0.4615  0.2347
 2914SOL    HW120201   3.778   0.372  16.414  0.3869 -2.2134  0.8810
 2914SOL    HW220202   3.764   0.469  16.522  0.0277 -0.6329 -0.4352
 2915SOL     OW20203   1.541   4.555   9.290 -0.2655 -0.2369  0.2278
 2915SOL    HW120204   1.602   4.562   9.216  0.6115  0.4615  1.0358
 2915SOL    HW220205   1.572   4.472   9.327 -0.5017  0.6647  2.4322
 2916SOL     OW20206   2.153   4.200   0.933 -0.5390  0.6420 -0.4066
 2916SOL    HW120207   2.083   4.254   0.970 -1.5510 -1.9181  1.4486
 2916SOL    HW220208   2.237   4.246   0.937 -0.4463  0.4721 -0.3955
 2917SOL     OW20209   2.094   1.186   9.002  0.0193 -0.3566 -0.6576
 2917SOL    HW120210   2.111   1.267   8.953 -2.1003  0.1118 -0.6120
 2917SOL    HW220211   2.173   1.194   9.056 -0.9699  2.3088  0.4036
 2918SOL     OW20212   2.914   1.484   2.973  0.3204 -0.3789  0.0234
 2918SOL    HW120213   2.914   1.404   2.921 -1.2846  0.5421 -1.4035
 2918SOL    HW220214   3.000   1.481   3.016 -0.9431  0.8125  2.5830
 2919SOL     OW20215   4.306   1.951   4.049  0.5116 -0.0290 -0.6271
 2919SOL    HW120216   4.399   1.939   4.030  0.5267  0.0271 -0.5848
 2919SOL    HW220217   4.278   1.861   4.028 -1.8481  0.4894  0.3924
 2920SOL     OW20218   0.908   1.006   7.206 -0.1908  0.4531  0.0909
 2920SOL    HW120219   0.944   1.036   7.289 -1.3999 -2.7382  1.7566
 2920SOL    HW220220   0.931   1.082   7.153  1.6949 -0.5437 -0.5347
 2921SOL     OW20221   3.740   2.230   0.859 -0.7353  0.6718  0.2751
 2921SOL    HW120222   3.816   2.210   0.915 -0.6071 -1.1008 -0.5178
 2921SOL    HW220223   3.749   2.186   0.774 -1.7357  1.0771 -0.0310
 2922SOL     OW20224   2.027   1.152   4.389 -0.2081  1.1663  0.2488
 2922SOL    HW120225   1.977   1.230   4.412 -1.8488  0.2809 -0.2993
 2922SOL    HW220226   1.956   1.096   4.358  2.4031 -1.6333 -0.6926
 2923SOL     OW20227   0.752   0.681   2.568 -0.9149  0.3967 -0.2681
 2923SOL    HW120228   0.697   0.749   2.528 -0.5696 -0.6418 -2.5089
 2923SOL    HW220229   0.742   0.613   2.501 -0.8740 -1.7301  1.9203
 2924SOL     OW20230   1.252   3.100   5.159 -0.1393  0.1694  0.2207
 2924SOL    HW120231   1.268   3.027   5.219  0.3725 -0.9461 -1.2556
 2924SOL    HW220232   1.157   3.111   5.166 -0.2673 -0.6045 -0.2082
 2925SOL     OW20233   3.865   1.130   3.653  0.1270  0.2093  0.0627
 2925SOL    HW120234   3.867   1.061   3.586 -0.2730  1.8432 -1.6447
 2925SOL    HW220235   3.954   1.130   3.686  0.8891  0.6401 -2.0291
 2926SOL     OW20236   2.618   3.713   4.946  0.0432  0.0043 -0.2869
 2926SOL    HW120237   2.646   3.622   4.934  1.1759  0.3031  0.1045
 2926SOL    HW220238   2.680   3.763   4.893 -1.0259  0.0043 -1.5296
 2927SOL     OW20239   1.324   1.646   9.310 -0.5079 -0.7242 -0.3864
 2927SOL    HW120240   1.358   1.617   9.395 -1.0329  1.4775  0.5883
 2927SOL    HW220241   1.400   1.673   9.259 -1.4887  2.9164  0.0920
 2928SOL     OW20242   4.194   3.909   3.156 -0.3888 -0.0414 -0.2341
 2928SOL    HW120243   4.196   3.823   3.115  2.2600  0.2871 -0.8216
 2928SOL    HW220244   4.102   3.932   3.166 -0.6071 -0.7214 -0.6938
 2929SOL     OW20245   2.509   4.491   4.888 -0.1607 -0.2833 -0.1549
 2929SOL    HW120246   2.581   4.436   4.920 -0.4392  0.0439  1.0621
 2929SOL    HW220247   2.519   4.498   4.793 -0.6381  0.0643 -0.1832
 2930SOL     OW20248   0.825   2.966   5.862 -0.0665  0.7608  0.1585
 2930SOL    HW120249   0.876   2.958   5.781 -0.1737 -0.3852  0.2117
 2930SOL    HW220250   0.739   2.975   5.822 -1.1123 -3.7265  1.4531
 2931SOL     OW20251   1.699   1.248   8.550 -0.2596 -0.2392  0.0748
 2931SOL    HW120252   1.668   1.236   8.460 -0.7642  2.0017 -0.0484
 2931SOL    HW220253   1.749   1.166   8.553 -0.4998 -0.2787  2.4789
 2932SOL     OW20254   0.313   2.329   2.230  0.0940 -0.1709 -0.0379
 2932SOL    HW120255   0.274   2.401   2.279  2.0226 -0.2111  1.5409
 2932SOL    HW220256   0.253   2.262   2.262 -0.3109 -0.1412 -0.7340
 2933SOL     OW20257   1.783   4.177   9.455  0.4643  0.1208 -0.0958
 2933SOL    HW120258   1.845   4.114   9.491  1.6812  0.0427 -2.3570
 2933SOL    HW220259   1.724   4.117   9.410  0.8071 -0.2671 -0.0325
 2934SOL     OW20260   1.108   3.123   3.945 -0.0476 -0.2766  0.3113
 2934SOL    HW120261   1.125   3.215   3.926 -1.8165 -0.0285 -0.0749
 2934SOL    HW220262   1.120   3.080   3.860 -0.5782  1.5968 -0.7115
 2935SOL     OW20263   2.550   3.393   8.358  0.4800 -0.2223  0.3943
 2935SOL    HW120264   2.613   3.404   8.430  1.3273  2.1793 -0.7309
 2935SOL    HW220265   2.506   3.310   8.378 -1.3232  0.6588  0.0909
 2936SOL     OW20266   3.044   1.672   7.520  0.2597 -0.3809  0.2435
 2936SOL    HW120267   3.000   1.587   7.509  2.5924 -1.3532 -1.6192
 2936SOL    HW220268   3.099   1.678   7.442 -0.0558 -1.8968 -0.1028
 2937SOL     OW20269   4.460   1.195   4.926 -0.0555  0.2281 -0.2249
 2937SOL    HW120270   4.465   1.223   5.017  0.1963  0.5097 -0.3250
 2937SOL    HW220271   4.390   1.251   4.892  0.0480 -0.8158 -2.1736
 2938SOL     OW20272   3.277   3.065   9.530  0.1063 -0.2590 -0.0708
 2938SOL    HW120273   3.190   3.095   9.502  1.2846  2.5005 -0.7987
 2938SOL    HW220274   3.301   2.990   9.475 -2.1488 -0.1168 -1.2371
 2939SOL     OW20275   0.580   1.023   3.899  0.4137  0.1184  0.0259
 2939SOL    HW120276   0.674   1.014   3.910  0.2095 -1.5797  0.4372
 2939SOL    HW220277   0.546   0.956   3.959  0.5749 -0.4538 -0.5285
 2940SOL     OW20278   4.397   3.700   4.911  0.4179 -0.3932 -0.2484
 2940SOL    HW120279   4.334   3.643   4.954  2.5056 -3.0581 -0.7565
 2940SOL    HW220280   4.352   3.732   4.833  1.1111  2.4175  0.4909
 2941SOL     OW20281   2.204   2.745   8.927  0.4249  0.1807 -0.3375
 2941SOL    HW120282   2.159   2.749   9.011  3.0924 -2.7522  1.2039
 2941SOL    HW220283   2.223   2.651   8.932  1.2497  0.3783  0.2199
 2942SOL     OW20284   4.615   1.005   3.711 -0.0443  0.0196  0.3471
 2942SOL    HW120285   4.692   0.947   3.708  0.4165  0.6461  0.1322
 2942SOL    HW220286   4.558   0.948   3.659  1.0490  0.3303 -1.1577
 2943SOL     OW20287   3.920   0.323  13.750  0.2621  0.0071 -0.4265
 2943SOL    HW120288   3.962   0.407  13.737  1.1098 -0.4330 -0.5072
 2943SOL    HW220289   3.839   0.328  13.698  1.7591  1.2207 -2.6172
 2944SOL     OW20290   1.166   3.250  12.083  0.1530 -0.1703 -0.2487
 2944SOL    HW120291   1.149   3.267  12.175  1.6095 -1.8749  0.3508
 2944SOL    HW220292   1.107   3.310  12.038 -1.1280 -1.2410 -0.0062
 2945SOL     OW20293   1.673   2.977  12.081 -0.5241 -0.4657  0.2788
 2945SOL    HW120294   1.763   2.997  12.108 -0.0977  0.2878 -1.7550
 2945SOL    HW220295   1.679   2.889  12.045 -0.2245 -0.8491  1.2617
 2946SOL     OW20296   0.046   1.870   7.907  0.3859  0.3037 -0.1138
 2946SOL    HW120297   4.676   1.855   7.927  0.5726  1.5283  1.6688
 2946SOL    HW220298   0.082   1.793   7.951  1.3068 -0.5679 -2.3798
 2947SOL     OW20299   3.553   3.697   8.653  0.3511 -0.2223 -0.2624
 2947SOL    HW120300   3.593   3.661   8.732  1.1378  0.1877 -0.4789
 2947SOL    HW220301   3.523   3.622   8.602 -1.0837 -0.3216  0.7341
 2948SOL     OW20302   1.929   2.931   8.421 -0.1443 -0.6012  0.6268
 2948SOL    HW120303   1.959   2.853   8.468  1.1196  0.8432  2.2371
 2948SOL    HW220304   1.867   2.968   8.484  0.7498 -2.1018  2.3774
 2949SOL     OW20305   3.990   0.644   7.907  0.5026 -0.1776  0.5025
 2949SOL    HW120306   3.940   0.576   7.953 -2.4098  1.7048  0.1545
 2949SOL    HW220307   3.950   0.719   7.951  0.2923  0.7736 -1.2897
 2950SOL     OW20308   3.322   1.934  11.713  0.2364  0.3344 -0.4365
 2950SOL    HW120309   3.270   1.920  11.634  2.6604  2.2318 -2.3588
 2950SOL    HW220310   3.407   1.915  11.673  1.5699  3.9514  0.6760
 2951SOL     OW20311   4.255   2.355   6.618  0.0721 -0.2813 -0.3322
 2951SOL    HW120312   4.281   2.306   6.696  1.7484 -1.3860 -1.5719
 2951SOL    HW220313   4.214   2.426   6.668 -1.1105  0.1801 -1.9672
 2952SOL     OW20314   0.240   1.762   3.979  0.8035 -0.0539 -0.3282
 2952SOL    HW120315   0.255   1.816   4.056  0.2854 -0.4620  0.0642
 2952SOL    HW220316   0.288   1.683   4.005  0.4686 -0.0893  0.2024
 2953SOL     OW20317   4.291   4.304   1.575 -0.3245  0.3563  0.0540
 2953SOL    HW120318   4.326   4.227   1.532 -1.8593 -0.8207  0.9193
 2953SOL    HW220319   4.218   4.329   1.518 -0.9199 -0.2413  0.5540
 2954SOL     OW20320   3.826   1.693   6.491  0.5269  0.0711 -0.5718
 2954SOL    HW120321   3.848   1.603   6.514 -0.1914 -0.2825 -1.2963
 2954SOL    HW220322   3.742   1.683   6.447 -0.3916  0.0059  1.2085
 2955SOL     OW20323   1.651   4.634   8.766  0.5317 -0.0342 -0.7042
 2955SOL    HW120324   1.668   4.702   8.701  0.6783 -0.8396 -1.5039
 2955SOL    HW220325   1.736   4.630   8.810  0.6185  1.1818 -0.7566
 2956SOL     OW20326   1.987   4.226  10.748  1.1099  0.5680  0.0736
 2956SOL    HW120327   1.935   4.252  10.672  3.1496  0.5343 -1.3164
 2956SOL    HW220328   2.076   4.216  10.715  0.9836 -0.8253  0.1571
 2957SOL     OW20329   3.468   4.267   8.648  0.2372 -0.1605 -0.4194
 2957SOL    HW120330   3.481   4.178   8.615 -0.6672 -0.2859 -0.4228
 2957SOL    HW220331   3.474   4.329   8.575  0.3530  1.1551  0.7019
 2958SOL     OW20332   4.705   1.595  16.413  0.2795 -0.1667 -0.1072
 2958SOL    HW120333   4.721   1.502  16.426  2.1446  0.0760 -0.6326
 2958SOL    HW220334   4.674   1.626  16.498  0.5323 -0.4080  0.0724
 2959SOL     OW20335   0.678   3.923   2.389  0.4358 -0.1004 -0.3840
 2959SOL    HW120336   0.755   3.976   2.368  0.3942 -0.2249 -0.8666
 2959SOL    HW220337   0.640   3.900   2.304  0.6088  0.3733 -0.5897
 2960SOL     OW20338   0.539   3.351   3.372  0.5129  0.4041 -0.0681
 2960SOL    HW120339   0.522   3.345   3.466  1.4123  1.4070  0.1602
 2960SOL    HW220340   0.633   3.342   3.358  0.4265 -1.3040  0.4669
 2961SOL     OW20341   3.806   4.502   4.942 -0.2025  0.0652 -0.3813
 2961SOL    HW120342   3.871   4.506   4.872  3.0642  0.5173  2.6412
 2961SOL    HW220343   3.787   4.408   4.941  0.4451 -0.0511 -1.5217
 2962SOL     OW20344   4.085   4.294   7.224 -0.0091 -0.2835  0.1316
 2962SOL    HW120345   4.154   4.235   7.194 -0.5137 -1.8460  1.9839
 2962SOL    HW220346   4.124   4.381   7.232 -0.2136  0.0522 -2.5939
 2963SOL     OW20347   1.968   0.100   8.034 -0.0073 -0.1314  0.5236
 2963SOL    HW120348   1.886   0.145   8.054 -0.2157  0.6265 -2.0067
 2963SOL    HW220349   1.936   0.016   8.003 -1.7302 -0.1934  2.4595
 2964SOL     OW20350   3.236   3.938  10.561  0.3663  0.6183 -0.3195
 2964SOL    HW120351   3.177   3.995  10.512  2.4435  2.2980 -0.8568
 2964SOL    HW220352   3.223   3.854  10.517 -0.3472 -0.1344  1.3523
 2965SOL     OW20353   2.064   3.509   2.360 -0.3544  0.0960 -0.5718
 2965SOL    HW120354   1.980   3.492   2.403 -0.1482  0.1488 -0.1538
 2965SOL    HW220355   2.076   3.434   2.303 -0.6145 -0.5676  0.2463
 2966SOL     OW20356   0.289   0.282   0.285  0.3702  0.5772  0.7242
 2966SOL    HW120357   0.371   0.234   0.277  1.5370  2.5752  0.7658
 2966SOL    HW220358   0.244   0.221   0.344  2.2152 -0.4042  1.1257
 2967SOL     OW20359   3.835   2.664   2.151  0.1292  0.2480 -0.3765
 2967SOL    HW120360   3.888   2.611   2.092  1.8279  1.6254 -0.0818
 2967SOL    HW220361   3.747   2.652   2.115  0.0841 -0.0294 -0.1721
 2968SOL     OW20362   3.666   0.320   2.193  0.5948  0.0699  0.2228
 2968SOL    HW120363   3.658   0.376   2.270  0.6141  1.7812 -1.0169
 2968SOL    HW220364   3.729   0.253   2.219  1.5338  0.2307 -1.6389
 2969SOL     OW20365   2.406   3.288   7.007  0.8366 -0.1388  0.6420
 2969SOL    HW120366   2.501   3.300   7.009  0.6098  1.5885  0.9832
 2969SOL    HW220367   2.377   3.325   7.091 -0.5872 -1.1222  0.5932
 2970SOL     OW20368   2.918   2.644   6.999  0.5281  0.7268 -0.3045
 2970SOL    HW120369   3.005   2.679   7.011  1.0533 -0.1238 -1.5674
 2970SOL    HW220370   2.924   2.606   6.911 -1.5874  0.4291 -0.3317
 2971SOL     OW20371   3.636   3.818   2.614 -0.6075  0.0092  0.0310
 2971SOL    HW120372   3.704   3.856   2.558 -0.2390  1.4374  1.4420
 2971SOL    HW220373   3.682   3.802   2.697 -0.5230 -0.8492 -0.1789
 2972SOL     OW20374   3.730   3.231   7.661  0.6060  0.2420 -0.8724
 2972SOL    HW120375   3.775   3.310   7.631 -0.1087  1.0084  0.0656
 2972SOL    HW220376   3.653   3.241   7.606 -0.1335  1.6906  0.4172
 2973SOL     OW20377   0.428   1.815  10.563 -0.4463  0.3011 -0.2907
 2973SOL    HW120378   0.451   1.813  10.656  2.2274  2.8537 -0.8839
 2973SOL    HW220379   0.502   1.859  10.521  2.0104 -2.2600  1.3227
 2974SOL     OW20380   3.707   3.139   8.034  0.5662  0.0902 -0.3280
 2974SOL    HW120381   3.694   3.222   7.989  1.2172  0.2073 -0.3049
 2974SOL    HW220382   3.658   3.087   7.970  0.8752 -2.3475  1.4155
 2975SOL     OW20383   2.479   0.383  17.533  0.0142  0.7823 -0.4114
 2975SOL    HW120384   2.501   0.467  17.574 -0.2617  0.5209  0.2755
 2975SOL    HW220385   2.559   0.331  17.534 -0.3395  0.3097  1.6590
 2976SOL     OW20386   4.632   2.822   8.619  0.6655  0.0296 -0.1253
 2976SOL    HW120387   4.602   2.845   8.531  1.4790  0.8096 -0.2037
 2976SOL    HW220388   4.631   2.906   8.665  0.4980 -0.5108  0.8426
 2977SOL     OW20389   1.864   3.475  16.978  0.5521  0.3298 -0.7204
 2977SOL    HW120390   1.942   3.520  16.944  0.4000  2.5816  1.9186
 2977SOL    HW220391   1.876   3.396  16.925 -1.2852  0.5875 -1.5055
 2978SOL     OW20392   1.509   0.658   8.777 -0.0061  0.1869 -0.3482
 2978SOL    HW120393   1.546   0.744   8.797 -1.4270  0.4540  1.0892
 2978SOL    HW220394   1.417   0.671   8.801 -0.7740 -1.6694 -2.1891
 2979SOL     OW20395   0.273   0.518   0.158  0.6034  0.2618 -0.0361
 2979SOL    HW120396   0.281   0.457   0.231 -1.4481 -0.0947 -0.1141
 2979SOL    HW220397   0.358   0.562   0.160  0.2407  1.0363 -1.6545
 2980SOL     OW20398   3.832   4.518   5.506 -0.5908  0.6575  0.4155
 2980SOL    HW120399   3.822   4.427   5.532 -0.5329  0.4904 -0.1519
 2980SOL    HW220400   3.881   4.516   5.424  1.6763  1.6565  1.7520
 2981SOL     OW20401   0.302   2.908  13.543 -0.2841 -0.4039  0.0780
 2981SOL    HW120402   0.208   2.919  13.556  0.0738  1.7015  0.9143
 2981SOL    HW220403   0.334   2.988  13.501 -2.2759 -0.4604 -1.5429
 2982SOL     OW20404   2.575   1.209   4.473 -0.0881  0.5155  0.0864
 2982SOL    HW120405   2.610   1.135   4.425  0.9355  1.1399 -0.1314
 2982SOL    HW220406   2.580   1.277   4.406  1.5088 -1.9866 -2.3235
 2983SOL     OW20407   3.422   4.487   4.719  0.2847 -0.3244 -0.6897
 2983SOL    HW120408   3.506   4.518   4.686  1.3571 -1.3549  1.0326
 2983SOL    HW220409   3.429   4.438   4.801  0.4012 -2.2479 -1.8495
 2984SOL     OW20410   1.546   1.256   2.192 -0.1163 -0.6150 -0.1522
 2984SOL    HW120411   1.590   1.280   2.273 -0.4150  0.1703 -0.2307
 2984SOL    HW220412   1.609   1.291   2.130  2.1486 -1.3861  1.7153
 2985SOL     OW20413   1.198   1.733   6.390 -0.1568 -0.0956 -0.1212
 2985SOL    HW120414   1.217   1.648   6.429 -0.7938 -0.1412  0.0866
 2985SOL    HW220415   1.284   1.774   6.397 -0.2526  0.1285 -0.2433
 2986SOL     OW20416   0.535   3.967   9.247 -0.4880 -0.8248 -0.2723
 2986SOL    HW120417   0.566   3.951   9.158 -0.9252 -2.6647 -0.0966
 2986SOL    HW220418   0.617   3.999   9.284  0.6524 -1.2516 -2.4372
 2987SOL     OW20419   2.075   2.097  14.050  0.3726  0.4120  0.2011
 2987SOL    HW120420   2.155   2.148  14.062  1.2657 -0.6020 -1.4021
 2987SOL    HW220421   2.024   2.159  13.998  0.7004  1.0926  0.6891
 2988SOL     OW20422   3.713   2.582  10.562 -0.6222 -0.6712 -0.1401
 2988SOL    HW120423   3.665   2.559  10.482  0.4404 -1.7212 -0.4719
 2988SOL    HW220424   3.652   2.568  10.635 -0.6512 -1.8206 -0.3904
 2989SOL     OW20425   2.237   0.703   7.576 -0.4220  0.9202  0.2275
 2989SOL    HW120426   2.253   0.787   7.533 -0.0726  1.6162  1.7326
 2989SOL    HW220427   2.327   0.674   7.590 -0.4394  1.0692  0.6437
 2990SOL     OW20428   3.772   2.859  10.323  0.5598  0.5534  0.1935
 2990SOL    HW120429   3.693   2.913  10.312 -0.0176 -0.8035 -2.2629
 2990SOL    HW220430   3.818   2.874  10.240  1.2848 -0.4531  0.4122
 2991SOL     OW20431   2.709   2.533   5.169 -0.8199 -0.3734 -0.1200
 2991SOL    HW120432   2.692   2.461   5.107 -4.6406 -0.5447  1.1037
 2991SOL    HW220433   2.744   2.499   5.251 -2.0168 -0.4443  0.3593
 2992SOL     OW20434   3.617   1.116   6.281  0.1094 -0.1903  0.5819
 2992SOL    HW120435   3.614   1.038   6.335 -1.4788 -0.5882 -0.0691
 2992SOL    HW220436   3.601   1.181   6.349 -1.5930 -2.6761  2.5155
 2993SOL     OW20437   1.662   2.310  11.102  0.5279 -0.9988 -0.0320
 2993SOL    HW120438   1.589   2.254  11.075 -1.1637  1.2988 -0.2142
 2993SOL    HW220439   1.636   2.341  11.189  3.2854  0.1643  0.3695
 2994SOL     OW20440   1.636   0.457   4.597 -0.3285  0.3992 -0.6073
 2994SOL    HW120441   1.725   0.430   4.618 -1.0465  0.4785  2.4766
 2994SOL    HW220442   1.621   0.395   4.525 -0.5157 -0.0312 -0.1965
 2995SOL     OW20443   3.367   2.049   0.286  0.8301 -0.0695  0.3240
 2995SOL    HW120444   3.285   2.032   0.331 -0.1311  3.2336 -0.1252
 2995SOL    HW220445   3.366   2.145   0.282  1.8925 -0.0576  0.2640
 2996SOL     OW20446   3.637   0.694   6.736  0.5799  0.1678  1.0898
 2996SOL    HW120447   3.657   0.655   6.650 -0.0142  3.7682 -0.6880
 2996SOL    HW220448   3.726   0.717   6.764  1.0466 -0.4139  0.0775
 2997SOL     OW20449   0.420   3.317   6.399 -0.2646  0.0900 -0.6376
 2997SOL    HW120450   0.368   3.264   6.338 -1.6562 -0.2683  0.8502
 2997SOL    HW220451   0.352   3.336   6.464 -0.2314 -1.1638 -0.2399
 2998SOL     OW20452   1.036   3.737   8.563  0.0552  0.1427  0.1553
 2998SOL    HW120453   0.978   3.719   8.489 -1.2242  0.4349  1.0783
 2998SOL    HW220454   1.089   3.812   8.535 -0.9452  1.0552  0.7290
 2999SOL     OW20455   1.606   1.077   9.092  0.1716 -0.0720 -0.3143
 2999SOL    HW120456   1.598   1.008   9.157  3.3343 -0.5647 -0.4330
 2999SOL    HW220457   1.693   1.115   9.107 -0.3145  0.1657  1.8548
 3000SOL     OW20458   0.001   0.847   9.243  0.0342  0.0543  0.0645
 3000SOL    HW120459   0.020   0.840   9.150 -0.6953  0.2679 -0.0977
 3000SOL    HW220460   0.074   0.802   9.285 -0.1238  0.9514  1.2964
 3001SOL     OW20461   3.871   1.943  10.497 -0.4106  0.3024  0.1813
 3001SOL    HW120462   3.902   2.029  10.470 -0.7609  0.4504  0.2450
 3001SOL    HW220463   3.892   1.883  10.426  1.6624 -0.0916  1.1337
 3002SOL     OW20464   1.868   3.233  15.494  0.5231  0.2926  0.0769
 3002SOL    HW120465   1.910   3.197  15.573  0.8528 -1.5862 -0.9583
 3002SOL    HW220466   1.791   3.177  15.499  0.5881  0.1481 -0.5660
 3003SOL     OW20467   0.030   1.700   5.861  0.1535 -0.7189 -0.6174
 3003SOL    HW120468   0.052   1.694   5.954  3.0636  1.4583 -1.1630
 3003SOL    HW220469   0.096   1.762   5.830 -1.5614  1.9728  1.0580
 3004SOL     OW20470   0.803   4.028   4.054 -0.1650 -0.1751  0.2110
 3004SOL    HW120471   0.897   4.026   4.037 -0.5571  1.9630 -2.1208
 3004SOL    HW220472   0.795   3.967   4.128  0.0606  0.2136  0.5499
 3005SOL     OW20473   1.795   4.652   4.975 -0.2737 -0.0955  0.8046
 3005SOL    HW120474   1.704   4.664   5.002 -0.7981 -1.3215 -0.4108
 3005SOL    HW220475   1.788   4.585   4.908  1.7746 -1.4992  1.9894
 3006SOL     OW20476   3.964   3.083   8.321 -0.2087 -0.0785  0.0289
 3006SOL    HW120477   4.043   3.059   8.370 -0.3145 -1.2784 -0.3705
 3006SOL    HW220478   3.988   3.040   8.239 -0.1534  0.7182 -0.3642
 3007SOL     OW20479   2.894   2.197  11.912 -0.1647 -0.5465  0.5521
 3007SOL    HW120480   2.931   2.129  11.856 -0.9507 -1.5691  1.2379
 3007SOL    HW220481   2.879   2.272  11.855  1.4235 -0.2666  0.5068
 3008SOL     OW20482   3.997   1.532  16.908 -0.1384  0.1156 -0.2009
 3008SOL    HW120483   4.049   1.512  16.830  0.3984 -0.6777  0.3669
 3008SOL    HW220484   3.946   1.451  16.910  1.5730 -1.0004 -1.8787
 3009SOL     OW20485   4.520   0.088   7.797  0.2657 -0.0187  0.2719
 3009SOL    HW120486   4.442   0.138   7.772 -1.1186 -2.6162 -0.5497
 3009SOL    HW220487   4.510   0.005   7.752  1.9885  0.3166 -0.7553
 3010SOL     OW20488   1.994   0.590   5.352 -0.6101  0.3314 -0.5030
 3010SOL    HW120489   2.070   0.639   5.385 -2.0164  1.3051  1.2598
 3010SOL    HW220490   1.958   0.657   5.294 -0.9053 -0.2120 -0.9415
 3011SOL     OW20491   3.997   2.851   7.326  0.2772 -0.6798 -0.2959
 3011SOL    HW120492   3.967   2.772   7.281 -0.1896 -0.7186  0.0781
 3011SOL    HW220493   3.915   2.886   7.360 -0.1731 -1.6814 -0.3401
 3012SOL     OW20494   3.962   2.490   4.865  0.1253  0.3919  0.2846
 3012SOL    HW120495   4.029   2.518   4.802 -0.6246 -1.0017 -1.1359
 3012SOL    HW220496   3.978   2.397   4.880  2.3924  0.6970 -0.2687
 3013SOL     OW20497   2.869   3.521   4.245 -0.1246  0.1798 -0.0589
 3013SOL    HW120498   2.964   3.527   4.232  0.2052 -1.4893  1.5308
 3013SOL    HW220499   2.832   3.604   4.215 -1.9083 -0.9327 -0.9291
 3014SOL     OW20500   4.645   3.225   0.825 -0.1667  0.2869 -0.0765
 3014SOL    HW120501   4.620   3.317   0.832 -1.2593 -0.0665  0.7566
 3014SOL    HW220502   4.702   3.226   0.749 -0.2363 -2.0756 -0.1592
 3015SOL     OW20503   3.385   0.666  11.685 -0.1884 -0.2668  0.0297
 3015SOL    HW120504   3.413   0.752  11.654 -0.9041 -0.0866 -0.1134
 3015SOL    HW220505   3.455   0.648  11.748  0.6756 -1.6756 -1.3364
 3016SOL     OW20506   2.151   1.104   8.017  0.4585  0.3211  0.3250
 3016SOL    HW120507   2.093   1.073   8.086 -2.8544 -0.5864 -2.8424
 3016SOL    HW220508   2.117   1.193   8.014 -0.2611  0.0846  1.7886
 3017SOL     OW20509   2.519   1.706  16.249  0.3084 -0.0311 -0.6405
 3017SOL    HW120510   2.526   1.611  16.249 -2.0767 -0.2309 -2.7385
 3017SOL    HW220511   2.610   1.733  16.255 -0.5485  3.3184 -2.3063
 3018SOL     OW20512   2.723   4.390  17.248  0.0999  0.0467  0.2057
 3018SOL    HW120513   2.681   4.467  17.210  0.0117  0.3997  1.0089
 3018SOL    HW220514   2.736   4.336  17.170 -0.7019  1.1617 -0.6868
 3019SOL     OW20515   3.467   0.326   3.214  0.2186 -0.4486 -0.0734
 3019SOL    HW120516   3.397   0.326   3.280 -0.3153  0.3850 -0.6400
 3019SOL    HW220517   3.464   0.231   3.203  0.0044 -0.3485 -0.8789
 3020SOL     OW20518   3.839   4.332   0.879 -0.1855 -0.6694  0.1966
 3020SOL    HW120519   3.838   4.263   0.946  2.9151  0.4393  1.3849
 3020SOL    HW220520   3.923   4.318   0.836  0.0979  2.0593 -0.1828
 3021SOL     OW20521   4.616   2.559  12.463 -0.4819 -0.4426  0.3776
 3021SOL    HW120522   4.655   2.483  12.505  0.5589 -0.9434 -1.4841
 3021SOL    HW220523   4.668   2.630  12.499  3.4298 -3.5377  0.7891
 3022SOL     OW20524   0.342   2.278   1.812  0.0709 -0.4651 -0.4269
 3022SOL    HW120525   0.342   2.366   1.849 -0.6786 -1.0159  0.8671
 3022SOL    HW220526   0.374   2.231   1.889 -0.0618 -1.0856 -0.7486
 3023SOL     OW20527   0.481   1.403   5.774  0.2681  0.2028 -0.2986
 3023SOL    HW120528   0.532   1.337   5.822  0.7455  0.3682 -0.5832
 3023SOL    HW220529   0.504   1.396   5.682  1.4639 -0.1669  0.0299
 3024SOL     OW20530   0.019   1.230   4.549 -0.1452  0.3101  0.2654
 3024SOL    HW120531   4.705   1.316   4.567 -1.9221 -0.3521 -0.2203
 3024SOL    HW220532   4.718   1.190   4.632 -0.0696  1.2843  0.7576
 3025SOL     OW20533   0.959   4.397   2.585 -0.3229  0.7693 -0.2812
 3025SOL    HW120534   0.977   4.486   2.556 -1.0790  1.2557  0.7684
 3025SOL    HW220535   1.030   4.349   2.542 -0.5384 -1.0380  1.3972
 3026SOL     OW20536   2.153   2.333  10.218  0.6809  0.2980  0.2905
 3026SOL    HW120537   2.152   2.364  10.308  2.4146  1.5852 -0.1408
 3026SOL    HW220538   2.239   2.293  10.210  0.6811  0.0939  1.3139
 3027SOL     OW20539   0.058   1.454   6.462  0.0264  0.0760  0.2696
 3027SOL    HW120540   0.044   1.380   6.521  0.7885 -1.0027 -0.9125
 3027SOL    HW220541   0.003   1.523   6.500 -1.4260 -0.9322 -0.0092
 3028SOL     OW20542   2.829   2.730   7.610 -0.2286  0.4544 -0.6129
 3028SOL    HW120543   2.898   2.764   7.667  1.1267 -0.8188 -1.5007
 3028SOL    HW220544   2.767   2.702   7.679 -0.3693  1.3837 -0.3620
 3029SOL     OW20545   4.627   0.831   3.393 -0.0959  0.5506 -0.2188
 3029SOL    HW120546   4.553   0.861   3.445  1.2511  0.0847  1.9624
 3029SOL    HW220547   4.688   0.800   3.460 -0.8672 -0.6009 -0.0530
 3030SOL     OW20548   1.931   1.246   3.058  0.5011 -0.2315  0.5937
 3030SOL    HW120549   1.860   1.259   3.121 -0.8917  1.5157 -1.3233
 3030SOL    HW220550   1.888   1.193   2.990  0.7714 -0.1374  0.3480
 3031SOL     OW20551   2.616   2.007   4.973  0.1662 -0.4422  0.6941
 3031SOL    HW120552   2.639   2.009   4.881  0.8578 -0.7384  0.8622
 3031SOL    HW220553   2.522   1.991   4.971 -0.0615  0.6673  2.0683
 3032SOL     OW20554   0.959   4.685   8.921  0.6186 -0.2755  0.5479
 3032SOL    HW120555   0.886   4.711   8.977  0.0033 -0.4753 -0.1578
 3032SOL    HW220556   0.911   4.693   8.838  1.1469  1.4276  0.4164
 3033SOL     OW20557   4.285   4.150   7.167 -0.2532 -0.1000  0.1995
 3033SOL    HW120558   4.333   4.197   7.099 -0.0260  0.6120  0.8519
 3033SOL    HW220559   4.284   4.058   7.139 -1.1016  0.2773 -0.9942
 3034SOL     OW20560   3.523   0.609  17.285 -0.4066  0.2022 -0.2976
 3034SOL    HW120561   3.516   0.619  17.190 -2.4561  1.4812 -0.0177
 3034SOL    HW220562   3.471   0.529  17.292  0.9126 -0.7334 -1.1897
 3035SOL     OW20563   4.491   1.381   6.260  0.0892  0.2327  0.0093
 3035SOL    HW120564   4.580   1.348   6.270  0.3231  1.2451  1.2929
 3035SOL    HW220565   4.510   1.457   6.205  3.0986 -0.2718  0.4038
 3036SOL     OW20566   0.596   2.174   5.400  0.4263  0.0621 -0.4313
 3036SOL    HW120567   0.656   2.144   5.468  0.0007  0.3940  0.0852
 3036SOL    HW220568   0.655   2.216   5.337  1.7344  0.1647  0.8511
 3037SOL     OW20569   3.114   3.736   1.711  0.3762  0.3520 -0.4186
 3037SOL    HW120570   3.132   3.786   1.791 -1.3175 -0.5501  0.5386
 3037SOL    HW220571   3.115   3.646   1.743  0.4251  0.1795 -0.9049
 3038SOL     OW20572   0.979   1.983   3.418  1.0912  0.7718  0.0444
 3038SOL    HW120573   0.886   1.975   3.397  0.9696  0.7656  0.5778
 3038SOL    HW220574   0.977   2.061   3.473 -2.2824  0.4556  0.3864
 3039SOL     OW20575   2.426   1.022   1.615  0.1113 -0.1150  0.0400
 3039SOL    HW120576   2.498   1.083   1.634 -0.2527  0.9012 -1.8681
 3039SOL    HW220577   2.476   0.942   1.631  0.9123  0.4880  0.6193
 3040SOL     OW20578   4.679   0.891   6.225 -0.4497  0.6396  0.2618
 3040SOL    HW120579   0.007   0.968   6.251 -0.4583 -0.1311  2.5695
 3040SOL    HW220580   4.599   0.895   6.278 -1.3000 -2.7283 -0.7846
 3041SOL     OW20581   0.444   3.181   7.216  0.4296  0.0180 -0.1591
 3041SOL    HW120582   0.421   3.249   7.152 -2.7322 -0.2703  0.6472
 3041SOL    HW220583   0.539   3.192   7.217  0.4734 -0.2899 -1.1207
 3042SOL     OW20584   1.191   0.703   8.026 -0.3343  0.2917  0.1157
 3042SOL    HW120585   1.149   0.618   8.012 -0.0375  0.4801 -1.9047
 3042SOL    HW220586   1.219   0.689   8.116 -0.9143  2.0602  0.5554
 3043SOL     OW20587   1.585   3.844   2.399 -0.4738  0.0137 -0.1973
 3043SOL    HW120588   1.566   3.921   2.344  1.4269  1.9143  1.7671
 3043SOL    HW220589   1.665   3.817   2.355 -0.1386  2.4343 -1.1172
 3044SOL     OW20590   0.999   0.642  16.322 -0.3995 -0.6376 -0.0726
 3044SOL    HW120591   1.003   0.572  16.387 -1.3887 -1.2440 -0.6768
 3044SOL    HW220592   1.090   0.644  16.292 -0.5150 -1.2245 -0.4518
 3045SOL     OW20593   1.161   4.509  12.422 -0.3667  0.2596 -0.0870
 3045SOL    HW120594   1.158   4.601  12.448  1.4347  0.2474  0.1499
 3045SOL    HW220595   1.078   4.519  12.376  0.2236 -1.6144 -1.5386
 3046SOL     OW20596   4.037   1.139  10.393 -0.1474 -0.4288  0.2315
 3046SOL    HW120597   3.979   1.174  10.460  1.6580  1.8638  0.5973
 3046SOL    HW220598   3.996   1.170  10.312  0.6184  1.7141  0.6782
 3047SOL     OW20599   4.159   0.475  11.018  0.4695  0.2255 -0.2454
 3047SOL    HW120600   4.085   0.513  11.066  1.4325  0.4888  1.0396
 3047SOL    HW220601   4.107   0.469  10.938 -0.2577 -0.4707  0.2826
 3048SOL     OW20602   3.002   0.079   4.885 -0.1708  0.8602  0.0777
 3048SOL    HW120603   3.001   0.156   4.827 -2.7070  0.6676 -0.1399
 3048SOL    HW220604   2.941   0.113   4.951 -1.0847 -2.6019  0.9840
 3049SOL     OW20605   3.398   1.610   4.779  0.2076  0.1935 -0.5909
 3049SOL    HW120606   3.331   1.674   4.755  0.2711  0.7792  0.8412
 3049SOL    HW220607   3.379   1.577   4.867 -1.5632  3.1622  0.1137
 3050SOL     OW20608   0.720   0.731   3.802 -0.6569  0.0150 -0.0809
 3050SOL    HW120609   0.743   0.800   3.864  0.2206 -0.7073  0.3999
 3050SOL    HW220610   0.718   0.653   3.857 -0.3656 -0.2084 -0.3866
 3051SOL     OW20611   0.818   3.227   2.833  0.0453 -0.2174 -0.0513
 3051SOL    HW120612   0.779   3.257   2.914  0.8578 -1.1595  0.6824
 3051SOL    HW220613   0.780   3.292   2.774 -0.0088  0.6075  0.9044
 3052SOL     OW20614   1.737   1.502  13.870 -0.3909  0.1830  0.1979
 3052SOL    HW120615   1.826   1.537  13.875 -0.5080  0.5835 -0.5309
 3052SOL    HW220616   1.714   1.495  13.963  1.5053  0.4848  0.6985
 3053SOL     OW20617   1.037   3.180   2.962 -0.5404  0.3943 -0.5851
 3053SOL    HW120618   0.967   3.210   2.903  1.1746  3.0389 -1.2740
 3053SOL    HW220619   1.103   3.241   2.930  0.3650  1.0455  2.5455
 3054SOL     OW20620   3.000   4.444   2.906  0.0712  0.3802 -1.0353
 3054SOL    HW120621   2.916   4.467   2.946  0.3096 -0.5374 -0.0156
 3054SOL    HW220622   2.974   4.373   2.847 -0.6080 -1.4396  1.4903
 3055SOL     OW20623   1.458   0.145   8.803  0.4383 -0.1319  0.4785
 3055SOL    HW120624   1.479   0.222   8.855 -0.8722  0.9119 -0.5515
 3055SOL    HW220625   1.525   0.146   8.735  0.4899  2.9373  0.6129
 3056SOL     OW20626   0.825   2.864   5.011  0.1153 -0.5310 -0.4692
 3056SOL    HW120627   0.900   2.805   5.018  0.3584 -0.0950  0.6742
 3056SOL    HW220628   0.764   2.815   4.956 -1.1181 -0.4096  0.7888
 3057SOL     OW20629   2.472   4.229  13.731  0.1384 -0.3652 -0.0874
 3057SOL    HW120630   2.531   4.168  13.775 -1.6980 -1.3962  0.8928
 3057SOL    HW220631   2.393   4.177  13.718 -1.3799  1.7309  0.8795
 3058SOL     OW20632   1.013   0.340   1.120 -0.4794 -0.3719  0.3754
 3058SOL    HW120633   0.997   0.297   1.203 -1.2467 -0.7095  0.0502
 3058SOL    HW220634   1.027   0.265   1.063  1.4444  0.3567 -0.1256
 3059SOL     OW20635   1.566   4.197   2.312  0.4024 -0.7550  0.1223
 3059SOL    HW120636   1.626   4.209   2.385 -0.3325 -0.2704  0.6459
 3059SOL    HW220637   1.629   4.180   2.242  1.1825  0.8152  0.4588
 3060SOL     OW20638   0.142   4.428  13.533 -0.4457  0.6202  0.2160
 3060SOL    HW120639   0.061   4.447  13.485 -0.8605 -1.9495 -0.0908
 3060SOL    HW220640   0.134   4.334  13.548 -0.4308  0.4853 -0.6145
 3061SOL     OW20641   4.181   4.517   8.171  0.2128 -0.3421  0.0151
 3061SOL    HW120642   4.230   4.599   8.176 -2.6361  1.1890  2.9204
 3061SOL    HW220643   4.091   4.547   8.187  0.3861 -0.0120  0.3750
 3062SOL     OW20644   4.252   1.291  11.840 -0.1063 -0.2286  0.3579
 3062SOL    HW120645   4.313   1.243  11.784 -0.9311 -0.7726 -0.0675
 3062SOL    HW220646   4.261   1.259  11.930  0.7174  2.2841  1.1786
 3063SOL     OW20647   2.460   2.131   0.209 -0.2199 -0.2469 -0.3817
 3063SOL    HW120648   2.517   2.195   0.253 -1.0510  0.5123 -0.4248
 3063SOL    HW220649   2.388   2.184   0.177 -0.8709  0.1213  1.7099
 3064SOL     OW20650   4.003   3.812  12.072 -0.0687  0.1811 -0.1490
 3064SOL    HW120651   4.029   3.869  12.000  1.9648  1.0684  1.3003
 3064SOL    HW220652   3.925   3.859  12.101 -0.8280 -0.5697 -0.9786
 3065SOL     OW20653   1.759   4.655   1.986 -0.0857 -0.5979  0.2542
 3065SOL    HW120654   1.746   0.021   2.021  0.2203 -0.0182 -1.0883
 3065SOL    HW220655   1.822   4.626   2.052  1.1918  1.1430 -0.1968
 3066SOL     OW20656   3.126   4.436   4.397  0.1666  0.2863 -0.2942
 3066SOL    HW120657   3.124   4.415   4.490 -0.5527  2.8333  0.2735
 3066SOL    HW220658   3.219   4.443   4.374  0.5112 -1.8779  0.4596
 3067SOL     OW20659   0.052   1.865  12.299 -0.0151 -0.3735 -0.0318
 3067SOL    HW120660   0.143   1.891  12.316 -0.2045  0.6213 -0.5202
 3067SOL    HW220661   0.043   1.901  12.210 -3.9336 -0.4211  0.3632
 3068SOL     OW20662   3.811   3.721  10.512  0.4496 -0.1658  0.2045
 3068SOL    HW120663   3.864   3.656  10.466 -2.3644 -1.1595 -1.6702
 3068SOL    HW220664   3.857   3.802  10.492 -1.0943  0.5268 -0.5335
 3069SOL     OW20665   3.698   4.573   2.892  0.2984 -0.1940  0.0449
 3069SOL    HW120666   3.629   4.541   2.951 -0.1990 -2.2042 -1.6200
 3069SOL    HW220667   3.721   4.489   2.852 -1.9584 -1.2219  0.8961
 3070SOL     OW20668   1.683   3.226  12.394 -0.1773  0.5777  0.0180
 3070SOL    HW120669   1.624   3.154  12.369 -0.4904  1.2448 -1.1580
 3070SOL    HW220670   1.626   3.262  12.462  2.3576  0.9576  1.9150
 3071SOL     OW20671   4.019   1.161   6.945  0.0386 -0.3767  0.4319
 3071SOL    HW120672   3.960   1.101   6.990 -0.2797  0.1736  0.7431
 3071SOL    HW220673   3.954   1.189   6.881  2.2998  2.7856 -0.5177
 3072SOL     OW20674   1.587   2.238   0.950  0.5211  0.7361 -0.3877
 3072SOL    HW120675   1.534   2.317   0.939 -0.4129  0.1800  0.1714
 3072SOL    HW220676   1.642   2.257   1.026  0.7593  1.8198 -0.8273
 3073SOL     OW20677   1.831   0.323   5.823 -0.4088  0.2372 -0.4340
 3073SOL    HW120678   1.762   0.257   5.807  0.1020 -0.0424 -1.5188
 3073SOL    HW220679   1.899   0.279   5.771  0.2250  0.1822  0.4584
 3074SOL     OW20680   1.937   3.143  12.452  0.4239 -0.8772 -0.2740
 3074SOL    HW120681   1.956   3.199  12.377 -1.3867 -0.4446 -0.4091
 3074SOL    HW220682   1.842   3.149  12.461  0.3145 -1.2188 -1.2342
 3075SOL     OW20683   2.768   0.981  14.641  0.2232 -0.0790 -0.0409
 3075SOL    HW120684   2.728   0.977  14.554 -0.9913  2.8662  0.3897
 3075SOL    HW220685   2.698   1.026  14.687 -0.5324  0.4925 -1.7266
 3076SOL     OW20686   2.863   1.720   0.681 -0.0485 -0.0456  0.0899
 3076SOL    HW120687   2.877   1.813   0.698  0.0783 -0.0290 -0.1044
 3076SOL    HW220688   2.874   1.725   0.586  0.3427  1.5108  0.2234
 3077SOL     OW20689   4.552   2.842   7.094  0.4627  0.0795  0.3948
 3077SOL    HW120690   4.500   2.807   7.166  0.7335  1.6309  1.3285
 3077SOL    HW220691   4.640   2.807   7.102  0.1555 -0.4090  1.5212
 3078SOL     OW20692   4.251   3.692   8.693 -0.0463  0.0898  0.5378
 3078SOL    HW120693   4.259   3.663   8.602 -3.0786  0.6031  0.0979
 3078SOL    HW220694   4.190   3.766   8.682  1.8449  1.4400 -0.9150
 3079SOL     OW20695   0.701   2.844  14.264  0.4713  0.5598 -0.2740
 3079SOL    HW120696   0.740   2.917  14.216  1.1509  1.0811  1.0617
 3079SOL    HW220697   0.771   2.806  14.317 -0.5949  0.9488  1.4210
 3080SOL     OW20698   3.244   0.244   2.635 -0.4158  0.3156  0.5751
 3080SOL    HW120699   3.189   0.320   2.651 -1.0116  0.5861 -2.6885
 3080SOL    HW220700   3.294   0.229   2.715  1.2062  0.2319 -0.4442
 3081SOL     OW20701   3.592   0.745   5.774 -0.1029  0.3279 -0.4969
 3081SOL    HW120702   3.639   0.792   5.843 -3.4274  2.5726  0.2543
 3081SOL    HW220703   3.620   0.776   5.688  0.3254 -1.1921 -0.9101
 3082SOL     OW20704   2.894   1.017   3.225 -0.2631 -0.0946 -0.0234
 3082SOL    HW120705   2.957   0.946   3.213  0.0100  0.0743  0.4547
 3082SOL    HW220706   2.828   0.988   3.162 -0.3173 -0.1904  0.0773
 3083SOL     OW20707   4.439   4.461   0.790 -0.3103  0.4728  0.3904
 3083SOL    HW120708   4.410   4.438   0.878  1.4275 -2.4768  0.1852
 3083SOL    HW220709   4.369   4.421   0.737  1.9959 -0.0312 -2.2660
 3084SOL     OW20710   0.783   0.405   6.111  0.0046  0.0603  0.3583
 3084SOL    HW120711   0.816   0.375   6.196 -0.7101 -0.1904  0.5478
 3084SOL    HW220712   0.719   0.469   6.142 -0.9468  0.5035 -2.5282
 3085SOL     OW20713   0.960   1.138   8.742 -0.2481  0.4734  0.5320
 3085SOL    HW120714   1.041   1.173   8.780  0.9688 -1.3653 -0.4079
 3085SOL    HW220715   0.897   1.128   8.813  0.7207 -2.2567  1.0030
 3086SOL     OW20716   0.088   0.114   7.736 -0.3458  0.3501  0.3827
 3086SOL    HW120717   4.717   0.132   7.729 -0.5175 -1.2001 -1.4050
 3086SOL    HW220718   0.091   0.021   7.715 -0.3056 -0.2389  3.0254
 3087SOL     OW20719   1.226   0.180   1.646  0.4093  0.0240  0.0464
 3087SOL    HW120720   1.318   0.207   1.639  0.3935  0.1619  0.3879
 3087SOL    HW220721   1.250   0.087   1.648 -1.8029 -0.5005  1.7096
 3088SOL     OW20722   0.774   4.077   7.197 -0.2847 -0.0650  1.0364
 3088SOL    HW120723   0.761   3.986   7.223 -0.9092 -0.4109 -0.4611
 3088SOL    HW220724   0.810   4.062   7.110 -1.2013 -2.0471  1.0027
 3089SOL     OW20725   1.350   1.660   8.134  0.1408 -0.0472  0.1551
 3089SOL    HW120726   1.410   1.636   8.064  1.1036 -2.1922  1.7264
 3089SOL    HW220727   1.332   1.750   8.107  2.5574  0.8112  1.4049
 3090SOL     OW20728   3.961   3.560   6.976  0.1881 -0.1797 -0.2971
 3090SOL    HW120729   4.031   3.581   6.914  1.4916  1.4358  1.7034
 3090SOL    HW220730   4.009   3.552   7.058 -1.1757  1.3950  0.6810
 3091SOL     OW20731   1.490   3.396   5.778  0.2783 -0.5788  0.5903
 3091SOL    HW120732   1.395   3.406   5.779  0.3829  0.4212  0.2389
 3091SOL    HW220733   1.497   3.317   5.725 -2.0481 -1.1195  1.0795
 3092SOL     OW20734   3.765   3.154   1.097  0.5247 -0.7215 -0.2416
 3092SOL    HW120735   3.745   3.079   1.041  0.2573  0.5020 -1.7862
 3092SOL    HW220736   3.687   3.157   1.152  1.1972 -3.1644  0.8429
 3093SOL     OW20737   3.892   4.168  13.269 -0.4085  0.0761  0.3824
 3093SOL    HW120738   3.890   4.259  13.300  1.1879  0.2366 -0.0167
 3093SOL    HW220739   3.885   4.170  13.174  1.8178  1.8995  0.2572
 3094SOL     OW20740   3.309   3.399  14.469  0.0962  0.4675  0.0566
 3094SOL    HW120741   3.243   3.330  14.469 -0.1981  0.7494 -0.4985
 3094SOL    HW220742   3.366   3.373  14.541 -1.2231 -1.0880  0.5269
 3095SOL     OW20743   1.846   3.997  16.620  0.0824 -0.4973  0.0207
 3095SOL    HW120744   1.848   3.983  16.714  1.1635  0.1460  0.1035
 3095SOL    HW220745   1.803   3.917  16.591 -0.3861  0.3043 -1.4856
 3096SOL     OW20746   0.174   2.876   8.419  0.2589 -0.1141 -0.1386
 3096SOL    HW120747   0.179   2.967   8.448 -2.2171 -0.0406  0.0578
 3096SOL    HW220748   0.267   2.857   8.436 -0.6856 -2.1275  2.8119
 3097SOL     OW20749   1.390   0.991   9.411 -0.2722 -0.1463  0.4812
 3097SOL    HW120750   1.319   1.047   9.443  0.3249  1.6626 -1.4015
 3097SOL    HW220751   1.460   1.046   9.377  1.2028 -0.4895  2.9744
 3098SOL     OW20752   0.887   1.138  17.369  0.5514 -0.2579 -0.1563
 3098SOL    HW120753   0.916   1.114  17.281 -2.4436 -1.6171 -0.7629
 3098SOL    HW220754   0.906   1.231  17.365  1.8690 -0.5869 -1.5517
 3099SOL     OW20755   3.339   0.565  16.995  0.7173 -0.9749 -0.2152
 3099SOL    HW120756   3.336   0.637  16.932 -0.2881 -0.4360  0.4429
 3099SOL    HW220757   3.428   0.539  16.970  1.1373  0.7876 -0.5209
 3100SOL     OW20758   3.111   3.109   3.259 -0.0971 -0.0347 -0.1531
 3100SOL    HW120759   3.152   3.046   3.318 -0.7586  1.8321  2.2794
 3100SOL    HW220760   3.026   3.121   3.303  2.4328  0.4548  4.5632
 3101SOL     OW20761   2.270   2.564   7.971 -0.9634  0.0627  0.9046
 3101SOL    HW120762   2.293   2.560   7.878  2.3656  1.3110  1.6798
 3101SOL    HW220763   2.270   2.471   7.991 -0.2035  0.2525  1.7861
 3102SOL     OW20764   4.090   0.949   7.357 -0.4405 -0.6111 -0.3292
 3102SOL    HW120765   4.164   0.896   7.387 -0.1983 -0.2709 -0.3267
 3102SOL    HW220766   4.105   1.025   7.414 -0.1281 -1.2536  0.4550
 3103SOL     OW20767   3.741   3.253   3.373  0.0858  0.2860 -0.5518
 3103SOL    HW120768   3.698   3.310   3.309 -0.7421  0.9942  0.6446
 3103SOL    HW220769   3.799   3.202   3.316  2.2476  0.5857  1.3830
 3104SOL     OW20770   0.938   1.598  15.932  0.0681 -0.1045 -0.6137
 3104SOL    HW120771   0.896   1.607  15.847  0.7072 -1.7067 -1.0873
 3104SOL    HW220772   0.927   1.503  15.938  0.9141 -0.1186  0.7381
 3105SOL     OW20773   3.008   3.377  11.568 -0.4900 -0.2823 -0.1880
 3105SOL    HW120774   2.957   3.323  11.507  0.7459 -1.2196 -0.3826
 3105SOL    HW220775   2.941   3.433  11.606 -0.9216 -1.0035  0.1252
 3106SOL     OW20776   0.854   2.634   5.307 -0.3867  0.4699  0.1821
 3106SOL    HW120777   0.772   2.671   5.274 -0.5921 -0.3722 -0.2366
 3106SOL    HW220778   0.887   2.712   5.353  3.2927 -0.6146 -0.5838
 3107SOL     OW20779   0.049   4.105  10.076 -0.9325  0.2642 -0.0434
 3107SOL    HW120780   4.701   4.133  10.134 -0.9351  1.0423 -0.4248
 3107SOL    HW220781   0.089   4.187  10.047 -1.6229  1.3599  2.1557
 3108SOL     OW20782   3.552   0.340  10.001 -0.0599  0.1669 -0.1558
 3108SOL    HW120783   3.467   0.371  10.032 -0.5568 -0.3829 -0.9806
 3108SOL    HW220784   3.572   0.413   9.943  1.4670  1.2101  1.6751
 3109SOL     OW20785   2.525   3.595   3.366  0.0641 -0.1917  0.1586
 3109SOL    HW120786   2.580   3.634   3.298 -0.2799  0.5477  0.2967
 3109SOL    HW220787   2.564   3.510   3.383  1.3645 -0.1044 -2.3262
 3110SOL     OW20788   2.539   1.418   6.700  0.0810  0.3123 -0.1172
 3110SOL    HW120789   2.543   1.342   6.641 -0.1428 -1.5696  2.3239
 3110SOL    HW220790   2.464   1.469   6.670 -0.9945  0.3763  2.7192
 3111SOL     OW20791   0.261   3.208   3.723 -1.0701  0.0060  0.0372
 3111SOL    HW120792   0.353   3.182   3.717 -1.2353 -0.6171  0.1690
 3111SOL    HW220793   0.225   3.182   3.638 -1.0235 -0.4793  0.1606
 3112SOL     OW20794   1.268   1.970  11.870 -0.0929  0.1778 -0.5565
 3112SOL    HW120795   1.351   1.930  11.897 -0.5988 -0.2283  0.3918
 3112SOL    HW220796   1.273   2.045  11.928 -1.6529 -0.1417 -0.0312
 3113SOL     OW20797   1.277   1.129   2.510  0.3068 -0.0555 -0.0681
 3113SOL    HW120798   1.340   1.196   2.536  0.5007 -0.9797  1.8311
 3113SOL    HW220799   1.199   1.184   2.502  0.6990  0.4389 -0.5764
 3114SOL     OW20800   1.994   0.932  16.031  0.1143 -0.1067  0.5476
 3114SOL    HW120801   1.975   0.873  15.957  1.3188 -1.1468  1.0665
 3114SOL    HW220802   1.940   0.900  16.103  1.9173 -2.0763  1.0188
 3115SOL     OW20803   4.131   1.031  17.494 -0.0009  0.0772  0.0727
 3115SOL    HW120804   4.092   0.953  17.453  0.3823  0.0935 -0.3242
 3115SOL    HW220805   4.143   1.077  17.411  2.5540  2.9889  2.0948
 3116SOL     OW20806   2.664   0.264  15.964 -0.0699 -0.5377 -0.1792
 3116SOL    HW120807   2.736   0.319  15.994 -1.7268  2.2209 -1.3336
 3116SOL    HW220808   2.651   0.214  16.045 -1.5159 -1.1710 -0.7862
 3117SOL     OW20809   4.142   4.052   5.659  0.5863 -0.0280  0.4304
 3117SOL    HW120810   4.231   4.079   5.634 -0.1119  0.3423 -1.6414
 3117SOL    HW220811   4.098   4.094   5.585 -0.6401 -1.7169  0.2069
 3118SOL     OW20812   2.653   0.415   0.398  0.5177  0.3046  0.5090
 3118SOL    HW120813   2.589   0.446   0.462 -2.0763  0.5638 -2.1736
 3118SOL    HW220814   2.615   0.458   0.321  1.0176 -1.1371 -0.5545
 3119SOL     OW20815   3.470   3.123   3.464 -0.0798  0.3583  0.3900
 3119SOL    HW120816   3.477   3.038   3.421 -1.6061  1.5877 -2.2316
 3119SOL    HW220817   3.558   3.159   3.453  0.2697 -0.1066  1.6764
 3120SOL     OW20818   4.372   2.134   5.203 -0.0406  0.0868  0.0626
 3120SOL    HW120819   4.299   2.155   5.145  0.0520 -1.4394 -0.6166
 3120SOL    HW220820   4.430   2.202   5.170  0.6714 -0.8416 -0.5963
 3121SOL     OW20821   1.391   2.945  12.771  0.2758 -0.3011 -0.2973
 3121SOL    HW120822   1.486   2.954  12.779  0.4709 -1.5095 -1.1200
 3121SOL    HW220823   1.388   2.881  12.700 -1.8944 -0.8221  0.2626
 3122SOL     OW20824   2.429   0.835   0.752 -0.0806  0.2751 -0.3947
 3122SOL    HW120825   2.407   0.777   0.826  0.8850  1.2267  0.6390
 3122SOL    HW220826   2.356   0.813   0.694 -1.1013 -0.3856  1.1153
 3123SOL     OW20827   1.652   4.207   7.076 -0.7892 -0.7175  0.6896
 3123SOL    HW120828   1.741   4.221   7.043 -0.6266  0.9998  1.8625
 3123SOL    HW220829   1.645   4.294   7.114 -1.9137  0.1291 -1.4244
 3124SOL     OW20830   3.540   4.487  15.910 -0.1813 -0.7176  0.1179
 3124SOL    HW120831   3.587   4.495  15.993  0.5844  2.0326 -0.5939
 3124SOL    HW220832   3.514   4.395  15.917 -1.0962 -0.5127 -0.7432
 3125SOL     OW20833   0.023   1.564   8.448 -0.8180 -0.1683 -0.4928
 3125SOL    HW120834   0.080   1.640   8.446 -0.4352 -0.5209 -3.1625
 3125SOL    HW220835   4.676   1.594   8.508  0.1458  0.4786  0.3024
 3126SOL     OW20836   4.430   2.254   2.232  0.6974 -1.0630  0.6764
 3126SOL    HW120837   4.375   2.273   2.309  0.9967 -0.2409  0.6826
 3126SOL    HW220838   4.491   2.327   2.232 -0.9466  0.3394  2.2028
 3127SOL     OW20839   2.470   4.498   3.898  1.0122 -0.1021 -0.1472
 3127SOL    HW120840   2.404   4.471   3.962  1.1578  0.7331  0.3495
 3127SOL    HW220841   2.441   4.587   3.881  0.1716 -0.3687 -0.0929
 3128SOL     OW20842   0.665   1.863   6.597  0.3777  0.0325 -0.0224
 3128SOL    HW120843   0.758   1.885   6.598  0.2422  0.7083 -2.6603
 3128SOL    HW220844   0.629   1.928   6.537  0.5285  1.0175  0.9606
 3129SOL     OW20845   1.595   0.938   4.862  0.1753 -0.4153 -0.3889
 3129SOL    HW120846   1.659   0.952   4.792 -0.4161  0.1474 -0.8221
 3129SOL    HW220847   1.594   0.843   4.857  2.5938 -0.3724 -1.9472
 3130SOL     OW20848   2.368   0.692   5.188 -0.5209 -0.6941  0.8733
 3130SOL    HW120849   2.311   0.677   5.113 -0.6014 -1.1489  1.0274
 3130SOL    HW220850   2.312   0.693   5.266 -1.0312 -2.9262  0.5299
 3131SOL     OW20851   4.139   3.890  16.334 -0.4046 -0.0877 -0.7543
 3131SOL    HW120852   4.127   3.869  16.242  1.6236 -0.2355 -0.9849
 3131SOL    HW220853   4.181   3.808  16.361  0.3904  0.1639 -1.2041
 3132SOL     OW20854   1.530   3.157  10.630  0.3768 -0.4644 -0.1473
 3132SOL    HW120855   1.564   3.095  10.695  1.3260  0.5686  0.3379
 3132SOL    HW220856   1.442   3.122  10.617 -0.0540  0.5125  0.1727
 3133SOL     OW20857   0.408   2.376   5.688  0.0287  0.2975  0.5544
 3133SOL    HW120858   0.386   2.372   5.595 -0.5570  1.8221  0.6375
 3133SOL    HW220859   0.481   2.437   5.682 -2.0243  2.6479 -0.7111
 3134SOL     OW20860   4.136   2.782   7.726  0.1011  0.3389  0.1132
 3134SOL    HW120861   4.101   2.841   7.792 -0.4770  0.1308 -0.0025
 3134SOL    HW220862   4.116   2.707   7.783 -0.2137 -1.0141 -1.7714
 3135SOL     OW20863   0.497   3.357   1.056  0.2281  0.0691 -0.6550
 3135SOL    HW120864   0.543   3.431   1.016  1.6416 -0.1642  0.5220
 3135SOL    HW220865   0.405   3.382   1.049  0.7362  1.7028 -1.5792
 3136SOL     OW20866   1.872   3.090   4.252  0.2213 -0.0102  0.2178
 3136SOL    HW120867   1.880   3.095   4.157  0.4505  1.3910  0.3095
 3136SOL    HW220868   1.803   3.024   4.247  1.7145 -1.6271  0.8140
 3137SOL     OW20869   1.687   3.445  14.640  0.0815  0.0924 -0.2508
 3137SOL    HW120870   1.697   3.375  14.705 -1.9508 -1.5902 -1.7661
 3137SOL    HW220871   1.777   3.458  14.611  0.4318  0.4095  0.9896
 3138SOL     OW20872   3.572   2.638  13.988 -0.0484 -0.3506 -0.0617
 3138SOL    HW120873   3.590   2.545  14.000 -1.4577 -0.5467  0.5445
 3138SOL    HW220874   3.614   2.670  13.908  1.2949 -1.7819  0.0662
 3139SOL     OW20875   3.581   0.761   1.321  0.3771 -0.2385  0.4176
 3139SOL    HW120876   3.603   0.672   1.347 -3.7410 -1.1366  0.7357
 3139SOL    HW220877   3.508   0.783   1.379  0.7219 -0.3276  0.8835
 3140SOL     OW20878   4.470   0.996  10.053 -0.0491 -0.1743  0.3026
 3140SOL    HW120879   4.501   1.075  10.010  1.3294  0.1716  1.9309
 3140SOL    HW220880   4.397   0.968   9.997 -0.6569  2.5526 -0.2523
 3141SOL     OW20881   1.929   3.288  15.915  0.3084  0.3383  0.0283
 3141SOL    HW120882   1.834   3.291  15.904  0.4459  0.2018 -1.1803
 3141SOL    HW220883   1.935   3.256  16.005 -1.7067  3.8026  1.3945
 3142SOL     OW20884   4.488   0.644   5.675  0.2709 -0.1377  0.1058
 3142SOL    HW120885   4.574   0.687   5.678 -0.1798  0.8329 -1.1203
 3142SOL    HW220886   4.437   0.719   5.646  1.9967  1.6465  1.6528
 3143SOL     OW20887   4.286   3.068   0.789 -0.0918  0.1163  0.0675
 3143SOL    HW120888   4.319   3.156   0.769  4.0422 -0.9920  2.1251
 3143SOL    HW220889   4.195   3.079   0.818 -0.0155 -1.8479  0.9974
 3144SOL     OW20890   1.858   4.432   2.179  0.6215 -0.1508  0.0040
 3144SOL    HW120891   1.850   4.337   2.183  0.1354 -0.0858  0.5502
 3144SOL    HW220892   1.765   4.456   2.179  0.2972 -1.4074 -0.1042
 3145SOL     OW20893   2.186   3.713   9.613  0.8300  0.5626 -0.6318
 3145SOL    HW120894   2.105   3.721   9.663  1.8722 -4.3430  1.7668
 3145SOL    HW220895   2.183   3.793   9.559  2.0975 -0.4800 -2.2323
 3146SOL     OW20896   2.446   1.719  12.950  0.0731 -0.3864  0.3451
 3146SOL    HW120897   2.391   1.693  13.023 -2.0546  0.8861 -0.8058
 3146SOL    HW220898   2.528   1.669  12.951  0.6166  0.4799 -0.7396
 3147SOL     OW20899   2.851   0.690   5.745  0.4241  0.1498 -0.0602
 3147SOL    HW120900   2.799   0.618   5.709 -1.6039  0.4493  2.2086
 3147SOL    HW220901   2.851   0.746   5.668 -0.2920  0.2480  0.0024
 3148SOL     OW20902   3.176   0.675   0.769  0.3430 -0.3781 -0.2807
 3148SOL    HW120903   3.184   0.594   0.721  2.4002 -0.5813  0.4126
 3148SOL    HW220904   3.152   0.637   0.853 -0.7195 -1.9270 -1.3086
 3149SOL     OW20905   1.718   2.621   5.167  0.1294  0.5017 -0.4732
 3149SOL    HW120906   1.768   2.589   5.242  0.2047 -1.3932 -1.3156
 3149SOL    HW220907   1.634   2.646   5.205  0.7154  1.0689  0.4371
 3150SOL     OW20908   0.927   2.631  15.434  0.3002 -0.4538 -0.1349
 3150SOL    HW120909   0.958   2.574  15.363 -0.2302 -1.9913  0.8876
 3150SOL    HW220910   0.977   2.599  15.509 -0.8971 -0.3880  0.6834
 3151SOL     OW20911   2.178   3.068  13.602 -0.0096  0.0157  0.1963
 3151SOL    HW120912   2.101   3.022  13.569 -0.1686 -0.5665  1.4055
 3151SOL    HW220913   2.144   3.145  13.646  0.4617  0.1344  0.3534
 3152SOL     OW20914   3.544   0.514   7.257 -0.0697  0.7554  1.2058
 3152SOL    HW120915   3.585   0.577   7.316 -1.3956  1.4658  1.3535
 3152SOL    HW220916   3.623   0.482   7.213  0.4555  0.5279  2.3193
 3153SOL     OW20917   0.931   3.972   2.695  0.0124  0.4252 -0.0947
 3153SOL    HW120918   0.976   3.992   2.613  0.9153  1.3019  0.6126
 3153SOL    HW220919   0.924   3.876   2.698 -0.2467  0.4178 -1.1730
 3154SOL     OW20920   4.333   4.258   6.910  0.7196  0.9151  0.6896
 3154SOL    HW120921   4.256   4.204   6.892  1.6145 -0.1026 -0.0404
 3154SOL    HW220922   4.359   4.299   6.828 -0.6057 -0.4249 -0.3864
 3155SOL     OW20923   1.838   0.363   4.189 -0.3599  0.0723 -0.2086
 3155SOL    HW120924   1.773   0.295   4.203 -0.4680  0.2183 -0.0086
 3155SOL    HW220925   1.778   0.437   4.199  0.2525  0.4681  0.6125
 3156SOL     OW20926   0.185   4.477   4.710  0.6559 -0.3322 -0.0020
 3156SOL    HW120927   0.239   4.472   4.789 -1.8516 -0.8085  1.6468
 3156SOL    HW220928   0.141   4.561   4.712 -0.2878 -0.8549  0.8615
 3157SOL     OW20929   1.732   3.708   1.005 -0.4168 -0.0633 -0.0134
 3157SOL    HW120930   1.711   3.730   1.096  0.4114  0.4681  0.0503
 3157SOL    HW220931   1.805   3.647   1.017 -0.6799 -0.1227  1.3244
 3158SOL     OW20932   2.186   1.236   2.170 -0.0890 -0.5781  0.1766
 3158SOL    HW120933   2.212   1.321   2.205  0.3554 -0.3466 -0.7226
 3158SOL    HW220934   2.094   1.256   2.152  0.6337  2.1259 -0.5104
 3159SOL     OW20935   3.233   2.348  16.290  0.0024 -0.4014  0.7000
 3159SOL    HW120936   3.216   2.416  16.225 -0.6777 -0.4126  0.8670
 3159SOL    HW220937   3.261   2.408  16.360 -0.6894  0.5955  0.1103
 3160SOL     OW20938   3.486   3.669   2.031  0.8464 -0.6635  0.1931
 3160SOL    HW120939   3.412   3.636   2.082  1.1519  0.1944  1.1891
 3160SOL    HW220940   3.484   3.764   2.039  0.3322 -0.6678  0.1378
 3161SOL     OW20941   0.860   3.052   0.640 -0.0129 -0.1066  0.4320
 3161SOL    HW120942   0.852   3.117   0.569  2.2061  1.0182  1.2264
 3161SOL    HW220943   0.927   2.993   0.607  1.9921  2.2675  0.2101
 3162SOL     OW20944   1.088   1.200   3.100  0.6716 -0.0555  0.6421
 3162SOL    HW120945   1.112   1.267   3.164 -0.4306  1.8297 -0.9285
 3162SOL    HW220946   1.017   1.154   3.143 -0.8886  0.4184 -1.4338
 3163SOL     OW20947   0.865   4.352  11.773 -0.7595  0.3589  0.0690
 3163SOL    HW120948   0.953   4.362  11.738  0.4261  0.0135  2.8950
 3163SOL    HW220949   0.819   4.328  11.693 -0.9959 -0.0507  0.3332
 3164SOL     OW20950   1.325   1.044   4.075 -0.0667 -0.4486 -0.1773
 3164SOL    HW120951   1.322   1.018   3.983  0.1701 -0.7855 -0.0910
 3164SOL    HW220952   1.246   1.005   4.113 -0.1281 -2.0169 -1.9076
 3165SOL     OW20953   4.592   3.636  10.764  0.0111 -0.4043  0.1592
 3165SOL    HW120954   4.536   3.706  10.730  1.0228  0.1452 -0.3656
 3165SOL    HW220955   4.657   3.626  10.695  0.4535  0.2201  0.4840
 3166SOL     OW20956   4.580   4.128  15.721 -0.0966 -0.4658 -0.1925
 3166SOL    HW120957   4.657   4.102  15.671 -0.3763 -1.2253 -0.2328
 3166SOL    HW220958   4.521   4.054  15.706 -2.1848  0.8347  1.6372
 3167SOL     OW20959   0.781   3.477   3.600  0.1184 -1.0307 -0.3729
 3167SOL    HW120960   0.821   3.445   3.519 -1.3488 -0.4319 -1.3295
 3167SOL    HW220961   0.724   3.409   3.637  0.5897 -0.1042  2.0579
 3168SOL     OW20962   3.947   0.638   1.416 -0.2961  0.4077 -0.3071
 3168SOL    HW120963   4.026   0.603   1.374  0.0473  0.7041  0.0880
 3168SOL    HW220964   3.883   0.572   1.391  0.0609 -0.0565 -0.0004
 3169SOL     OW20965   0.215   3.908   2.051  1.0586 -0.1519 -0.1445
 3169SOL    HW120966   0.262   3.976   2.003  1.6530 -1.3567 -1.2919
 3169SOL    HW220967   0.271   3.867   2.117  0.1531 -2.3322 -0.7119
 3170SOL     OW20968   0.432   4.583   3.125  0.7480  0.2530 -0.1686
 3170SOL    HW120969   0.447   4.491   3.147  2.5908  0.4924 -0.4404
 3170SOL    HW220970   0.455   4.583   3.032  3.2068 -1.4500  0.4631
 3171SOL     OW20971   1.163   4.455   3.483 -0.2861  0.0035  0.1621
 3171SOL    HW120972   1.099   4.425   3.418 -0.5142 -1.4104  1.0460
 3171SOL    HW220973   1.206   4.529   3.439  0.2853  0.1411  0.9473
 3172SOL     OW20974   2.476   3.738  14.435 -0.6099  0.2544  0.2432
 3172SOL    HW120975   2.502   3.690  14.357  0.7077  1.4487 -0.0435
 3172SOL    HW220976   2.402   3.792  14.407 -0.5733  0.5840  0.7795
 3173SOL     OW20977   2.921   0.067   2.959 -0.3409 -0.2071 -0.4698
 3173SOL    HW120978   2.976   4.713   2.975 -1.2813  0.0806  4.1674
 3173SOL    HW220979   2.851   0.062   3.024 -1.2753 -1.8024 -1.6193
 3174SOL     OW20980   4.526   1.686  12.507  0.1241  0.2422 -0.2019
 3174SOL    HW120981   4.520   1.780  12.490 -1.1362  0.1975  0.0354
 3174SOL    HW220982   4.441   1.680  12.550 -0.2759 -1.0305 -1.1924
 3175SOL     OW20983   4.092   1.930   4.819  0.0169  0.4935  0.0001
 3175SOL    HW120984   4.033   1.933   4.894 -1.1173 -1.2818 -0.8106
 3175SOL    HW220985   4.039   1.938   4.740  1.4053 -2.2806 -1.2296
 3176SOL     OW20986   1.021   2.468   7.908 -0.5241 -0.4313  0.3884
 3176SOL    HW120987   0.945   2.456   7.852 -1.0703 -1.0638  1.2680
 3176SOL    HW220988   1.032   2.562   7.896 -1.5444 -0.4578 -0.7494
 3177SOL     OW20989   2.294   4.398   8.082  0.1085  0.3184 -0.3069
 3177SOL    HW120990   2.373   4.386   8.135  1.7486  1.4723 -2.4488
 3177SOL    HW220991   2.237   4.338   8.130  1.4172 -0.9087 -0.2679
 3178SOL     OW20992   4.696   1.960   2.534 -0.0698 -0.7505 -0.1393
 3178SOL    HW120993   4.660   1.899   2.469 -3.4907 -0.3983  1.3889
 3178SOL    HW220994   4.614   1.987   2.575 -0.5244 -2.5863  0.1436
 3179SOL     OW20995   1.834   4.618   4.289 -0.0756 -0.0790  0.0545
 3179SOL    HW120996   1.745   4.650   4.273 -1.0365 -1.4422  2.6097
 3179SOL    HW220997   1.887   4.665   4.224 -2.1350  1.1064 -0.7896
 3180SOL     OW20998   1.526   1.006  12.906 -0.9070 -0.2851 -0.0193
 3180SOL    HW120999   1.603   1.037  12.952  0.3106  0.5378 -2.6443
 3180SOL    HW221000   1.454   1.055  12.946  0.7536  1.1416  1.1757
 3181SOL     OW21001   0.120   0.411   8.892 -0.5175  0.4063 -0.2474
 3181SOL    HW121002   0.199   0.464   8.887  0.5013 -1.0436  0.2954
 3181SOL    HW221003   0.098   0.426   8.800  0.2008  0.8276 -0.3512
 3182SOL     OW21004   0.099   0.032   4.186 -0.2702 -0.3022 -0.1448
 3182SOL    HW121005   0.182   0.024   4.139  1.4289  1.2295  2.5956
 3182SOL    HW221006   0.066   0.120   4.167  2.3518  0.7505  0.1197
 3183SOL     OW21007   0.006   0.004  16.760  0.4143 -0.2919  0.0808
 3183SOL    HW121008   4.720   4.632  16.775  1.1031 -0.1403  1.3374
 3183SOL    HW221009   0.027   4.719  16.667 -0.4166 -0.1727 -0.1182
 3184SOL     OW21010   1.857   0.007   0.102 -0.1864  0.0878 -0.1050
 3184SOL    HW121011   1.945   0.017   0.066  0.8677  1.9205  2.9646
 3184SOL    HW221012   1.872   0.009   0.197 -0.2184 -1.2001 -0.0749
 3185SOL     OW21013   1.843   1.944   1.924 -0.1008  0.1534 -0.0623
 3185SOL    HW121014   1.755   1.908   1.929 -0.2323  0.4576 -0.1965
 3185SOL    HW221015   1.883   1.875   1.977  0.9793  1.3437  0.6727
 3186SOL     OW21016   2.122   2.448   0.784 -0.0148 -0.8280  0.4141
 3186SOL    HW121017   2.061   2.380   0.813 -0.1327 -0.5602  0.7926
 3186SOL    HW221018   2.074   2.482   0.708 -0.6656  0.1487  1.2569
 3187SOL     OW21019   4.121   4.250  13.582  0.0479 -0.1373 -0.0533
 3187SOL    HW121020   4.100   4.302  13.505  0.6014  1.6936  1.0282
 3187SOL    HW221021   4.100   4.316  13.649  0.6394  1.9630 -1.9462
 3188SOL     OW21022   2.665   1.411  10.557 -0.1544 -0.3065 -0.2888
 3188SOL    HW121023   2.710   1.327  10.551 -1.1835 -0.8538 -0.4095
 3188SOL    HW221024   2.735   1.461  10.517  0.6430  1.0316  2.8218
 3189SOL     OW21025   3.868   0.347   0.510  0.5972  0.5871  0.1014
 3189SOL    HW121026   3.906   0.433   0.529  1.8400 -0.1845  1.1132
 3189SOL    HW221027   3.894   0.307   0.593 -0.1113 -2.8662 -1.3636
 3190SOL     OW21028   2.029   1.210  13.034  0.6006  0.3629 -0.3088
 3190SOL    HW121029   1.945   1.247  13.063 -0.0233 -1.3038 -0.0131
 3190SOL    HW221030   2.045   1.153  13.109  2.4734  0.4726 -0.6380
 3191SOL     OW21031   4.058   3.995   0.795  0.2482 -0.3546  0.4153
 3191SOL    HW121032   4.101   3.974   0.712 -1.0447  1.5461 -0.7327
 3191SOL    HW221033   4.063   4.090   0.794  0.5151 -0.3796 -1.2133
 3192SOL     OW21034   3.390   0.318   7.614  0.2915  0.0545  0.3004
 3192SOL    HW121035   3.311   0.369   7.595 -0.7668 -0.5046  3.2170
 3192SOL    HW221036   3.375   0.242   7.671 -2.3329  0.2027 -0.1988
 3193SOL     OW21037   1.583   4.598  10.796  0.0468  0.2975  0.4143
 3193SOL    HW121038   1.652   4.653  10.833 -0.5002  1.2242  0.0504
 3193SOL    HW221039   1.501   4.621  10.840 -0.7449 -0.0367 -0.9132
 3194SOL     OW21040   3.218   0.733   7.489 -0.2440  0.1588 -0.5169
 3194SOL    HW121041   3.308   0.764   7.487 -1.0964  2.7143  0.0060
 3194SOL    HW221042   3.183   0.820   7.470  0.6482  0.4522 -0.8162
 3195SOL     OW21043   4.679   1.305   7.896  0.0241  0.0380 -0.5859
 3195SOL    HW121044   4.616   1.234   7.909 -0.9984  0.7640 -1.6070
 3195SOL    HW221045   4.673   1.337   7.986 -2.3113 -2.2240  0.0393
 3196SOL     OW21046   0.761   0.784   6.558  0.4398  0.1643  0.5199
 3196SOL    HW121047   0.726   0.845   6.494  3.5172  0.6129 -0.7365
 3196SOL    HW221048   0.686   0.725   6.565  1.6975 -1.2336  2.2566
 3197SOL     OW21049   4.603   4.716  11.257  0.8408 -0.4046  0.0606
 3197SOL    HW121050   4.569   4.699  11.169 -0.3568 -0.3984  0.5143
 3197SOL    HW221051   4.571   0.083  11.272 -1.6778 -1.4860  1.3027
 3198SOL     OW21052   3.450   3.434   3.390  0.5304  0.7916  0.0346
 3198SOL    HW121053   3.438   3.345   3.425 -0.7279  2.3253  3.5364
 3198SOL    HW221054   3.463   3.419   3.297 -3.4190  0.9061 -0.5279
 3199SOL     OW21055   2.534   4.636   3.023 -0.4209 -0.2365  0.1256
 3199SOL    HW121056   2.569   4.692   3.091  0.9986  0.1687 -0.9383
 3199SOL    HW221057   2.490   4.698   2.964  0.4838  1.1104  0.8667
 3200SOL     OW21058   0.859   4.091   6.935 -0.0979  0.2870  0.1735
 3200SOL    HW121059   0.859   4.103   6.840 -0.1603  0.1785  0.1607
 3200SOL    HW221060   0.952   4.102   6.955  0.1399  1.1044 -1.3935
 3201SOL     OW21061   2.024   0.590   8.584 -0.3782 -0.3529 -0.1307
 3201SOL    HW121062   2.088   0.520   8.572 -1.0196 -0.9600 -0.0165
 3201SOL    HW221063   2.059   0.625   8.666  1.5260 -3.4825  0.3640
 3202SOL     OW21064   1.762   3.025   8.626 -0.6443 -0.4566 -0.1241
 3202SOL    HW121065   1.708   3.088   8.675  0.2853  1.2700 -1.3226
 3202SOL    HW221066   1.699   2.966   8.585 -1.1336 -0.6437  0.8942
 3203SOL     OW21067   0.144   4.009   5.559 -0.4393 -0.1046 -0.2407
 3203SOL    HW121068   0.108   3.940   5.505 -1.5113 -1.4441  2.2155
 3203SOL    HW221069   0.062   4.049   5.586  0.8204  1.9254  0.6218
 3204SOL     OW21070   2.138   3.039   3.946  0.3728  0.3114  0.2538
 3204SOL    HW121071   2.057   3.008   3.906  0.0204 -1.0916  2.0973
 3204SOL    HW221072   2.113   3.063   4.035  0.4187  2.2242 -0.2423
 3205SOL     OW21073   3.462   0.948   3.865  0.1644  0.4863  0.4912
 3205SOL    HW121074   3.417   0.877   3.820 -0.0262  0.4880  0.6835
 3205SOL    HW221075   3.553   0.940   3.836  0.2045 -1.0646  1.0430
 3206SOL     OW21076   1.328   0.753  14.771  0.8096 -0.3630 -0.3317
 3206SOL    HW121077   1.260   0.821  14.777  3.0501  1.4972  4.0853
 3206SOL    HW221078   1.402   0.808  14.797  0.5398  0.0273 -0.3877
 3207SOL     OW21079   3.764   0.140   0.281 -0.2637  0.1555  0.3763
 3207SOL    HW121080   3.858   0.124   0.280 -0.2027  0.5115  0.7124
 3207SOL    HW221081   3.750   0.099   0.366  1.5956 -0.7667  0.2296
 3208SOL     OW21082   0.265   3.389   9.936  0.0378  0.3818  1.3758
 3208SOL    HW121083   0.355   3.380   9.904 -0.8050 -0.9602 -0.6723
 3208SOL    HW221084   0.228   3.463   9.887 -3.1657  0.1542  3.4493
 3209SOL     OW21085   3.983   0.456   7.084 -0.3821 -0.6274 -0.0047
 3209SOL    HW121086   3.907   0.514   7.071  0.1825  0.2057  0.4522
 3209SOL    HW221087   4.031   0.485   7.007 -2.6310 -0.9544 -1.5514
 3210SOL     OW21088   3.707   0.646   4.054  0.1043  0.3366 -0.2022
 3210SOL    HW121089   3.689   0.703   3.979  0.6431  0.6817 -0.0694
 3210SOL    HW221090   3.664   0.693   4.126  1.5978 -1.2033  1.6578
 3211SOL     OW21091   2.269   1.885   8.027 -0.2015 -0.1444 -0.8954
 3211SOL    HW121092   2.353   1.840   8.034  1.0879  2.2440 -0.9118
 3211SOL    HW221093   2.213   1.819   8.068 -0.3337 -0.8368 -2.1840
 3212SOL     OW21094   2.843   4.249   3.382 -0.7404 -0.5443 -0.0495
 3212SOL    HW121095   2.794   4.328   3.404 -0.1013 -0.9367  2.7522
 3212SOL    HW221096   2.846   4.205   3.467  2.1846 -2.7392 -1.2749
 3213SOL     OW21097   2.532   2.533   5.622  0.3046  0.6449 -0.3252
 3213SOL    HW121098   2.587   2.496   5.553 -0.4125  1.7220 -1.4631
 3213SOL    HW221099   2.501   2.612   5.579 -1.4677 -0.3087 -0.7982
 3214SOL     OW21100   4.241   2.596   4.049 -0.1220  0.2455 -0.3042
 3214SOL    HW121101   4.273   2.684   4.068 -0.5541 -0.4752  3.6376
 3214SOL    HW221102   4.161   2.585   4.100 -0.6549 -2.2448 -1.6823
 3215SOL     OW21103   4.527   0.421   7.853 -0.1638 -0.9781  0.5514
 3215SOL    HW121104   4.555   0.434   7.762 -1.8745  1.6118  0.3933
 3215SOL    HW221105   4.432   0.432   7.850  0.4001  4.1845  1.1875
 3216SOL     OW21106   4.295   3.824   2.454  0.5826  0.1165  0.4081
 3216SOL    HW121107   4.268   3.905   2.497  1.0422  0.6137 -0.2437
 3216SOL    HW221108   4.388   3.819   2.478  0.6412  2.5316  0.6506
 3217SOL     OW21109   4.182   1.327   7.059 -0.3209 -0.3081 -0.6292
 3217SOL    HW121110   4.137   1.251   7.024  0.7578 -1.8655  1.3727
 3217SOL    HW221111   4.151   1.398   7.002  0.5070 -0.2379 -0.9922
 3218SOL     OW21112   2.770   4.184   3.861  0.4228 -0.0453  0.6411
 3218SOL    HW121113   2.700   4.212   3.919  0.6763 -1.0241  1.4242
 3218SOL    HW221114   2.804   4.111   3.913 -0.4935 -1.6028 -0.9479
 3219SOL     OW21115   2.119   1.031   4.933  0.1502 -0.4273 -0.0510
 3219SOL    HW121116   2.095   0.987   5.014  0.9929  0.0853  0.4754
 3219SOL    HW221117   2.140   0.962   4.870  0.4401 -1.0671  0.7471
 3220SOL     OW21118   2.229   0.535  12.498  0.1524  0.1484 -0.4734
 3220SOL    HW121119   2.234   0.451  12.454 -1.9454 -0.7754  1.0173
 3220SOL    HW221120   2.202   0.510  12.586 -3.2162  2.1037 -0.9363
 3221SOL     OW21121   3.633   3.172  10.719  0.1312  0.2440  0.4147
 3221SOL    HW121122   3.623   3.235  10.791 -0.6369  0.2893  0.2708
 3221SOL    HW221123   3.686   3.101  10.755  0.2181  0.5286  0.8606
 3222SOL     OW21124   3.282   1.812  12.713  0.0813 -0.5512  1.1816
 3222SOL    HW121125   3.252   1.819  12.804 -2.1203  0.3204  0.3976
 3222SOL    HW221126   3.217   1.747  12.684  0.0407 -0.3497  0.8228
 3223SOL     OW21127   0.404   1.785   2.683  1.2214  0.8057  1.1241
 3223SOL    HW121128   0.458   1.716   2.721  2.2143 -0.1989 -2.1337
 3223SOL    HW221129   0.426   1.788   2.590  1.5748  0.1079  1.1892
 3224SOL     OW21130   0.628   1.388   1.489  0.0088 -0.1064  0.3597
 3224SOL    HW121131   0.703   1.389   1.548 -0.3977 -0.9525  0.8778
 3224SOL    HW221132   0.554   1.404   1.547  0.7877  0.3485  1.2189
 3225SOL     OW21133   0.317   4.539   2.359 -0.1507  0.0754  0.3119
 3225SOL    HW121134   0.363   4.485   2.295  0.6958 -0.6367  1.5046
 3225SOL    HW221135   0.255   4.477   2.397  0.1210 -0.9478 -0.8941
 3226SOL     OW21136   0.226   0.552  17.169 -0.1003  0.0726  0.4079
 3226SOL    HW121137   0.227   0.531  17.076 -1.9295 -3.6714  1.2532
 3226SOL    HW221138   0.228   0.467  17.212  1.7408 -0.3872 -0.5675
 3227SOL     OW21139   4.441   3.726   6.788  0.0262  0.5844 -0.1913
 3227SOL    HW121140   4.449   3.681   6.704  0.4186 -1.7192  1.0950
 3227SOL    HW221141   4.522   3.778   6.790  0.9036 -0.8492  1.0583
 3228SOL     OW21142   3.469   1.573   8.149 -0.2135  0.6666  0.3726
 3228SOL    HW121143   3.443   1.594   8.239 -1.1484  0.0026  0.2540
 3228SOL    HW221144   3.507   1.656   8.120  1.0624  0.5203  1.6164
 3229SOL     OW21145   1.991   2.634   9.284 -0.3220  0.2467  0.4494
 3229SOL    HW121146   1.897   2.641   9.301 -0.5988 -0.1014 -0.8690
 3229SOL    HW221147   1.996   2.682   9.201 -0.5811 -1.0211 -0.3004
 3230SOL     OW21148   2.638   0.855   1.678  0.3388  0.0277  0.3141
 3230SOL    HW121149   2.632   0.760   1.666 -0.1018  0.1299 -0.2397
 3230SOL    HW221150   2.717   0.852   1.732  0.5815 -0.9642 -0.0949
 3231SOL     OW21151   1.294   1.870  14.295  0.0798 -0.3231  0.1918
 3231SOL    HW121152   1.279   1.965  14.293  2.3105  0.0229 -0.9633
 3231SOL    HW221153   1.213   1.827  14.320 -0.0693 -1.6918 -2.6782
 3232SOL     OW21154   2.275   1.953   1.349 -0.6784 -0.2974 -0.7482
 3232SOL    HW121155   2.273   1.930   1.442 -1.4344  2.8121  0.0068
 3232SOL    HW221156   2.186   1.935   1.318 -0.4256 -1.3787 -0.8736
 3233SOL     OW21157   1.813   0.135   2.764 -0.2109 -0.0102  0.2157
 3233SOL    HW121158   1.749   0.196   2.802  1.1898  1.4834  0.1974
 3233SOL    HW221159   1.788   0.126   2.672 -0.7358  0.9677  0.2597
 3234SOL     OW21160   3.075   0.358  11.542  0.1149 -0.1198  0.3053
 3234SOL    HW121161   3.162   0.395  11.527  0.8599 -1.8138  0.3737
 3234SOL    HW221162   3.078   0.349  11.637  0.7114  0.1307  0.3109
 3235SOL     OW21163   2.894   0.050   6.010  0.7276 -0.5400 -0.0845
 3235SOL    HW121164   2.930   0.111   5.945 -2.1306  0.4654 -0.7254
 3235SOL    HW221165   2.801   0.062   5.990  0.9853  0.7249 -0.5202
 3236SOL     OW21166   0.947   1.981  10.061 -0.3198  0.2167 -0.4387
 3236SOL    HW121167   1.016   1.917  10.043  0.3762  1.0843 -0.8635
 3236SOL    HW221168   0.894   1.975   9.982 -1.4434  1.3149  0.2245
 3237SOL     OW21169   0.935   2.857  11.365  0.1589  0.3535  0.6213
 3237SOL    HW121170   1.009   2.819  11.318 -1.0102 -0.0257 -0.9321
 3237SOL    HW221171   0.951   2.834  11.457  0.7941  0.2329  0.4808
 3238SOL     OW21172   3.281   4.194  14.406  0.2004 -0.5875  0.4928
 3238SOL    HW121173   3.189   4.181  14.431 -0.0289  1.0956  0.4827
 3238SOL    HW221174   3.268   4.228  14.318  0.8845 -0.2964  0.5074
 3239SOL     OW21175   4.701   1.320   5.485  0.3722  0.7890  0.0702
 3239SOL    HW121176   4.696   1.340   5.578 -0.7591 -0.7196  0.3313
 3239SOL    HW221177   4.682   1.226   5.482  1.6099  0.5910 -1.7421
 3240SOL     OW21178   0.309   1.047  16.504  0.0990 -0.1601 -0.0774
 3240SOL    HW121179   0.296   1.010  16.591 -1.0456  0.4815  0.0164
 3240SOL    HW221180   0.217   1.051  16.480 -0.0161  0.3532  0.4672
 3241SOL     OW21181   1.280   1.180  11.300  0.0616  0.4122  0.3447
 3241SOL    HW121182   1.232   1.173  11.383 -0.1491 -1.6914  0.0248
 3241SOL    HW221183   1.369   1.156  11.325 -0.2218  1.1846  2.1429
 3242SOL     OW21184   2.066   3.328   0.595  0.4228 -0.5279 -0.0866
 3242SOL    HW121185   2.046   3.271   0.521 -2.1518 -1.4300  1.3065
 3242SOL    HW221186   1.979   3.366   0.609  1.5030  2.8315 -2.3945
 3243SOL     OW21187   1.226   4.077   5.653  0.0809  0.8076 -0.1346
 3243SOL    HW121188   1.257   4.167   5.666  0.0340  0.8600 -0.3844
 3243SOL    HW221189   1.138   4.074   5.692  0.4406  0.2626  0.6322
 3244SOL     OW21190   4.590   2.559   3.050  0.0821 -0.8984  0.3625
 3244SOL    HW121191   4.521   2.515   3.001 -0.5179  2.0585 -1.4840
 3244SOL    HW221192   4.660   2.494   3.058  0.5829 -0.3359  0.5808
 3245SOL     OW21193   1.667   3.665   8.046  0.4026 -0.2733  0.1645
 3245SOL    HW121194   1.675   3.629   7.958  0.5895  0.2599 -0.0351
 3245SOL    HW221195   1.756   3.692   8.066  0.9063 -1.7924 -0.0569
 3246SOL     OW21196   2.478   1.080   6.008 -0.7530 -0.1087  0.1885
 3246SOL    HW121197   2.542   1.122   5.950 -2.4301  0.3473 -1.3411
 3246SOL    HW221198   2.423   1.041   5.940 -0.0691  0.0811 -0.4731
 3247SOL     OW21199   3.122   0.033   5.431 -0.0775 -0.5553 -0.0015
 3247SOL    HW121200   3.174   0.016   5.352 -1.0618 -2.2755 -0.2910
 3247SOL    HW221201   3.188   0.084   5.477  1.2385 -0.6229 -1.7941
 3248SOL     OW21202   3.814   1.600  10.385  0.0446 -0.0282 -0.0778
 3248SOL    HW121203   3.901   1.570  10.414  0.2634  1.3475  0.6921
 3248SOL    HW221204   3.839   1.680  10.339 -1.3599  0.9888  0.9583
 3249SOL     OW21205   3.532   4.377   8.179 -0.0487 -0.0535 -0.7748
 3249SOL    HW121206   3.599   4.396   8.245  1.5960 -0.4931 -2.3554
 3249SOL    HW221207   3.515   4.283   8.187  0.6935 -0.0752  0.5880
 3250SOL     OW21208   1.599   3.124   6.952  0.5462 -0.3237  0.1219
 3250SOL    HW121209   1.618   3.214   6.927 -1.4387 -0.1905 -0.8447
 3250SOL    HW221210   1.592   3.141   7.045 -0.5913  2.9069 -0.5521
 3251SOL     OW21211   0.872   0.350   5.745 -0.1426 -0.5524 -0.2541
 3251SOL    HW121212   0.778   0.334   5.736 -0.4719  1.4141 -0.4319
 3251SOL    HW221213   0.876   0.402   5.665 -1.9625 -0.3921 -0.2399
 3252SOL     OW21214   3.596   0.814   3.042 -0.0738  0.0044  0.2452
 3252SOL    HW121215   3.588   0.737   3.098 -2.1647 -0.1121 -0.2326
 3252SOL    HW221216   3.675   0.798   2.991 -0.2534  0.4293 -0.1616
 3253SOL     OW21217   2.410   1.825  14.355 -0.3005  0.2229  0.0071
 3253SOL    HW121218   2.487   1.868  14.317  0.7960  0.8765  3.0030
 3253SOL    HW221219   2.366   1.894  14.405  0.2811 -0.6436  1.6823
 3254SOL     OW21220   0.067   1.730   8.703 -0.2173 -1.1760 -0.0056
 3254SOL    HW121221   0.125   1.675   8.650 -1.6444 -1.4140 -1.3260
 3254SOL    HW221222   0.021   1.779   8.635  1.2939  0.2304 -0.0392
 3255SOL     OW21223   3.150   4.398   4.969 -0.2419  0.1768  0.4152
 3255SOL    HW121224   3.137   4.427   5.059 -0.4365 -0.0577  0.4617
 3255SOL    HW221225   3.241   4.369   4.970 -0.4472 -0.4445  0.6594
 3256SOL     OW21226   1.223   2.797   7.948  0.0711 -0.2580  0.2743
 3256SOL    HW121227   1.257   2.708   7.963 -0.6935 -0.6895 -0.5524
 3256SOL    HW221228   1.181   2.823   8.030 -0.8577  0.5960 -0.4776
 3257SOL     OW21229   3.858   0.481   3.210  0.4043  0.2664 -0.4469
 3257SOL    HW121230   3.799   0.485   3.135 -0.1518  2.3969  0.0930
 3257SOL    HW221231   3.866   0.386   3.220 -2.7866  0.0334 -0.0895
 3258SOL     OW21232   4.152   3.391   5.521 -0.0781 -0.5600 -0.0187
 3258SOL    HW121233   4.066   3.411   5.485 -0.6656  1.5966  2.5731
 3258SOL    HW221234   4.214   3.377   5.450 -1.1400  2.3945 -1.4946
 3259SOL     OW21235   1.003   4.177   2.140 -0.5704 -0.3136  0.2637
 3259SOL    HW121236   1.053   4.197   2.061 -1.8300 -2.2850 -1.0060
 3259SOL    HW221237   1.059   4.226   2.200  0.0835 -1.4887  0.6050
 3260SOL     OW21238   3.933   1.834  10.254  0.0182 -0.5364  0.3826
 3260SOL    HW121239   3.898   1.884  10.180 -0.1373 -0.5259  0.4639
 3260SOL    HW221240   4.016   1.800  10.222  0.4225  0.6066  0.2000
 3261SOL     OW21241   2.713   1.173   7.589 -0.7110  0.1132  0.0482
 3261SOL    HW121242   2.694   1.230   7.514  0.2655  0.7180  0.2638
 3261SOL    HW221243   2.757   1.104   7.538 -0.8933  0.4382 -0.5530
 3262SOL     OW21244   1.081   4.014   4.127  0.2803  0.9201 -0.3444
 3262SOL    HW121245   1.041   4.073   4.190  3.6381  0.0379  2.5593
 3262SOL    HW221246   1.161   3.986   4.170 -0.5794 -0.3384  0.4600
 3263SOL     OW21247   4.225   4.575   5.490 -0.1742  0.1037  0.0444
 3263SOL    HW121248   4.246   4.640   5.422  0.8172 -0.3782 -0.1144
 3263SOL    HW221249   4.149   4.533   5.450 -1.6508  1.7625  1.1190
 3264SOL     OW21250   1.053   1.416   7.310  0.5069 -0.1679 -0.4970
 3264SOL    HW121251   1.064   1.420   7.405 -0.5031  2.5417 -0.4741
 3264SOL    HW221252   1.122   1.353   7.288 -0.5412 -1.4738 -0.0375
 3265SOL     OW21253   4.154   2.120  16.303 -0.3081 -0.0831 -0.1242
 3265SOL    HW121254   4.119   2.176  16.372 -0.1635  0.0320 -0.1444
 3265SOL    HW221255   4.067   2.092  16.277  0.2773 -1.2532 -0.8553
 3266SOL     OW21256   2.299   0.198   1.657  0.1449  0.2358  0.1360
 3266SOL    HW121257   2.346   0.261   1.602  0.8242  0.3301  0.8277
 3266SOL    HW221258   2.352   0.204   1.736 -0.6539 -0.2802  0.7183
 3267SOL     OW21259   2.272   0.462   3.750  0.0346 -0.3811 -0.0770
 3267SOL    HW121260   2.214   0.473   3.826  0.9248  2.9577  0.0982
 3267SOL    HW221261   2.210   0.478   3.679 -0.7803  1.0717  0.9771
 3268SOL     OW21262   1.396   1.012   1.043 -0.4200  0.2941 -0.4660
 3268SOL    HW121263   1.359   0.925   1.029  0.4239  0.0175 -1.0200
 3268SOL    HW221264   1.465   0.992   1.108  2.2170  1.1517 -2.9984
 3269SOL     OW21265   2.701   4.566  13.960  0.0722  0.5132 -0.4577
 3269SOL    HW121266   2.689   4.481  14.001  1.7211  1.5217  2.0934
 3269SOL    HW221267   2.631   4.560  13.895 -1.5231  3.5532  1.0409
 3270SOL     OW21268   1.477   4.425   5.123 -0.1512 -0.3033 -0.8530
 3270SOL    HW121269   1.462   4.485   5.196  1.9411  0.4324 -1.0439
 3270SOL    HW221270   1.538   4.372   5.174 -0.0523  0.4368 -0.2122
 3271SOL     OW21271   4.284   0.799   8.643 -0.4105  0.1308 -0.8603
 3271SOL    HW121272   4.242   0.722   8.606 -1.8363  0.6672 -0.3783
 3271SOL    HW221273   4.210   0.858   8.658 -0.3601 -0.7547  2.8482
 3272SOL     OW21274   2.312   0.366  14.555  0.5991 -0.0285 -0.0757
 3272SOL    HW121275   2.353   0.304  14.615 -0.1991  0.4257  0.9439
 3272SOL    HW221276   2.368   0.444  14.552  1.4654 -0.5710  2.2898
 3273SOL     OW21277   0.904   0.928   7.775 -0.1527 -0.6481  0.3490
 3273SOL    HW121278   0.899   0.908   7.681 -1.7150  2.6806 -0.2738
 3273SOL    HW221279   0.823   0.885   7.803 -1.8364  0.3247 -2.9631
 3274SOL     OW21280   3.970   3.033   5.176  0.4884  0.1051 -0.2203
 3274SOL    HW121281   3.947   2.940   5.167  0.4928  0.2386 -1.6292
 3274SOL    HW221282   3.959   3.066   5.087  0.5249  2.2402  0.5792
 3275SOL     OW21283   3.477   1.712   1.734  0.9058  0.1132 -0.1633
 3275SOL    HW121284   3.526   1.636   1.764  1.3284  0.7846  0.7993
 3275SOL    HW221285   3.389   1.674   1.728  0.0391  2.4474 -2.3608
 3276SOL     OW21286   3.656   2.890  14.179 -0.3917  0.1103 -0.2856
 3276SOL    HW121287   3.653   2.829  14.252  0.0130 -0.4501 -0.7388
 3276SOL    HW221288   3.571   2.864  14.145  0.6426 -3.1778 -0.3003
 3277SOL     OW21289   4.465   0.096   5.321 -0.0430 -0.1184  0.2205
 3277SOL    HW121290   4.370   0.080   5.321 -0.3203  1.5699 -1.1323
 3277SOL    HW221291   4.465   0.192   5.320 -1.5135 -0.0899  1.8435
 3278SOL     OW21292   1.087   0.441   7.985  0.0814  0.2303  0.0376
 3278SOL    HW121293   0.996   0.414   7.971 -0.2385  1.2500  0.1001
 3278SOL    HW221294   1.085   0.441   8.081  0.4464  1.1419  0.0446
 3279SOL     OW21295   3.616   2.726   4.802  0.6015  0.2837 -0.2623
 3279SOL    HW121296   3.632   2.801   4.745  2.8588  0.8908  1.1539
 3279SOL    HW221297   3.696   2.730   4.855  1.5001 -2.6617 -1.3762
 3280SOL     OW21298   2.194   2.399   6.266  0.5090 -0.2339  0.2949
 3280SOL    HW121299   2.283   2.431   6.249 -0.5005  1.5064 -1.7073
 3280SOL    HW221300   2.138   2.476   6.255 -1.1159 -1.5467 -0.5890
 3281SOL     OW21301   1.065   3.767   7.072  0.1623  0.0328  0.1017
 3281SOL    HW121302   1.046   3.802   6.985  0.0611  1.0922  0.5567
 3281SOL    HW221303   1.109   3.846   7.102 -0.1167  1.3499 -2.9847
 3282SOL     OW21304   0.236   0.083   2.118 -0.1777  0.4262  0.1162
 3282SOL    HW121305   0.302   0.067   2.051 -0.6837 -1.9341  0.1980
 3282SOL    HW221306   0.183   0.005   2.131 -1.3139  0.9136 -1.5136
 3283SOL     OW21307   0.914   3.496  11.419 -0.3741  0.3145 -0.3632
 3283SOL    HW121308   0.941   3.412  11.455  0.2264  1.2864  1.4512
 3283SOL    HW221309   0.852   3.534  11.481  0.2532 -1.8209  1.5793
 3284SOL     OW21310   0.248   1.328  12.513 -0.3011  0.0924 -0.4450
 3284SOL    HW121311   0.291   1.258  12.561 -2.8146  0.4727  2.3672
 3284SOL    HW221312   0.258   1.402  12.573 -1.1012 -0.0218 -0.1789
 3285SOL     OW21313   0.342   0.251   5.655 -0.3485  0.0831 -1.0237
 3285SOL    HW121314   0.301   0.206   5.729 -1.5736  0.9525 -1.1641
 3285SOL    HW221315   0.381   0.326   5.701 -0.5516 -0.8510  0.6742
 3286SOL     OW21316   3.748   2.565  11.199 -0.3053  0.3040  0.2734
 3286SOL    HW121317   3.718   2.475  11.192  1.6875 -0.2996 -0.5197
 3286SOL    HW221318   3.739   2.577  11.293 -0.8936 -0.0039  0.2538
 3287SOL     OW21319   3.526   1.787  13.850 -0.1866  0.1263  0.0047
 3287SOL    HW121320   3.441   1.769  13.890 -0.5297 -0.3187 -0.9198
 3287SOL    HW221321   3.552   1.698  13.831  1.6160  0.1773  2.2875
 3288SOL     OW21322   0.019   1.296   6.684  0.1498  0.5494  0.0103
 3288SOL    HW121323   0.015   1.296   6.779  0.9354 -2.0295  0.0569
 3288SOL    HW221324   0.105   1.262   6.658 -0.5217 -0.0761 -1.4378
 3289SOL     OW21325   3.813   2.549   7.950 -0.5051  0.2852  0.2720
 3289SOL    HW121326   3.903   2.574   7.932 -1.2042  1.4942 -1.5871
 3289SOL    HW221327   3.794   2.605   8.026 -1.9557  0.5176 -0.2502
 3290SOL     OW21328   0.638   4.659   7.238  0.0432 -0.0187  0.0509
 3290SOL    HW121329   0.729   4.677   7.262  0.4386 -1.7644 -0.1325
 3290SOL    HW221330   0.650   4.565   7.254  0.3162  0.0363  0.1694
 3291SOL     OW21331   1.699   0.739   7.868  0.2062  0.0869 -0.1534
 3291SOL    HW121332   1.721   0.808   7.805  1.7248  0.0688  0.3604
 3291SOL    HW221333   1.616   0.711   7.828 -1.1533 -1.5766  3.8358
 3292SOL     OW21334   1.258   1.246  10.098 -0.4193  0.1606 -0.5955
 3292SOL    HW121335   1.175   1.214  10.062  0.9456 -1.9959 -1.8021
 3292SOL    HW221336   1.248   1.236  10.193  0.3091  1.6033 -0.3659
 3293SOL     OW21337   4.682   0.292   4.201 -0.1242 -0.2699  0.0067
 3293SOL    HW121338   4.667   0.317   4.110 -2.0640  0.1091  0.4293
 3293SOL    HW221339   0.004   0.373   4.226 -2.5860  0.9190  0.5664
 3294SOL     OW21340   2.925   2.108  11.155  0.3677 -0.2585  0.1613
 3294SOL    HW121341   2.990   2.040  11.139  1.7830  0.8129  1.3329
 3294SOL    HW221342   2.856   2.059  11.200 -0.0711  0.0009 -0.2312
 3295SOL     OW21343   0.230   3.819   1.124 -0.5812  0.3101  0.2663
 3295SOL    HW121344   0.309   3.869   1.141 -2.3426  2.4433  2.2465
 3295SOL    HW221345   0.190   3.871   1.054 -0.6773 -1.7682 -1.2116
 3296SOL     OW21346   2.559   3.327  12.863 -0.4388  0.5684 -0.8125
 3296SOL    HW121347   2.480   3.358  12.818 -1.7238 -1.2157  0.2012
 3296SOL    HW221348   2.605   3.407  12.889  0.3969  0.1237 -0.9206
 3297SOL     OW21349   2.636   4.577   8.673 -0.5447 -0.0247 -0.0478
 3297SOL    HW121350   2.646   4.517   8.598 -1.6108 -0.2070 -0.0497
 3297SOL    HW221351   2.717   4.573   8.723 -0.3262 -1.1440 -0.4920
 3298SOL     OW21352   3.576   3.127  12.400 -0.1634  0.5202  0.5832
 3298SOL    HW121353   3.551   3.161  12.315 -0.1406 -0.1316  0.3199
 3298SOL    HW221354   3.526   3.046  12.404  1.6714 -0.7135 -1.7409
 3299SOL     OW21355   4.284   4.558  12.010  0.2315  0.4474  1.0277
 3299SOL    HW121356   4.350   4.532  11.945  2.0489  1.0454  2.6253
 3299SOL    HW221357   4.265   4.472  12.048 -0.4179  0.8173  1.5456
 3300SOL     OW21358   0.056   0.620   3.539  0.1423 -0.7743  0.5641
 3300SOL    HW121359   0.131   0.570   3.570  1.5878  0.4371 -0.9772
 3300SOL    HW221360   0.047   0.582   3.452 -0.8931  1.3537 -0.2585
 3301SOL     OW21361   0.769   0.633   3.438  0.2256  0.9301  0.0596
 3301SOL    HW121362   0.837   0.604   3.498  0.5355  0.7250 -0.3848
 3301SOL    HW221363   0.797   0.608   3.350  1.9262  0.2974  0.7793
 3302SOL     OW21364   2.097   2.465   9.656  0.5356  0.6530 -0.2926
 3302SOL    HW121365   2.058   2.540   9.701  2.1388  1.1759  0.2050
 3302SOL    HW221366   2.028   2.399   9.668 -0.3845  1.2158 -2.4781
 3303SOL     OW21367   2.043   3.197   7.737 -0.2870 -0.1684 -0.1796
 3303SOL    HW121368   2.044   3.287   7.769 -0.1000 -0.4006  0.4685
 3303SOL    HW221369   2.037   3.146   7.818  1.2282 -2.1034 -1.2703
 3304SOL     OW21370   4.533   1.359   4.046 -0.3373 -0.3371  0.1214
 3304SOL    HW121371   4.503   1.268   4.042  1.7884 -1.2375  5.1482
 3304SOL    HW221372   4.461   1.397   4.096  0.4622 -0.1846  1.1500
 3305SOL     OW21373   0.290   1.930  12.457  0.1463  0.2369 -0.4517
 3305SOL    HW121374   0.313   1.878  12.534 -1.0088  1.2195  0.5584
 3305SOL    HW221375   0.265   2.018  12.486 -2.1085 -0.6406  0.3362
 3306SOL     OW21376   1.230   1.221   8.415 -0.1904  0.8348 -0.9402
 3306SOL    HW121377   1.201   1.138   8.376 -0.3606  0.6876 -0.5074
 3306SOL    HW221378   1.155   1.280   8.407 -0.0366  0.8360 -2.3614
 3307SOL     OW21379   2.014   0.396   3.260 -0.2317  0.0859 -0.3399
 3307SOL    HW121380   1.961   0.469   3.227  0.2186  0.9040  0.7251
 3307SOL    HW221381   2.047   0.365   3.177  1.0150  1.5425 -0.3926
 3308SOL     OW21382   4.707   2.486   2.231 -0.1335  0.5161 -1.1591
 3308SOL    HW121383   4.687   2.541   2.307  1.4756  0.2322 -0.5321
 3308SOL    HW221384   0.009   2.549   2.164  0.0519  1.7166  0.0182
 3309SOL     OW21385   3.092   1.635  11.677 -0.4069  0.7438 -0.3382
 3309SOL    HW121386   3.188   1.644  11.680 -0.2366 -0.6573 -2.4346
 3309SOL    HW221387   3.082   1.622  11.583  0.6878 -1.5909 -0.1390
 3310SOL     OW21388   3.483   2.960   4.425 -0.2605 -0.3458 -0.9830
 3310SOL    HW121389   3.504   3.006   4.344 -0.8588  0.1642 -0.8496
 3310SOL    HW221390   3.392   2.936   4.410 -1.1117  2.5464 -0.5288
 3311SOL     OW21391   2.235   3.549   3.931 -0.3079 -0.3184 -0.0068
 3311SOL    HW121392   2.248   3.496   4.010  0.4743  2.5009  1.7343
 3311SOL    HW221393   2.227   3.635   3.973  0.3103 -0.6788  0.8527
 3312SOL     OW21394   3.960   4.163   5.834 -0.1208  0.2039 -0.7374
 3312SOL    HW121395   3.972   4.106   5.910  2.1994  0.3110 -1.0062
 3312SOL    HW221396   4.020   4.115   5.777  0.1335 -0.1595 -0.1633
 3313SOL     OW21397   0.682   4.671   8.407  0.3067 -0.4290 -0.1218
 3313SOL    HW121398   0.704   4.585   8.444  0.8004 -0.9066 -1.5109
 3313SOL    HW221399   0.765   4.694   8.365 -0.3299  1.4459 -0.3520
 3314SOL     OW21400   0.139   4.195   7.511  0.3818  0.4758  0.3960
 3314SOL    HW121401   0.056   4.236   7.486 -0.3709 -0.5887  1.1276
 3314SOL    HW221402   0.107   4.150   7.589  0.5650  0.4956  0.4840
 3315SOL     OW21403   4.350   4.190   2.671  0.0301 -0.2222 -0.0428
 3315SOL    HW121404   4.348   4.187   2.575  0.3610  1.9374 -0.1282
 3315SOL    HW221405   4.308   4.276   2.674 -2.5027 -1.5576  2.2874
 3316SOL     OW21406   1.820   3.431   7.940 -0.3462  0.0965 -0.1833
 3316SOL    HW121407   1.912   3.459   7.937  0.8751 -3.7742  1.0202
 3316SOL    HW221408   1.789   3.464   7.856 -2.0649 -1.4916 -0.1488
 3317SOL     OW21409   1.924   4.134   3.082  0.3751 -0.0737 -0.6873
 3317SOL    HW121410   1.907   4.199   3.150 -0.5261 -1.4906  0.4298
 3317SOL    HW221411   1.940   4.189   3.005  0.1356 -0.3828 -0.9535
 3318SOL     OW21412   4.593   0.704   4.107  0.2240  0.3318  0.7261
 3318SOL    HW121413   4.676   0.699   4.060 -0.2221 -0.2133  0.0049
 3318SOL    HW221414   4.536   0.735   4.037  1.4362  1.2923  0.1716
 3319SOL     OW21415   1.565   1.904   4.414 -1.2125 -0.1446 -0.1244
 3319SOL    HW121416   1.588   1.818   4.449  2.4198  1.1787  0.7274
 3319SOL    HW221417   1.535   1.880   4.326  3.2512 -0.1636 -1.6964
 3320SOL     OW21418   2.940   3.789   1.509 -0.0985  0.1026  0.3757
 3320SOL    HW121419   3.014   3.780   1.568 -0.1128  0.8485  0.5081
 3320SOL    HW221420   2.872   3.828   1.564 -2.6625 -2.5792 -0.8483
 3321SOL     OW21421   2.825   3.984  11.991  0.5591 -0.0145 -0.5252
 3321SOL    HW121422   2.737   3.978  11.953  0.1172 -0.9082  0.6445
 3321SOL    HW221423   2.800   3.956  12.079  2.8179 -0.4237 -0.0155
 3322SOL     OW21424   1.137   2.990   6.824 -0.3787 -0.3061  1.3699
 3322SOL    HW121425   1.071   2.958   6.884 -1.1735 -1.7098 -0.2569
 3322SOL    HW221426   1.219   2.961   6.865 -0.1099  0.6185  1.4888
 3323SOL     OW21427   4.371   4.701  12.914 -0.6274  0.4049  0.7111
 3323SOL    HW121428   4.466   4.693  12.904 -0.1986  3.5571  2.1353
 3323SOL    HW221429   4.346   4.612  12.936 -0.4987 -0.1144 -1.2060
 3324SOL     OW21430   0.209   0.214   3.949 -0.8514  0.1510 -0.4463
 3324SOL    HW121431   0.234   0.204   3.857  0.0736 -1.0489 -0.0611
 3324SOL    HW221432   0.124   0.258   3.948 -1.0098 -0.1323  0.3292
 3325SOL     OW21433   2.957   0.146  15.870 -0.0201  0.0495 -0.7992
 3325SOL    HW121434   2.872   0.101  15.871 -1.1442  2.2119  0.8022
 3325SOL    HW221435   2.939   0.222  15.926 -0.0207 -0.2775 -0.3522
 3326SOL     OW21436   3.740   1.165   0.245 -0.3336  0.4261  0.8534
 3326SOL    HW121437   3.680   1.236   0.268 -0.3366  0.0606  1.9802
 3326SOL    HW221438   3.775   1.186   0.159 -0.8002 -2.2518  0.0162
 3327SOL     OW21439   2.927   2.204  12.180 -0.4321  0.2803  0.0564
 3327SOL    HW121440   2.897   2.187  12.091  0.9652 -0.2716 -0.3015
 3327SOL    HW221441   2.855   2.176  12.237 -0.4398  0.2039  0.0089
 3328SOL     OW21442   0.693   2.050   0.241 -0.1081 -0.1287 -0.7768
 3328SOL    HW121443   0.674   2.084   0.154 -1.8389 -1.2900 -0.8591
 3328SOL    HW221444   0.788   2.046   0.247  0.0808  1.3305 -2.9270
 3329SOL     OW21445   3.076   1.098   5.975 -0.1879  0.1082  0.2281
 3329SOL    HW121446   3.141   1.161   5.941  2.2017 -2.3944  0.1731
 3329SOL    HW221447   3.112   1.020   5.933  1.3441  1.0980 -0.3048
 3330SOL     OW21448   3.219   0.324  12.737  0.2636 -1.3507  0.0004
 3330SOL    HW121449   3.146   0.386  12.739  1.9541  0.6573 -0.8759
 3330SOL    HW221450   3.165   0.248  12.720  1.0786 -2.1551  0.9918
 3331SOL     OW21451   3.334   1.533   5.044  0.4921  0.2604 -0.2185
 3331SOL    HW121452   3.282   1.595   5.096 -1.5174 -0.1498 -1.7394
 3331SOL    HW221453   3.272   1.460   5.042 -0.8395  1.4704 -2.3345
 3332SOL     OW21454   4.463   1.015   4.570  0.0305  0.1946  0.3645
 3332SOL    HW121455   4.457   1.006   4.475 -0.0233 -0.7500  0.4569
 3332SOL    HW221456   4.480   1.109   4.579 -1.1328  0.3059  1.4717
 3333SOL     OW21457   3.901   0.957   7.155  0.3710  0.5114 -0.2018
 3333SOL    HW121458   3.991   0.960   7.187  0.7600 -1.1800 -1.1419
 3333SOL    HW221459   3.866   1.035   7.197  0.5129 -0.7310  2.1989
 3334SOL     OW21460   3.496   2.574  11.468  0.4757 -0.3433  0.1136
 3334SOL    HW121461   3.558   2.504  11.450  0.9636  0.3820 -1.0076
 3334SOL    HW221462   3.546   2.624  11.533  0.7567  0.4043 -0.6893
 3335SOL     OW21463   0.077   3.591   0.979  0.5538  0.4997  0.3923
 3335SOL    HW121464   0.102   3.597   0.887 -0.8270 -0.7864 -0.0787
 3335SOL    HW221465   4.708   3.620   0.977  0.2418 -0.4927  0.0868
 3336SOL     OW21466   2.747   1.004   2.962  0.0926 -0.5271  0.2022
 3336SOL    HW121467   2.746   0.934   2.897 -0.8457  0.3851 -0.7478
 3336SOL    HW221468   2.818   1.056   2.926 -0.8945  0.4834 -0.2796
 3337SOL     OW21469   2.576   2.108   1.704  0.0329  0.2215 -0.4149
 3337SOL    HW121470   2.662   2.089   1.665 -1.2786 -2.2729 -2.0713
 3337SOL    HW221471   2.536   2.157   1.633  0.6567  3.3975  1.4140
 3338SOL     OW21472   4.251   4.180   5.208 -0.0938 -0.5833  0.2077
 3338SOL    HW121473   4.332   4.225   5.182  0.7840 -0.6827  2.8065
 3338SOL    HW221474   4.186   4.243   5.176 -0.5577 -0.5130  1.2855
 3339SOL     OW21475   1.096   3.438   6.393  0.1352 -0.1008  0.7855
 3339SOL    HW121476   1.127   3.388   6.317 -0.8420  0.8546 -0.2321
 3339SOL    HW221477   1.025   3.382   6.424  1.1025 -0.5952  2.1438
 3340SOL     OW21478   3.832   1.577   5.802  0.5767  0.3390 -0.6758
 3340SOL    HW121479   3.746   1.617   5.819  0.1992 -0.6810 -0.1757
 3340SOL    HW221480   3.799   1.499   5.759 -1.0048  0.2109  0.7810
 3341SOL     OW21481   4.316   3.212   9.067 -0.0842  0.2431  0.0213
 3341SOL    HW121482   4.388   3.223   9.004  0.9666  2.2345  1.5584
 3341SOL    HW221483   4.306   3.117   9.073  0.8265  0.1919  0.7778
 3342SOL     OW21484   2.022   2.759   4.322 -0.4322  0.8752  0.3293
 3342SOL    HW121485   1.963   2.747   4.396  0.3695  1.1418  1.0082
 3342SOL    HW221486   2.063   2.673   4.330 -1.5854  0.3866  1.0427
 3343SOL     OW21487   0.045   2.643   3.451 -0.9602 -0.2622 -0.3916
 3343SOL    HW121488   0.096   2.621   3.372 -1.5264  3.3863 -1.8255
 3343SOL    HW221489   0.102   2.709   3.492 -2.4342  0.0803  1.0776
 3344SOL     OW21490   0.669   4.350  14.873  0.3136  0.1325 -0.1935
 3344SOL    HW121491   0.602   4.325  14.810 -1.3048 -0.2822  1.7063
 3344SOL    HW221492   0.744   4.338  14.814  0.4036  0.1322 -0.0792
 3345SOL     OW21493   0.142   0.313   1.768 -0.2318  0.3838  0.3247
 3345SOL    HW121494   0.063   0.328   1.717  0.6852 -0.1900 -1.2706
 3345SOL    HW221495   0.190   0.269   1.698 -3.0769 -0.4364 -1.1010
 3346SOL     OW21496   1.467   1.544   5.353 -0.1674  0.0765  0.1238
 3346SOL    HW121497   1.515   1.592   5.420  0.3706 -1.0767  0.5734
 3346SOL    HW221498   1.441   1.470   5.407 -1.6419  0.9824  0.6638
 3347SOL     OW21499   0.866   1.094   6.338 -0.6487  0.9530 -0.6511
 3347SOL    HW121500   0.853   1.174   6.388  1.5686 -0.1858  1.7818
 3347SOL    HW221501   0.960   1.099   6.319 -0.1911  3.1802  2.1739
 3348SOL     OW21502   0.273   4.593   8.018  0.0282 -0.3816  0.6567
 3348SOL    HW121503   0.350   4.594   8.075  1.2810  0.4585 -1.0154
 3348SOL    HW221504   0.220   4.517   8.043  1.4805 -1.9109 -0.8255
 3349SOL     OW21505   0.359   0.149   6.149  0.5789  0.1352  0.6749
 3349SOL    HW121506   0.369   0.175   6.240  0.2636  1.1886  0.4115
 3349SOL    HW221507   0.348   0.232   6.104  0.6962 -0.6619 -0.8320
 3350SOL     OW21508   1.975   2.769   5.953  0.1349 -0.4082 -0.1610
 3350SOL    HW121509   2.018   2.688   5.925 -1.0012 -2.0329  2.7006
 3350SOL    HW221510   2.007   2.827   5.884 -1.3061 -0.9144 -1.2475
 3351SOL     OW21511   4.401   2.750   7.300 -0.1711 -0.9374  0.4459
 3351SOL    HW121512   4.333   2.792   7.247  0.6161 -0.6483 -0.3442
 3351SOL    HW221513   4.348   2.735   7.378 -0.9516 -0.6342 -0.0246
 3352SOL     OW21514   2.094   4.119   9.156 -0.1837 -0.7914  0.6763
 3352SOL    HW121515   2.091   4.113   9.061 -2.5674  1.0189  0.6392
 3352SOL    HW221516   2.055   4.035   9.181 -0.0149 -1.7585 -2.3778
 3353SOL     OW21517   0.836   0.360   7.539 -0.2711  0.0825  0.2651
 3353SOL    HW121518   0.867   0.327   7.454 -0.3257  1.0879 -0.1458
 3353SOL    HW221519   0.926   0.382   7.564 -0.0730  1.5967 -1.8421
 3354SOL     OW21520   3.488   3.443   8.587 -0.3200 -0.3491 -0.0657
 3354SOL    HW121521   3.463   3.392   8.509  1.9901  2.2376 -2.5067
 3354SOL    HW221522   3.414   3.424   8.644  0.8000 -0.6341  1.2851
 3355SOL     OW21523   2.021   1.958  14.314 -0.2432  0.4549 -0.4014
 3355SOL    HW121524   2.041   1.867  14.292  0.1157  0.0628  1.4974
 3355SOL    HW221525   2.097   1.996  14.269 -0.0144 -0.0323 -0.4210
 3356SOL     OW21526   3.397   2.585   7.998 -0.2104  0.1328  0.0683
 3356SOL    HW121527   3.434   2.662   8.042 -0.0503  0.4506 -0.6181
 3356SOL    HW221528   3.333   2.554   8.061  1.2859 -0.7428  1.1649
 3357SOL     OW21529   1.777   3.161  13.878  0.0411  0.4672 -0.4318
 3357SOL    HW121530   1.826   3.243  13.883 -0.0799  0.5807 -1.0807
 3357SOL    HW221531   1.796   3.130  13.966  0.7256  2.8349  0.2392
 3358SOL     OW21532   1.612   2.027   4.064 -0.0756  0.7625  0.1110
 3358SOL    HW121533   1.694   1.989   4.097  0.4712  3.1430  1.5173
 3358SOL    HW221534   1.636   2.016   3.972  0.7668 -2.3369  0.7144
 3359SOL     OW21535   2.152   2.473  16.167  0.7948  0.0162  0.7378
 3359SOL    HW121536   2.154   2.557  16.121  1.6385  0.3855  1.4664
 3359SOL    HW221537   2.085   2.416  16.128 -0.3785 -0.1093  2.9294
 3360SOL     OW21538   4.548   4.694   7.351 -0.1029  0.0760 -0.0529
 3360SOL    HW121539   4.542   4.605   7.316 -1.8125  0.9510 -2.0505
 3360SOL    HW221540   4.626   4.688   7.406  0.0737 -0.9790 -0.4163
 3361SOL     OW21541   2.280   3.550  13.025 -0.3144  0.1670 -0.4568
 3361SOL    HW121542   2.355   3.511  13.070  1.0726  2.7566 -0.5495
 3361SOL    HW221543   2.203   3.525  13.077  0.6069 -2.2824 -0.2757
 3362SOL     OW21544   1.662   0.001  14.941 -0.2254  0.0771 -0.3543
 3362SOL    HW121545   1.659   0.077  15.000 -1.2201  1.1389 -1.7605
 3362SOL    HW221546   1.616   0.034  14.863 -0.7931  0.1525  0.0148
 3363SOL     OW21547   0.914   4.044   8.424 -0.2499 -0.0907 -0.2402
 3363SOL    HW121548   0.865   4.045   8.506  1.3134 -1.1498  0.7198
 3363SOL    HW221549   1.001   4.023   8.458  0.1452 -0.1329 -1.2675
 3364SOL     OW21550   0.023   3.176  13.555  0.3817 -0.1767 -1.0995
 3364SOL    HW121551   0.065   3.113  13.497 -1.2783 -1.2180 -1.1716
 3364SOL    HW221552   4.699   3.126  13.622  0.6317  0.7897 -0.2075
 3365SOL     OW21553   0.632   3.036   4.682 -0.3044  0.3962 -0.0605
 3365SOL    HW121554   0.548   3.073   4.653 -0.1920 -0.2315 -1.1439
 3365SOL    HW221555   0.689   3.108   4.657  2.0791 -0.7687  2.0276
 3366SOL     OW21556   2.711   2.572  15.885  0.1865  0.0377  0.1414
 3366SOL    HW121557   2.760   2.493  15.910 -2.2093 -2.1630 -2.1398
 3366SOL    HW221558   2.626   2.533  15.907 -1.5164  2.4403 -2.2321
 3367SOL     OW21559   0.171   2.096  14.555  0.0412 -0.2628  0.1868
 3367SOL    HW121560   0.243   2.044  14.591  0.1050 -0.5255 -0.3226
 3367SOL    HW221561   0.206   2.123  14.470 -0.7606  0.2546  0.0200
 3368SOL     OW21562   0.155   3.660   7.256  0.0079 -0.4601  0.2877
 3368SOL    HW121563   0.182   3.643   7.346  1.2761 -0.0551 -0.0046
 3368SOL    HW221564   0.074   3.610   7.258  0.4190 -1.2543 -2.2227
 3369SOL     OW21565   0.988   3.818   4.620 -0.2834 -0.2218 -0.2198
 3369SOL    HW121566   1.032   3.874   4.556 -0.7450  0.2857 -0.0862
 3369SOL    HW221567   0.901   3.857   4.626 -0.4108 -0.4303 -0.6923
 3370SOL     OW21568   4.628   3.469  11.441  0.0183  0.5440 -0.4198
 3370SOL    HW121569   4.704   3.525  11.458  0.0398  0.1532  0.7550
 3370SOL    HW221570   4.578   3.508  11.369 -1.3684  0.8238  0.7106
 3371SOL     OW21571   1.044   3.577   3.659  0.1391 -0.0810 -0.4105
 3371SOL    HW121572   1.058   3.671   3.645 -3.2432  0.3492 -0.9533
 3371SOL    HW221573   0.954   3.565   3.629  0.5285  0.9264 -2.0247
 3372SOL     OW21574   3.792   2.360  15.586 -0.3078  0.2748  0.0576
 3372SOL    HW121575   3.804   2.309  15.666  3.6929  2.0095  0.5351
 3372SOL    HW221576   3.796   2.294  15.517  0.7956 -0.4192  0.7931
 3373SOL     OW21577   4.171   2.075   3.594  0.0460  0.2943 -0.1339
 3373SOL    HW121578   4.198   2.116   3.512 -0.6995 -1.0623 -1.0427
 3373SOL    HW221579   4.257   2.047   3.625 -0.3442  2.7714  3.2304
 3374SOL     OW21580   0.244   2.099   3.701  0.0888  0.5034  0.0693
 3374SOL    HW121581   0.292   2.143   3.771  1.6319 -0.8692 -0.1264
 3374SOL    HW221582   0.255   2.165   3.632  1.2959  0.3855  0.1405
 3375SOL     OW21583   3.661   3.059  12.099  0.6180 -0.2273 -0.2741
 3375SOL    HW121584   3.588   3.118  12.116 -0.1527 -0.8086 -1.5599
 3375SOL    HW221585   3.658   2.983  12.157 -0.9643 -0.4206 -0.6004
 3376SOL     OW21586   2.544   3.677  10.801 -0.1445 -0.6829  0.1756
 3376SOL    HW121587   2.525   3.606  10.863  1.9830 -0.9059  0.5554
 3376SOL    HW221588   2.549   3.758  10.853 -0.8614  0.7784 -2.0301
 3377SOL     OW21589   0.203   2.229  17.019  0.0555  0.1196  0.1422
 3377SOL    HW121590   0.181   2.149  16.970 -1.2464  1.4424 -1.4615
 3377SOL    HW221591   0.159   2.292  16.961  1.5534 -0.2275 -1.3689
 3378SOL     OW21592   0.646   0.284   5.897 -0.3250 -0.0754  0.6109
 3378SOL    HW121593   0.704   0.307   5.969  1.1434 -0.3142 -0.5043
 3378SOL    HW221594   0.617   0.371   5.868  3.1941  0.4465 -1.2875
 3379SOL     OW21595   1.956   4.082   2.507  1.0142  0.5693  0.0460
 3379SOL    HW121596   1.956   4.017   2.437 -1.7785  0.8347 -0.2069
 3379SOL    HW221597   2.045   4.116   2.514  0.6215  1.1328  2.1589
 3380SOL     OW21598   2.566   4.491  17.645  0.4666  0.4482  0.1047
 3380SOL    HW121599   2.485   4.530  17.680 -0.0691 -0.1870 -0.4350
 3380SOL    HW221600   2.613   4.452   0.027 -1.8790 -0.8659  0.9021
 3381SOL     OW21601   1.982   1.432   3.319 -0.3349  0.6085  0.1854
 3381SOL    HW121602   1.948   1.481   3.244  2.0949  1.2130 -0.4988
 3381SOL    HW221603   2.065   1.401   3.284 -0.3547  0.9965 -0.2039
 3382SOL     OW21604   0.846   0.971   2.316  0.6262  0.2614  0.0891
 3382SOL    HW121605   0.753   0.959   2.335  0.2121 -2.1386 -3.3682
 3382SOL    HW221606   0.851   1.045   2.255 -1.2876  0.6773  0.4369
 3383SOL     OW21607   2.456   3.342   5.617  0.4291  0.1124  0.6124
 3383SOL    HW121608   2.438   3.253   5.648 -2.2859  0.0827 -1.0127
 3383SOL    HW221609   2.391   3.364   5.550  0.5665 -0.8238  0.1753
 3384SOL     OW21610   4.523   2.850   2.202  0.3408  0.4476  0.1132
 3384SOL    HW121611   4.571   2.898   2.134  0.7340  2.6498  1.9274
 3384SOL    HW221612   4.481   2.929   2.235  1.4303  1.6536 -1.3603
 3385SOL     OW21613   1.652   4.499  15.108  0.7293  0.6456  0.1694
 3385SOL    HW121614   1.668   4.549  15.028  1.7297 -0.9969 -0.6522
 3385SOL    HW221615   1.720   4.529  15.167  1.8302  0.7525 -1.1579
 3386SOL     OW21616   4.305   0.771   2.946 -0.2566  0.6373 -0.0727
 3386SOL    HW121617   4.350   0.800   3.025 -1.3612  1.2637  0.3283
 3386SOL    HW221618   4.214   0.770   2.976 -0.3108 -2.7766 -0.3136
 3387SOL     OW21619   3.742   1.094   6.852  0.0581 -0.1579  0.4413
 3387SOL    HW121620   3.744   1.067   6.760  2.5262  0.3772  0.3300
 3387SOL    HW221621   3.759   1.009   6.892 -1.1621 -0.1293  1.0320
 3388SOL     OW21622   3.053   3.955   8.292 -0.7651  1.0407 -0.1353
 3388SOL    HW121623   2.982   3.963   8.357  0.0862 -1.0183  1.0232
 3388SOL    HW221624   3.075   3.865   8.313  1.9890  1.3694 -1.5909
 3389SOL     OW21625   0.138   2.938  14.915 -0.1301 -0.2604  1.0543
 3389SOL    HW121626   0.060   2.894  14.880  0.6727  0.7775 -2.0264
 3389SOL    HW221627   0.182   2.872  14.967  0.4960 -0.6591  0.0208
 3390SOL     OW21628   1.751   0.377   8.710 -0.8918 -0.0563  0.0061
 3390SOL    HW121629   1.834   0.404   8.752 -0.1205 -2.2114 -0.1617
 3390SOL    HW221630   1.684   0.403   8.773 -0.2445  0.3744  0.5239
 3391SOL     OW21631   2.680   1.186   0.301 -0.2643  0.6395  0.5449
 3391SOL    HW121632   2.696   1.248   0.371  1.3429 -0.5602  1.2404
 3391SOL    HW221633   2.593   1.221   0.279 -0.0575 -0.8068 -2.6249
 3392SOL     OW21634   0.619   1.594   8.788  0.3902 -0.2115  0.0372
 3392SOL    HW121635   0.649   1.536   8.718  0.2893 -1.8847  1.3866
 3392SOL    HW221636   0.657   1.546   8.861  0.6474  1.0270  0.7282
 3393SOL     OW21637   0.873   1.289  15.872 -0.2392 -0.1357 -0.3213
 3393SOL    HW121638   0.879   1.231  15.797  0.1029 -0.7730  0.2010
 3393SOL    HW221639   0.788   1.331  15.856 -0.8814 -1.5166 -0.5162
 3394SOL     OW21640   0.439   1.932  10.870 -0.6225 -0.2650  0.3762
 3394SOL    HW121641   0.458   1.841  10.892 -0.9038 -0.5964 -0.7610
 3394SOL    HW221642   0.512   1.949  10.810 -2.1240 -1.8577 -1.9373
 3395SOL     OW21643   1.350   4.395   7.097 -0.0911  0.3324 -0.1752
 3395SOL    HW121644   1.326   4.484   7.122 -4.0879 -0.1024 -2.3691
 3395SOL    HW221645   1.365   4.407   7.003  1.3214  1.7187  0.2347
 3396SOL     OW21646   4.492   2.080   2.648  0.3701 -0.2327  0.0882
 3396SOL    HW121647   4.461   2.034   2.726 -1.6021  0.1559 -0.4568
 3396SOL    HW221648   4.451   2.166   2.661  0.5527 -0.0745 -0.3892
 3397SOL     OW21649   2.527   3.054   6.623 -0.0903  0.4985 -0.3207
 3397SOL    HW121650   2.613   3.093   6.641 -0.2971  0.8678 -0.1406
 3397SOL    HW221651   2.549   3.029   6.533  0.7197  1.3617 -0.3642
 3398SOL     OW21652   2.696   0.812   3.435 -0.3228 -0.2580 -0.3249
 3398SOL    HW121653   2.607   0.825   3.468  0.3023 -0.5922  1.5230
 3398SOL    HW221654   2.700   0.864   3.355 -3.2740  1.9798  1.0248
 3399SOL     OW21655   0.709   2.591   6.936  0.3270 -0.4439  0.1538
 3399SOL    HW121656   0.764   2.578   7.013 -2.5156 -1.4353  2.0530
 3399SOL    HW221657   0.710   2.686   6.923  0.5137 -0.5139 -0.3400
 3400SOL     OW21658   3.122   0.359   3.944 -0.1290  0.0097 -0.4432
 3400SOL    HW121659   3.088   0.417   4.012  3.9903  0.5610  1.1340
 3400SOL    HW221660   3.124   0.421   3.871  0.7834  0.8077  0.2582
 3401SOL     OW21661   1.082   1.629   8.222  0.3043  0.0822  0.1890
 3401SOL    HW121662   1.178   1.632   8.229  0.2400  0.7267  0.8118
 3401SOL    HW221663   1.059   1.721   8.233 -0.6656  0.0264 -1.3642
 3402SOL     OW21664   4.595   1.803  16.961  0.0076 -0.2748  0.1691
 3402SOL    HW121665   4.502   1.781  16.954  0.2034 -1.5270  1.6639
 3402SOL    HW221666   4.620   1.726  17.012  0.7651  0.5999  1.1175
 3403SOL     OW21667   3.891   0.973   8.340  0.2171 -0.4656 -0.3612
 3403SOL    HW121668   3.887   1.051   8.396 -1.0643 -1.1626  0.5279
 3403SOL    HW221669   3.929   0.924   8.413 -0.5401  0.8857  0.9396
 3404SOL     OW21670   4.456   1.163  15.240  0.1700 -0.1820 -0.3006
 3404SOL    HW121671   4.494   1.123  15.319  0.2294 -1.8875 -1.1959
 3404SOL    HW221672   4.433   1.079  15.201 -0.1934 -0.7651  1.1609
 3405SOL     OW21673   1.869   0.762   8.133  0.6139 -0.0584 -0.4291
 3405SOL    HW121674   1.797   0.767   8.070 -0.6325 -0.6482  0.9460
 3405SOL    HW221675   1.907   0.687   8.087  1.2289  0.5538 -0.9118
 3406SOL     OW21676   3.893   0.259  15.557  0.0843  0.6289  0.2272
 3406SOL    HW121677   3.943   0.226  15.631  0.3652  2.0481  0.6665
 3406SOL    HW221678   3.965   0.261  15.494  0.7098 -0.2754  0.9263
 3407SOL     OW21679   1.546   4.271   6.796  0.3551 -0.5004  0.2225
 3407SOL    HW121680   1.565   4.242   6.885  1.0171 -1.6691 -0.2930
 3407SOL    HW221681   1.591   4.202   6.747 -1.8654 -0.9294 -1.2185
 3408SOL     OW21682   2.202   1.138  12.530 -0.0716 -0.5574 -0.3822
 3408SOL    HW121683   2.256   1.063  12.502  2.8273  1.4139 -0.0859
 3408SOL    HW221684   2.269   1.202  12.552  0.3123 -1.1249  0.1260
 3409SOL     OW21685   3.050   1.675  11.390  0.1174  0.0818 -0.3879
 3409SOL    HW121686   2.964   1.712  11.368  0.0314  0.1465  0.0583
 3409SOL    HW221687   3.098   1.651  11.310 -0.2267  1.1089 -0.8977
 3410SOL     OW21688   4.680   0.990   8.934  0.5213  0.3858  0.2107
 3410SOL    HW121689   4.716   0.969   8.848  1.5075  3.9154 -0.2296
 3410SOL    HW221690   4.613   0.922   8.946 -0.0331  0.4932 -2.2740
 3411SOL     OW21691   4.278   3.403   2.686 -0.1105 -0.0301  0.6524
 3411SOL    HW121692   4.282   3.464   2.612 -1.7564 -2.1663 -1.1970
 3411SOL    HW221693   4.285   3.317   2.644  1.4784 -0.1517  1.1563
 3412SOL     OW21694   2.543   3.643   6.438  0.6579 -0.0415  0.6906
 3412SOL    HW121695   2.525   3.563   6.388  0.9649 -0.6556  1.5633
 3412SOL    HW221696   2.470   3.641   6.499 -0.1003  2.9006 -0.1373
 3413SOL     OW21697   3.642   1.806   7.546 -0.7161 -0.4213 -0.2956
 3413SOL    HW121698   3.640   1.840   7.456  1.4766  0.8799  0.1673
 3413SOL    HW221699   3.604   1.719   7.528 -0.2429 -0.7691  0.4118
 3414SOL     OW21700   3.401   2.817  14.101 -0.3177  0.7007  1.0390
 3414SOL    HW121701   3.351   2.857  14.029  1.6595  2.1692  0.4878
 3414SOL    HW221702   3.464   2.753  14.068 -2.3130 -0.2922 -0.8338
 3415SOL     OW21703   2.008   2.483   7.735 -0.4071 -0.1181 -0.0946
 3415SOL    HW121704   2.047   2.422   7.798  1.1863  0.5132 -0.4709
 3415SOL    HW221705   2.090   2.530   7.718  0.1081 -0.6358  0.9376
 3416SOL     OW21706   3.919   4.719  15.749 -0.5710  0.7367 -0.4509
 3416SOL    HW121707   3.889   4.659  15.680 -0.8019  0.6287 -0.2559
 3416SOL    HW221708   4.012   4.712  15.727 -0.2812  3.3324 -0.0013
 3417SOL     OW21709   0.559   1.021  16.623 -0.2607  0.0100 -0.4093
 3417SOL    HW121710   0.549   1.103  16.672  3.5271  0.7497 -0.8426
 3417SOL    HW221711   0.477   1.022  16.574 -0.5141  0.6150  0.0226
 3418SOL     OW21712   4.098   1.034  13.882  0.2766  0.1531 -0.7238
 3418SOL    HW121713   4.088   1.114  13.934 -1.9985  0.9130 -2.3692
 3418SOL    HW221714   4.174   1.052  13.826  1.6506  2.8774  1.9406
 3419SOL     OW21715   4.309   1.066   6.726  0.0199 -0.4554 -0.1929
 3419SOL    HW121716   4.352   1.031   6.804  1.0183 -1.4670 -1.2119
 3419SOL    HW221717   4.384   1.112   6.689  0.2351 -1.2273 -0.7115
 3420SOL     OW21718   4.260   1.931   2.549 -0.3489  0.0867  0.5495
 3420SOL    HW121719   4.313   1.953   2.473 -0.4286  0.3648  0.5735
 3420SOL    HW221720   4.288   1.991   2.619 -0.0086  1.6682 -0.9236
 3421SOL     OW21721   2.100   1.685  11.881 -0.3390 -0.6571  0.3374
 3421SOL    HW121722   2.183   1.710  11.840 -1.7418  0.9684 -1.5150
 3421SOL    HW221723   2.042   1.742  11.832  1.8440  1.2734 -0.0124
 3422SOL     OW21724   2.764   3.995  16.721  0.7022 -0.1315  0.6469
 3422SOL    HW121725   2.800   3.919  16.767  1.8576  1.5647  2.5545
 3422SOL    HW221726   2.680   4.015  16.761  0.0442 -0.4500 -0.5852
 3423SOL     OW21727   3.327   2.945   5.078  0.0166 -0.4414 -0.0981
 3423SOL    HW121728   3.371   3.016   5.031  1.6041 -0.8224  0.8206
 3423SOL    HW221729   3.237   2.975   5.064  0.1928  0.0464 -0.1857
 3424SOL     OW21730   3.887   0.045  13.014  0.2914  0.0919  0.3570
 3424SOL    HW121731   3.916   0.022  12.926  1.4711  0.6449  0.6083
 3424SOL    HW221732   3.966   0.032  13.067  0.2504  1.3184  0.7204
 3425SOL     OW21733   2.893   2.238   4.668  0.3380 -0.1528  0.0945
 3425SOL    HW121734   2.874   2.219   4.759 -1.7669  0.3088 -0.2434
 3425SOL    HW221735   2.974   2.289   4.673  0.4359 -0.1166 -1.7847
 3426SOL     OW21736   3.836   1.147  14.649 -0.5923 -0.0363 -0.1318
 3426SOL    HW121737   3.909   1.184  14.698 -0.8017  0.8610 -0.5037
 3426SOL    HW221738   3.781   1.103  14.713  0.5162  0.8032  1.4038
 3427SOL     OW21739   2.148   4.712  12.913  0.1375 -0.2025 -0.4717
 3427SOL    HW121740   2.092   0.056  12.954 -0.4456  0.3999 -2.2401
 3427SOL    HW221741   2.163   4.646  12.980 -0.4555  1.0285  0.8594
 3428SOL     OW21742   3.321   0.168   1.042 -0.1264 -0.3881  0.1168
 3428SOL    HW121743   3.333   0.194   0.951  1.1057  1.3669  0.7782
 3428SOL    HW221744   3.348   0.076   1.042 -0.5921 -0.5211 -0.4015
 3429SOL     OW21745   3.493   3.385   7.035  0.1562  0.4820  0.5583
 3429SOL    HW121746   3.507   3.294   7.062  1.2095  0.5695  0.3080
 3429SOL    HW221747   3.555   3.429   7.093  0.7592  0.8874 -0.3847
 3430SOL     OW21748   0.755   4.320   3.370 -0.2633 -0.7328  0.0679
 3430SOL    HW121749   0.737   4.336   3.463 -0.5945  0.5066 -0.2049
 3430SOL    HW221750   0.790   4.232   3.377 -1.2966 -1.2294 -1.1072
 3431SOL     OW21751   0.495   2.580   1.092 -0.1756  0.3843 -0.8245
 3431SOL    HW121752   0.411   2.622   1.078 -1.6845 -1.5382  2.5679
 3431SOL    HW221753   0.525   2.551   1.006  2.1638 -0.4550  0.2584
 3432SOL     OW21754   2.268   3.343  16.502  0.0592 -0.1899 -0.1114
 3432SOL    HW121755   2.278   3.415  16.565 -2.5767 -0.6104  0.8048
 3432SOL    HW221756   2.324   3.390  16.440  0.0640  0.3911  0.3333
 3433SOL     OW21757   1.037   2.151   4.149 -0.1700 -0.0421  0.2245
 3433SOL    HW121758   1.063   2.062   4.125  0.5915  0.7243 -1.7243
 3433SOL    HW221759   1.019   2.126   4.240 -0.3712 -0.0978  0.1694
 3434SOL     OW21760   2.403   2.574   5.318 -0.5716  0.0570  0.4413
 3434SOL    HW121761   2.373   2.499   5.369  0.0699 -0.7654 -0.3767
 3434SOL    HW221762   2.432   2.531   5.238  1.3691  3.0002 -0.4193
 3435SOL     OW21763   2.328   0.698  10.132  0.4233  0.5808 -0.0387
 3435SOL    HW121764   2.398   0.716  10.070  1.6959  0.2531  1.3106
 3435SOL    HW221765   2.268   0.770  10.112 -0.1275  0.3136  0.6139
 3436SOL     OW21766   2.067   2.038   5.003 -0.0844 -0.3380 -0.5769
 3436SOL    HW121767   1.989   2.094   4.999  0.4614  0.4379 -0.3226
 3436SOL    HW221768   2.035   1.955   4.969  1.5438 -0.9973 -0.4983
 3437SOL     OW21769   3.361   1.704   5.456 -0.0621 -0.5119  0.5214
 3437SOL    HW121770   3.428   1.769   5.478  0.2544 -0.8310  0.4896
 3437SOL    HW221771   3.412   1.626   5.434 -0.2879 -0.5269  0.0511
 3438SOL     OW21772   3.142   3.431   2.647  0.4073 -0.5600  0.3709
 3438SOL    HW121773   3.105   3.345   2.668  1.0587 -1.3646 -1.6641
 3438SOL    HW221774   3.112   3.427   2.556  2.2723 -0.9851 -0.2417
 3439SOL     OW21775   3.748   4.042   5.173  0.7191 -0.0886 -0.2624
 3439SOL    HW121776   3.676   3.984   5.149  0.3708  0.0158  0.5280
 3439SOL    HW221777   3.814   3.985   5.212  0.8248  0.5775  0.5337
 3440SOL     OW21778   1.948   2.396   4.677 -0.4106 -0.3841 -0.0553
 3440SOL    HW121779   2.012   2.456   4.714 -0.2836  0.2181 -1.2383
 3440SOL    HW221780   1.887   2.381   4.750 -0.6407 -1.1577 -0.4020
 3441SOL     OW21781   0.018   2.133   6.981 -0.1059  0.0166  0.4454
 3441SOL    HW121782   4.689   2.074   7.036 -0.1393 -1.7033 -1.4393
 3441SOL    HW221783   0.074   2.174   7.047  1.6944 -0.2379 -0.9370
 3442SOL     OW21784   2.770   3.605   3.903 -0.1232 -0.0275  0.1234
 3442SOL    HW121785   2.851   3.588   3.952 -0.9681 -2.1998  0.7637
 3442SOL    HW221786   2.705   3.557   3.953  0.8367 -0.9754  0.4623
 3443SOL     OW21787   2.474   2.543   0.341  0.6782 -0.2588  0.4355
 3443SOL    HW121788   2.498   2.621   0.391 -1.0144  1.2338 -1.0655
 3443SOL    HW221789   2.500   2.557   0.250 -1.0656  0.3286  0.0133
 3444SOL     OW21790   4.096   3.674   4.739  0.3842 -0.5765 -0.0356
 3444SOL    HW121791   4.033   3.712   4.678  1.2243  1.9715  0.6869
 3444SOL    HW221792   4.120   3.586   4.708 -2.7445 -0.8337 -1.8172
 3445SOL     OW21793   2.741   3.447   3.050  0.0016  0.3021 -0.5033
 3445SOL    HW121794   2.652   3.429   3.020 -1.0744  1.1690  2.1473
 3445SOL    HW221795   2.739   3.540   3.069  0.7545 -0.0432  1.3426
 3446SOL     OW21796   0.844   4.072   4.914  0.4261 -0.5681  0.2030
 3446SOL    HW121797   0.813   4.026   4.836  2.3108 -0.9700 -0.3226
 3446SOL    HW221798   0.927   4.104   4.879 -0.0377  0.2455 -0.1459
 3447SOL     OW21799   0.773   1.947   7.309  0.4263 -0.3037 -0.7159
 3447SOL    HW121800   0.758   1.957   7.215 -1.3145 -0.3869 -0.4469
 3447SOL    HW221801   0.717   2.014   7.348  0.9672  1.2582 -2.6451
 3448SOL     OW21802   0.462   0.433   3.809  0.1149  0.3161 -0.6585
 3448SOL    HW121803   0.518   0.466   3.738 -1.8318  2.9957 -0.9661
 3448SOL    HW221804   0.506   0.350   3.829 -0.1217  0.6302  1.0779
 3449SOL     OW21805   3.927   4.011   6.563 -0.1949  0.0555 -0.0498
 3449SOL    HW121806   3.941   3.927   6.518 -0.4902 -0.1825  0.3002
 3449SOL    HW221807   3.917   4.072   6.490 -2.3576  0.8304  0.9006
 3450SOL     OW21808   0.924   3.073   8.864 -0.2621  0.5233 -0.0012
 3450SOL    HW121809   0.865   3.049   8.792 -1.1820 -1.8957  1.5531
 3450SOL    HW221810   0.871   3.045   8.939  0.9806  0.6343  0.9237
 3451SOL     OW21811   1.156   3.327   2.783  0.2262 -0.1067 -0.2189
 3451SOL    HW121812   1.250   3.330   2.800  0.4144  0.2314 -1.3218
 3451SOL    HW221813   1.155   3.353   2.691 -0.9844  0.7787  0.0443
 3452SOL     OW21814   1.161   4.388   6.851 -0.5789  0.4025  0.3078
 3452SOL    HW121815   1.217   4.429   6.786  3.9143 -0.5934  3.4855
 3452SOL    HW221816   1.072   4.408   6.823  0.1043  1.7785 -0.8098
 3453SOL     OW21817   1.200   1.645  15.834 -0.4269 -0.0332  0.3021
 3453SOL    HW121818   1.250   1.622  15.912 -0.7652 -0.3938  0.4138
 3453SOL    HW221819   1.109   1.658  15.864 -0.1595  0.5281  0.8785
 3454SOL     OW21820   4.418   4.520   7.191  0.0335  0.1149  0.1756
 3454SOL    HW121821   4.326   4.525   7.217 -0.3187  1.6879 -1.3977
 3454SOL    HW221822   4.420   4.576   7.113 -3.2355 -3.5464 -2.5532
 3455SOL     OW21823   3.667   2.936  14.696  0.0089 -0.1994 -0.1849
 3455SOL    HW121824   3.646   3.017  14.743  2.1337 -1.2952  2.6592
 3455SOL    HW221825   3.755   2.918  14.727  0.1407  1.4829  0.4365
 3456SOL     OW21826   4.194   0.030   0.774 -0.2965 -0.3249 -0.3545
 3456SOL    HW121827   4.268   4.698   0.746  1.5194  2.4569 -1.0224
 3456SOL    HW221828   4.142   4.684   0.816  0.1949  0.1867  1.0990
 3457SOL     OW21829   2.822   4.453  10.146 -0.9884 -0.3452 -0.3784
 3457SOL    HW121830   2.833   4.360  10.127 -0.2127 -0.2297 -0.4827
 3457SOL    HW221831   2.819   4.456  10.242  0.3234 -1.0445 -0.3166
 3458SOL     OW21832   2.968   3.126   8.195 -0.6377  0.1947 -0.5268
 3458SOL    HW121833   3.056   3.119   8.232 -1.2357  0.8766  1.0121
 3458SOL    HW221834   2.938   3.041   8.227  1.9211 -0.5371 -0.1156
 3459SOL     OW21835   2.899   4.425   5.787 -0.3538  0.0448 -0.2603
 3459SOL    HW121836   2.823   4.477   5.813 -0.5393 -0.1033 -0.5096
 3459SOL    HW221837   2.935   4.461   5.706  0.5316  0.7071  0.4295
 3460SOL     OW21838   1.468   2.064   6.284  0.4016 -0.3108  0.0173
 3460SOL    HW121839   1.447   1.976   6.315  2.2421 -0.4620  0.8491
 3460SOL    HW221840   1.486   2.099   6.371 -1.6562  1.6076 -0.3386
 3461SOL     OW21841   4.021   0.500   0.142 -0.1870 -0.1019  0.0952
 3461SOL    HW121842   4.044   0.433   0.207 -0.2936 -0.3109 -0.0808
 3461SOL    HW221843   3.983   0.439   0.078 -0.9762  1.0256 -0.5104
 3462SOL     OW21844   1.582   0.485   6.863  0.1375  0.6969 -0.0869
 3462SOL    HW121845   1.662   0.475   6.915 -0.1287  0.4005  0.2673
 3462SOL    HW221846   1.586   0.572   6.823 -3.0938  0.5004 -0.8024
 3463SOL     OW21847   2.881   3.864  10.508 -0.1659 -0.3338  0.0602
 3463SOL    HW121848   2.786   3.860  10.506 -0.2349  1.1346  0.6788
 3463SOL    HW221849   2.897   3.892  10.598 -2.5913  0.1174  0.3392
 3464SOL     OW21850   1.171   1.379  14.375 -0.0001 -0.2188 -0.3462
 3464SOL    HW121851   1.080   1.398  14.395  0.2718 -0.2400  0.9391
 3464SOL    HW221852   1.217   1.435  14.437 -0.9782  3.5220 -3.0541
 3465SOL     OW21853   2.928   3.947   6.083  0.3902  0.4927  0.1640
 3465SOL    HW121854   2.883   4.027   6.059 -2.7941 -1.1404  0.7758
 3465SOL    HW221855   2.916   3.888   6.009  0.9487  2.3955 -1.4390
 3466SOL     OW21856   4.463   0.826   8.920 -0.0030  0.0278 -0.1165
 3466SOL    HW121857   4.481   0.738   8.954  1.4487  1.8751  3.9117
 3466SOL    HW221858   4.439   0.805   8.830 -1.4450  0.4066  0.1866
 3467SOL     OW21859   4.288   2.357   1.815  0.2467  0.0539  0.4199
 3467SOL    HW121860   4.219   2.300   1.782  1.0018  0.5303 -1.9897
 3467SOL    HW221861   4.244   2.441   1.829  1.9478  0.7647  1.5360
 3468SOL     OW21862   2.487   1.237  17.163  0.3014 -0.5717 -0.4786
 3468SOL    HW121863   2.563   1.254  17.217  1.5227 -1.4890 -1.8916
 3468SOL    HW221864   2.511   1.300  17.095  0.7839  0.2608  0.4679
 3469SOL     OW21865   2.701   1.425  11.754 -0.5403 -0.7474 -0.1272
 3469SOL    HW121866   2.752   1.372  11.692 -0.0096  0.6552 -0.9164
 3469SOL    HW221867   2.609   1.417  11.728 -0.0857 -3.3027 -0.9658
 3470SOL     OW21868   3.868   1.691   4.355 -0.6008  1.0293 -0.6182
 3470SOL    HW121869   3.889   1.768   4.407  0.7305 -2.5731  4.1343
 3470SOL    HW221870   3.846   1.725   4.268 -1.0132 -3.3159 -2.2228
 3471SOL     OW21871   2.069   4.541   8.998  0.1214  1.0990  0.5535
 3471SOL    HW121872   2.145   4.553   9.054  1.7768  0.4596 -1.5708
 3471SOL    HW221873   2.021   4.480   9.054  0.2030 -1.3919 -2.1037
 3472SOL     OW21874   2.400   4.638   6.203 -0.1455 -0.5512 -0.2534
 3472SOL    HW121875   2.316   4.655   6.246  0.0212 -1.3232  0.3890
 3472SOL    HW221876   2.383   4.635   6.109 -0.9495  0.6363 -0.1513
 3473SOL     OW21877   1.696   2.269   5.090 -0.0999 -0.2725 -0.6504
 3473SOL    HW121878   1.711   2.196   5.150  1.1564  1.1974  0.8172
 3473SOL    HW221879   1.602   2.286   5.096 -0.0748 -0.4583  0.2488
 3474SOL     OW21880   1.535   1.782   6.112 -0.3637  0.0256  0.5348
 3474SOL    HW121881   1.466   1.831   6.069 -0.2763 -1.0561 -0.8580
 3474SOL    HW221882   1.510   1.695   6.081  3.1301 -1.0193  0.6530
 3475SOL     OW21883   3.722   0.839   6.014  0.1681 -0.2120 -0.2888
 3475SOL    HW121884   3.799   0.816   5.963  2.0861  1.1627  1.9860
 3475SOL    HW221885   3.771   0.882   6.084 -0.9730  1.7401 -0.6848
 3476SOL     OW21886   0.494   0.362   1.462 -0.1131  0.1260  0.6453
 3476SOL    HW121887   0.576   0.407   1.480  0.2334 -0.2143 -0.0952
 3476SOL    HW221888   0.518   0.335   1.374  1.7441  2.0257  0.5691
 3477SOL     OW21889   1.263   1.084  12.469  0.4804 -0.2502  0.4903
 3477SOL    HW121890   1.182   1.100  12.421  0.5589 -0.6045  0.2348
 3477SOL    HW221891   1.311   1.165  12.455  0.5770 -1.0512 -3.7348
 3478SOL     OW21892   0.775   4.048   4.637  0.1839  0.4919  0.0336
 3478SOL    HW121893   0.769   4.142   4.620 -3.1680  0.5800  1.6391
 3478SOL    HW221894   0.695   4.018   4.593  0.3861  0.3087 -0.2106
 3479SOL     OW21895   4.468   1.332   6.968  0.4861 -0.3572 -0.4746
 3479SOL    HW121896   4.465   1.422   6.934 -0.4238 -0.8719 -1.7320
 3479SOL    HW221897   4.376   1.309   6.982  0.8031 -0.6259  1.2031
 3480SOL     OW21898   0.853   4.298  14.680  0.0609 -0.3549 -0.1651
 3480SOL    HW121899   0.888   4.219  14.640 -0.0528  1.0230 -3.0005
 3480SOL    HW221900   0.933   4.331  14.721  1.3826  1.3514 -4.1840
 3481SOL     OW21901   3.810   1.191   7.282  0.3743 -0.0137  0.1810
 3481SOL    HW121902   3.894   1.225   7.311  0.8014 -1.3084  0.4581
 3481SOL    HW221903   3.742   1.257   7.291  0.3589 -0.0311  0.1925
 3482SOL     OW21904   0.375   4.413   9.477 -0.0615  0.0473 -0.3279
 3482SOL    HW121905   0.312   4.419   9.405 -0.4666  0.5623  0.0764
 3482SOL    HW221906   0.318   4.378   9.546 -0.2988  0.4239 -0.3307
 3483SOL     OW21907   1.832   1.566   0.901 -0.2207  0.4600  0.2040
 3483SOL    HW121908   1.776   1.498   0.864  0.9763 -1.4074  1.7969
 3483SOL    HW221909   1.840   1.610   0.817  2.9757  0.7795  0.6528
 3484SOL     OW21910   2.211   1.260   0.464 -0.1159 -0.5914 -0.7633
 3484SOL    HW121911   2.261   1.203   0.523  0.5243  0.7668 -0.0025
 3484SOL    HW221912   2.260   1.270   0.382  1.0434  0.6615  0.0761
 3485SOL     OW21913   0.733   1.833   2.958 -0.4381  0.4691 -0.3877
 3485SOL    HW121914   0.719   1.928   2.957 -0.0217  0.5511  1.7492
 3485SOL    HW221915   0.799   1.830   3.027 -0.0231  1.8442 -0.7225
 3486SOL     OW21916   1.158   0.153   2.965 -0.6225 -0.5260  0.3080
 3486SOL    HW121917   1.137   0.064   2.995 -0.0155 -1.0971 -0.9693
 3486SOL    HW221918   1.159   0.143   2.870  2.7563  2.7759  0.0175
 3487SOL     OW21919   0.917   4.216   7.406  0.4416  0.0289 -0.3965
 3487SOL    HW121920   1.007   4.207   7.376  0.8445 -0.4459  0.9537
 3487SOL    HW221921   0.873   4.153   7.348 -0.6436 -0.4102  0.8986
 3488SOL     OW21922   2.362   0.265   4.892 -0.2643  0.5191  0.2056
 3488SOL    HW121923   2.292   0.220   4.844 -0.5923  3.2267 -1.9045
 3488SOL    HW221924   2.407   0.303   4.816  0.5542 -0.9926 -0.0540
 3489SOL     OW21925   1.533   3.825   7.261  0.3209  0.9051 -0.8284
 3489SOL    HW121926   1.463   3.839   7.324  0.7848 -3.0292  0.5408
 3489SOL    HW221927   1.606   3.870   7.303 -0.5592  0.9965  0.5797
 3490SOL     OW21928   1.356   4.051  16.423  0.6116 -0.0204  0.0145
 3490SOL    HW121929   1.312   4.030  16.341 -1.1217  2.1117  0.3881
 3490SOL    HW221930   1.279   4.097  16.458  0.7045 -0.5391  0.9131
 3491SOL     OW21931   4.100   3.696   3.606 -0.0012  0.2532 -0.6211
 3491SOL    HW121932   4.147   3.665   3.529 -0.4480  1.5789 -1.4478
 3491SOL    HW221933   4.079   3.612   3.645 -1.3136  0.3623 -1.0966
 3492SOL     OW21934   3.320   2.880  11.671  0.3345 -0.1042 -0.3941
 3492SOL    HW121935   3.310   2.787  11.649 -2.7728  0.1295  0.0576
 3492SOL    HW221936   3.341   2.857  11.761  0.4826 -3.9463 -1.4210
 3493SOL     OW21937   3.029   4.679   4.475 -0.0344  0.7669  0.4139
 3493SOL    HW121938   3.074   4.599   4.448  1.2227  1.1868  1.2240
 3493SOL    HW221939   3.061   4.687   4.565 -1.5549  1.8456  0.8614
 3494SOL     OW21940   3.419   2.572   6.057  0.3102  0.2893  0.3884
 3494SOL    HW121941   3.486   2.622   6.011  0.6552  0.0023  0.5809
 3494SOL    HW221942   3.367   2.548   5.980  1.1408 -0.9123  0.1950
 3495SOL     OW21943   1.225   1.839   8.636 -0.5256  0.1715 -0.2179
 3495SOL    HW121944   1.175   1.868   8.711 -0.2283  0.5627 -0.1714
 3495SOL    HW221945   1.216   1.744   8.647  1.3790  0.2078  1.6100
 3496SOL     OW21946   0.130   2.646   7.806  0.1306 -0.0167  0.1958
 3496SOL    HW121947   0.153   2.738   7.794 -1.3579  0.2364 -0.6764
 3496SOL    HW221948   0.131   2.641   7.901  0.6853 -0.0690  0.1874
 3497SOL     OW21949   4.271   1.048   1.033 -0.0833 -0.1870  0.2730
 3497SOL    HW121950   4.231   1.011   0.954 -0.0777 -1.4239  0.8387
 3497SOL    HW221951   4.213   1.121   1.054 -0.2446  0.0472 -1.0161
 3498SOL     OW21952   4.412   0.130  13.698  0.5144 -0.1108  0.0441
 3498SOL    HW121953   4.447   0.096  13.780 -0.6844  1.6208  1.2663
 3498SOL    HW221954   4.464   0.085  13.631 -1.5926 -0.2015 -1.5194
 3499SOL     OW21955   3.075   0.457   6.484 -0.2629  0.0902 -0.2468
 3499SOL    HW121956   3.055   0.383   6.541  0.0092 -0.3529 -0.7288
 3499SOL    HW221957   3.115   0.514   6.549  0.9053  0.7693 -1.5680
 3500SOL     OW21958   4.601   2.041   5.513  0.2706 -0.2929 -0.3097
 3500SOL    HW121959   4.554   2.023   5.594 -0.7229 -1.6380 -1.1896
 3500SOL    HW221960   4.681   2.088   5.535 -0.3258  0.2336  0.7252
 3501SOL     OW21961   4.126   2.917   8.133  0.3434  0.0070  0.2064
 3501SOL    HW121962   4.086   2.831   8.148 -1.3653  0.8657  0.4660
 3501SOL    HW221963   4.068   2.946   8.063 -0.7267  0.3210  1.2478
 3502SOL     OW21964   2.064   2.086   2.739  0.0372 -0.3786  0.5723
 3502SOL    HW121965   2.064   2.091   2.644 -0.8774  1.2075  0.6621
 3502SOL    HW221966   2.047   1.992   2.749  1.6124 -0.4597  2.7217
 3503SOL     OW21967   2.981   0.699   4.275 -0.0520 -0.1562  0.0693
 3503SOL    HW121968   3.057   0.680   4.329  1.5672  0.9738 -1.7980
 3503SOL    HW221969   2.985   0.795   4.274  1.5784 -0.2129  1.9463
 3504SOL     OW21970   0.363   0.380   5.416  0.2344  0.0284  0.6333
 3504SOL    HW121971   0.415   0.321   5.470  0.7912 -0.1369 -0.0872
 3504SOL    HW221972   0.356   0.339   5.330 -0.9838 -1.1127  1.2699
 3505SOL     OW21973   1.926   0.507   8.884 -0.3167 -0.3597  0.7028
 3505SOL    HW121974   1.913   0.498   8.979 -1.4133  0.0871  0.6002
 3505SOL    HW221975   2.015   0.473   8.874  0.0607  0.3822  1.5547
 3506SOL     OW21976   1.176   0.517   9.097  0.6298 -0.3378  0.6960
 3506SOL    HW121977   1.131   0.575   9.035  1.9995 -0.2400 -0.2282
 3506SOL    HW221978   1.270   0.519   9.078  0.5773 -1.3924  0.3540
 3507SOL     OW21979   0.341   0.714  13.574  0.1415 -0.1863  0.6884
 3507SOL    HW121980   0.340   0.644  13.639 -1.0589 -0.2461  0.6099
 3507SOL    HW221981   0.285   0.669  13.511 -0.5697  0.6524  0.7203
 3508SOL     OW21982   0.333   0.144   4.710 -0.0099 -0.2116  0.0462
 3508SOL    HW121983   0.266   0.203   4.745  1.8144  1.2142  1.1506
 3508SOL    HW221984   0.322   0.071   4.771 -1.4507  1.2526  1.5758
 3509SOL     OW21985   4.033   1.817   5.335 -0.4311  0.3979 -0.1320
 3509SOL    HW121986   4.085   1.877   5.389 -0.8996  0.2005  0.5257
 3509SOL    HW221987   4.102   1.778   5.280 -0.6572  0.5299 -0.5076
 3510SOL     OW21988   4.157   3.937   5.122 -0.0452  0.0479  0.5051
 3510SOL    HW121989   4.197   4.020   5.151 -0.9144  0.2181  1.2302
 3510SOL    HW221990   4.209   3.872   5.169 -0.2403  0.8131  1.7958
 3511SOL     OW21991   0.309   1.104  11.855 -0.8901 -0.1448  0.5765
 3511SOL    HW121992   0.314   1.185  11.904 -0.9589  0.0684  0.2324
 3511SOL    HW221993   0.264   1.046  11.916 -1.5876  1.7334  1.8102
 3512SOL     OW21994   0.463   4.584   2.864  0.2174 -0.4122  0.0716
 3512SOL    HW121995   0.399   4.649   2.832 -1.0476 -1.7343 -0.0721
 3512SOL    HW221996   0.525   4.602   2.794 -1.7893  1.1212 -1.3368
 3513SOL     OW21997   3.834   4.599   3.982  0.0169 -0.5679 -0.2485
 3513SOL    HW121998   3.875   4.655   4.047  0.2643  0.5965 -1.4136
 3513SOL    HW221999   3.860   4.643   3.901  0.1464 -0.8979 -0.3884
 3514SOL     OW22000   2.211   0.391   2.299 -0.1247  0.6788 -0.3508
 3514SOL    HW122001   2.200   0.305   2.259  3.3982 -1.1550  2.6054
 3514SOL    HW222002   2.187   0.365   2.388  0.9695  0.5688 -0.0775
 3515SOL     OW22003   4.458   1.897   6.398 -0.0671  0.5426  0.2583
 3515SOL    HW122004   4.418   1.811   6.413  0.9031  0.0023 -0.2267
 3515SOL    HW222005   4.454   1.905   6.303 -0.1528 -1.8225  0.0709
 3516SOL     OW22006   3.630   3.895  14.144 -0.0431 -0.1646 -0.3195
 3516SOL    HW122007   3.543   3.932  14.129  0.7754  0.6396 -3.1787
 3516SOL    HW222008   3.675   3.971  14.179  1.7853 -0.4012 -2.1125
 3517SOL     OW22009   1.551   2.934  11.086  0.6512  0.7810 -0.3666
 3517SOL    HW122010   1.601   2.862  11.124 -0.4378 -0.4893 -1.3324
 3517SOL    HW222011   1.472   2.929  11.139  0.3750  1.2312 -0.7353
 3518SOL     OW22012   4.534   1.977   3.587  0.0709 -0.6213 -0.0864
 3518SOL    HW122013   4.612   1.985   3.532  0.4831  1.1401  0.7518
 3518SOL    HW222014   4.536   2.062   3.632  0.1554 -0.2823 -0.7310
 3519SOL     OW22015   1.446   4.205   7.292 -0.0462  0.0521 -0.1606
 3519SOL    HW122016   1.492   4.141   7.239  0.7923  0.1801  0.4160
 3519SOL    HW222017   1.427   4.274   7.228 -0.5543 -0.6475 -0.7705
 3520SOL     OW22018   1.994   2.903   1.146  0.3635 -0.2060 -0.1107
 3520SOL    HW122019   1.904   2.935   1.135  0.8838  0.6892 -1.7360
 3520SOL    HW222020   2.031   2.960   1.213  0.5819 -0.9440  0.4040
 3521SOL     OW22021   1.064   3.858   6.831  0.5521 -0.4580  0.3656
 3521SOL    HW122022   1.138   3.851   6.771  0.0818  0.2334 -0.2920
 3521SOL    HW222023   1.024   3.933   6.788 -0.3399 -1.2959 -0.2580
 3522SOL     OW22024   1.025   3.794  16.050  0.9662  0.6445 -0.1731
 3522SOL    HW122025   0.987   3.750  16.126  1.0592  2.1248  0.7126
 3522SOL    HW222026   1.106   3.744  16.039 -0.2080 -1.4578  0.6412
 3523SOL     OW22027   3.193   1.051   9.139  0.0195  0.1772  0.1498
 3523SOL    HW122028   3.178   0.961   9.108 -1.6640  0.2214  0.8216
 3523SOL    HW222029   3.202   1.036   9.233  0.2771  1.7382  0.3687
 3524SOL     OW22030   0.564   1.281   4.802 -0.3533 -0.0844 -0.5650
 3524SOL    HW122031   0.573   1.201   4.855  2.6357  0.6874  0.0767
 3524SOL    HW222032   0.651   1.319   4.816 -1.6937  2.9654 -0.5304
 3525SOL     OW22033   1.308   3.336  13.231  0.4521 -0.2007 -0.9285
 3525SOL    HW122034   1.299   3.386  13.312 -0.2872  0.7763 -1.6331
 3525SOL    HW222035   1.393   3.368  13.201  0.5553 -0.3077 -0.7510
 3526SOL     OW22036   2.665   0.064   0.114  0.5826 -0.2895 -0.2499
 3526SOL    HW122037   2.760   0.071   0.125  0.1963  2.5639  1.3328
 3526SOL    HW222038   2.640   4.715   0.172  0.5393  0.0416  0.1398
 3527SOL     OW22039   1.469   3.909  13.291  0.3943 -0.1687 -0.5226
 3527SOL    HW122040   1.442   3.997  13.315  0.7705  0.2545 -1.6290
 3527SOL    HW222041   1.411   3.872  13.224  0.2223  0.7925 -0.8970
 3528SOL     OW22042   4.137   1.215   9.185  0.0115 -0.1873  0.3028
 3528SOL    HW122043   4.232   1.228   9.179  0.0564  0.5343  2.6585
 3528SOL    HW222044   4.119   1.125   9.210  0.8412 -0.3465  0.3502
 3529SOL     OW22045   2.790   2.404  17.530 -0.4230  0.2160 -0.2980
 3529SOL    HW122046   2.858   2.448  17.478  0.1685  0.1023  0.3803
 3529SOL    HW222047   2.725   2.464  17.494 -0.8692  0.8941  1.6544
 3530SOL     OW22048   2.272   3.358   0.795 -0.2695 -0.0123  0.1792
 3530SOL    HW122049   2.338   3.411   0.752  0.3966 -2.3666 -1.6972
 3530SOL    HW222050   2.207   3.363   0.724 -0.8562 -1.9036  0.5779
 3531SOL     OW22051   3.854   1.940   0.847 -0.0047 -0.2828 -0.1098
 3531SOL    HW122052   3.834   1.931   0.940 -1.0800 -1.2218 -0.4320
 3531SOL    HW222053   3.921   2.008   0.859 -1.6280  1.2129  0.3414
 3532SOL     OW22054   1.713   4.361   4.312  0.2128  0.4747  0.1686
 3532SOL    HW122055   1.709   4.282   4.258  1.6433 -0.0767  0.8600
 3532SOL    HW222056   1.784   4.414   4.275  1.6659 -0.4892  1.5788
 3533SOL     OW22057   1.633   4.175   7.538  0.2056 -0.1842 -0.6409
 3533SOL    HW122058   1.588   4.132   7.465 -2.0667  1.6004 -0.3109
 3533SOL    HW222059   1.724   4.189   7.511  0.2738 -0.8058 -0.7278
 3534SOL     OW22060   0.525   0.504  14.321  0.2387 -0.5378 -0.1364
 3534SOL    HW122061   0.440   0.496  14.364  0.7365  1.3858  1.2241
 3534SOL    HW222062   0.559   0.592  14.338 -2.9040  0.5402  0.6254
 3535SOL     OW22063   4.147   3.812   5.791 -0.1970 -0.2184 -0.4238
 3535SOL    HW122064   4.109   3.868   5.724  1.3831  0.6464 -0.5993
 3535SOL    HW222065   4.226   3.783   5.746 -0.6151 -0.8293 -0.7604
 3536SOL     OW22066   4.388   1.149   1.681  0.0273 -0.7241  0.2364
 3536SOL    HW122067   4.314   1.201   1.710 -0.6425 -0.3456 -2.1086
 3536SOL    HW222068   4.437   1.228   1.657  0.7343 -0.8060  1.4358
 3537SOL     OW22069   1.898   1.577   5.473  0.2743 -0.6413  0.3683
 3537SOL    HW122070   1.970   1.570   5.410 -0.5800 -2.3902 -0.4068
 3537SOL    HW222071   1.848   1.648   5.432  0.9522 -0.9761 -1.0531
 3538SOL     OW22072   0.452   2.769   5.608  0.2834  0.8072  0.0725
 3538SOL    HW122073   0.425   2.803   5.694 -0.2309  4.0228 -1.3656
 3538SOL    HW222074   0.370   2.770   5.558  0.3414 -0.9282 -0.0677
 3539SOL     OW22075   0.992   1.477   9.860  0.4316 -0.2930 -0.3386
 3539SOL    HW122076   1.035   1.544   9.807  1.9917 -0.7862  0.3061
 3539SOL    HW222077   0.990   1.517   9.947  1.7377 -0.7802 -0.0872
 3540SOL     OW22078   0.992   4.488  13.909 -0.2176  1.2137 -0.2795
 3540SOL    HW122079   0.934   4.496  13.985  0.1059 -2.2829  0.3256
 3540SOL    HW222080   0.949   4.433  13.844  1.8425 -0.8991  0.1847
 3541SOL     OW22081   1.096   2.615   8.591 -0.2076  0.6879 -0.4725
 3541SOL    HW122082   1.068   2.578   8.675 -1.6173  0.6549 -0.9688
 3541SOL    HW222083   1.108   2.707   8.617 -1.7343  0.9229 -0.6290
 3542SOL     OW22084   3.055   3.612   5.717  0.7035  0.0062  0.1879
 3542SOL    HW122085   2.985   3.570   5.766  0.8844 -0.4037  0.0911
 3542SOL    HW222086   3.131   3.576   5.762  0.1129  1.7928  2.5905
 3543SOL     OW22087   1.848   1.158   9.155  0.3271  0.3074 -0.4578
 3543SOL    HW122088   1.846   1.254   9.153  1.3132  0.3215 -0.4969
 3543SOL    HW222089   1.934   1.135   9.123 -0.5338 -2.4030 -0.8012
 3544SOL     OW22090   4.518   1.592  14.967  0.4069 -0.7561  0.0861
 3544SOL    HW122091   4.439   1.560  14.923 -0.2407  2.5775 -1.2599
 3544SOL    HW222092   4.516   1.535  15.043  0.3252 -0.6443  0.1671
 3545SOL     OW22093   0.240   4.645   8.705 -0.3442  0.1178  0.6111
 3545SOL    HW122094   0.278   4.558   8.709 -0.9752 -0.3003 -3.2063
 3545SOL    HW222095   0.226   4.655   8.611  1.7866  0.0371  0.3062
 3546SOL     OW22096   2.138   0.014   6.245  0.0771  0.1807 -0.5378
 3546SOL    HW122097   2.101   4.699   6.165  0.3063 -3.0527  0.8814
 3546SOL    HW222098   2.066   0.073   6.269 -0.9132 -1.5583  0.7540
 3547SOL     OW22099   4.501   2.984   7.445  0.0338  0.3102  0.0183
 3547SOL    HW122100   4.585   3.015   7.411 -0.3725  0.9026 -0.4588
 3547SOL    HW222101   4.490   2.895   7.412 -0.4629 -0.5889  2.6394
 3548SOL     OW22102   3.296   0.573   8.834  0.2510  0.4264  1.2140
 3548SOL    HW122103   3.292   0.488   8.877  0.4780  0.2284  0.8445
 3548SOL    HW222104   3.320   0.557   8.742  0.3302  3.7136  0.6592
 3549SOL     OW22105   0.879   4.648   5.151  0.2755  0.1046 -0.6217
 3549SOL    HW122106   0.886   4.554   5.134 -0.9027 -0.0419 -0.3121
 3549SOL    HW222107   0.904   4.677   5.063  2.4518  0.1702  0.0122
 3550SOL     OW22108   3.700   4.461   7.428 -0.1381  0.0390 -0.1217
 3550SOL    HW122109   3.719   4.402   7.354  0.7217 -0.2302  0.3180
 3550SOL    HW222110   3.707   4.546   7.384 -0.9864  0.3079  0.2541
 3551SOL     OW22111   3.969   0.079   5.953 -0.1135  0.4685  0.2350
 3551SOL    HW122112   4.014   0.070   5.869  2.2309 -0.8720  1.6562
 3551SOL    HW222113   3.879   0.067   5.922 -0.2644  1.4496  0.2844
 3552SOL     OW22114   1.450   4.064  16.737 -0.0687 -0.2953 -0.6141
 3552SOL    HW122115   1.386   4.122  16.779  0.3447 -1.2728  1.3764
 3552SOL    HW222116   1.446   3.995  16.803  0.2219 -0.6569 -0.9715
 3553SOL     OW22117   4.356   4.266   4.560 -0.2766 -0.0225 -0.8015
 3553SOL    HW122118   4.392   4.268   4.471 -0.5350  1.2002 -0.8754
 3553SOL    HW222119   4.374   4.179   4.596 -1.6575  0.6362  1.4705
 3554SOL     OW22120   4.665   0.761   4.602 -0.5013 -0.2371 -0.6628
 3554SOL    HW122121   4.592   0.705   4.629  0.9277 -1.9769 -0.3773
 3554SOL    HW222122   4.622   0.819   4.538  0.4948  0.4064 -0.7447
 3555SOL     OW22123   0.428   4.440   2.117 -0.5427 -0.1132 -0.0111
 3555SOL    HW122124   0.386   4.512   2.071 -0.7556  1.1025  2.0990
 3555SOL    HW222125   0.518   4.459   2.090 -1.3971 -0.0110 -2.7199
 3556SOL     OW22126   3.482   0.659  10.150  0.6503 -0.2784 -0.8992
 3556SOL    HW122127   3.457   0.735  10.097  2.5699 -0.5605 -2.2220
 3556SOL    HW222128   3.456   0.699  10.233 -0.5143  0.3358 -1.5645
 3557SOL     OW22129   2.496   0.619   7.644  0.5878 -0.2439 -0.2068
 3557SOL    HW122130   2.502   0.538   7.594 -0.6028 -1.5245  1.7577
 3557SOL    HW222131   2.536   0.583   7.723  0.6467  2.0265  0.7986
 3558SOL     OW22132   3.899   4.684  12.239 -0.2713  0.1777 -0.1199
 3558SOL    HW122133   3.872   4.704  12.329  0.8223  1.4324 -0.0730
 3558SOL    HW222134   3.989   4.652  12.248  0.3442  2.1780  0.9766
 3559SOL     OW22135   4.700   3.416  13.463  0.6244  0.2312 -0.5849
 3559SOL    HW122136   4.705   3.329  13.502  0.1237  0.3008 -0.3572
 3559SOL    HW222137   0.018   3.467  13.533 -0.5584  2.6270 -1.6249
 3560SOL     OW22138   3.427   1.938  12.489  0.0107  0.0506 -1.2063
 3560SOL    HW122139   3.387   1.923  12.575  1.9078 -0.6684 -0.4553
 3560SOL    HW222140   3.521   1.941  12.508 -0.2007  0.0018 -0.1276
 3561SOL     OW22141   4.430   3.960   9.186 -0.3292 -0.5059  0.0396
 3561SOL    HW122142   4.477   3.902   9.126 -0.3208 -1.3693  0.8782
 3561SOL    HW222143   4.455   4.045   9.150  1.4673 -0.5319  1.2113
 3562SOL     OW22144   0.092   2.320   3.555 -0.2077  0.4176 -0.8965
 3562SOL    HW122145   0.058   2.240   3.514 -0.8657  0.8990 -1.2911
 3562SOL    HW222146   0.032   2.379   3.511  0.1260  0.6763 -0.9998
 3563SOL     OW22147   0.847   0.917   6.781 -0.2867  0.5121  0.4316
 3563SOL    HW122148   0.766   0.964   6.802 -0.9839 -0.0972 -0.9349
 3563SOL    HW222149   0.813   0.871   6.704 -0.8586  0.0655  0.9472
 3564SOL     OW22150   4.082   3.194   6.423  0.2503  0.0581 -0.2961
 3564SOL    HW122151   4.084   3.148   6.340 -2.0096 -1.6372  0.5994
 3564SOL    HW222152   3.991   3.180   6.449  0.2766 -0.6216 -0.5635
 3565SOL     OW22153   2.228   2.355   5.433  0.1982 -0.1462 -0.0544
 3565SOL    HW122154   2.254   2.294   5.363 -1.9741 -0.7641 -0.3147
 3565SOL    HW222155   2.157   2.302   5.468 -0.4344 -0.2932 -1.5565
 3566SOL     OW22156   0.276   1.344  10.684 -0.0030  0.1081 -0.5124
 3566SOL    HW122157   0.243   1.256  10.704  2.4773 -0.6981  0.0509
 3566SOL    HW222158   0.339   1.313  10.619  0.9595 -0.1277  0.5197
 3567SOL     OW22159   1.446   3.885  15.440  0.2080 -0.0891 -0.1750
 3567SOL    HW122160   1.356   3.909  15.420  0.9171  1.3332 -1.6062
 3567SOL    HW222161   1.495   3.954  15.397 -3.5252  2.1520 -0.8013
 3568SOL     OW22162   4.457   0.903  13.677  0.1071  0.1707 -0.7566
 3568SOL    HW122163   4.398   0.975  13.703  0.1142 -0.3587  0.7557
 3568SOL    HW222164   4.406   0.865  13.606  0.6903 -0.3238 -0.9035
 3569SOL     OW22165   3.197   0.428   2.020  0.3945 -0.3564 -0.0092
 3569SOL    HW122166   3.226   0.464   2.104  0.3003 -3.0221  1.1652
 3569SOL    HW222167   3.269   0.370   1.995  1.2127  0.2152  0.9879
 3570SOL     OW22168   1.714   2.249   0.451  0.1282 -0.4582 -0.1421
 3570SOL    HW122169   1.751   2.328   0.412  1.0143 -1.3450 -1.1045
 3570SOL    HW222170   1.649   2.277   0.515 -0.8197  2.0354 -2.2367
 3571SOL     OW22171   1.661   1.556   3.486 -0.3206  0.4846 -0.2298
 3571SOL    HW122172   1.631   1.494   3.552 -0.8586 -0.8046 -1.6846
 3571SOL    HW222173   1.616   1.533   3.405  2.8716 -0.8900 -1.6177
 3572SOL     OW22174   3.294   3.653   3.491  0.0906 -0.1058 -0.5256
 3572SOL    HW122175   3.220   3.609   3.534 -0.4631  0.8984 -0.4437
 3572SOL    HW222176   3.352   3.577   3.485 -2.0607 -1.5745 -2.6670
 3573SOL     OW22177   1.758   1.552   9.650  0.2536 -0.3071  0.4775
 3573SOL    HW122178   1.751   1.457   9.652  0.8490 -0.4291 -2.1723
 3573SOL    HW222179   1.753   1.563   9.745 -2.0982  1.2484  0.1798
 3574SOL     OW22180   4.261   4.494  10.940  0.4577  0.3654 -0.1584
 3574SOL    HW122181   4.298   4.581  10.957  0.0503  0.1889  1.6400
 3574SOL    HW222182   4.325   4.437  10.981 -0.5419 -0.9436 -0.4234
 3575SOL     OW22183   2.748   1.826  16.309  0.3298 -0.1506 -0.1414
 3575SOL    HW122184   2.802   1.813  16.387  0.8282  1.2462 -0.2509
 3575SOL    HW222185   2.709   1.910  16.332 -0.8543 -0.1849 -1.9709
 3576SOL     OW22186   0.616   2.007   3.796  0.1726 -0.0384  0.0322
 3576SOL    HW122187   0.544   1.947   3.777  2.9041 -3.4792  0.7320
 3576SOL    HW222188   0.611   2.078   3.732 -1.1682 -0.5972 -0.4715
 3577SOL     OW22189   4.543   4.484  12.733  0.3049 -0.2376 -0.9050
 3577SOL    HW122190   4.595   4.505  12.656  1.7499 -0.0917  0.1069
 3577SOL    HW222191   4.587   4.546  12.791  2.0353 -2.0126 -0.3329
 3578SOL     OW22192   1.537   1.320   9.464  0.5269 -0.2642  0.3755
 3578SOL    HW122193   1.615   1.279   9.428  0.6300  0.7579 -0.5602
 3578SOL    HW222194   1.469   1.293   9.402  1.0317  2.0105 -1.1644
 3579SOL     OW22195   0.415   4.217   3.751 -0.2692  0.8972  0.1803
 3579SOL    HW122196   0.404   4.150   3.819  0.8204  0.8905  0.3434
 3579SOL    HW222197   0.408   4.296   3.806  0.1748 -0.1360  1.7147
 3580SOL     OW22198   0.987   1.920   5.518 -0.3855 -0.1817  0.4694
 3580SOL    HW122199   0.951   1.944   5.433  1.9489  1.7821  0.0370
 3580SOL    HW222200   1.021   2.004   5.549 -1.0932 -0.3848  1.8180
 3581SOL     OW22201   2.003   1.598   5.729  0.1983 -0.5338 -0.5800
 3581SOL    HW122202   1.978   1.569   5.641  0.5819  2.5445 -1.7008
 3581SOL    HW222203   1.934   1.659   5.755 -1.1803 -1.5855 -1.7897
 3582SOL     OW22204   3.616   4.617   7.807 -0.3774  0.0602 -0.1509
 3582SOL    HW122205   3.655   4.688   7.755 -2.2404  1.6524  0.6251
 3582SOL    HW222206   3.554   4.665   7.861 -1.3924  0.9318 -2.0847
 3583SOL     OW22207   2.794   1.463   0.373  0.1354 -0.1417 -0.2228
 3583SOL    HW122208   2.875   1.504   0.403  0.1426 -0.7342  0.5712
 3583SOL    HW222209   2.749   1.544   0.347  0.6465 -0.2068 -1.3189
 3584SOL     OW22210   2.226   1.132   3.819  0.4142 -1.0213  0.2061
 3584SOL    HW122211   2.251   1.208   3.871 -2.0823  0.5430 -0.8427
 3584SOL    HW222212   2.253   1.058   3.874  1.0487 -1.2140 -0.3689
 3585SOL     OW22213   2.436   3.972   3.281  0.5241  0.3091 -0.2256
 3585SOL    HW122214   2.394   3.919   3.349  0.8820 -0.1284 -0.3407
 3585SOL    HW222215   2.443   3.909   3.209  2.0696 -1.6506  1.6111
 3586SOL     OW22216   0.895   3.577   6.115 -0.3989 -0.2192 -0.1347
 3586SOL    HW122217   0.919   3.639   6.184 -1.8461 -0.5475  0.6773
 3586SOL    HW222218   0.972   3.520   6.119  0.1682  0.5422 -0.2669
 3587SOL     OW22219   2.401   4.085   4.239 -0.1104  0.6073 -0.0429
 3587SOL    HW122220   2.370   4.009   4.288  0.8630  1.8003  2.4814
 3587SOL    HW222221   2.434   4.134   4.315 -1.3714 -1.2988  1.7160
 3588SOL     OW22222   2.533   1.816   1.256  0.0678 -0.4288 -0.3433
 3588SOL    HW122223   2.492   1.871   1.322  0.3050  2.0786 -2.2901
 3588SOL    HW222224   2.460   1.809   1.194  0.2389  2.8902 -0.9172
 3589SOL     OW22225   0.952   4.236   7.675  0.5068  0.7872 -0.3553
 3589SOL    HW122226   0.973   4.231   7.582 -0.6602  2.0648 -0.6851
 3589SOL    HW222227   0.857   4.246   7.670  0.1629 -1.6458  0.9449
 3590SOL     OW22228   2.273   0.902   8.153  0.0671 -0.4361  0.2536
 3590SOL    HW122229   2.289   0.842   8.080  0.3969  0.2866 -0.2635
 3590SOL    HW222230   2.241   0.978   8.106 -0.8430 -0.5693  0.6696
 3591SOL     OW22231   1.427   0.304   7.438 -0.7337  0.4498  0.2106
 3591SOL    HW122232   1.381   0.265   7.364 -1.3339 -2.5839  2.2106
 3591SOL    HW222233   1.365   0.275   7.504 -1.5568  0.7791 -0.4100
 3592SOL     OW22234   0.530   0.905   0.071 -0.4135 -0.1751 -0.1924
 3592SOL    HW122235   0.568   0.984   0.110 -2.2473  0.1143  0.9748
 3592SOL    HW222236   0.442   0.935   0.047 -0.6630 -1.2428 -0.6165
 3593SOL     OW22237   2.843   2.030   0.425  0.5360  0.6864 -0.6579
 3593SOL    HW122238   2.821   1.938   0.418 -0.6523  0.9869 -0.7827
 3593SOL    HW222239   2.827   2.046   0.518 -0.3674 -1.4991 -0.4565
 3594SOL     OW22240   4.256   3.578   6.229 -0.2698 -0.2450  0.2643
 3594SOL    HW122241   4.259   3.539   6.142 -1.5950  2.1989 -0.8623
 3594SOL    HW222242   4.306   3.508   6.271 -0.1767  1.2135  2.5889
 3595SOL     OW22243   1.654   2.491  13.009  0.1800 -0.0715 -0.2391
 3595SOL    HW122244   1.715   2.436  13.060 -2.5419  0.2202  3.3216
 3595SOL    HW222245   1.710   2.489  12.931  0.2228 -1.5299 -0.1639
 3596SOL     OW22246   3.506   3.512   8.155  0.0966 -0.1820  0.1281
 3596SOL    HW122247   3.459   3.595   8.154 -0.3519 -0.4544 -1.4895
 3596SOL    HW222248   3.445   3.454   8.199 -0.0623  0.4592  0.7471
 3597SOL     OW22249   1.951   1.222   6.592 -0.0190 -0.3513  0.4453
 3597SOL    HW122250   1.876   1.273   6.564  1.8558  1.9274 -0.4170
 3597SOL    HW222251   1.967   1.172   6.512 -0.4772  0.3039 -0.0614
 3598SOL     OW22252   4.095   2.565   5.777 -0.3851  0.5964 -0.2612
 3598SOL    HW122253   4.075   2.640   5.722  2.3037 -0.9879 -3.4084
 3598SOL    HW222254   4.096   2.491   5.716  2.1950  0.1908  0.2464
 3599SOL     OW22255   2.211   0.686   7.046 -0.1793 -0.3372  0.1331
 3599SOL    HW122256   2.274   0.626   7.085  1.0886  1.6155  1.0865
 3599SOL    HW222257   2.138   0.693   7.107 -0.1922  1.9669 -0.1506
 3600SOL     OW22258   2.264   0.220   1.305 -0.1961  0.6232  0.2539
 3600SOL    HW122259   2.280   0.127   1.319 -0.6173  0.0745 -2.8936
 3600SOL    HW222260   2.300   0.264   1.382  3.6979  0.4997 -1.4942
 3601SOL     OW22261   2.922   1.939   4.813  0.2786  0.0523 -0.1565
 3601SOL    HW122262   2.858   1.868   4.816  0.1063  0.1328 -1.7368
 3601SOL    HW222263   2.932   1.951   4.719 -0.1122 -1.3565 -0.3714
 3602SOL     OW22264   2.986   3.233   8.872  0.0337 -0.0132  0.6411
 3602SOL    HW122265   2.964   3.167   8.806 -1.6723  0.3468  0.8564
 3602SOL    HW222266   2.950   3.315   8.839 -1.4536 -1.8467 -2.2992
 3603SOL     OW22267   0.654   0.158   6.606  0.2706  0.0779  0.1366
 3603SOL    HW122268   0.683   0.074   6.570 -0.5581 -0.9235  1.8286
 3603SOL    HW222269   0.730   0.216   6.603  0.6479 -0.4891 -1.5683
 3604SOL     OW22270   2.392   3.386   7.498  0.2595 -0.0372 -0.3425
 3604SOL    HW122271   2.427   3.297   7.488  0.2605 -0.0287 -0.4157
 3604SOL    HW222272   2.464   3.419   7.551  0.2768 -0.8440  0.1398
 3605SOL     OW22273   1.678   2.771   0.865 -0.8662 -0.2246 -0.9084
 3605SOL    HW122274   1.754   2.748   0.813  1.4152  2.3734  1.3190
 3605SOL    HW222275   1.636   2.837   0.809 -0.1691  1.1884  0.2304
 3606SOL     OW22276   0.196   3.835   2.997 -0.5663 -0.3814  0.0122
 3606SOL    HW122277   0.171   3.885   3.075 -0.0481  0.0121 -0.0754
 3606SOL    HW222278   0.105   3.838   2.967 -0.6259 -0.4167  0.1901
 3607SOL     OW22279   3.899   4.382   9.659 -0.6142  0.2521  0.0854
 3607SOL    HW122280   3.927   4.291   9.664  0.6500  0.6321  0.0496
 3607SOL    HW222281   3.806   4.364   9.648 -1.0467  1.8225  1.1513
 3608SOL     OW22282   0.144   0.634   5.518 -0.3598 -0.1198 -0.1702
 3608SOL    HW122283   0.234   0.650   5.548 -1.0030  3.6987 -0.3528
 3608SOL    HW222284   0.165   0.588   5.437 -0.4405  1.3695 -1.0223
 3609SOL     OW22285   1.697   1.874   0.937  0.2861  0.3222 -0.0162
 3609SOL    HW122286   1.649   1.923   1.004  2.2677  1.8807  0.2581
 3609SOL    HW222287   1.635   1.874   0.865 -0.8786 -0.2012  0.9932
 3610SOL     OW22288   3.169   1.859   6.809  0.3956 -0.2008 -0.2712
 3610SOL    HW122289   3.200   1.901   6.729  0.2905  0.3471 -0.0288
 3610SOL    HW222290   3.254   1.839   6.847  0.9403 -0.2663 -1.5256
 3611SOL     OW22291   2.427   3.240  13.384  0.2114  0.1075  0.6659
 3611SOL    HW122292   2.425   3.233  13.479 -1.0210  1.3989  0.7450
 3611SOL    HW222293   2.439   3.147  13.367 -1.6177 -0.1211  0.6217
 3612SOL     OW22294   4.369   1.344   7.857  0.4807 -0.0265 -0.5171
 3612SOL    HW122295   4.291   1.295   7.883  1.1896 -0.7853  0.1810
 3612SOL    HW222296   4.372   1.336   7.762 -0.4361  2.4514 -0.7574
 3613SOL     OW22297   2.466   3.007  16.490 -0.1686 -0.0490 -0.1368
 3613SOL    HW122298   2.485   2.934  16.432  2.9732 -0.5385  1.4753
 3613SOL    HW222299   2.424   2.950  16.555  1.1799  1.6698  2.2555
 3614SOL     OW22300   2.828   3.704   1.861  0.4300  0.3409  1.0074
 3614SOL    HW122301   2.795   3.792   1.844 -0.5107 -0.3881 -0.8496
 3614SOL    HW222302   2.921   3.727   1.853  0.6675 -0.6034  0.9386
 3615SOL     OW22303   0.804   3.208  12.101 -0.1321 -0.2476  0.1647
 3615SOL    HW122304   0.749   3.131  12.112 -1.3024  0.5814  0.1408
 3615SOL    HW222305   0.822   3.213  12.008 -0.1217  0.0005  0.1792
 3616SOL     OW22306   2.610   0.854  12.894 -0.1778  0.2630  0.0717
 3616SOL    HW122307   2.607   0.796  12.819 -0.1315  0.7283 -0.2909
 3616SOL    HW222308   2.596   0.941  12.857  2.3364  0.3426 -0.6970
 3617SOL     OW22309   4.604   3.449  11.716  0.1215 -0.0046 -0.4810
 3617SOL    HW122310   4.652   3.366  11.720 -2.1687 -1.2340  1.1305
 3617SOL    HW222311   4.591   3.436  11.622  1.0234 -2.4455 -0.2650
 3618SOL     OW22312   1.552   2.714   2.429  0.6646 -0.4163 -0.0830
 3618SOL    HW122313   1.470   2.664   2.428  0.9813 -0.8901 -1.3779
 3618SOL    HW222314   1.615   2.643   2.425 -0.9373 -1.7907 -0.9868
 3619SOL     OW22315   0.266   2.190   2.798  0.1113 -0.2873 -0.2492
 3619SOL    HW122316   0.351   2.162   2.765  1.3312  3.0384  0.1323
 3619SOL    HW222317   0.223   2.205   2.713  0.7976  0.6212 -0.4325
 3620SOL     OW22318   4.707   3.478   7.507 -0.1290  0.6447 -0.1390
 3620SOL    HW122319   4.713   3.574   7.506  2.7798  0.4584 -0.4116
 3620SOL    HW222320   0.026   3.467   7.592  0.4045  1.1530 -0.3309
 3621SOL     OW22321   4.146   4.295   9.212 -0.0713 -0.4358 -0.2507
 3621SOL    HW122322   4.201   4.338   9.147  0.7278  1.4731  1.6827
 3621SOL    HW222323   4.142   4.363   9.279  2.9653 -2.3450  1.8678
 3622SOL     OW22324   2.017   2.148   4.612  0.5923 -0.2624  0.2270
 3622SOL    HW122325   1.997   2.235   4.647 -0.4946  0.0377 -1.1333
 3622SOL    HW222326   1.929   2.108   4.612  0.4535  0.0440  0.2355
 3623SOL     OW22327   1.326   3.928   4.933 -0.0079 -0.6226  0.6051
 3623SOL    HW122328   1.376   3.886   5.003 -1.1331  0.0760  1.8521
 3623SOL    HW222329   1.253   3.955   4.989 -0.0955 -1.0382  0.6921
 3624SOL     OW22330   3.451   3.250   9.389  0.2343  0.0144  0.1724
 3624SOL    HW122331   3.449   3.340   9.421  0.4041  0.2965 -0.6216
 3624SOL    HW222332   3.425   3.191   9.460 -0.7875  0.8966  0.5427
 3625SOL     OW22333   0.951   1.220  16.298  0.2152  0.2385 -0.1156
 3625SOL    HW122334   0.877   1.270  16.333  0.4655  0.8747 -0.4941
 3625SOL    HW222335   0.911   1.134  16.290  2.0147 -0.8328  2.2548
 3626SOL     OW22336   3.307   3.658   1.065  0.8597  0.2614  0.1512
 3626SOL    HW122337   3.234   3.635   1.122 -0.9622  2.4908 -1.2735
 3626SOL    HW222338   3.357   3.717   1.121  0.4476 -0.4527  1.2673
 3627SOL     OW22339   4.511   4.050   7.396 -0.9722  0.4124 -0.0795
 3627SOL    HW122340   4.527   4.038   7.302 -0.5138  0.5899 -0.0218
 3627SOL    HW222341   4.546   4.136   7.417 -0.8235 -0.7763  4.5713
 3628SOL     OW22342   1.723   2.911   4.041 -0.3490  0.2986 -0.3988
 3628SOL    HW122343   1.643   2.882   3.996 -0.8475  0.1247  0.6088
 3628SOL    HW222344   1.696   2.901   4.132  0.8399 -0.0212 -0.0795
 3629SOL     OW22345   3.482   1.882   5.621  0.3226 -0.0707  0.3159
 3629SOL    HW122346   3.532   1.918   5.694 -0.5458  1.5053  0.1556
 3629SOL    HW222347   3.530   1.802   5.602  2.4009  1.2908 -0.1997
 3630SOL     OW22348   4.003   3.159  10.313 -0.3934  0.3181 -0.0804
 3630SOL    HW122349   4.067   3.229  10.323  0.0614 -0.1636  0.3755
 3630SOL    HW222350   4.016   3.114  10.397  0.1300  2.3048  0.8843
 3631SOL     OW22351   1.626   0.430   0.746 -0.0228  0.0049  0.2470
 3631SOL    HW122352   1.534   0.408   0.732 -0.3502  0.7045  1.2964
 3631SOL    HW222353   1.660   0.351   0.788  1.7049 -0.3328 -1.7503
 3632SOL     OW22354   3.121   4.320   3.305 -0.1070 -0.0013 -0.4129
 3632SOL    HW122355   3.037   4.366   3.295  0.4086  2.0206  4.5604
 3632SOL    HW222356   3.107   4.255   3.373  0.0239 -0.2775 -0.6495
 3633SOL     OW22357   3.920   0.803  11.267  0.7312  0.6593 -0.1005
 3633SOL    HW122358   4.011   0.796  11.297  1.3441 -1.4800 -2.4574
 3633SOL    HW222359   3.889   0.857  11.340  0.4751  0.2337  0.1081
 3634SOL     OW22360   4.669   2.994   9.102  0.4940  0.5490  0.3668
 3634SOL    HW122361   4.644   3.073   9.150  2.3430 -0.3532  2.7631
 3634SOL    HW222362   4.595   2.934   9.113  2.4432 -2.5277 -3.0772
 3635SOL     OW22363   3.369   2.450   4.452 -0.4217  0.2353 -0.4319
 3635SOL    HW122364   3.338   2.530   4.494  0.6437  0.6472 -0.4290
 3635SOL    HW222365   3.396   2.404   4.532 -1.3208  0.7529  0.1672
 3636SOL     OW22366   3.417   0.150   5.943  0.2026  0.4358  0.2017
 3636SOL    HW122367   3.325   0.133   5.920 -0.6351  2.4102  2.1344
 3636SOL    HW222368   3.407   0.230   5.994  0.8309 -0.2174  1.3503
 3637SOL     OW22369   1.007   1.964   4.786 -0.0378 -0.0576  0.4815
 3637SOL    HW122370   1.067   2.029   4.822 -1.5242  1.8465 -0.4148
 3637SOL    HW222371   1.034   1.964   4.694 -0.6773 -0.6376  0.2946
 3638SOL     OW22372   3.163   2.507  12.776 -0.1333  0.1400  0.3698
 3638SOL    HW122373   3.130   2.453  12.705  0.0128  0.4640  0.0519
 3638SOL    HW222374   3.216   2.439  12.817  0.9073  1.9578  2.0447
 3639SOL     OW22375   4.679   1.701   7.666  0.4489 -0.3313  0.1150
 3639SOL    HW122376   4.623   1.778   7.673 -0.1896 -0.8536  0.7211
 3639SOL    HW222377   4.648   1.647   7.738 -1.8794  0.0784 -0.5632
 3640SOL     OW22378   2.333   2.161  12.745  0.2084 -0.2544 -0.3187
 3640SOL    HW122379   2.266   2.215  12.787  0.3454  0.3345 -0.8501
 3640SOL    HW222380   2.319   2.193  12.656 -0.0116  3.9397  1.2358
 3641SOL     OW22381   1.308   2.673  10.942  0.3340 -0.2602 -0.6153
 3641SOL    HW122382   1.330   2.644  10.853 -0.2582  0.4653 -0.9998
 3641SOL    HW222383   1.262   2.756  10.927  0.8330 -0.1387 -1.4942
 3642SOL     OW22384   4.444   2.341   2.903 -0.4235  0.2240 -0.0855
 3642SOL    HW122385   4.380   2.274   2.926  0.8197 -0.5255  1.1582
 3642SOL    HW222386   4.416   2.351   2.812  0.6206 -0.8321 -0.5238
 3643SOL     OW22387   1.227   2.813   2.773  0.4326  0.2054  0.3208
 3643SOL    HW122388   1.237   2.737   2.716  1.2944  1.2657 -0.9321
 3643SOL    HW222389   1.194   2.879   2.712  2.4938  0.8469 -0.0822
 3644SOL     OW22390   3.227   0.540  13.705  0.1870  0.2722  0.6050
 3644SOL    HW122391   3.242   0.453  13.742 -0.0036  0.3890  0.9568
 3644SOL    HW222392   3.146   0.569  13.748 -0.3706  0.4282 -0.5546
 3645SOL     OW22393   3.340   3.146  16.630  0.4296 -0.5069  0.0069
 3645SOL    HW122394   3.347   3.172  16.538 -0.3780 -1.2330 -0.2619
 3645SOL    HW222395   3.422   3.187  16.660  0.7109 -3.2761  3.0335
 3646SOL     OW22396   2.177   1.274   0.174 -0.1381 -0.8265 -0.2997
 3646SOL    HW122397   2.105   1.231   0.219 -0.2703 -0.2624  0.0251
 3646SOL    HW222398   2.129   1.320   0.104 -2.0619 -0.9315  0.9638
 3647SOL     OW22399   3.702   1.597  16.629 -0.2188 -0.0454  0.1749
 3647SOL    HW122400   3.630   1.570  16.687 -0.1936 -0.4378  0.0249
 3647SOL    HW222401   3.699   1.543  16.550  0.3492 -1.2129  0.9368
 3648SOL     OW22402   2.932   1.109  13.394 -0.0811  0.0168 -0.1226
 3648SOL    HW122403   3.023   1.084  13.407 -0.0049  0.8763  0.9606
 3648SOL    HW222404   2.885   1.027  13.383 -1.4719  1.2502 -3.4698
 3649SOL     OW22405   0.628   4.130   5.065  0.5166  0.0497 -0.4297
 3649SOL    HW122406   0.694   4.105   5.000  0.7905  2.1374 -0.9903
 3649SOL    HW222407   0.689   4.141   5.138  0.6518 -2.4345 -0.1698
 3650SOL     OW22408   3.997   3.983  16.572  0.4196 -0.1002  0.2287
 3650SOL    HW122409   4.006   3.922  16.645  4.5107  1.6986  1.2097
 3650SOL    HW222410   4.026   3.929  16.498 -3.3660 -0.0098 -1.3298
 3651SOL     OW22411   3.974   1.119   4.115  0.2598 -0.0413 -0.0045
 3651SOL    HW122412   3.928   1.202   4.127  1.0165  0.5481 -1.2279
 3651SOL    HW222413   3.928   1.072   4.045 -1.3707 -0.1025  1.1066
 3652SOL     OW22414   3.238   1.096   5.587  0.6369 -0.2327  0.1216
 3652SOL    HW122415   3.274   1.107   5.675  0.5994  0.2480  0.0720
 3652SOL    HW222416   3.198   1.182   5.574  0.4481 -0.1295  1.4326
 3653SOL     OW22417   0.798   1.774   4.657  0.0492 -0.0087 -0.1345
 3653SOL    HW122418   0.866   1.718   4.621  1.3754  2.1259 -0.8939
 3653SOL    HW222419   0.717   1.742   4.615 -0.3475 -0.7399  1.1687
 3654SOL     OW22420   3.911   3.127   2.233 -0.3278 -0.2942  0.8443
 3654SOL    HW122421   3.898   3.119   2.139 -2.0442 -0.7658  1.1230
 3654SOL    HW222422   3.983   3.189   2.243 -0.0615 -0.5028  0.2012
 3655SOL     OW22423   2.325   1.804  11.775 -0.3878  0.5441 -0.1643
 3655SOL    HW122424   2.354   1.827  11.863 -0.9599 -0.1516  0.2095
 3655SOL    HW222425   2.395   1.756  11.731 -0.9596 -0.0705 -0.4041
 3656SOL     OW22426   0.380   4.556  12.533 -0.2464  0.7698 -0.2350
 3656SOL    HW122427   0.438   4.623  12.498  1.8257 -1.1517 -0.4494
 3656SOL    HW222428   0.413   4.477  12.490 -3.9903 -0.0729 -1.5662
 3657SOL     OW22429   3.787   0.456   3.790 -0.3733 -0.0669  0.2845
 3657SOL    HW122430   3.779   0.521   3.860 -1.5531  0.5612 -0.4314
 3657SOL    HW222431   3.877   0.477   3.764 -0.8317  0.3060 -0.9711
 3658SOL     OW22432   0.946   2.187   4.404  0.5628  0.4778  0.3496
 3658SOL    HW122433   0.870   2.157   4.453  0.8203  2.5230  2.0036
 3658SOL    HW222434   1.005   2.126   4.448  0.3568  1.1344  1.5295
 3659SOL     OW22435   0.788   2.917   9.364 -0.0202 -0.3839 -0.0959
 3659SOL    HW122436   0.776   2.948   9.454  0.6494  0.1795 -0.2050
 3659SOL    HW222437   0.705   2.869   9.357  0.9426 -2.2857  1.5108
 3660SOL     OW22438   0.345   4.443   4.503 -0.3550 -0.0091  0.6381
 3660SOL    HW122439   0.272   4.485   4.458  0.0705 -0.9339 -0.9042
 3660SOL    HW222440   0.311   4.452   4.592 -0.6990  0.1152  0.4924
 3661SOL     OW22441   4.123   4.053   4.819  0.6549 -0.4829  0.6346
 3661SOL    HW122442   4.056   3.993   4.852  2.0375 -2.3961 -0.0471
 3661SOL    HW222443   4.144   4.112   4.891 -0.0853 -0.3008  0.6945
 3662SOL     OW22444   0.090   0.158   1.269 -0.3141 -0.1845  0.2926
 3662SOL    HW122445   0.023   0.090   1.262 -0.1878 -0.2453 -0.3179
 3662SOL    HW222446   0.086   0.198   1.182 -1.6626  1.1130  0.9387
 3663SOL     OW22447   1.429   0.478   5.989 -0.2605  0.1430  0.0282
 3663SOL    HW122448   1.478   0.504   5.910 -1.8824 -2.4364 -1.8390
 3663SOL    HW222449   1.497   0.465   6.056 -0.5647 -1.8947 -0.0440
 3664SOL     OW22450   1.207   3.415   6.670 -0.4243 -0.0932  0.0154
 3664SOL    HW122451   1.236   3.324   6.682  4.7609  1.4252 -1.0944
 3664SOL    HW222452   1.125   3.397   6.624  1.5548 -1.2481 -3.0531
 3665SOL     OW22453   2.558   3.340  14.695  0.3744 -0.1963 -0.7450
 3665SOL    HW122454   2.501   3.417  14.701 -0.1630 -0.7168  0.8384
 3665SOL    HW222455   2.491   3.278  14.723 -1.7152  2.4820  0.2316
 3666SOL     OW22456   4.570   1.137  16.070 -0.2866 -0.2500  0.0549
 3666SOL    HW122457   4.555   1.231  16.060 -1.8697 -0.7267 -1.9160
 3666SOL    HW222458   4.634   1.139  16.142  1.6563 -0.7623 -1.6832
 3667SOL     OW22459   3.206   0.554   9.754 -0.3320  0.0430  0.1293
 3667SOL    HW122460   3.227   0.611   9.828 -0.6605 -0.9403  0.9878
 3667SOL    HW222461   3.142   0.495   9.793  2.1579 -1.2687  2.2252
 3668SOL     OW22462   4.468   2.434   3.630  0.0855  0.0442 -0.4827
 3668SOL    HW122463   4.402   2.395   3.573 -0.7471 -0.0395  0.5304
 3668SOL    HW222464   4.521   2.365   3.670 -0.2453  0.1468  0.1367
 3669SOL     OW22465   0.764   3.309   2.456 -0.3907 -0.1723 -0.3824
 3669SOL    HW122466   0.719   3.326   2.539 -1.8346  0.4615 -1.2981
 3669SOL    HW222467   0.813   3.392   2.453 -1.1334  0.2768 -0.0472
 3670SOL     OW22468   3.702   4.681   7.289  0.5553  0.8369  0.1695
 3670SOL    HW122469   3.632   0.013   7.326 -0.3478 -1.4667  1.9180
 3670SOL    HW222470   3.694   4.712   7.199  2.4362  1.2975  0.1629
 3671SOL     OW22471   0.926   2.668  17.332  0.4389 -0.1654  0.1518
 3671SOL    HW122472   0.844   2.718  17.334  1.3134  1.2856  0.3001
 3671SOL    HW222473   0.996   2.731  17.313 -1.2026  2.1550  1.7741
 3672SOL     OW22474   2.940   0.721   3.094  0.1817  0.6598 -0.5046
 3672SOL    HW122475   2.977   0.775   3.024 -0.4230 -1.1923 -2.2684
 3672SOL    HW222476   3.007   0.652   3.098 -0.3740  0.1917  0.8746
 3673SOL     OW22477   1.034   3.611   2.929 -0.0915  0.3652 -0.1538
 3673SOL    HW122478   1.020   3.579   3.018  0.6647  2.6302  0.7719
 3673SOL    HW222479   1.060   3.531   2.883  1.0454 -0.1049  1.3203
 3674SOL     OW22480   2.561   4.235   4.410  0.4337  0.0186 -0.1095
 3674SOL    HW122481   2.656   4.233   4.423  0.4396  0.9025  0.0182
 3674SOL    HW222482   2.558   4.309   4.349 -3.4633  1.6113  2.0019
 3675SOL     OW22483   1.204   2.764   4.596  0.4685 -0.6524  0.2805
 3675SOL    HW122484   1.145   2.703   4.639 -1.0853  2.9170  3.2414
 3675SOL    HW222485   1.146   2.834   4.566  0.4234 -0.3137  1.1795
 3676SOL     OW22486   1.154   3.041   2.671 -0.3711  0.4638 -0.4383
 3676SOL    HW122487   1.189   3.065   2.586 -3.2322  1.0034 -1.4597
 3676SOL    HW222488   1.178   3.118   2.723  0.3182  0.7787 -1.2411
 3677SOL     OW22489   0.079   0.819   8.076 -0.1423 -0.4477 -0.3971
 3677SOL    HW122490   0.068   0.728   8.048  1.0452 -0.5235 -0.6389
 3677SOL    HW222491   0.131   0.800   8.154 -1.4712  0.3139  0.6610
 3678SOL     OW22492   4.239   3.099  13.359 -0.0259  0.3494 -0.5792
 3678SOL    HW122493   4.294   3.092  13.437 -1.0697 -1.9597 -0.0601
 3678SOL    HW222494   4.272   3.017  13.321 -2.2338 -0.7944 -0.0016
 3679SOL     OW22495   0.764   0.315   3.503 -0.1518  0.7116 -0.0949
 3679SOL    HW122496   0.801   0.285   3.420 -0.7386 -1.0784  0.2919
 3679SOL    HW222497   0.831   0.314   3.571  0.8198 -0.9632 -1.0907
 3680SOL     OW22498   0.414   4.095  10.235 -0.2217  0.4066 -0.4958
 3680SOL    HW122499   0.427   4.032  10.306 -0.3100  2.6109  1.4639
 3680SOL    HW222500   0.411   4.032  10.163 -1.0232 -1.1151  0.8753
 3681SOL     OW22501   1.829   3.279   4.457 -0.2287  0.0330 -0.2091
 3681SOL    HW122502   1.781   3.214   4.509  0.3919 -0.4416 -0.2383
 3681SOL    HW222503   1.855   3.220   4.386 -0.2907 -1.2983  0.8588
 3682SOL     OW22504   2.091   2.404   8.535 -0.6336  0.4648 -0.2024
 3682SOL    HW122505   2.174   2.359   8.523  0.6908  3.1686 -1.2156
 3682SOL    HW222506   2.038   2.327   8.555  1.0009 -0.3104  1.0896
 3683SOL     OW22507   2.734   1.647  13.004  0.6580 -0.0734  0.0666
 3683SOL    HW122508   2.823   1.616  12.990  0.5606  0.2827 -1.3382
 3683SOL    HW222509   2.715   1.591  13.079  0.2734 -1.0919 -0.7818
 3684SOL     OW22510   1.880   1.296   9.523 -0.5141 -0.3667 -0.3989
 3684SOL    HW122511   1.955   1.273   9.578 -2.0589  1.7947  2.5907
 3684SOL    HW222512   1.920   1.362   9.465  1.9925  0.2950  2.0752
 3685SOL     OW22513   3.760   0.742   7.239  0.0296  0.7666  0.2489
 3685SOL    HW122514   3.814   0.817   7.215  0.3840  0.3322 -0.3197
 3685SOL    HW222515   3.682   0.750   7.184 -0.2222  0.7717  0.6036
 3686SOL     OW22516   2.875   2.069   6.207  0.1612  0.1580 -0.3852
 3686SOL    HW122517   2.780   2.085   6.209  0.3155  0.9898  0.3377
 3686SOL    HW222518   2.869   1.975   6.224  0.7934  0.2251  0.2166
 3687SOL     OW22519   4.637   0.015   6.529  0.3553 -0.5591  0.7555
 3687SOL    HW122520   4.557   0.055   6.496 -0.0593 -0.8284  1.4415
 3687SOL    HW222521   4.685   0.084   6.573  1.0603 -0.3345 -0.3625
 3688SOL     OW22522   3.419   2.898   3.902  0.4246 -0.2480 -0.3066
 3688SOL    HW122523   3.391   2.867   3.989  1.1116 -0.1119 -0.0366
 3688SOL    HW222524   3.355   2.848   3.851  0.5926  0.4866 -1.2215
 3689SOL     OW22525   2.882   1.927   2.372 -0.0338  0.1387  0.9479
 3689SOL    HW122526   2.926   1.843   2.362 -1.1415 -0.3408  0.0639
 3689SOL    HW222527   2.818   1.917   2.302 -1.2145  1.9210  1.7705
 3690SOL     OW22528   4.289   0.408   5.076 -0.0063 -0.1063  0.3524
 3690SOL    HW122529   4.215   0.351   5.055  1.8623 -2.7857  1.0497
 3690SOL    HW222530   4.297   0.457   4.994  1.6711  0.4444  0.8405
 3691SOL     OW22531   3.925   0.571  11.097  0.1127  0.0042 -1.2619
 3691SOL    HW122532   3.901   0.657  11.131 -2.1962 -1.0737 -0.1378
 3691SOL    HW222533   3.922   0.520  11.178  2.0884  1.6676 -0.1598
 3692SOL     OW22534   1.571   3.822   4.269 -0.1802  0.4447 -0.8191
 3692SOL    HW122535   1.577   3.727   4.265 -1.6660  0.3586 -0.7652
 3692SOL    HW222536   1.659   3.855   4.251  0.6971 -1.8802 -0.7888
 3693SOL     OW22537   3.671   0.702   9.436 -0.0187  0.0866  0.1582
 3693SOL    HW122538   3.718   0.711   9.519  1.5527  0.0053 -0.7269
 3693SOL    HW222539   3.642   0.611   9.446  0.3411 -0.1364 -0.8839
 3694SOL     OW22540   2.122   2.434  15.210 -0.7891  0.5220 -0.6350
 3694SOL    HW122541   2.119   2.459  15.118 -0.3716  0.9696 -0.5262
 3694SOL    HW222542   2.032   2.453  15.236 -0.5466  0.2236  0.4418
 3695SOL     OW22543   4.319   2.967   3.709  0.5266 -0.2586  0.4471
 3695SOL    HW122544   4.233   2.925   3.707  0.1500  0.4154  2.3619
 3695SOL    HW222545   4.306   3.032   3.778  0.1102 -0.3643  0.4668
 3696SOL     OW22546   1.508   4.127   4.907 -0.1891  0.5265 -0.0789
 3696SOL    HW122547   1.468   4.184   4.972 -1.4641  0.5327 -0.8811
 3696SOL    HW222548   1.449   4.052   4.914 -0.5453  0.8407  0.3080
 3697SOL     OW22549   0.657   2.242   7.297 -0.2544 -0.2805  0.0134
 3697SOL    HW122550   0.733   2.243   7.239  0.8850  2.4076  1.5971
 3697SOL    HW222551   0.678   2.326   7.336  0.2491 -0.2083 -0.4048
 3698SOL     OW22552   2.720   2.630   4.023 -0.2942  0.1455 -0.3758
 3698SOL    HW122553   2.719   2.657   4.115 -0.7320  0.6501 -0.5295
 3698SOL    HW222554   2.628   2.617   3.999 -0.2209 -0.4131 -0.3446
 3699SOL     OW22555   4.565   3.647   1.724  0.1609 -0.7168  0.0838
 3699SOL    HW122556   4.609   3.564   1.741 -1.6088 -1.9749 -1.5288
 3699SOL    HW222557   4.484   3.628   1.771 -0.2157 -1.4985 -0.8752
 3700SOL     OW22558   0.540   0.382   6.944  0.3564 -0.2641  0.0374
 3700SOL    HW122559   0.526   0.398   7.037 -0.0172 -1.1830  0.1441
 3700SOL    HW222560   0.543   0.467   6.901  2.5859 -0.2526  0.2184
 3701SOL     OW22561   2.879   1.166  11.676 -0.1280 -0.1817 -0.2720
 3701SOL    HW122562   2.936   1.198  11.746 -0.1766 -0.8935  0.0852
 3701SOL    HW222563   2.803   1.133  11.724 -0.4837 -0.0016 -0.7097
 3702SOL     OW22564   2.369   1.933   7.234  0.3399 -0.2949 -0.2273
 3702SOL    HW122565   2.424   1.890   7.169  0.4232  0.0733 -0.3971
 3702SOL    HW222566   2.304   1.976   7.178  1.1207 -1.5602 -2.0938
 3703SOL     OW22567   3.824   1.456   8.992  0.1606  0.5886 -0.2286
 3703SOL    HW122568   3.848   1.391   9.058 -0.4208 -0.9240 -1.4764
 3703SOL    HW222569   3.768   1.414   8.927 -2.0687  2.4204  0.5103
 3704SOL     OW22570   3.287   2.437   5.168  0.0689  0.0039 -0.5097
 3704SOL    HW122571   3.246   2.489   5.100  0.0708  0.1984 -0.3639
 3704SOL    HW222572   3.378   2.464   5.156 -0.0577  0.2601 -0.8738
 3705SOL     OW22573   0.971   4.477  12.008  0.4909 -0.0985 -0.0066
 3705SOL    HW122574   0.891   4.471  11.955 -0.2232  0.5019  1.0001
 3705SOL    HW222575   1.034   4.514  11.947 -0.2228 -0.2482 -0.8379
 3706SOL     OW22576   1.969   1.818   7.734 -0.5125  0.2432 -0.0455
 3706SOL    HW122577   1.945   1.843   7.645  0.7803  1.6517 -0.0102
 3706SOL    HW222578   2.033   1.888   7.751 -0.4076  0.3312 -0.7698
 3707SOL     OW22579   0.408   2.915  11.052 -0.3833  0.5139 -0.6371
 3707SOL    HW122580   0.427   2.894  10.961  1.6996 -0.2447 -0.0277
 3707SOL    HW222581   0.392   2.824  11.078 -0.5260  0.4728 -0.8702
 3708SOL     OW22582   0.851   0.103  14.752 -0.0845  0.0382  0.5691
 3708SOL    HW122583   0.794   0.124  14.826 -0.6601 -0.4868  0.2695
 3708SOL    HW222584   0.790   0.076  14.683 -1.6382 -0.3188  2.0693
 3709SOL     OW22585   2.431   1.721   4.821 -0.3367  0.0755 -0.2960
 3709SOL    HW122586   2.411   1.744   4.731  1.1581  0.1413 -0.6100
 3709SOL    HW222587   2.485   1.643   4.808  1.0597  1.0031 -0.0133
 3710SOL     OW22588   2.207   2.333   3.174 -0.2143 -0.4818  0.7971
 3710SOL    HW122589   2.264   2.359   3.247  0.0475 -0.2394  0.5100
 3710SOL    HW222590   2.261   2.264   3.135 -0.9429 -0.5753 -0.0573
 3711SOL     OW22591   1.914   2.720   7.962  0.2298 -0.1528 -0.0220
 3711SOL    HW122592   1.843   2.782   7.980 -0.8583 -0.8298 -1.9713
 3711SOL    HW222593   1.960   2.776   7.900 -0.9990  0.9527  0.0435
 3712SOL     OW22594   4.579   2.442   7.863  0.5547 -0.0871 -0.1174
 3712SOL    HW122595   4.654   2.393   7.896  0.4155  0.6359  1.2387
 3712SOL    HW222596   4.612   2.465   7.776  1.2048 -1.4863 -0.2516
 3713SOL     OW22597   3.533   1.116  15.781  0.5571 -0.0434 -0.2287
 3713SOL    HW122598   3.561   1.116  15.873 -0.0369 -3.1112 -0.0262
 3713SOL    HW222599   3.475   1.040  15.776  0.4097  0.1335 -1.1868
 3714SOL     OW22600   4.075   0.883   1.763  0.5071 -0.0530 -0.0450
 3714SOL    HW122601   4.098   0.916   1.676 -1.3816  2.3733  0.3513
 3714SOL    HW222602   4.041   0.797   1.740  0.1206  0.1835 -0.3668
 3715SOL     OW22603   0.748   1.744   5.411 -0.3035  0.5061  0.2651
 3715SOL    HW122604   0.812   1.789   5.464  0.8632  2.6019 -2.9134
 3715SOL    HW222605   0.736   1.800   5.334 -0.1115 -1.7017 -1.3820
 3716SOL     OW22606   1.016   0.849   1.221 -0.4769  0.5412  0.6252
 3716SOL    HW122607   1.044   0.817   1.307  2.6275  1.8512  0.0791
 3716SOL    HW222608   0.920   0.846   1.226 -0.7130  2.0971 -3.2589
 3717SOL     OW22609   4.624   3.666   8.646 -0.1778  0.5475 -0.0400
 3717SOL    HW122610   4.588   3.587   8.606  0.2779 -0.1113  0.8737
 3717SOL    HW222611   4.623   3.639   8.737  1.1961 -2.3010 -0.8704
 3718SOL     OW22612   4.279   0.916  11.391  0.0364 -0.2865 -0.2140
 3718SOL    HW122613   4.358   0.907  11.338  1.0108 -1.1876  1.3861
 3718SOL    HW222614   4.235   0.975  11.329 -1.1942 -1.8465 -0.8189
 3719SOL     OW22615   4.456   0.151   3.272 -0.1464  0.1579  0.2347
 3719SOL    HW122616   4.539   0.108   3.293 -0.1851 -0.3916 -0.7807
 3719SOL    HW222617   4.401   0.145   3.350 -0.0253  0.3585  0.3367
 3720SOL     OW22618   1.220   4.521   6.613  0.5520 -0.2504 -0.3783
 3720SOL    HW122619   1.260   4.443   6.573  2.5251  0.2572  0.6346
 3720SOL    HW222620   1.218   4.574   6.533 -2.4411 -0.1233 -0.2395
 3721SOL     OW22621   3.517   1.576  12.215 -0.7864  0.3376 -0.4651
 3721SOL    HW122622   3.471   1.508  12.265 -1.2553  1.9304  1.2920
 3721SOL    HW222623   3.523   1.542  12.126  1.5416  0.4503 -0.3596
 3722SOL     OW22624   4.447   2.729   1.877 -0.3079 -0.2532  0.2338
 3722SOL    HW122625   4.512   2.793   1.907 -0.8769 -0.0444  0.9978
 3722SOL    HW222626   4.492   2.680   1.807  0.9715 -0.9857  1.5642
 3723SOL     OW22627   2.835   1.936  17.387  0.2594 -0.0398  0.1055
 3723SOL    HW122628   2.916   1.958  17.432 -0.4441 -0.3314  1.5153
 3723SOL    HW222629   2.798   2.023  17.370 -0.1345 -0.5155 -1.4556
 3724SOL     OW22630   4.014   4.593   0.930  0.7264 -0.1864 -0.4406
 3724SOL    HW122631   3.951   4.563   0.864  0.1655 -0.8227  0.3968
 3724SOL    HW222632   3.997   4.531   1.001 -0.5154  0.5252 -0.1321
 3725SOL     OW22633   2.293   4.555   9.145 -0.4621  0.2569 -0.3160
 3725SOL    HW122634   2.361   4.599   9.094 -1.4592  1.6154 -0.4741
 3725SOL    HW222635   2.279   4.620   9.214 -1.1138 -0.1444 -0.0705
 3726SOL     OW22636   4.238   3.104   5.216  0.1669 -0.2042  0.2705
 3726SOL    HW122637   4.146   3.089   5.241 -0.0338  1.8933  0.7706
 3726SOL    HW222638   4.256   3.186   5.262  0.2799 -1.2969  2.1831
 3727SOL     OW22639   2.517   4.685   8.007 -0.0058  0.0394  0.6012
 3727SOL    HW122640   2.424   4.694   8.027 -0.5223 -1.0303 -1.3361
 3727SOL    HW222641   2.517   4.697   7.912  0.5734 -0.3969  0.5501
 3728SOL     OW22642   0.065   3.925  11.648 -0.2145  0.2489  0.3366
 3728SOL    HW122643   0.140   3.944  11.705  0.3770  1.8098 -0.9779
 3728SOL    HW222644   0.009   3.872  11.705 -0.0606  1.1005  1.2879
 3729SOL     OW22645   0.615   0.964   7.134 -0.4718 -0.1830  0.2340
 3729SOL    HW122646   0.692   0.978   7.189 -0.4588 -0.6814  0.3463
 3729SOL    HW222647   0.641   1.019   7.060  0.7569 -3.1888 -1.5456
 3730SOL     OW22648   3.951   3.970   3.299  0.2860  0.6098 -0.4379
 3730SOL    HW122649   3.890   3.919   3.353  0.2769  0.4050 -0.6415
 3730SOL    HW222650   3.942   4.060   3.328  0.8724  1.3293 -2.4970
 3731SOL     OW22651   3.061   1.565   9.329 -0.4278 -0.2158  0.3729
 3731SOL    HW122652   3.079   1.480   9.289  3.2601 -0.1020  1.8347
 3731SOL    HW222653   2.993   1.594   9.269  0.8404  0.2898 -0.8020
 3732SOL     OW22654   3.939   4.662  14.389  0.5205  0.8879 -0.9223
 3732SOL    HW122655   3.979   4.587  14.345  0.8912 -0.0757  1.0518
 3732SOL    HW222656   3.848   4.635  14.382  0.5906  1.4291 -3.7628
 3733SOL     OW22657   3.005   2.020   6.955  0.2729  0.1802 -0.1542
 3733SOL    HW122658   3.049   2.098   6.922 -2.3469  1.8709  0.3872
 3733SOL    HW222659   3.056   1.962   6.900  3.7022  1.7013  1.4290
 3734SOL     OW22660   4.625   0.810   0.424 -0.0629 -0.3161 -0.1587
 3734SOL    HW122661   4.668   0.730   0.454 -0.5402 -0.7577 -0.6593
 3734SOL    HW222662   4.599   0.848   0.508  1.5322  0.4007  0.0154
 3735SOL     OW22663   0.516   4.705   7.733 -0.4868  0.2563 -0.2807
 3735SOL    HW122664   0.556   0.066   7.755  2.1946 -0.6672 -1.7572
 3735SOL    HW222665   0.462   0.004   7.657  0.4433  2.9483 -0.1876
 3736SOL     OW22666   1.635   3.368  10.480 -0.6206 -0.2073 -0.6150
 3736SOL    HW122667   1.581   3.441  10.509  0.4046  0.5280 -0.5413
 3736SOL    HW222668   1.608   3.305  10.546  2.3180 -0.7674  0.0643
 3737SOL     OW22669   3.640   2.517   7.396  0.1655  0.3616  0.2067
 3737SOL    HW122670   3.602   2.572   7.464 -0.9723  0.5638 -0.5811
 3737SOL    HW222671   3.571   2.451   7.388  2.2303 -1.8827  0.9307
 3738SOL     OW22672   1.454   4.513  14.782 -0.3638 -0.0869 -0.2739
 3738SOL    HW122673   1.460   4.591  14.727 -0.0802  0.4988  0.5894
 3738SOL    HW222674   1.543   4.480  14.783  0.5712  2.4908  1.4420
 3739SOL     OW22675   1.655   3.503  13.739  0.4613 -0.1729  0.1598
 3739SOL    HW122676   1.674   3.417  13.777  0.1260 -0.9269 -1.3751
 3739SOL    HW222677   1.697   3.486  13.654  2.0263  1.7114  0.5686
 3740SOL     OW22678   4.720   3.861   6.923  0.7263 -0.2365 -0.1059
 3740SOL    HW122679   4.663   3.919   6.873 -1.6569 -1.2998  1.3973
 3740SOL    HW222680   4.685   3.868   7.012 -0.3554  2.7064 -0.7832
 3741SOL     OW22681   3.866   0.898   0.407  0.3389  0.3990 -0.2434
 3741SOL    HW122682   3.812   0.824   0.380  1.8526 -0.7880  0.0175
 3741SOL    HW222683   3.942   0.862   0.452 -0.8188 -1.0690  0.5163
 3742SOL     OW22684   2.377   2.944   6.851  0.1162 -0.5348  0.3397
 3742SOL    HW122685   2.291   2.968   6.817 -0.2293  0.3004  1.8359
 3742SOL    HW222686   2.432   2.980   6.781 -1.4695 -2.6869 -2.0575
 3743SOL     OW22687   3.765   3.150  14.381 -0.3289 -0.0332 -0.4774
 3743SOL    HW122688   3.723   3.079  14.333 -0.3590 -1.0649  1.0706
 3743SOL    HW222689   3.836   3.177  14.322 -0.1511  2.4656  0.8906
 3744SOL     OW22690   2.895   1.537  13.317  0.1718  0.3106  0.1623
 3744SOL    HW122691   2.843   1.461  13.292  1.1555 -0.4221  0.3686
 3744SOL    HW222692   2.830   1.596  13.356 -1.1732 -0.4194 -0.9639
 3745SOL     OW22693   1.350   4.559   8.695  0.2453 -0.1076 -0.1105
 3745SOL    HW122694   1.277   4.507   8.663  0.1823 -0.3452  0.4253
 3745SOL    HW222695   1.361   4.633   8.634 -0.8297 -0.8762 -1.2226
 3746SOL     OW22696   2.775   0.529   2.397 -0.2998 -0.1439  0.5884
 3746SOL    HW122697   2.827   0.550   2.320 -0.8419 -1.3516 -0.1080
 3746SOL    HW222698   2.694   0.505   2.352 -0.6582  4.5357 -1.2157
 3747SOL     OW22699   2.745   4.460  13.506 -0.2135  0.8531 -0.2104
 3747SOL    HW122700   2.691   4.443  13.583 -1.9491  1.0693 -1.3828
 3747SOL    HW222701   2.765   4.374  13.468 -1.1857  0.0699  1.0636
 3748SOL     OW22702   2.988   4.456  16.425 -0.1952 -0.1017 -0.2091
 3748SOL    HW122703   3.060   4.495  16.474  0.7552 -2.3536  0.2111
 3748SOL    HW222704   2.920   4.523  16.425  0.5878  0.7027  1.4266
 3749SOL     OW22705   4.245   0.400  12.093 -0.1704 -0.1401 -0.0552
 3749SOL    HW122706   4.244   0.305  12.089  1.3032 -0.1184 -0.8375
 3749SOL    HW222707   4.324   0.427  12.047  0.0393  0.3670  0.5943
 3750SOL     OW22708   0.981   1.562   8.870  0.2080  0.2845  0.2669
 3750SOL    HW122709   1.036   1.576   8.793 -1.0443 -0.0980 -0.6926
 3750SOL    HW222710   0.918   1.502   8.832  0.3582 -0.8329  1.7551
 3751SOL     OW22711   1.041   3.922  15.361  0.0919 -0.1435 -0.3113
 3751SOL    HW122712   1.073   3.967  15.438 -0.0450 -1.2039  0.3724
 3751SOL    HW222713   1.046   3.993  15.297 -0.6691 -0.7701 -1.0665
 3752SOL     OW22714   3.731   3.825  17.657  0.0306  0.0942 -0.4607
 3752SOL    HW122715   3.777   3.903  17.627  2.5031 -1.1076  0.2459
 3752SOL    HW222716   3.800   3.761  17.645  1.5593  1.4505  1.1907
 3753SOL     OW22717   2.219   0.550   7.942  0.3374 -0.2402  0.2366
 3753SOL    HW122718   2.287   0.618   7.941  1.0149 -0.9227  0.3425
 3753SOL    HW222719   2.226   0.521   7.851  1.5900 -0.5529  0.4265
 3754SOL     OW22720   3.448   3.179  13.585  0.0271  0.1669 -0.3805
 3754SOL    HW122721   3.510   3.241  13.547 -0.8312  0.7057 -0.8995
 3754SOL    HW222722   3.445   3.115  13.514 -0.2275 -1.4583  1.1044
 3755SOL     OW22723   1.004   1.960   7.096 -0.0956  0.1669  0.3630
 3755SOL    HW122724   0.961   2.034   7.054  1.0571 -0.4163 -1.8171
 3755SOL    HW222725   1.091   1.996   7.084 -0.0631 -0.8295 -2.3651
 3756SOL     OW22726   3.500   2.446   1.619 -0.5602  0.3423  0.6431
 3756SOL    HW122727   3.488   2.353   1.638  1.0885 -0.5891 -2.7609
 3756SOL    HW222728   3.488   2.490   1.703 -1.6529  0.0302  0.6542
 3757SOL     OW22729   2.263   4.059   3.856  0.0491  0.5590  0.0499
 3757SOL    HW122730   2.264   4.039   3.950  1.6844  1.8807  0.3135
 3757SOL    HW222731   2.353   4.046   3.825  0.0067  1.6078 -0.5041
 3758SOL     OW22732   4.200   2.844   3.165 -0.0421  0.1913  0.2896
 3758SOL    HW122733   4.240   2.774   3.114  0.0407 -0.2050  0.9023
 3758SOL    HW222734   4.272   2.905   3.183 -0.7592  0.3754  2.5131
 3759SOL     OW22735   1.627   4.568   6.683 -0.0691 -0.8548  0.5374
 3759SOL    HW122736   1.651   4.581   6.591 -0.7940 -2.5569  0.1000
 3759SOL    HW222737   1.699   4.512   6.712  0.3120  0.1023  1.4305
 3760SOL     OW22738   1.186   0.263   5.398  0.0464 -0.2739 -0.0210
 3760SOL    HW122739   1.147   0.176   5.390  0.4271 -0.6355  1.9763
 3760SOL    HW222740   1.179   0.276   5.303  1.0758  2.5679  0.2939
 3761SOL     OW22741   1.571   3.936   3.870  0.2619 -0.8209  0.1851
 3761SOL    HW122742   1.508   3.948   3.941 -0.3324 -0.0554 -0.4648
 3761SOL    HW222743   1.621   3.859   3.896 -1.8554 -2.7335 -1.4284
 3762SOL     OW22744   3.270   0.600   6.952 -0.2637  0.1288  0.0002
 3762SOL    HW122745   3.316   0.516   6.965  0.6528  0.8416  1.3739
 3762SOL    HW222746   3.285   0.637   7.038  2.3529 -0.9316  0.0120
 3763SOL     OW22747   0.525   0.827  13.392 -0.3040  0.1017 -0.5923
 3763SOL    HW122748   0.474   0.792  13.465  1.5031 -1.3388 -0.0214
 3763SOL    HW222749   0.532   0.747  13.341  0.4852  0.8966 -1.7396
 3764SOL     OW22750   4.691   1.248   3.396  0.1527  0.0319  0.2515
 3764SOL    HW122751   4.707   1.337   3.365  4.0682 -0.5090  0.7089
 3764SOL    HW222752   4.673   1.268   3.488  0.5520  0.0965  0.3157
 3765SOL     OW22753   2.548   3.485   7.681  0.5801 -0.0269  0.1160
 3765SOL    HW122754   2.500   3.481   7.764  0.8885  0.2340  0.3060
 3765SOL    HW222755   2.554   3.579   7.664 -0.9826  0.3167  1.4484
 3766SOL     OW22756   2.415   0.144  12.860  0.4116  0.2059 -0.0585
 3766SOL    HW122757   2.362   0.222  12.844 -0.4646 -0.3631  0.0303
 3766SOL    HW222758   2.364   0.072  12.823  0.3572  0.9445 -1.4213
 3767SOL     OW22759   1.452   2.849   7.604 -0.0426  1.1081 -0.5357
 3767SOL    HW122760   1.534   2.838   7.555 -0.9934  0.8418 -2.0470
 3767SOL    HW222761   1.463   2.781   7.672  1.9361  1.8016 -0.1689
 3768SOL     OW22762   4.711   2.892   3.840  0.2033 -0.6174  0.2686
 3768SOL    HW122763   4.671   2.978   3.826 -1.2862 -1.7841 -2.5883
 3768SOL    HW222764   4.674   2.849   3.763  1.5187 -0.7687 -0.2823
 3769SOL     OW22765   3.676   3.281  15.248  0.0128  0.1286  0.1167
 3769SOL    HW122766   3.732   3.318  15.316 -0.6754  0.4969  0.4815
 3769SOL    HW222767   3.642   3.365  15.215 -0.7944 -0.4321 -0.4685
 3770SOL     OW22768   1.063   3.848   7.652  0.4438 -0.5243 -0.4484
 3770SOL    HW122769   0.991   3.865   7.713  0.3669 -0.5358 -0.5363
 3770SOL    HW222770   1.119   3.919   7.683 -0.7146  0.0973  0.2326
 3771SOL     OW22771   2.939   3.734  10.897 -0.0565 -0.3307 -0.2036
 3771SOL    HW122772   3.006   3.721  10.965 -0.0579  1.6814  0.1720
 3771SOL    HW222773   2.942   3.650  10.852 -0.7280 -1.4973  1.9262
 3772SOL     OW22774   3.315   2.145   3.557 -0.3507  0.1328  0.4602
 3772SOL    HW122775   3.354   2.164   3.642 -1.7888 -2.8855  1.7962
 3772SOL    HW222776   3.237   2.094   3.577 -0.0198 -0.7832 -0.5350
 3773SOL     OW22777   0.159   2.218   4.870 -0.2091  0.3903 -0.7507
 3773SOL    HW122778   0.075   2.185   4.837  0.1210 -0.8623 -0.3523
 3773SOL    HW222779   0.200   2.270   4.801  1.2432 -2.0438 -1.7081
 3774SOL     OW22780   2.538   0.018   2.380  0.8703 -0.0570 -0.3344
 3774SOL    HW122781   2.606   4.682   2.413 -1.4349 -0.4373  3.7301
 3774SOL    HW222782   2.591   0.088   2.340  1.2991  0.5706  1.3096
 3775SOL     OW22783   0.368   2.484  13.615  0.4596  0.5087 -0.1626
 3775SOL    HW122784   0.441   2.507  13.672 -0.4531  2.3570  0.2646
 3775SOL    HW222785   0.290   2.511  13.663  0.0528  2.4674 -1.9592
 3776SOL     OW22786   0.229   0.481  12.062  0.4036  0.0187  0.0052
 3776SOL    HW122787   0.178   0.459  12.141 -1.0744  3.9333  0.1472
 3776SOL    HW222788   0.287   0.405  12.064 -1.4886 -1.4611 -1.8438
 3777SOL     OW22789   2.047   0.475  13.107  0.5914 -0.0036  0.7713
 3777SOL    HW122790   2.001   0.503  13.186  1.4617  0.1569  1.2180
 3777SOL    HW222791   2.001   0.533  13.047 -2.8605 -0.6411  2.8207
 3778SOL     OW22792   0.700   2.474   1.884 -0.2354  0.2896  0.7339
 3778SOL    HW122793   0.607   2.494   1.869 -0.1210 -0.3827 -0.9121
 3778SOL    HW222794   0.720   2.555   1.929  1.1507  0.6849 -0.5977
 3779SOL     OW22795   0.490   1.840   7.513 -0.2443  0.3654 -0.0474
 3779SOL    HW122796   0.447   1.896   7.448 -0.0307  0.7443  0.1428
 3779SOL    HW222797   0.421   1.836   7.579  0.5843 -0.3194  0.7725
 3780SOL     OW22798   0.764   4.212  12.276  0.3157  0.5150  0.0113
 3780SOL    HW122799   0.792   4.239  12.364 -0.6443  0.4077  0.3496
 3780SOL    HW222800   0.725   4.127  12.296  0.1528  0.6278  0.1736
 3781SOL     OW22801   1.779   4.394  14.418  0.5405 -0.3593 -0.1076
 3781SOL    HW122802   1.792   4.413  14.510  0.0853  0.6660 -0.2516
 3781SOL    HW222803   1.747   4.304  14.424  3.0447 -1.2033  0.4092
 3782SOL     OW22804   3.657   4.592   4.661  0.1715 -0.4606  0.1602
 3782SOL    HW122805   3.722   4.523   4.673 -0.2356 -1.2461 -2.1210
 3782SOL    HW222806   3.685   4.647   4.588  0.3032  0.2171  0.7290
 3783SOL     OW22807   2.748   2.164   3.319 -0.0512  0.0492  0.3483
 3783SOL    HW122808   2.681   2.158   3.387 -0.3867  1.4621  0.1389
 3783SOL    HW222809   2.760   2.259   3.330 -2.0171  0.3704 -0.1762
 3784SOL     OW22810   0.076   3.726  17.053 -0.6834  0.3649 -0.1609
 3784SOL    HW122811   4.721   3.776  17.026 -0.0555  1.7575  0.6155
 3784SOL    HW222812   0.075   3.728  17.148 -2.4463  0.2825 -0.1689
 3785SOL     OW22813   1.918   0.563   5.693  0.2978  0.9362 -0.1162
 3785SOL    HW122814   2.005   0.570   5.731  0.1332  0.6468  0.3117
 3785SOL    HW222815   1.867   0.524   5.764 -0.5336  2.8191  0.3224
 3786SOL     OW22816   1.427   0.591   3.745 -0.0256 -0.1521  0.7493
 3786SOL    HW122817   1.399   0.500   3.733 -3.6713  1.1861 -0.9669
 3786SOL    HW222818   1.414   0.605   3.839 -0.0014 -0.1648  0.7544
 3787SOL     OW22819   3.771   2.835  11.878 -0.1223 -0.4342  0.1810
 3787SOL    HW122820   3.801   2.758  11.830  0.1002 -0.9917  1.2242
 3787SOL    HW222821   3.694   2.803  11.925  0.0460  0.8175  1.3242
 3788SOL     OW22822   1.731   4.125   6.643  0.0974  0.4344  0.7910
 3788SOL    HW122823   1.749   4.045   6.693  1.8099 -0.0148 -0.5726
 3788SOL    HW222824   1.818   4.158   6.623  0.2369 -1.3136 -1.4392
 3789SOL     OW22825   3.798   0.259   8.164  0.2041  0.2909 -0.5209
 3789SOL    HW122826   3.851   0.231   8.238  1.3224  0.6940 -1.1760
 3789SOL    HW222827   3.816   0.188   8.103 -2.6010 -0.2221 -0.7715
 3790SOL     OW22828   0.170   0.277  10.412 -0.3105  0.0360  0.0498
 3790SOL    HW122829   0.174   0.278  10.316  0.3167 -0.6096  0.0655
 3790SOL    HW222830   0.078   0.258  10.426 -0.5378  1.8455  0.9241
 3791SOL     OW22831   3.396   4.343  17.216  0.2290  0.0727  0.1926
 3791SOL    HW122832   3.352   4.377  17.138  1.2794  0.6487 -0.1480
 3791SOL    HW222833   3.327   4.348  17.282 -2.3190  0.7237 -2.5363
 3792SOL     OW22834   1.872   1.754   3.439 -0.5596  0.0229  0.1917
 3792SOL    HW122835   1.806   1.690   3.466 -0.5702  0.8028  1.9773
 3792SOL    HW222836   1.807   1.824   3.439 -1.1015 -0.4792  0.3323
 3793SOL     OW22837   1.438   0.009   3.701  0.2095  0.6544 -0.6744
 3793SOL    HW122838   1.511   4.675   3.675 -1.8621 -2.5333  0.4259
 3793SOL    HW222839   1.411   4.699   3.787 -1.7247  4.1752  0.0099
 3794SOL     OW22840   1.940   2.950  12.082 -0.3294  0.3702  0.1536
 3794SOL    HW122841   1.969   2.914  11.998  1.0257  0.2550  0.6726
 3794SOL    HW222842   2.006   3.017  12.099  0.4341 -0.5934  0.9842
 3795SOL     OW22843   3.821   0.940  14.934 -0.1792  0.1168  0.2025
 3795SOL    HW122844   3.896   0.990  14.966  0.3659  0.2804 -1.3378
 3795SOL    HW222845   3.814   0.875  15.004  0.5698  0.2556  0.3967
 3796SOL     OW22846   2.261   0.803  12.434  0.3822 -0.3432  1.1609
 3796SOL    HW122847   2.216   0.829  12.514 -1.4854  0.5208 -0.1554
 3796SOL    HW222848   2.261   0.708  12.450  1.3501 -0.8430 -1.7824
 3797SOL     OW22849   0.611   4.279   8.070  0.0869  0.0908  0.6022
 3797SOL    HW122850   0.527   4.275   8.116 -0.2609 -2.0086 -0.2243
 3797SOL    HW222851   0.597   4.341   7.998 -1.9353 -1.7076 -0.5415
 3798SOL     OW22852   1.968   2.439   7.479 -0.0362  0.3159 -0.0151
 3798SOL    HW122853   2.008   2.514   7.435  1.3384 -1.0765 -1.1490
 3798SOL    HW222854   1.987   2.458   7.571 -2.3615 -2.1419  1.0010
 3799SOL     OW22855   2.649   0.493   1.339 -0.3139  0.3614  0.0961
 3799SOL    HW122856   2.642   0.588   1.340  2.4939  0.5594 -0.1639
 3799SOL    HW222857   2.663   0.494   1.433  1.4868  1.1664 -0.1806
 3800SOL     OW22858   3.802   1.887  16.050 -0.0890 -0.0434 -0.0503
 3800SOL    HW122859   3.809   1.961  16.111  1.5783 -1.1811  1.1495
 3800SOL    HW222860   3.859   1.817  16.080  0.6760  0.2872 -0.7463
 3801SOL     OW22861   3.599   2.123   4.279  0.3742 -1.0648 -0.6431
 3801SOL    HW122862   3.547   2.054   4.320  2.4944 -1.7022  0.9579
 3801SOL    HW222863   3.685   2.105   4.315 -0.1135  1.4170  1.8057
 3802SOL     OW22864   3.732   0.668   4.739 -0.0309 -0.3468 -0.0278
 3802SOL    HW122865   3.800   0.729   4.710 -0.5595  0.7731  1.0911
 3802SOL    HW222866   3.669   0.667   4.667 -0.0325 -3.7380  0.0283
 3803SOL     OW22867   2.492   2.190   3.643 -0.2510  0.1395 -0.0945
 3803SOL    HW122868   2.460   2.257   3.583 -0.1305  0.4548  0.1906
 3803SOL    HW222869   2.429   2.118   3.652  0.6479 -0.6817 -0.2845
 3804SOL     OW22870   0.259   3.153   9.709  0.3466 -0.5653  0.5776
 3804SOL    HW122871   0.182   3.149   9.652 -1.4383 -0.8629  2.9881
 3804SOL    HW222872   0.281   3.244   9.690  0.4089 -0.2335  2.2361
 3805SOL     OW22873   3.868   3.275   7.371  0.6129 -0.3105 -0.8793
 3805SOL    HW122874   3.807   3.209   7.405 -0.6071  0.6164 -1.2576
 3805SOL    HW222875   3.815   3.347   7.337  0.5059 -0.3362 -0.7687
 3806SOL     OW22876   4.151   2.830   2.116  0.1211  0.1696  0.5145
 3806SOL    HW122877   4.225   2.775   2.093  0.0309  0.0595  0.4862
 3806SOL    HW222878   4.153   2.911   2.065  1.2524 -0.0763  0.1945
 3807SOL     OW22879   1.763   4.406   6.447 -0.3848 -0.1331 -0.0360
 3807SOL    HW122880   1.849   4.378   6.479 -0.1545  0.1186 -0.4302
 3807SOL    HW222881   1.792   4.460   6.374  0.6926 -0.1216  0.4027
 3808SOL     OW22882   0.992   4.056   2.927  0.1541  0.1213 -0.4496
 3808SOL    HW122883   0.971   4.027   2.838 -0.3974  1.1202 -0.6526
 3808SOL    HW222884   1.056   4.126   2.916 -1.5891  1.9959  1.2531
 3809SOL     OW22885   0.918   3.299   8.547  0.2072  0.1177  0.1750
 3809SOL    HW122886   0.855   3.280   8.477  1.8803 -1.1917 -0.9745
 3809SOL    HW222887   0.912   3.220   8.600 -0.9467  1.2521  1.7209
 3810SOL     OW22888   3.020   3.936   6.549  0.3056 -0.5411  0.3034
 3810SOL    HW122889   3.002   4.028   6.531  0.7019 -0.5903 -0.3407
 3810SOL    HW222890   2.949   3.885   6.509  0.5955 -0.0958 -0.7640
 3811SOL     OW22891   2.494   1.350   6.161  0.6276  0.1585 -0.1133
 3811SOL    HW122892   2.559   1.306   6.215  1.1385  0.5610 -0.4000
 3811SOL    HW222893   2.410   1.304   6.164 -0.4084  2.0065 -0.8366
 3812SOL     OW22894   1.887   0.274   3.583  0.2846 -0.2422  0.1749
 3812SOL    HW122895   1.943   0.251   3.509  0.5307  2.4114 -0.4685
 3812SOL    HW222896   1.877   0.184   3.613 -0.2175 -1.3107 -3.1264
 3813SOL     OW22897   3.873   1.451   2.696  0.0576 -0.0996  0.0638
 3813SOL    HW122898   3.907   1.366   2.669  1.7293  0.6472 -0.2067
 3813SOL    HW222899   3.784   1.427   2.719 -0.4483  1.9521  0.2416
 3814SOL     OW22900   3.446   0.704  14.625  0.3975 -0.1694  0.2830
 3814SOL    HW122901   3.479   0.614  14.627 -0.1866 -0.3914 -0.0446
 3814SOL    HW222902   3.479   0.745  14.545  0.1636  0.1086  0.3329
 3815SOL     OW22903   0.590   1.012   6.490 -0.0829  0.0888 -0.4421
 3815SOL    HW122904   0.505   0.969   6.493  0.6990 -1.4602 -0.7930
 3815SOL    HW222905   0.615   1.004   6.398 -2.1062 -1.7333 -0.8148
 3816SOL     OW22906   2.483   2.528   7.356 -0.4810 -0.2374  0.0195
 3816SOL    HW122907   2.428   2.482   7.293  0.7371  0.8456 -1.8335
 3816SOL    HW222908   2.416   2.586   7.393  1.0746  0.7679  1.2622
 3817SOL     OW22909   2.536   1.943   7.711 -0.1648 -0.5585  0.4496
 3817SOL    HW122910   2.565   1.911   7.626 -1.0525 -0.5515  0.1435
 3817SOL    HW222911   2.485   1.865   7.734  0.2310 -0.5696  1.2976
 3818SOL     OW22912   3.768   3.615   8.180  0.3143 -0.1398  0.1529
 3818SOL    HW122913   3.692   3.558   8.179  0.1813  0.0125  0.9470
 3818SOL    HW222914   3.721   3.698   8.175 -0.2134 -0.4551 -0.0536
 3819SOL     OW22915   1.812   2.269   3.765  0.0168  0.0534 -0.4076
 3819SOL    HW122916   1.815   2.320   3.684 -0.6857  1.2138  0.3022
 3819SOL    HW222917   1.857   2.188   3.741 -1.1828 -0.6483 -0.2354
 3820SOL     OW22918   2.719   0.950   0.408 -0.1976 -0.0545 -0.0935
 3820SOL    HW122919   2.719   0.990   0.495  1.6401  0.2014 -0.2061
 3820SOL    HW222920   2.712   1.023   0.347  0.3296 -0.0753 -0.1777
 3821SOL     OW22921   1.137   0.941   4.231  0.1980 -0.0251 -0.1139
 3821SOL    HW122922   1.098   0.884   4.297  1.2592 -3.0075 -2.0540
 3821SOL    HW222923   1.069   1.009   4.225  1.4083  1.0792 -1.3870
 3822SOL     OW22924   2.878   4.483   6.545 -0.2125  0.4801  0.6361
 3822SOL    HW122925   2.883   4.542   6.469 -4.2840  0.2154  0.1609
 3822SOL    HW222926   2.948   4.523   6.597  1.0476 -1.3257  0.3107
 3823SOL     OW22927   2.231   2.751   6.962 -0.3382  0.1085 -0.0985
 3823SOL    HW122928   2.203   2.699   6.886  1.7138  0.0746 -0.8363
 3823SOL    HW222929   2.283   2.815   6.913  1.6225  0.7840  2.8439
 3824SOL     OW22930   1.080   4.451   0.535  0.1740  0.2833 -0.0806
 3824SOL    HW122931   1.089   4.543   0.508 -0.5299  0.4926  0.3985
 3824SOL    HW222932   1.097   4.469   0.627 -0.6745  0.1493  0.1026
 3825SOL     OW22933   4.270   1.774   7.036 -0.2374  1.0460  0.3434
 3825SOL    HW122934   4.266   1.709   6.966 -0.2544 -0.1878  1.4834
 3825SOL    HW222935   4.342   1.740   7.089  0.9726  2.6369 -0.2938
 3826SOL     OW22936   3.009   1.204   3.024 -0.2022 -0.7808  0.1180
 3826SOL    HW122937   2.950   1.173   3.093  0.0338 -3.6691 -0.9702
 3826SOL    HW222938   3.087   1.227   3.074 -0.6548  0.1150  0.4132
 3827SOL     OW22939   0.612   1.505   7.054 -0.4810  0.1192 -0.1091
 3827SOL    HW122940   0.671   1.530   7.125 -1.1655 -0.0811  0.5236
 3827SOL    HW222941   0.666   1.496   6.974  0.4960  1.3064  0.4190
 3828SOL     OW22942   2.088   1.494   5.278  0.0159  0.1157 -0.1772
 3828SOL    HW122943   2.119   1.451   5.198 -0.7862 -2.5766  0.9543
 3828SOL    HW222944   2.038   1.422   5.315 -1.4560  0.7701 -0.8988
 3829SOL     OW22945   4.105   2.570   2.565  0.6036  0.3454 -0.4237
 3829SOL    HW122946   4.018   2.559   2.603 -0.3775 -0.7292 -2.9963
 3829SOL    HW222947   4.082   2.610   2.482  1.8593  0.8795 -0.5137
 3830SOL     OW22948   2.965   2.475   9.607 -0.3444  0.3778  0.1150
 3830SOL    HW122949   2.916   2.434   9.535  2.9657  0.8624 -2.4387
 3830SOL    HW222950   2.983   2.405   9.669  2.7058 -0.8367 -2.1128
 3831SOL     OW22951   4.664   2.386  12.682 -0.4864 -0.0705  0.5431
 3831SOL    HW122952   4.707   2.355  12.762  2.2341 -0.4242 -1.0485
 3831SOL    HW222953   4.620   2.311  12.642 -0.5457  0.2288  0.0440
 3832SOL     OW22954   1.186   1.857  15.098 -0.1217  0.0365 -0.4585
 3832SOL    HW122955   1.279   1.858  15.121 -0.3016 -0.1323  0.2686
 3832SOL    HW222956   1.138   1.893  15.172  1.2234  2.3475 -0.6857
 3833SOL     OW22957   0.668   2.591   5.966 -0.2372  0.0262 -0.0287
 3833SOL    HW122958   0.735   2.635   6.018  1.0584 -0.4929 -1.2716
 3833SOL    HW222959   0.589   2.615   6.015  0.2209 -1.4827  1.4250
 3834SOL     OW22960   0.375   3.649  12.579  0.1740  0.1753  0.4216
 3834SOL    HW122961   0.406   3.738  12.562 -0.2187  0.2474  0.0915
 3834SOL    HW222962   0.413   3.601  12.505  0.2292  1.2328 -0.2269
 3835SOL     OW22963   3.491   2.517   4.935 -0.5693  0.6817  0.1538
 3835SOL    HW122964   3.511   2.607   4.911 -1.5416  0.2764 -2.1788
 3835SOL    HW222965   3.558   2.471   4.885 -0.8034 -1.7113  2.0375
 3836SOL     OW22966   3.056   4.385   6.103 -0.2723  0.1886  0.6362
 3836SOL    HW122967   3.086   4.382   6.194  0.4477 -0.5174  0.3790
 3836SOL    HW222968   3.112   4.455   6.069 -1.4393  0.2443 -1.1565
 3837SOL     OW22969   4.452   1.075   9.432 -0.2298 -0.3316 -0.6571
 3837SOL    HW122970   4.533   1.113   9.464 -0.4968  0.1457 -0.5456
 3837SOL    HW222971   4.384   1.135   9.463 -0.8352 -0.8684 -0.9432
 3838SOL     OW22972   0.355   0.095   3.230 -0.1546 -0.2289  0.0300
 3838SOL    HW122973   0.373   0.177   3.184 -1.3068  0.9921  1.7590
 3838SOL    HW222974   0.407   0.032   3.180  1.9721  0.3761  1.4603
 3839SOL     OW22975   2.383   0.423   4.156 -0.4585 -0.2532  0.5335
 3839SOL    HW122976   2.312   0.480   4.184 -1.3155 -0.7448 -0.6596
 3839SOL    HW222977   2.347   0.376   4.080  2.3280  0.7350 -1.4002
 3840SOL     OW22978   0.669   1.622   0.147  0.0054 -0.3124  0.4878
 3840SOL    HW122979   0.660   1.679   0.071 -0.6067 -1.5628 -0.3824
 3840SOL    HW222980   0.670   1.686   0.218 -0.2594  0.8107 -0.5305
 3841SOL     OW22981   0.204   0.474   2.616 -0.0115 -0.1871  0.6450
 3841SOL    HW122982   0.152   0.511   2.545  0.0858 -3.0932 -0.9258
 3841SOL    HW222983   0.174   0.532   2.686 -1.3076  1.1752 -1.0438
 3842SOL     OW22984   0.982   1.232   4.662 -0.5051 -0.3693 -0.1440
 3842SOL    HW122985   0.924   1.176   4.715 -2.3724  3.3586  1.7627
 3842SOL    HW222986   1.035   1.281   4.725 -0.9771 -0.0661  0.0148
 3843SOL     OW22987   4.007   0.484   7.684  0.2443 -0.0920 -0.0998
 3843SOL    HW122988   3.973   0.549   7.747 -0.8087 -0.5781 -0.1572
 3843SOL    HW222989   3.989   0.536   7.605 -3.3397  0.0720  0.8059
 3844SOL     OW22990   1.854   3.451   9.645  0.6551  0.3959 -0.3062
 3844SOL    HW122991   1.762   3.427   9.630  0.0714  2.8395 -0.6880
 3844SOL    HW222992   1.857   3.530   9.698  0.4676 -0.3858  0.8652
 3845SOL     OW22993   1.332   2.304   1.267 -1.0179 -0.6387  0.0726
 3845SOL    HW122994   1.315   2.282   1.359 -2.7817  0.9957  0.1343
 3845SOL    HW222995   1.314   2.398   1.272  1.7480 -0.1789  1.2291
 3846SOL     OW22996   0.066   2.864   4.960 -0.5228  0.0133 -0.6715
 3846SOL    HW122997   0.033   2.952   4.981 -1.8576 -1.0484  1.7835
 3846SOL    HW222998   0.107   2.880   4.876 -0.2395  0.9926 -0.3454
 3847SOL     OW22999   1.217   2.828   8.828  0.2723  0.0589  0.0132
 3847SOL    HW123000   1.210   2.905   8.885  0.7882 -0.7259  1.1443
 3847SOL    HW223001   1.203   2.861   8.740  0.0392  0.0893  0.0624
 3848SOL     OW23002   0.266   4.039   9.393 -0.3612  0.0258 -0.4857
 3848SOL    HW123003   0.342   4.024   9.449 -0.4530  1.7665  0.0923
 3848SOL    HW223004   0.259   3.952   9.354  1.0784 -1.0511  1.6792
 3849SOL     OW23005   2.753   0.897   7.172  0.3666  0.5698 -0.5844
 3849SOL    HW123006   2.841   0.916   7.203 -0.3959 -0.9357  2.4511
 3849SOL    HW223007   2.731   0.985   7.140  0.8408  0.3092 -1.6116
 3850SOL     OW23008   0.792   2.476   7.735 -0.4800 -0.2032  0.2005
 3850SOL    HW123009   0.788   2.557   7.785 -0.2428 -0.2965  0.3661
 3850SOL    HW223010   0.713   2.477   7.680 -0.2508 -0.6003 -0.1381
 3851SOL     OW23011   2.776   0.785   8.124  0.4315 -0.0493  0.2238
 3851SOL    HW123012   2.838   0.811   8.191  0.4378  1.6101 -0.4214
 3851SOL    HW223013   2.692   0.825   8.148  1.0013  1.4661 -0.2754
 3852SOL     OW23014   2.920   1.567  17.232  0.1929  0.2583 -0.2773
 3852SOL    HW123015   2.968   1.484  17.239  0.3980  0.5511  1.5594
 3852SOL    HW223016   2.977   1.618  17.176  0.5905 -0.2957 -0.3787
 3853SOL     OW23017   0.986   3.695  15.787 -0.0171 -0.5556  0.1034
 3853SOL    HW123018   0.900   3.699  15.746  0.4774 -0.2208 -0.9021
 3853SOL    HW223019   0.981   3.745  15.868 -1.1582  1.0651 -0.9660
 3854SOL     OW23020   1.088   2.559   3.912 -0.1034  0.0577 -0.7192
 3854SOL    HW123021   1.139   2.485   3.943  0.6185  0.6388 -0.5377
 3854SOL    HW223022   1.138   2.601   3.842 -0.2086 -1.3938 -1.6753
 3855SOL     OW23023   0.678   4.337   9.192  0.0076 -0.5371 -0.5404
 3855SOL    HW123024   0.613   4.277   9.156  1.0053 -0.6705 -2.1418
 3855SOL    HW223025   0.696   4.384   9.110 -1.7529  1.0401 -0.0286
 3856SOL     OW23026   3.243   1.261   5.267 -0.8026 -0.4373 -0.8224
 3856SOL    HW123027   3.247   1.312   5.348  0.8580 -0.8302 -0.6466
 3856SOL    HW223028   3.322   1.208   5.282 -0.1849 -0.2841 -3.5942
 3857SOL     OW23029   1.325   3.603   4.286  0.0297  0.1704  0.0716
 3857SOL    HW123030   1.266   3.573   4.217  0.1475  0.1155 -0.0029
 3857SOL    HW223031   1.268   3.638   4.355 -0.4665 -0.9016  0.2063
 3858SOL     OW23032   0.374   1.319   7.540  0.0078 -0.0345 -0.3182
 3858SOL    HW123033   0.357   1.412   7.557  0.8407  0.6068 -3.1283
 3858SOL    HW223034   0.399   1.292   7.629  1.8135  0.3081 -0.7281
 3859SOL     OW23035   3.518   1.404   5.470  0.0082 -0.1811  0.2858
 3859SOL    HW123036   3.531   1.414   5.376  3.4512  0.4237  0.7967
 3859SOL    HW223037   3.423   1.403   5.474 -0.0056 -0.6286 -0.0594
 3860SOL     OW23038   4.262   2.584   3.008  0.1135 -0.0487 -0.4122
 3860SOL    HW123039   4.308   2.515   2.960 -1.8452 -0.3501 -1.8821
 3860SOL    HW223040   4.214   2.638   2.945  1.1381  1.4733  0.1105
 3861SOL     OW23041   4.684   3.163   3.367 -0.3276  0.1061 -0.6075
 3861SOL    HW123042   4.628   3.228   3.409  1.2736  1.3702 -0.4281
 3861SOL    HW223043   4.635   3.127   3.293 -0.2839  1.8796 -1.5035
 3862SOL     OW23044   4.083   1.959   2.910 -0.1316 -0.4490 -0.2757
 3862SOL    HW123045   4.041   1.910   2.839  1.5064  1.3675 -2.4985
 3862SOL    HW223046   4.036   1.921   2.984 -1.1206 -0.5796 -0.9754
 3863SOL     OW23047   3.265   0.005  13.542 -0.1481  0.2316  0.2390
 3863SOL    HW123048   3.359   4.708  13.542 -0.1331  0.3041 -0.8089
 3863SOL    HW223049   3.244   0.000  13.636 -0.3389  0.0851  0.1895
 3864SOL     OW23050   4.626   2.782   4.648  0.1477 -0.2775 -0.3796
 3864SOL    HW123051   4.547   2.797   4.701  0.5240 -1.9653  0.6439
 3864SOL    HW223052   4.582   2.786   4.562 -0.0831  3.2669 -0.1200
 3865SOL     OW23053   3.369   0.426   5.709  0.3050  0.3008 -0.2253
 3865SOL    HW123054   3.386   0.332   5.701 -2.5549  0.0328 -3.1262
 3865SOL    HW223055   3.284   0.434   5.667  1.4513  2.6753 -2.1163
 3866SOL     OW23056   4.713   1.814   0.406 -0.2856 -0.1962 -0.3063
 3866SOL    HW123057   4.693   1.740   0.464  1.0707  0.5017  1.0285
 3866SOL    HW223058   0.085   1.825   0.415 -0.4764  1.0045  0.2096
 3867SOL     OW23059   3.909   3.180   9.532 -0.5156  0.2037 -0.4205
 3867SOL    HW123060   3.973   3.110   9.520  0.1354  1.0780 -2.1146
 3867SOL    HW223061   3.832   3.135   9.496 -0.5854  0.0646 -0.0944
 3868SOL     OW23062   0.838   2.957   6.127 -0.5233 -0.0610  0.3931
 3868SOL    HW123063   0.827   2.863   6.142 -0.7551  0.3051  2.5535
 3868SOL    HW223064   0.804   2.966   6.038 -0.2456 -1.2931  0.1584
 3869SOL     OW23065   2.042   3.495   6.882  0.1220  0.1820 -0.3583
 3869SOL    HW123066   2.058   3.517   6.974  1.5325 -1.9111 -0.1229
 3869SOL    HW223067   2.026   3.401   6.889 -0.6756  0.3854  0.6248
 3870SOL     OW23068   0.277   2.543   8.954  0.5633  0.8419  0.5480
 3870SOL    HW123069   0.299   2.522   8.863 -2.1916 -1.4393  0.3971
 3870SOL    HW223070   0.244   2.633   8.952  0.3244  0.6998 -1.8095
 3871SOL     OW23071   4.321   0.603   7.167 -0.0560  0.7009  0.1367
 3871SOL    HW123072   4.386   0.589   7.236  0.1811  1.9347  0.1679
 3871SOL    HW223073   4.264   0.536   7.206  0.5974  1.0488  1.7030
 3872SOL     OW23074   4.463   0.068   2.872 -0.0115 -0.5366  0.7588
 3872SOL    HW123075   4.371   0.079   2.893 -0.1686 -0.5538  0.0777
 3872SOL    HW223076   4.505   0.155   2.871  0.5365 -0.8058 -0.5870
 3873SOL     OW23077   3.825   0.390   6.691  0.1476  0.1226 -0.5258
 3873SOL    HW123078   3.779   0.345   6.621 -1.1723  0.2529  0.2568
 3873SOL    HW223079   3.783   0.475   6.701  1.5608  0.6867  0.6418
 3874SOL     OW23080   4.113   3.393   1.795  0.0952  0.3267 -0.2020
 3874SOL    HW123081   4.127   3.465   1.856  0.3382 -0.2001  0.3666
 3874SOL    HW223082   4.120   3.435   1.709 -1.0301  0.3727 -0.2759
 3875SOL     OW23083   2.158   3.934   3.362 -0.4470 -0.2469 -0.0645
 3875SOL    HW123084   2.159   4.024   3.393  0.7623 -0.2180 -0.1599
 3875SOL    HW223085   2.171   3.890   3.446 -1.5075 -0.6441 -0.1202
 3876SOL     OW23086   4.005   1.447  12.809 -0.0635  0.3317  0.5546
 3876SOL    HW123087   3.949   1.485  12.876 -1.7131  1.6717 -1.5571
 3876SOL    HW223088   3.969   1.478  12.725  1.9570 -0.3153 -0.5473
 3877SOL     OW23089   0.468   0.464   5.770  0.1608  0.2574  0.0122
 3877SOL    HW123090   0.456   0.522   5.845 -1.2788 -0.4091  0.3078
 3877SOL    HW223091   0.475   0.514   5.688  0.0492  0.3425  0.0554
 3878SOL     OW23092   2.360   2.716   2.034  0.3489 -0.3012  0.2839
 3878SOL    HW123093   2.392   2.672   1.956 -2.4249 -0.3218 -0.8501
 3878SOL    HW223094   2.419   2.669   2.094 -0.2971 -2.0857 -0.4614
 3879SOL     OW23095   2.615   4.193   8.086 -0.0593  0.4313 -0.3380
 3879SOL    HW123096   2.543   4.236   8.040 -0.6209 -0.7209 -0.5270
 3879SOL    HW223097   2.664   4.270   8.115  1.6814 -0.7958 -0.0728
 3880SOL     OW23098   2.229   3.352  10.532  0.0511  0.1028 -0.0924
 3880SOL    HW123099   2.244   3.420  10.466  0.7445  0.9621  0.9443
 3880SOL    HW223100   2.303   3.295  10.514  0.0465 -0.2651  1.0487
 3881SOL     OW23101   0.317   1.767  16.256  0.5618 -0.8163 -0.4182
 3881SOL    HW123102   0.331   1.715  16.176  0.1761  0.7528 -1.5008
 3881SOL    HW223103   0.398   1.816  16.263  0.5849 -0.9571  0.2595
 3882SOL     OW23104   3.129   2.045  10.616  0.1117 -0.0386  0.0761
 3882SOL    HW123105   3.158   1.983  10.550 -1.4358 -2.7239  1.9162
 3882SOL    HW223106   3.217   2.075  10.642  0.3227 -1.5786  1.1856
 3883SOL     OW23107   0.503   0.946   6.829 -0.5694  0.1760 -0.6667
 3883SOL    HW123108   0.437   0.932   6.897  1.2244 -3.1716  0.3985
 3883SOL    HW223109   0.570   0.996   6.874 -0.9657  1.8983 -2.0151
 3884SOL     OW23110   4.468   0.242  15.492  0.0487 -0.2748 -0.0704
 3884SOL    HW123111   4.411   0.185  15.440  0.7817 -0.8771 -0.2165
 3884SOL    HW223112   4.421   0.245  15.575 -0.8459 -1.4210 -0.5457
 3885SOL     OW23113   3.631   3.495   5.060  0.2799  0.3170 -0.1665
 3885SOL    HW123114   3.557   3.531   5.109 -0.5207  1.0491 -1.9065
 3885SOL    HW223115   3.660   3.423   5.116 -0.3426  1.0743  1.1404
 3886SOL     OW23116   3.088   1.343   0.575  0.2497 -0.4372 -0.0674
 3886SOL    HW123117   3.068   1.419   0.628  0.3136 -0.6314  0.2359
 3886SOL    HW223118   3.090   1.276   0.643 -4.0506 -1.2408 -0.7472
 3887SOL     OW23119   2.321   1.688   5.080 -0.2535  0.1524 -0.4305
 3887SOL    HW123120   2.232   1.723   5.088  0.0768  0.7596  0.6070
 3887SOL    HW223121   2.349   1.703   4.990  0.2999  0.1410 -0.2648
 3888SOL     OW23122   4.324   3.515  13.327 -0.6765 -0.0564 -0.7771
 3888SOL    HW123123   4.282   3.601  13.331  1.4932  0.8325  2.3139
 3888SOL    HW223124   4.249   3.456  13.330  0.6615 -1.7352 -0.3627
 3889SOL     OW23125   1.322   2.719   3.136  0.1233  0.3726  0.0970
 3889SOL    HW123126   1.408   2.735   3.096 -0.4728  2.8284 -0.2252
 3889SOL    HW223127   1.273   2.799   3.115  1.5887  0.4798 -2.9817
 3890SOL     OW23128   4.228   2.062   5.749 -0.0783  0.1876  0.0554
 3890SOL    HW123129   4.164   2.090   5.814  0.0775  0.9955 -0.1321
 3890SOL    HW223130   4.185   2.076   5.665  2.8418  2.7775 -1.0348
 3891SOL     OW23131   0.126   1.831   4.236  0.3829 -0.0763  0.7025
 3891SOL    HW123132   0.129   1.799   4.326 -1.5843 -2.4605 -0.0970
 3891SOL    HW223133   0.158   1.920   4.255  0.6963 -0.0512  0.0526
 3892SOL     OW23134   0.510   2.153  17.542  0.4419 -0.2048 -0.2402
 3892SOL    HW123135   0.563   2.192  17.611 -1.2058 -2.0840  2.0868
 3892SOL    HW223136   0.467   2.231  17.506 -1.0655  0.1710  2.3990
 3893SOL     OW23137   1.745   1.616   9.921  0.3415 -0.0718 -0.4022
 3893SOL    HW123138   1.751   1.557   9.997 -0.7394 -0.4451 -0.6032
 3893SOL    HW223139   1.706   1.699   9.948  3.0159  1.1651 -0.3990
 3894SOL     OW23140   2.317   4.446  12.673 -0.4650  0.4750  0.1924
 3894SOL    HW123141   2.312   4.515  12.607  0.7709  1.1363  0.7940
 3894SOL    HW223142   2.242   4.389  12.660 -1.1654  1.5140 -0.3290
 3895SOL     OW23143   2.393   2.284  12.493 -0.2035  0.3538 -0.8290
 3895SOL    HW123144   2.408   2.268  12.399  2.3821 -2.7183  0.0955
 3895SOL    HW223145   2.385   2.379  12.494 -1.1711  0.2596 -0.4958
 3896SOL     OW23146   3.078   3.241  14.449 -0.2073 -0.2252  0.3744
 3896SOL    HW123147   3.051   3.333  14.443 -1.1087 -0.3631  2.4210
 3896SOL    HW223148   3.041   3.206  14.530 -0.3694 -1.7815 -0.3865
 3897SOL     OW23149   1.552   3.178   7.377 -0.3772 -0.4474 -0.2806
 3897SOL    HW123150   1.590   3.123   7.445 -1.8740 -0.8236  0.2473
 3897SOL    HW223151   1.576   3.268   7.400 -0.3829 -0.5811  0.2636
 3898SOL     OW23152   4.597   2.265  13.700 -0.0333 -0.1052 -0.7581
 3898SOL    HW123153   4.572   2.323  13.628 -1.2459  2.5406  1.8017
 3898SOL    HW223154   4.683   2.236  13.671  0.3446  0.6125 -0.3424
 3899SOL     OW23155   4.131   2.151   7.580 -0.0720  0.5968 -0.0939
 3899SOL    HW123156   4.053   2.096   7.581  0.2516  0.1781  1.3343
 3899SOL    HW223157   4.193   2.079   7.590 -0.4541  0.1743 -0.8088
 3900SOL     OW23158   2.333   0.425  13.099 -0.2854  0.0615 -0.2669
 3900SOL    HW123159   2.238   0.439  13.107 -0.2969  0.3405 -0.9047
 3900SOL    HW223160   2.335   0.344  13.149 -0.1290  0.6056  0.6050
 3901SOL     OW23161   3.520   3.581   5.740 -0.1437 -0.3625  0.2668
 3901SOL    HW123162   3.453   3.649   5.746  0.3423  0.0792  0.6848
 3901SOL    HW223163   3.596   3.627   5.776 -1.0914  0.3147  1.3962
 3902SOL     OW23164   3.777   0.384  10.929  0.5881  0.2407 -0.0204
 3902SOL    HW123165   3.692   0.426  10.914  0.1386 -1.2970 -1.8415
 3902SOL    HW223166   3.811   0.440  10.998  1.6926 -0.5977  0.1073
 3903SOL     OW23167   0.527   2.799   1.757 -0.6407  0.3201  0.0005
 3903SOL    HW123168   0.601   2.786   1.698 -1.7399  0.8496 -1.5048
 3903SOL    HW223169   0.505   2.887   1.725  0.1776  1.2923  2.0972
 3904SOL     OW23170   1.416   0.265   0.009 -0.5501  0.0424  0.0059
 3904SOL    HW123171   1.368   0.325   0.065 -2.5808 -0.4555 -1.1950
 3904SOL    HW223172   1.508   0.272   0.034 -0.3473  1.8538 -1.2510
 3905SOL     OW23173   4.167   3.662   3.025 -0.0212 -0.5744 -0.5202
 3905SOL    HW123174   4.118   3.627   3.099 -1.3771 -0.1895 -1.2306
 3905SOL    HW223175   4.245   3.606   3.028  0.5086  0.1781 -0.3765
 3906SOL     OW23176   3.923   3.870   7.045  0.3913  0.1096  0.0841
 3906SOL    HW123177   3.975   3.874   7.126 -0.1657  0.1840  0.4328
 3906SOL    HW223178   3.921   3.775   7.027 -1.3789  0.0109  0.9170
 3907SOL     OW23179   0.170   1.028  14.226  0.1045 -0.8095 -0.4478
 3907SOL    HW123180   0.223   1.079  14.165  1.1888 -0.7368  0.5539
 3907SOL    HW223181   0.104   0.995  14.164 -0.6082  0.1903 -0.2226
 3908SOL     OW23182   1.790   4.425   3.169 -0.1683  0.0900 -0.3433
 3908SOL    HW123183   1.757   4.513   3.152  0.9006  0.7153  0.7722
 3908SOL    HW223184   1.750   4.371   3.101 -0.4052 -1.0493  0.7084
 3909SOL     OW23185   3.812   3.902   7.403 -0.3314  0.0051 -0.3222
 3909SOL    HW123186   3.795   3.923   7.495 -0.6752  2.8507 -1.0300
 3909SOL    HW223187   3.751   3.955   7.352 -0.3545  0.6673  0.3944
 3910SOL     OW23188   3.517   2.276  15.430  0.4917 -0.3489 -0.1616
 3910SOL    HW123189   3.489   2.225  15.506 -0.1276  0.7643  0.3460
 3910SOL    HW223190   3.594   2.325  15.458 -0.5837  1.4723 -0.4034
 3911SOL     OW23191   2.406   4.614   7.538 -0.2321 -0.1330 -0.0726
 3911SOL    HW123192   2.469   4.646   7.474 -0.7737  0.1775 -0.4416
 3911SOL    HW223193   2.357   4.559   7.478  0.3229  0.2097 -0.8297
 3912SOL     OW23194   3.673   1.711   5.195  0.0177 -0.2602 -0.4758
 3912SOL    HW123195   3.635   1.794   5.225  1.4274 -0.3555  1.6068
 3912SOL    HW223196   3.734   1.706   5.269 -1.3858 -1.5640  0.5917
 3913SOL     OW23197   2.841   3.246  11.802 -0.1062 -0.0850  0.1860
 3913SOL    HW123198   2.904   3.253  11.730  2.7743 -1.0876  2.6308
 3913SOL    HW223199   2.877   3.189  11.870  0.9883  0.6885  0.2525
 3914SOL     OW23200   2.839   0.857  13.393  0.2368  0.0804 -0.0143
 3914SOL    HW123201   2.909   0.840  13.457 -2.0625 -1.8847  1.9807
 3914SOL    HW223202   2.870   0.819  13.310 -1.6496 -0.4891 -0.4465
 3915SOL     OW23203   0.294   0.652  12.828 -0.0323  0.4296  0.5517
 3915SOL    HW123204   0.312   0.558  12.832 -1.3749  0.2169  1.4791
 3915SOL    HW223205   0.294   0.682  12.919  1.7015 -1.2230  1.1025
 3916SOL     OW23206   4.404   3.773   7.640  0.0822  0.1930 -0.2137
 3916SOL    HW123207   4.348   3.716   7.694 -1.2635  2.0384  0.3743
 3916SOL    HW223208   4.424   3.845   7.700  1.0562  1.8318 -2.5522
 3917SOL     OW23209   1.380   3.608   3.295  0.3450  0.1464 -0.2242
 3917SOL    HW123210   1.473   3.604   3.317 -0.0496 -0.1317  1.3763
 3917SOL    HW223211   1.355   3.516   3.297 -1.3254  0.5468 -2.3068
 3918SOL     OW23212   3.125   4.198   7.110  0.5010 -0.2006 -0.3444
 3918SOL    HW123213   3.159   4.111   7.089  1.0504 -0.6032  2.1566
 3918SOL    HW223214   3.036   4.176   7.137  1.0343 -1.3092  0.5085
 3919SOL     OW23215   0.860   0.252   7.277 -0.2623 -0.1169 -0.2598
 3919SOL    HW123216   0.940   0.271   7.228 -0.6860 -2.2485 -1.7567
 3919SOL    HW223217   0.887   0.162   7.296  0.6153  0.0391 -0.7457
 3920SOL     OW23218   2.151   0.337   8.806 -0.2351  0.1154 -0.1080
 3920SOL    HW123219   2.233   0.381   8.784 -1.7820  1.5147 -3.1227
 3920SOL    HW223220   2.142   0.269   8.739 -0.2478  0.0393 -0.0294
 3921SOL     OW23221   0.201   1.624  16.739  0.0893  0.5103 -0.4553
 3921SOL    HW123222   0.176   1.709  16.703 -1.1207 -0.3647 -1.6589
 3921SOL    HW223223   0.169   1.631  16.829  1.0636  1.5976 -0.1803
 3922SOL     OW23224   2.333   3.663  12.091 -0.1957 -0.1383 -0.6951
 3922SOL    HW123225   2.375   3.615  12.019 -1.2030 -2.4999  0.2943
 3922SOL    HW223226   2.375   3.748  12.086  0.7158 -0.5047  0.8824
 3923SOL     OW23227   3.431   0.951  10.471 -0.2703 -0.6696  0.5232
 3923SOL    HW123228   3.525   0.971  10.469 -0.8689  2.1173 -0.1612
 3923SOL    HW223229   3.440   0.858  10.488 -0.9069 -0.6148  1.1956
 3924SOL     OW23230   4.454   2.457   4.629  0.4046 -0.0696  0.6652
 3924SOL    HW123231   4.534   2.404   4.630  1.0246  0.8569  0.7465
 3924SOL    HW223232   4.486   2.537   4.587 -3.1345 -0.0322 -1.8916
 3925SOL     OW23233   2.429   4.437   1.831  0.4185 -0.1359 -0.1362
 3925SOL    HW123234   2.466   4.351   1.852  2.0846 -0.2522 -3.6248
 3925SOL    HW223235   2.344   4.402   1.807  1.7128 -2.2597 -1.6394
 3926SOL     OW23236   2.273   1.561  15.515  0.3009 -0.0268  0.3342
 3926SOL    HW123237   2.342   1.508  15.475 -2.3474  0.1790 -4.4604
 3926SOL    HW223238   2.295   1.647  15.478  0.8107  0.0072  0.7142
 3927SOL     OW23239   2.189   0.046  10.187 -0.4916  0.2596 -0.1285
 3927SOL    HW123240   2.283   0.037  10.198 -0.8496  0.4983  3.3239
 3927SOL    HW223241   2.178   0.109  10.116 -0.5669  1.6787  1.1380
 3928SOL     OW23242   2.036   0.453   1.507 -0.1181 -0.3259  0.7395
 3928SOL    HW123243   2.011   0.522   1.445 -0.8183 -2.6159 -1.5044
 3928SOL    HW223244   2.056   0.387   1.441  0.9174 -0.4808  1.2089
 3929SOL     OW23245   3.695   1.902   6.991 -0.4382  0.0889  0.2090
 3929SOL    HW123246   3.744   1.945   7.062 -0.3913 -1.6112  1.2101
 3929SOL    HW223247   3.680   1.975   6.932 -0.3258  0.5334  0.7292
 3930SOL     OW23248   1.209   4.293   5.398  0.4777  0.1129 -0.0978
 3930SOL    HW123249   1.241   4.375   5.435 -2.3986  0.8024  0.8528
 3930SOL    HW223250   1.118   4.305   5.424  0.9977  0.5870  1.4949
 3931SOL     OW23251   4.329   0.454   4.156  0.0871 -0.1951 -0.4655
 3931SOL    HW123252   4.333   0.465   4.061 -0.5815  0.6617 -0.3917
 3931SOL    HW223253   4.358   0.363   4.154  3.4623  0.8369  2.6914
 3932SOL     OW23254   1.499   0.802   9.180  0.3333  0.8626 -0.0344
 3932SOL    HW123255   1.451   0.840   9.253 -2.9907 -2.0046 -0.6979
 3932SOL    HW223256   1.590   0.814   9.207  0.5502  1.7810 -1.1720
 3933SOL     OW23257   4.012   1.129  13.368  0.3758 -0.1804 -0.4601
 3933SOL    HW123258   4.093   1.106  13.415  0.7947  0.0618 -1.0686
 3933SOL    HW223259   3.975   1.041  13.368  0.2020 -0.1019  0.9035
 3934SOL     OW23260   1.488   1.946  11.555 -0.5825 -0.2049 -0.4368
 3934SOL    HW123261   1.539   1.886  11.502  1.2608 -0.2296  1.3551
 3934SOL    HW223262   1.547   2.021  11.550  0.1905 -0.7502  0.4994
 3935SOL     OW23263   3.565   1.203   1.519 -0.1493  0.2864  0.6515
 3935SOL    HW123264   3.514   1.275   1.554 -0.1622  0.9496 -0.7383
 3935SOL    HW223265   3.622   1.237   1.450 -1.0767 -1.1487 -0.8273
 3936SOL     OW23266   1.254   1.068  16.742  0.3839  0.1601  0.1806
 3936SOL    HW123267   1.327   1.129  16.751  0.2833  0.6481 -2.2603
 3936SOL    HW223268   1.296   1.009  16.679  2.2714  0.1881  1.4092
 3937SOL     OW23269   3.092   1.310   9.194  0.2155  0.7665  0.2433
 3937SOL    HW123270   3.123   1.220   9.185 -0.9156  0.3932  0.0669
 3937SOL    HW223271   3.159   1.364   9.153 -1.1909  2.1323 -0.2402
 3938SOL     OW23272   2.568   4.163   1.065 -0.5468 -0.6509  0.1366
 3938SOL    HW123273   2.630   4.218   1.113  0.3051 -0.4427 -1.1766
 3938SOL    HW223274   2.492   4.193   1.114 -0.7402 -0.6369 -0.1689
 3939SOL     OW23275   2.718   4.031   6.991  0.1565 -0.1595  0.4613
 3939SOL    HW123276   2.728   3.960   6.927 -0.0649 -0.4367  0.7328
 3939SOL    HW223277   2.713   4.101   6.927  0.2412  0.8934  1.6104
 3940SOL     OW23278   0.366   2.926   2.858  0.2556 -0.4478 -0.0134
 3940SOL    HW123279   0.437   2.876   2.895 -0.6321 -0.2009  2.0007
 3940SOL    HW223280   0.379   3.014   2.893 -0.7393  0.5258 -2.0547
 3941SOL     OW23281   1.626   2.477   9.128  0.5143 -0.3152  0.1132
 3941SOL    HW123282   1.705   2.445   9.085 -0.9531 -2.6033 -0.8690
 3941SOL    HW223283   1.555   2.443   9.073  0.4803  0.8447 -0.5607
 3942SOL     OW23284   1.338   2.570   4.176 -0.2951 -1.0170 -0.1901
 3942SOL    HW123285   1.421   2.528   4.198 -0.5643 -0.6929  1.4395
 3942SOL    HW223286   1.294   2.510   4.117  0.5026  0.1370 -1.9423
 3943SOL     OW23287   0.334   3.522   6.200 -0.0708  0.6578 -0.4697
 3943SOL    HW123288   0.328   3.426   6.200 -1.0063  0.7251  1.0389
 3943SOL    HW223289   0.423   3.536   6.232 -0.0311  1.2147 -0.8251
 3944SOL     OW23290   2.566   3.496   4.034  0.2942  0.6041  0.2491
 3944SOL    HW123291   2.546   3.490   4.127  2.7736 -0.6390  0.6926
 3944SOL    HW223292   2.547   3.405   4.011  0.7782  0.9929 -1.7123
 3945SOL     OW23293   0.252   2.232  15.874 -0.0058 -0.4014  0.5327
 3945SOL    HW123294   0.237   2.326  15.882  0.6616 -0.3588  1.3285
 3945SOL    HW223295   0.216   2.207  15.789 -2.4333 -0.2374  1.5300
 3946SOL     OW23296   3.088   4.415  13.464 -0.7264 -0.3255  0.4006
 3946SOL    HW123297   3.121   4.493  13.508  0.4038  0.9186 -2.6644
 3946SOL    HW223298   3.015   4.390  13.520 -0.0723  1.0181  1.8523
 3947SOL     OW23299   4.020   4.430  14.239  0.1530  0.1437 -0.4436
 3947SOL    HW123300   4.022   4.345  14.283 -0.0660 -0.8013 -2.2560
 3947SOL    HW223301   3.988   4.411  14.150  1.3181 -0.8569 -0.6450
 3948SOL     OW23302   2.416   1.351   0.284 -0.0075 -0.4442 -0.1481
 3948SOL    HW123303   2.400   1.445   0.284 -0.2967 -0.4897  0.9612
 3948SOL    HW223304   2.355   1.327   0.213 -0.8614  1.0401  0.0937
 3949SOL     OW23305   1.805   3.799   4.672 -0.0025  0.2391  0.5915
 3949SOL    HW123306   1.900   3.794   4.669 -0.0718 -0.2774 -0.8068
 3949SOL    HW223307   1.796   3.833   4.761  0.8545 -2.4101  1.7147
 3950SOL     OW23308   1.464   2.209  13.296  0.1364 -0.4436  0.3819
 3950SOL    HW123309   1.542   2.263  13.283  0.4790 -1.3966 -1.5383
 3950SOL    HW223310   1.413   2.225  13.216  1.0364 -1.2389 -0.3490
 3951SOL     OW23311   0.743   1.067  12.473  0.0364 -0.1034 -0.4092
 3951SOL    HW123312   0.704   1.139  12.423  1.6463  1.3729  0.4478
 3951SOL    HW223313   0.753   1.001  12.405 -0.2568  0.3692 -0.9199
 3952SOL     OW23314   1.006   2.418   6.467  0.3373 -0.0396 -0.8676
 3952SOL    HW123315   0.925   2.468   6.478 -0.2031 -0.3725 -3.2066
 3952SOL    HW223316   1.053   2.431   6.549 -2.6358  2.0873  0.5309
 3953SOL     OW23317   2.000   0.216  12.971 -0.6740 -0.1404 -0.3870
 3953SOL    HW123318   1.917   0.257  12.943 -1.5473 -2.0795 -0.6331
 3953SOL    HW223319   2.054   0.293  12.990  1.1504 -1.0204 -2.0512
 3954SOL     OW23320   0.749   3.204   5.607  0.3429 -0.4246  0.7665
 3954SOL    HW123321   0.818   3.270   5.601 -2.2094  2.3637  2.0795
 3954SOL    HW223322   0.733   3.198   5.513 -1.3733  0.3186  1.0086
 3955SOL     OW23323   1.994   0.764   8.923 -0.0678 -0.2669  0.6493
 3955SOL    HW123324   1.935   0.692   8.899 -2.4201  2.5455 -2.0671
 3955SOL    HW223325   1.938   0.841   8.918  1.1754  0.5525 -0.9928
 3956SOL     OW23326   0.460   0.539   8.249 -0.2501  0.0128 -0.0678
 3956SOL    HW123327   0.494   0.476   8.312 -0.4340  1.2247  1.2634
 3956SOL    HW223328   0.444   0.480   8.175 -1.9067  0.4747 -0.0867
 3957SOL     OW23329   0.715   0.611   7.087  0.3463  0.0532 -0.3136
 3957SOL    HW123330   0.784   0.645   7.143 -1.2097  0.7404  1.1914
 3957SOL    HW223331   0.666   0.556   7.149  0.8615 -1.5959 -1.3723
 3958SOL     OW23332   0.145   0.176  14.836  0.1400  0.3330  0.0831
 3958SOL    HW123333   0.175   0.243  14.897  1.4382 -0.1205 -0.0468
 3958SOL    HW223334   0.074   0.225  14.796 -0.7566 -0.8427  0.2305
 3959SOL     OW23335   4.657   4.512   6.725  0.7548 -0.0344 -0.5453
 3959SOL    HW123336   0.004   4.558   6.772 -0.2124 -0.2582  1.0912
 3959SOL    HW223337   4.631   4.581   6.664  0.9594  0.3987 -0.1442
 3960SOL     OW23338   3.259   1.385  11.644 -0.3261  0.2959 -0.0791
 3960SOL    HW123339   3.351   1.376  11.669 -0.2803 -0.3307 -0.4609
 3960SOL    HW223340   3.265   1.354  11.554 -1.8647  0.2582 -0.1833
 3961SOL     OW23341   4.185   1.790  10.112 -0.4756  0.4713 -0.2231
 3961SOL    HW123342   4.232   1.736  10.048  1.5406  1.5479  0.3446
 3961SOL    HW223343   4.253   1.807  10.178 -0.4943  1.8226 -0.5520
 3962SOL     OW23344   3.563   3.840   1.120 -0.4774  0.3675  0.3069
 3962SOL    HW123345   3.544   3.835   1.214  0.0773 -0.8490  0.3538
 3962SOL    HW223346   3.564   3.933   1.099  0.2462 -0.1881 -2.1057
 3963SOL     OW23347   2.527   1.815   9.709  0.2546 -0.0751 -0.0989
 3963SOL    HW123348   2.440   1.835   9.674  0.3143 -0.1811 -0.3070
 3963SOL    HW223349   2.572   1.768   9.639  0.1629  0.3295 -0.4327
 3964SOL     OW23350   2.004   3.688  16.001  0.2267  0.6600 -0.1521
 3964SOL    HW123351   1.942   3.662  16.069 -0.4379  0.3974 -0.8565
 3964SOL    HW223352   2.062   3.613  16.007  1.6212  1.7101 -0.6707
 3965SOL     OW23353   3.341   1.030   1.463  0.5503  0.2957  0.1721
 3965SOL    HW123354   3.421   1.082   1.461 -0.3799  1.6239 -3.1742
 3965SOL    HW223355   3.315   1.031   1.370  1.0967  1.9123  0.0334
 3966SOL     OW23356   2.893   0.602   0.547  0.2621 -0.8179  0.0604
 3966SOL    HW123357   2.802   0.624   0.526  1.2691  2.3275 -0.9985
 3966SOL    HW223358   2.922   0.686   0.583 -0.1161  0.3846 -2.4434
 3967SOL     OW23359   0.828   1.392   2.719  0.2058  0.4754  0.0445
 3967SOL    HW123360   0.832   1.304   2.682  2.6165  0.3756  0.5716
 3967SOL    HW223361   0.841   1.451   2.644  1.5156  2.0684  1.5298
 3968SOL     OW23362   0.313   0.743  13.080  0.4044  0.0683  0.1764
 3968SOL    HW123363   0.257   0.811  13.117  1.9500  1.1040  0.6407
 3968SOL    HW223364   0.337   0.688  13.155  1.3760 -0.8200 -0.7852
 3969SOL     OW23365   4.667   0.297   9.918  0.4410  0.3363 -0.2719
 3969SOL    HW123366   4.579   0.316   9.952  0.3517 -0.5789  0.0198
 3969SOL    HW223367   4.675   0.363   9.849 -1.7788 -0.4634 -1.3062
 3970SOL     OW23368   1.526   0.180  10.301 -0.0130  0.5936  0.0206
 3970SOL    HW123369   1.569   0.113  10.248  0.7311  0.0231  1.3380
 3970SOL    HW223370   1.519   0.142  10.389 -0.7215 -0.2650 -0.3992
 3971SOL     OW23371   0.669   1.649   6.330 -0.0569  0.3107 -0.1999
 3971SOL    HW123372   0.598   1.711   6.313  1.2088  1.1773 -2.4092
 3971SOL    HW223373   0.671   1.603   6.247  0.8602  0.6366 -0.3611
 3972SOL     OW23374   4.033   0.088   0.284  0.7258  0.0749  0.2504
 3972SOL    HW123375   4.079   0.112   0.364  0.9621 -1.0250  0.4437
 3972SOL    HW223376   4.076   0.142   0.218  0.8959  0.6228  0.8172
 3973SOL     OW23377   0.263   4.358   5.471  0.2711  0.3272 -0.1058
 3973SOL    HW123378   0.272   4.451   5.491  2.4890 -0.5267  2.7704
 3973SOL    HW223379   0.331   4.320   5.526 -0.6302 -1.6358 -0.3440
 3974SOL     OW23380   4.084   4.532   2.500  0.4363 -0.0397 -0.0781
 3974SOL    HW123381   4.069   4.589   2.576 -0.4087  1.1266 -1.1169
 3974SOL    HW223382   4.075   4.441   2.528  1.2848  0.1884  0.9417
 3975SOL     OW23383   4.639   0.530  10.912 -0.9153  0.5511  0.1051
 3975SOL    HW123384   4.551   0.515  10.876 -1.1771  0.9575  0.5732
 3975SOL    HW223385   4.622   0.510  11.004 -0.8591 -0.8423 -0.1783
 3976SOL     OW23386   3.244   2.954   0.555  0.2411  0.0028 -0.8652
 3976SOL    HW123387   3.174   3.001   0.601  0.1298 -0.1895 -0.8385
 3976SOL    HW223388   3.262   3.024   0.492  3.4009 -0.3803 -0.4173
 3977SOL     OW23389   1.046   1.474   4.144  0.2588 -0.1178  0.0915
 3977SOL    HW123390   0.981   1.541   4.165  0.2248 -0.3712  0.7857
 3977SOL    HW223391   0.992   1.422   4.085  0.2853  0.5578 -0.5305
 3978SOL     OW23392   1.549   0.590  15.834  0.3107 -0.1351  0.2803
 3978SOL    HW123393   1.608   0.582  15.759 -0.0533 -2.6767  0.2747
 3978SOL    HW223394   1.593   0.641  15.902  1.9573 -1.1908  0.0072
 3979SOL     OW23395   0.723   0.328   3.911 -0.1882 -0.1121 -0.5620
 3979SOL    HW123396   0.767   0.373   3.983 -0.7845 -1.0591  0.4053
 3979SOL    HW223397   0.799   0.297   3.862  0.2750  0.4530 -0.1981
 3980SOL     OW23398   3.187   4.414   0.994  0.6379  0.6544 -0.3296
 3980SOL    HW123399   3.113   4.440   0.939  0.1514  1.2354  0.6027
 3980SOL    HW223400   3.240   4.369   0.928 -1.5426  1.5060 -2.6746
 3981SOL     OW23401   3.398   3.162  15.342 -0.4113  0.0466  0.2864
 3981SOL    HW123402   3.336   3.169  15.269  0.1487  2.8995  0.0865
 3981SOL    HW223403   3.478   3.150  15.291 -0.2243 -1.6288  0.9404
 3982SOL     OW23404   0.477   2.842  17.098  0.3521  0.4185  0.7287
 3982SOL    HW123405   0.445   2.762  17.139  1.0578 -0.1190  0.2354
 3982SOL    HW223406   0.546   2.870  17.158  0.7508 -0.4374  0.6663
 3983SOL     OW23407   3.363   0.190   8.127  0.2249 -0.0242 -0.4372
 3983SOL    HW123408   3.278   0.171   8.168  0.3594 -0.9630 -0.5812
 3983SOL    HW223409   3.370   0.284   8.110 -2.0873 -0.1577 -2.1438
 3984SOL     OW23410   3.888   2.744   4.612  0.0604  0.5350 -0.0246
 3984SOL    HW123411   3.963   2.733   4.553 -0.1765 -0.9347 -0.0617
 3984SOL    HW223412   3.817   2.691   4.575  0.6653  0.4526 -1.0836
 3985SOL     OW23413   4.024   1.194   2.629  0.0119  0.0377 -0.0363
 3985SOL    HW123414   4.035   1.163   2.540  0.0517  1.0553 -0.3841
 3985SOL    HW223415   3.974   1.126   2.675 -0.3104 -0.7649 -1.5665
 3986SOL     OW23416   1.003   2.423  17.448  0.8130  0.1869  0.2451
 3986SOL    HW123417   0.925   2.420  17.503 -0.3600 -0.3643 -1.4434
 3986SOL    HW223418   0.979   2.501  17.398 -0.7835 -0.1197  0.5328
 3987SOL     OW23419   1.680   4.711   9.495 -0.1377 -0.1700 -0.1703
 3987SOL    HW123420   1.765   4.716   9.451  1.0076 -1.6652  1.8486
 3987SOL    HW223421   1.676   4.617   9.513 -2.1824 -0.1260 -0.4856
 3988SOL     OW23422   1.649   4.304   5.300 -0.0452  0.5396 -0.2437
 3988SOL    HW123423   1.664   4.331   5.391  0.9488 -2.3502  0.4416
 3988SOL    HW223424   1.734   4.320   5.260 -0.4102 -0.8928 -1.5618
 3989SOL     OW23425   1.095   0.395   8.707  0.4075  0.0782 -0.0940
 3989SOL    HW123426   1.039   0.438   8.771 -0.6378  1.7125 -2.1498
 3989SOL    HW223427   1.174   0.449   8.702 -0.4207  1.1161 -1.9493
 3990SOL     OW23428   0.559   1.686   3.596  0.0237 -0.0730 -0.6052
 3990SOL    HW123429   0.581   1.726   3.513 -1.0009  1.2904 -0.2310
 3990SOL    HW223430   0.499   1.744   3.643  0.4705  1.5878 -2.0997
 3991SOL     OW23431   4.459   0.857   9.291  0.0712 -0.2577  0.4070
 3991SOL    HW123432   4.459   0.932   9.350  0.7417  0.4949 -0.5475
 3991SOL    HW223433   4.554   0.852   9.275  0.1754  0.9673  0.6570
 3992SOL     OW23434   3.270   1.804   6.209 -0.2544 -0.6454  0.4147
 3992SOL    HW123435   3.303   1.879   6.160  0.9936 -1.3749  0.1315
 3992SOL    HW223436   3.183   1.804   6.169  0.4337 -0.4478 -1.0732
 3993SOL     OW23437   1.998   1.938  10.854  0.3636  0.1513 -0.2608
 3993SOL    HW123438   2.089   1.951  10.829 -0.1299  0.7328 -1.8160
 3993SOL    HW223439   2.009   1.904  10.942  2.1457 -0.7706 -0.8498
 3994SOL     OW23440   1.030   3.554   5.088 -0.1851 -0.5462 -0.8539
 3994SOL    HW123441   1.033   3.596   5.002  2.0969  1.0597  0.0274
 3994SOL    HW223442   1.057   3.622   5.149  0.2575 -1.6746  0.2004
 3995SOL     OW23443   0.312   0.913   0.622 -0.1222 -0.0069 -0.1959
 3995SOL    HW123444   0.322   0.823   0.590  2.7128 -0.8226  2.9564
 3995SOL    HW223445   0.382   0.952   0.569 -0.1035 -1.3764 -1.1810
 3996SOL     OW23446   3.523   0.646   4.541  0.1400  0.6030  0.4263
 3996SOL    HW123447   3.548   0.622   4.451  0.5644 -0.9002  0.9428
 3996SOL    HW223448   3.442   0.596   4.536  2.1906 -2.5812 -1.1468
 3997SOL     OW23449   4.504   0.220  15.986 -0.3748  0.4046 -0.0232
 3997SOL    HW123450   4.427   0.196  16.038 -1.1387  0.8236 -0.9527
 3997SOL    HW223451   4.472   0.183  15.903 -0.1678  4.0004 -1.7058
 3998SOL     OW23452   0.986   4.529  11.411  0.1007  0.3840 -0.2487
 3998SOL    HW123453   1.062   4.473  11.397 -0.6079 -0.9831  1.3002
 3998SOL    HW223454   0.928   4.477  11.356 -1.6277 -0.9299  2.8072
 3999SOL     OW23455   4.249   2.174   2.989 -0.0743  0.3820 -0.3082
 3999SOL    HW123456   4.198   2.106   2.945  0.3969  0.0886 -0.3984
 3999SOL    HW223457   4.282   2.122   3.063 -5.0497 -0.4112  1.3824
 4000SOL     OW23458   4.356   0.810   0.798  0.2967 -0.3067 -0.0533
 4000SOL    HW123459   4.435   0.756   0.790 -2.3174 -4.2146  0.5227
 4000SOL    HW223460   4.347   0.805   0.893  1.6384  0.7805  0.1291
 4001SOL     OW23461   4.718   3.860   2.705 -0.2394  0.4708 -0.1858
 4001SOL    HW123462   4.722   3.949   2.670 -3.5696 -0.0238 -1.7447
 4001SOL    HW223463   0.072   3.827   2.657 -0.4202  1.2032 -0.9795
 4002SOL     OW23464   2.157   3.968  15.174 -0.4910  0.3467  0.1433
 4002SOL    HW123465   2.205   3.925  15.103 -0.8285 -1.8560  1.2315
 4002SOL    HW223466   2.118   3.894  15.221  2.0846 -0.2724  1.2810
 4003SOL     OW23467   1.407   1.355   2.601  0.1324  0.1968  0.4239
 4003SOL    HW123468   1.390   1.373   2.694  2.0997 -1.4343  1.0954
 4003SOL    HW223469   1.359   1.426   2.558 -2.3503 -1.6459  0.1056
 4004SOL     OW23470   1.393   0.534   8.540  0.5238 -0.1580 -0.6631
 4004SOL    HW123471   1.428   0.455   8.582 -1.6723  0.1512  1.7515
 4004SOL    HW223472   1.451   0.600   8.578 -0.1214  1.0333 -1.7951
 4005SOL     OW23473   1.819   1.765   1.646 -0.0674 -0.3454  0.1762
 4005SOL    HW123474   1.893   1.715   1.679  1.1983 -0.5051 -2.9211
 4005SOL    HW223475   1.789   1.700   1.584  0.0451 -0.0030 -0.2376
 4006SOL     OW23476   4.177   2.320  11.331  0.1042  0.3612  0.0938
 4006SOL    HW123477   4.216   2.406  11.314 -0.5159  0.5941 -0.1672
 4006SOL    HW223478   4.245   2.257  11.306 -0.2179 -0.1669  0.5748
 4007SOL     OW23479   1.703   3.753   3.190 -0.1358  0.0586  0.6158
 4007SOL    HW123480   1.784   3.703   3.199 -1.0155 -1.3978  0.5315
 4007SOL    HW223481   1.664   3.727   3.273 -2.1439  1.2337  0.0259
 4008SOL     OW23482   4.098   4.708   3.673  0.3596 -0.1144  0.1811
 4008SOL    HW123483   4.027   0.047   3.657 -0.0020 -0.1877  1.4390
 4008SOL    HW223484   4.056   4.650   3.737 -1.7929  2.0678  0.7459
 4009SOL     OW23485   4.374   4.020   4.655  0.0799 -0.1377  0.4807
 4009SOL    HW123486   4.364   3.985   4.744 -2.7348  1.1304  0.6817
 4009SOL    HW223487   4.450   3.974   4.620 -0.2348  0.7177 -1.3245
 4010SOL     OW23488   4.499   4.654  15.598  0.8364  0.2311  0.1088
 4010SOL    HW123489   4.515   4.585  15.664  1.4824 -0.5228 -0.8360
 4010SOL    HW223490   4.584   4.656  15.554  0.8553  1.8742  0.2378
 4011SOL     OW23491   4.372   1.033   9.084  0.0070 -0.4971  0.0279
 4011SOL    HW123492   4.416   0.973   9.023  1.9057  0.5485  0.3545
 4011SOL    HW223493   4.371   0.972   9.157 -0.2376 -0.6348 -0.0912
 4012SOL     OW23494   0.429   3.451   8.761  0.4327  0.0211 -0.7732
 4012SOL    HW123495   0.458   3.361   8.750  0.0156 -0.3151  0.9729
 4012SOL    HW223496   0.442   3.454   8.855 -1.1974  2.7755 -0.6163
 4013SOL     OW23497   2.625   2.294  10.273 -0.4329  0.5630 -0.0203
 4013SOL    HW123498   2.559   2.358  10.300  1.9035  2.8267  0.3522
 4013SOL    HW223499   2.622   2.236  10.349 -3.4010  0.5637 -0.1626
 4014SOL     OW23500   2.944   4.018   7.791 -0.1475 -0.0562 -0.1188
 4014SOL    HW123501   3.037   4.008   7.811 -0.1186  3.6163  1.6769
 4014SOL    HW223502   2.924   4.112   7.797 -0.5753 -0.0322 -2.0406
 4015SOL     OW23503   4.303   0.719  11.142  0.1394  0.0601  0.1138
 4015SOL    HW123504   4.240   0.776  11.097 -0.5630 -0.1717  0.8138
 4015SOL    HW223505   4.287   0.641  11.089  0.0170  0.4646 -0.4418
 4016SOL     OW23506   3.288   2.740   0.938 -0.1737  0.1531 -0.4366
 4016SOL    HW123507   3.375   2.700   0.951  0.3362  1.2693 -0.3807
 4016SOL    HW223508   3.286   2.719   0.845  0.1288 -2.2518  0.0968
 4017SOL     OW23509   4.100   2.293  14.322  0.0772  0.6987 -0.1045
 4017SOL    HW123510   4.013   2.304  14.361  0.7284  2.2275  0.9262
 4017SOL    HW223511   4.098   2.354  14.248  3.5187  0.2285 -0.6190
 4018SOL     OW23512   3.373   1.606  12.963 -0.0118  0.8025 -0.0396
 4018SOL    HW123513   3.294   1.659  12.955 -1.0234 -0.3879  2.2681
 4018SOL    HW223514   3.334   1.535  13.013  1.9305 -0.7923 -0.7914
 4019SOL     OW23515   0.637   2.730   6.391  0.0323  0.1835  0.2661
 4019SOL    HW123516   0.588   2.770   6.319  0.6304  0.3710 -0.0365
 4019SOL    HW223517   0.651   2.803   6.451 -1.6887  1.2147 -0.5832
 4020SOL     OW23518   0.904   0.444   8.929  0.6934  0.5320 -0.0116
 4020SOL    HW123519   0.812   0.422   8.916  0.6274  0.2832  0.8874
 4020SOL    HW223520   0.932   0.364   8.974  2.2486  0.6632 -0.7385
 4021SOL     OW23521   3.543   4.125  14.355 -0.5927 -0.1394  0.0516
 4021SOL    HW123522   3.448   4.118  14.363 -0.7334  1.1200 -0.6078
 4021SOL    HW223523   3.568   4.040  14.392 -1.2293 -0.4421 -0.1989
 4022SOL     OW23524   3.270   0.928   3.653 -0.6488  0.8108  0.3770
 4022SOL    HW123525   3.319   1.009   3.641 -0.7239  1.0587  1.6656
 4022SOL    HW223526   3.185   0.949   3.614 -1.8285  0.3585  2.6724
 4023SOL     OW23527   4.482   0.044  13.946 -0.3220  0.8203 -0.0642
 4023SOL    HW123528   4.545   0.098  13.993 -3.1491  1.9443  2.4663
 4023SOL    HW223529   4.524   4.681  13.955  1.8371  2.0411  1.4312
 4024SOL     OW23530   0.896   0.531   8.460 -0.5938  0.2646 -0.3129
 4024SOL    HW123531   0.866   0.554   8.549 -2.4337 -1.0867 -0.6033
 4024SOL    HW223532   0.867   0.610   8.414  0.1187  0.0950 -1.0586
 4025SOL     OW23533   1.349   1.508  14.526 -0.0130 -0.1527 -0.0193
 4025SOL    HW123534   1.363   1.530  14.619  0.9021 -1.7920  0.2400
 4025SOL    HW223535   1.432   1.465  14.505  0.7902  1.0576  0.6211
 4026SOL     OW23536   4.616   3.169   2.621  0.6185  0.1882 -0.6868
 4026SOL    HW123537   4.643   3.098   2.679 -0.7830  0.7991  0.7025
 4026SOL    HW223538   4.521   3.172   2.632  0.9772  1.4677  1.9984
 4027SOL     OW23539   2.384   2.949   4.486  0.5863  0.2585  0.1595
 4027SOL    HW123540   2.458   3.008   4.499 -0.3565  1.6695 -0.8700
 4027SOL    HW223541   2.413   2.886   4.552 -1.6361  0.2069  1.1026
 4028SOL     OW23542   1.749   3.660  16.154  0.3005  0.8238  0.1569
 4028SOL    HW123543   1.796   3.668  16.237  0.4083 -2.1527  0.3969
 4028SOL    HW223544   1.677   3.722  16.155 -1.3728 -1.1427  0.9821
 4029SOL     OW23545   1.455   0.509   4.077 -0.4336  0.4197 -0.1348
 4029SOL    HW123546   1.532   0.470   4.035  0.8087  1.6103  1.0496
 4029SOL    HW223547   1.498   0.564   4.142 -0.2504 -1.3484  1.2696
 4030SOL     OW23548   3.011   0.175   6.273 -0.1087 -0.3961 -0.4183
 4030SOL    HW123549   2.979   0.154   6.185 -2.2386 -0.4109  0.3568
 4030SOL    HW223550   2.941   0.227   6.311  0.0095 -1.8846  1.8167
 4031SOL     OW23551   4.377   3.368  11.866  0.1393  0.3136 -0.2486
 4031SOL    HW123552   4.422   3.287  11.890 -1.5821 -1.0185 -1.4959
 4031SOL    HW223553   4.454   3.415  11.835  0.1384  0.8279  0.5335
 4032SOL     OW23554   3.591   1.468   2.450 -0.2470 -0.6431  0.8978
 4032SOL    HW123555   3.515   1.523   2.430 -0.7296 -0.8206  2.2479
 4032SOL    HW223556   3.654   1.540   2.458 -1.4954  0.4152  1.4294
 4033SOL     OW23557   3.366   0.957  17.640 -0.4236  0.2647 -0.4489
 4033SOL    HW123558   3.358   0.880  17.583 -1.0758 -0.2096  0.2951
 4033SOL    HW223559   3.293   0.947   0.008 -0.0780  0.4876 -0.0026
 4034SOL     OW23560   3.493   1.506   0.022  0.2252 -0.2228  0.3424
 4034SOL    HW123561   3.582   1.504  17.680  0.4471 -1.5721  0.9737
 4034SOL    HW223562   3.470   1.413   0.030 -0.7676  0.0486  0.6406
 4035SOL     OW23563   2.415   0.401   7.457  0.3112  0.8445  0.5661
 4035SOL    HW123564   2.391   0.316   7.419 -0.7836  0.1636  2.7723
 4035SOL    HW223565   2.500   0.412   7.415 -0.0579  0.6742 -0.2114
 4036SOL     OW23566   2.762   3.926   1.666  0.1399 -0.0932 -0.6646
 4036SOL    HW123567   2.806   4.009   1.649  0.5337 -0.3281 -0.8004
 4036SOL    HW223568   2.675   3.947   1.631 -0.7010 -1.0625  0.8380
 4037SOL     OW23569   1.607   0.008   9.039  0.0776  0.2108 -0.0386
 4037SOL    HW123570   1.698   0.010   9.012 -0.4537 -0.5742 -1.8516
 4037SOL    HW223571   1.604   0.094   9.081 -1.6989  0.8861 -1.5446
 4038SOL     OW23572   2.377   1.003   5.540  0.3879  0.4258  0.3954
 4038SOL    HW123573   2.456   1.057   5.533  1.3303 -1.0622 -0.5146
 4038SOL    HW223574   2.353   0.995   5.447 -0.3288 -0.2041  0.6343
 4039SOL     OW23575   0.369   1.798   2.185  0.7303 -0.2789  0.5316
 4039SOL    HW123576   0.323   1.875   2.152 -1.0175 -1.8314 -0.6602
 4039SOL    HW223577   0.432   1.851   2.232 -2.6043  4.2722 -0.1601
 4040SOL     OW23578   1.138   3.720   2.506  0.3554  0.9055  0.3690
 4040SOL    HW123579   1.198   3.719   2.580  2.4024 -0.0301 -1.2774
 4040SOL    HW223580   1.184   3.703   2.423 -1.4641 -0.2462 -0.4048
 4041SOL     OW23581   1.494   1.124   6.926  0.2849 -0.3622  0.1347
 4041SOL    HW123582   1.473   1.037   6.891 -0.2519 -0.3928  0.5229
 4041SOL    HW223583   1.551   1.098   6.998  2.0170 -2.3479 -1.9638
 4042SOL     OW23584   2.174   2.820   7.222 -0.1642  0.3233  0.6597
 4042SOL    HW123585   2.261   2.859   7.230  0.0713 -0.0876  0.0571
 4042SOL    HW223586   2.182   2.794   7.130  2.2955  0.9679  0.6961
 4043SOL     OW23587   1.903   1.205  11.568  0.2185 -0.5410 -0.0226
 4043SOL    HW123588   1.876   1.222  11.658 -2.7874  1.0454 -1.2225
 4043SOL    HW223589   1.919   1.111  11.574  1.1428 -0.3723  0.1099
 4044SOL     OW23590   1.195   3.649   9.947 -0.0873 -0.3994 -0.1724
 4044SOL    HW123591   1.195   3.731   9.998 -0.6351 -0.5185  0.0223
 4044SOL    HW223592   1.100   3.639   9.938 -0.2774  0.9125  0.2810
 4045SOL     OW23593   0.622   1.736  17.247 -0.0378 -0.1553 -0.5208
 4045SOL    HW123594   0.591   1.814  17.291 -0.9465 -0.8259  0.0347
 4045SOL    HW223595   0.555   1.676  17.280 -1.5283 -0.1778 -3.6034
 4046SOL     OW23596   4.492   0.894   1.714 -0.1956 -0.0704  0.3898
 4046SOL    HW123597   4.464   0.985   1.705  0.0020 -0.2194 -1.8186
 4046SOL    HW223598   4.525   0.890   1.804 -0.8493 -0.6644  0.5964
 4047SOL     OW23599   2.521   0.590   6.763  0.2848 -0.5428 -0.6717
 4047SOL    HW123600   2.613   0.565   6.751 -0.5540 -2.7374 -2.6312
 4047SOL    HW223601   2.499   0.572   6.854 -0.7871  0.0328 -0.8147
 4048SOL     OW23602   1.629   3.712  14.712 -0.5692  0.3643  0.4150
 4048SOL    HW123603   1.536   3.702  14.735  0.4651 -1.7956  3.6363
 4048SOL    HW223604   1.643   3.623  14.680 -0.8868  0.9950 -1.5033
 4049SOL     OW23605   4.664   3.211   5.754  0.2341 -0.1154 -0.3159
 4049SOL    HW123606   4.573   3.207   5.724  0.7210 -1.5350 -1.5936
 4049SOL    HW223607   4.710   3.213   5.670  0.3793  1.1059 -0.1942
 4050SOL     OW23608   1.286   0.662   8.292  0.4421  0.0014 -0.3039
 4050SOL    HW123609   1.227   0.721   8.339  1.4753  0.0969  0.8763
 4050SOL    HW223610   1.317   0.614   8.368 -0.8231  1.5680  1.2173
 4051SOL     OW23611   0.181   1.555  12.065  0.4846  0.4254  0.1131
 4051SOL    HW123612   0.168   1.466  12.098  2.4783  0.8909  2.2159
 4051SOL    HW223613   0.273   1.574  12.080  0.5819  0.1585 -0.1525
 4052SOL     OW23614   0.099   0.019   7.379  0.1194 -0.2216  0.5184
 4052SOL    HW123615   0.144   4.659   7.396 -0.2225 -0.2143  1.4600
 4052SOL    HW223616   0.125   0.026   7.287 -0.1061 -0.2673  0.4536
 4053SOL     OW23617   0.599   0.901   0.484 -0.0176  0.3206 -0.2361
 4053SOL    HW123618   0.693   0.883   0.474 -0.0472 -0.8022  1.3936
 4053SOL    HW223619   0.571   0.822   0.438 -0.4585  1.1967 -1.4590
 4054SOL     OW23620   3.951   4.689   7.410  0.0748 -0.1104 -0.5310
 4054SOL    HW123621   3.978   0.038   7.352 -0.7386 -0.8194 -1.7875
 4054SOL    HW223622   3.867   4.675   7.367 -1.1384 -1.1832  2.2052
 4055SOL     OW23623   1.892   0.627  16.902  0.8283 -0.3495 -0.2371
 4055SOL    HW123624   1.914   0.533  16.897  0.7124 -0.3490 -0.7606
 4055SOL    HW223625   1.964   0.663  16.851  0.1469  3.0251  1.1989
 4056SOL     OW23626   1.546   3.875  16.564  0.1782 -0.2802  0.9618
 4056SOL    HW123627   1.464   3.904  16.605  0.2169  0.1318  0.7444
 4056SOL    HW223628   1.558   3.791  16.608  0.8928 -1.3321 -1.2613
 4057SOL     OW23629   1.562   1.527  11.854  0.1964  0.0763 -0.1060
 4057SOL    HW123630   1.498   1.585  11.896  0.6203  0.4435  0.0298
 4057SOL    HW223631   1.630   1.499  11.915 -0.3141 -2.9526 -0.9459
 4058SOL     OW23632   4.097   0.734   4.912  0.2618  0.3626 -0.1002
 4058SOL    HW123633   4.004   0.713   4.922  0.5992 -0.6515  0.9483
 4058SOL    HW223634   4.117   0.773   4.997 -0.1471  3.5406 -1.4685
 4059SOL     OW23635   3.693   1.846   2.451  0.0554 -0.1485  0.2385
 4059SOL    HW123636   3.746   1.766   2.444 -2.5336 -1.6252 -2.3698
 4059SOL    HW223637   3.756   1.908   2.412  0.5932 -1.2719 -0.6989
 4060SOL     OW23638   2.542   0.479   5.269 -0.4714  0.5415  0.2180
 4060SOL    HW123639   2.492   0.554   5.237 -0.2342 -0.1520 -1.7824
 4060SOL    HW223640   2.626   0.524   5.274  0.6720 -1.4673 -1.0757
 4061SOL     OW23641   2.286   1.878  10.096 -0.1130 -0.2960 -0.0093
 4061SOL    HW123642   2.325   1.941  10.157 -1.0296  0.0946  0.1704
 4061SOL    HW223643   2.322   1.799  10.139  0.6723 -0.2091 -0.5108
 4062SOL     OW23644   4.628   0.311   2.318 -0.1954 -0.1523  0.8630
 4062SOL    HW123645   4.600   0.396   2.351  1.4387  0.4353  0.7294
 4062SOL    HW223646   4.651   0.336   2.228 -1.0925  0.7588  0.8911
 4063SOL     OW23647   0.017   2.349   6.207 -0.3773  0.1721 -0.1269
 4063SOL    HW123648   4.705   2.435   6.232  0.8567  0.2911  1.1738
 4063SOL    HW223649   4.680   2.294   6.259  0.6653  2.2158  3.2059
 4064SOL     OW23650   1.777   2.557  10.989 -0.0908  0.1593  0.3418
 4064SOL    HW123651   1.723   2.602  11.054  1.4626 -0.2178  1.9030
 4064SOL    HW223652   1.733   2.472  10.985  0.0384  0.0920  0.3550
 4065SOL     OW23653   0.057   3.353   5.977 -0.3882  0.5906 -0.1593
 4065SOL    HW123654   0.059   3.440   5.938  0.0176  0.6088 -0.1011
 4065SOL    HW223655   0.012   3.299   5.911  1.5764  1.0899 -1.8928
 4066SOL     OW23656   3.507   0.143   8.524  0.3557 -0.0299 -0.0795
 4066SOL    HW123657   3.577   0.193   8.482  0.0939 -0.4699 -1.0322
 4066SOL    HW223658   3.514   0.059   8.479  3.3264  0.2541 -0.1601
 4067SOL     OW23659   1.311   4.624   1.611 -0.6684  0.6684  0.4347
 4067SOL    HW123660   1.366   4.550   1.588 -1.4722  0.0960  0.3560
 4067SOL    HW223661   1.266   4.631   1.527 -1.2826  0.1408  0.7200
 4068SOL     OW23662   0.107   0.997  13.900  0.3263 -0.4580 -0.3234
 4068SOL    HW123663   0.198   1.006  13.927  0.0266 -1.5774  1.0478
 4068SOL    HW223664   0.093   0.904  13.913  0.0438 -0.4591 -0.6376
 4069SOL     OW23665   4.367   2.897   0.614  0.6950 -0.0126  0.2529
 4069SOL    HW123666   4.417   2.825   0.651 -1.2985 -1.0925  0.8061
 4069SOL    HW223667   4.342   2.953   0.688  1.6597 -0.0977  0.6451
 4070SOL     OW23668   1.094   4.356   3.740 -0.2398  0.6382 -0.0923
 4070SOL    HW123669   1.161   4.373   3.807  0.9705  1.4937 -1.5059
 4070SOL    HW223670   1.133   4.405   3.668  4.4991 -1.8321  0.7650
 4071SOL     OW23671   2.907   0.438  15.922  0.0689 -0.5324 -0.6760
 4071SOL    HW123672   2.877   0.525  15.949 -1.9179 -0.7675 -2.1714
 4071SOL    HW223673   2.998   0.454  15.897  0.7967 -0.4511  2.0116
 4072SOL     OW23674   3.118   1.830   6.436 -0.1911  0.6770  0.2164
 4072SOL    HW123675   3.069   1.750   6.417  0.9663  0.1008 -0.3194
 4072SOL    HW223676   3.170   1.837   6.356  1.7244 -1.5980  1.2693
 4073SOL     OW23677   1.145   3.985   5.388  0.0529 -0.2657 -0.1091
 4073SOL    HW123678   1.176   4.048   5.453  1.3562 -2.5510  1.4874
 4073SOL    HW223679   1.223   3.929   5.392  0.3273  0.1837  0.7635
 4074SOL     OW23680   3.141   2.709   5.211  0.1125 -0.3906 -0.0906
 4074SOL    HW123681   3.064   2.653   5.223  0.4404 -1.3226 -2.4186
 4074SOL    HW223682   3.216   2.672   5.257 -0.2222  0.7543  1.3678
 4075SOL     OW23683   1.241   2.221  10.439  0.0291 -0.5265 -0.1926
 4075SOL    HW123684   1.164   2.260  10.396 -0.4988 -1.2311  0.1159
 4075SOL    HW223685   1.238   2.255  10.528 -0.0621 -0.4061 -0.2422
 4076SOL     OW23686   0.243   1.297   5.890 -0.1404 -0.2313 -0.1182
 4076SOL    HW123687   0.280   1.311   5.977 -1.4219  4.3388 -0.3016
 4076SOL    HW223688   0.292   1.351   5.828  2.1099 -1.4680  0.5687
 4077SOL     OW23689   0.680   4.621   6.835  0.7475 -0.6035  0.2268
 4077SOL    HW123690   0.692   4.652   6.924 -0.4349  0.5337 -0.0047
 4077SOL    HW223691   0.670   4.700   6.782 -1.2062 -0.4313  0.8849
 4078SOL     OW23692   2.880   4.132   7.202  0.7269 -0.4641 -0.1521
 4078SOL    HW123693   2.831   4.072   7.146 -0.4112 -0.6626  1.0448
 4078SOL    HW223694   2.810   4.196   7.216  0.4904 -1.4010  2.9966
 4079SOL     OW23695   4.224   4.434   6.288 -0.6958 -0.4554 -0.3622
 4079SOL    HW123696   4.214   4.509   6.229  0.1864  0.1078  0.2053
 4079SOL    HW223697   4.158   4.375   6.251  1.0348 -2.8272  0.3524
 4080SOL     OW23698   0.550   1.359   4.217  0.2690 -0.2093 -0.1926
 4080SOL    HW123699   0.574   1.304   4.292 -0.0228  2.1831  1.6315
 4080SOL    HW223700   0.495   1.303   4.162  0.5821 -2.4645  1.8149
 4081SOL     OW23701   3.420   3.609  17.147  0.0937  0.2476 -0.1711
 4081SOL    HW123702   3.418   3.641  17.237 -0.0806  2.1389 -0.8650
 4081SOL    HW223703   3.344   3.639  17.099 -1.2012 -2.3148  0.2956
 4082SOL     OW23704   1.697   0.096   6.860  0.2307  0.7086  0.1873
 4082SOL    HW123705   1.731   0.030   6.800 -0.7893 -0.0622  0.4656
 4082SOL    HW223706   1.642   0.147   6.800  2.3486  1.0383 -1.4805
 4083SOL     OW23707   1.455   1.272  14.901  0.7899  0.4914  0.3972
 4083SOL    HW123708   1.532   1.220  14.924  1.6056  1.4942 -0.0949
 4083SOL    HW223709   1.430   1.308  14.986  1.5783 -1.3213  1.3880
 4084SOL     OW23710   2.000   4.439   8.756 -0.5599 -0.0272 -0.1883
 4084SOL    HW123711   2.029   4.489   8.832 -0.4699  1.8744 -1.4613
 4084SOL    HW223712   2.020   4.501   8.686 -1.2578  0.9731  0.4989
 4085SOL     OW23713   3.460   2.949   7.589 -0.4409  0.4789  0.3079
 4085SOL    HW123714   3.383   2.956   7.533  0.1033  0.6587 -0.4237
 4085SOL    HW223715   3.468   2.854   7.596  1.7901  0.5898 -0.8158
 4086SOL     OW23716   3.853   1.623   2.446  0.1899  0.0201 -0.4126
 4086SOL    HW123717   3.862   1.550   2.507 -1.5113 -0.4164 -0.6895
 4086SOL    HW223718   3.941   1.634   2.411  1.2831  0.5231  2.4697
 4087SOL     OW23719   2.801   4.686   9.949  0.1607 -0.2552  0.1817
 4087SOL    HW123720   2.897   4.691   9.949  0.0690  1.3913 -0.9024
 4087SOL    HW223721   2.787   4.605   9.999  3.2476 -0.3682  0.9084
 4088SOL     OW23722   0.978   4.654   4.866  0.4232 -0.1149  0.3430
 4088SOL    HW123723   1.004   4.571   4.827  0.3611  0.5722 -1.1696
 4088SOL    HW223724   1.042   4.713   4.826  1.3587 -3.6579 -3.3736
 4089SOL     OW23725   4.401   3.150  17.190 -0.5144  0.5077 -0.6086
 4089SOL    HW123726   4.461   3.077  17.205  0.2316  1.3107  0.3552
 4089SOL    HW223727   4.321   3.098  17.187 -0.8575  0.9336  0.9652
 4090SOL     OW23728   0.041   2.305   7.565  0.6572 -0.0297 -0.4993
 4090SOL    HW123729   0.113   2.367   7.574 -1.3746  2.5971 -2.3301
 4090SOL    HW223730   0.039   2.272   7.655 -1.5284  0.1379 -0.4973
 4091SOL     OW23731   1.465   3.816  11.859 -1.0282 -0.7554  0.2211
 4091SOL    HW123732   1.543   3.768  11.887  1.0069  2.4774  0.0869
 4091SOL    HW223733   1.417   3.826  11.941 -1.2455  1.1896 -0.1335
 4092SOL     OW23734   1.960   0.278   1.299  0.0669  0.2056 -0.0644
 4092SOL    HW123735   1.888   0.267   1.237 -1.5277  0.8234  1.6632
 4092SOL    HW223736   2.007   0.195   1.290 -2.6175 -1.1890 -1.2136
 4093SOL     OW23737   2.063   0.541   3.927 -0.0652 -0.3925  0.0588
 4093SOL    HW123738   2.068   0.591   4.009 -2.4978 -0.2315  0.1106
 4093SOL    HW223739   2.003   0.592   3.874 -1.1407 -1.6745  0.0497
 4094SOL     OW23740   3.191   2.199  16.711  0.1311 -0.4331 -0.5928
 4094SOL    HW123741   3.266   2.247  16.677 -0.1242  0.1102 -0.3921
 4094SOL    HW223742   3.226   2.161  16.791  1.5175 -0.9406 -1.4410
 4095SOL     OW23743   3.171   0.425   4.347 -0.0424  0.0439 -0.1094
 4095SOL    HW123744   3.191   0.492   4.413 -0.5713 -0.3382  0.4445
 4095SOL    HW223745   3.161   0.343   4.396  3.5294  0.3883  1.1751
 4096SOL     OW23746   3.203   1.278   3.164 -0.1630 -0.0266 -0.6141
 4096SOL    HW123747   3.265   1.255   3.234  0.2957  0.8014 -0.7493
 4096SOL    HW223748   3.221   1.372   3.166  0.2046 -0.1107  0.2185
 4097SOL     OW23749   3.688   3.556   8.916  0.4374 -0.2391 -0.5940
 4097SOL    HW123750   3.693   3.486   8.981 -0.7157 -0.9241 -1.2422
 4097SOL    HW223751   3.776   3.549   8.879  0.1977 -0.4011 -1.1377
 4098SOL     OW23752   1.943   0.553   7.976 -0.5337 -0.7297  0.0027
 4098SOL    HW123753   1.900   0.504   7.906  1.5334 -2.4966 -0.0484
 4098SOL    HW223754   2.030   0.566   7.938 -0.6654 -0.1369 -0.0917
 4099SOL     OW23755   2.542   2.012   4.651  0.4923 -0.0942 -0.4083
 4099SOL    HW123756   2.520   2.060   4.572 -0.0818  1.7770  0.8912
 4099SOL    HW223757   2.458   1.976   4.679  0.8638  0.0557  0.8936
 4100SOL     OW23758   0.086   0.566   2.259 -0.0219  0.1963 -0.3708
 4100SOL    HW123759   0.165   0.513   2.252 -0.2057 -0.1741  0.3246
 4100SOL    HW223760   0.085   0.608   2.173 -0.2097  1.0122  0.0283
 4101SOL     OW23761   1.867   1.283   8.848  0.4196  0.8996 -0.2471
 4101SOL    HW123762   1.773   1.303   8.844  0.5376  1.1546 -1.6248
 4101SOL    HW223763   1.903   1.328   8.772 -0.4712 -0.7848 -1.6633
 4102SOL     OW23764   4.317   2.268   9.303 -0.0326 -0.9564 -0.6451
 4102SOL    HW123765   4.321   2.189   9.250 -2.8848 -0.6960 -1.2326
 4102SOL    HW223766   4.262   2.322   9.246  0.6658 -2.4880 -2.7482
 4103SOL     OW23767   3.217   1.921  10.874 -0.0217 -0.2681  0.3806
 4103SOL    HW123768   3.184   1.978  10.803  0.2588 -2.4708 -1.5010
 4103SOL    HW223769   3.234   1.987  10.941  0.4587  0.8943 -0.8928
 4104SOL     OW23770   4.586   0.598  14.345 -0.1364  0.0836  0.1938
 4104SOL    HW123771   4.679   0.576  14.358 -0.4384 -1.6561 -0.6580
 4104SOL    HW223772   4.579   0.677  14.291  0.6206  0.7685  1.0949
 4105SOL     OW23773   2.439   3.778   3.096 -0.7988 -0.0512 -0.1956
 4105SOL    HW123774   2.428   3.781   3.001  0.0783  1.4652 -0.2539
 4105SOL    HW223775   2.391   3.698   3.117 -0.2941  0.0681  1.3515
 4106SOL     OW23776   3.773   1.948   1.101 -0.0606 -0.2138  0.3740
 4106SOL    HW123777   3.774   1.866   1.150  0.2652 -1.4779 -1.7800
 4106SOL    HW223778   3.820   2.016   1.150  1.4399 -0.6050 -0.5287
 4107SOL     OW23779   0.680   1.975   5.638 -0.3720  0.0291  1.1501
 4107SOL    HW123780   0.629   1.999   5.715 -0.6831  2.8105  0.0986
 4107SOL    HW223781   0.758   2.031   5.640  0.4169 -1.1417  2.6783
 4108SOL     OW23782   2.087   1.544   6.856  0.0551  0.0890 -0.0293
 4108SOL    HW123783   2.028   1.492   6.911 -1.2421 -0.5836 -2.0436
 4108SOL    HW223784   2.120   1.467   6.810  1.0640  2.0413 -2.5332
 4109SOL     OW23785   1.575   0.789   7.547 -0.3036 -0.7288 -0.0065
 4109SOL    HW123786   1.592   0.695   7.555  3.7547 -0.0847 -1.1968
 4109SOL    HW223787   1.631   0.837   7.608 -0.7698  1.1973 -1.0990
 4110SOL     OW23788   4.343   1.812   8.675 -0.5829 -0.0499  0.1532
 4110SOL    HW123789   4.432   1.839   8.651 -0.4657  0.8379  1.5170
 4110SOL    HW223790   4.371   1.760   8.750  1.0785 -2.6592 -2.2910
 4111SOL     OW23791   3.361   3.081   3.122  0.1993 -0.0331 -0.5703
 4111SOL    HW123792   3.339   3.032   3.201 -0.2550 -0.2602 -0.8352
 4111SOL    HW223793   3.273   3.112   3.099 -0.0659 -0.1936  0.2406
 4112SOL     OW23794   2.015   3.943  16.413  0.7265  0.8159 -0.2207
 4112SOL    HW123795   2.012   4.029  16.371  0.7377 -0.7019 -3.2744
 4112SOL    HW223796   1.968   3.969  16.492  1.4176  3.9075 -0.8299
 4113SOL     OW23797   2.559   4.368   7.074 -0.7873 -0.1507 -0.0423
 4113SOL    HW123798   2.605   4.348   7.155 -0.2691 -1.0109 -0.5523
 4113SOL    HW223799   2.544   4.284   7.031  0.1324 -1.1552  1.5857
 4114SOL     OW23800   0.146   4.181  12.745 -0.3167  0.1504  0.2935
 4114SOL    HW123801   0.225   4.196  12.796  0.3793  0.2215 -0.7999
 4114SOL    HW223802   0.133   4.273  12.723  1.0488 -0.1409 -1.7279
 4115SOL     OW23803   4.337   3.885   2.170 -0.4870 -0.2243 -0.2744
 4115SOL    HW123804   4.305   3.854   2.254 -1.8601 -0.5630 -0.9195
 4115SOL    HW223805   4.279   3.961   2.158 -2.6173 -1.5982  1.1703
 4116SOL     OW23806   3.206   0.366   7.856 -0.1909  0.3266  0.2221
 4116SOL    HW123807   3.175   0.447   7.896  2.1550  1.2189  0.2716
 4116SOL    HW223808   3.187   0.385   7.765 -0.3038 -0.6159  0.0460
 4117SOL     OW23809   1.067   0.295   3.515 -0.3233 -0.1399  0.1001
 4117SOL    HW123810   1.115   0.212   3.518 -0.2038 -0.1142 -1.0873
 4117SOL    HW223811   1.109   0.337   3.440 -1.1241  2.6711  1.2356
 4118SOL     OW23812   0.604   3.135  12.848  1.2227  0.1418  0.5132
 4118SOL    HW123813   0.644   3.123  12.935  0.1043 -3.9487  0.4596
 4118SOL    HW223814   0.519   3.100  12.873  0.4360  0.9001 -1.1250
 4119SOL     OW23815   3.885   3.292  13.191 -0.2480 -0.5911 -0.2089
 4119SOL    HW123816   3.896   3.197  13.191  2.9344 -0.2494  1.9686
 4119SOL    HW223817   3.962   3.319  13.241 -1.0980  2.7282 -0.6886
 4120SOL     OW23818   3.385   3.034  10.741  0.2856 -0.1823  0.3597
 4120SOL    HW123819   3.477   3.059  10.753  0.3767 -0.2857 -0.1307
 4120SOL    HW223820   3.364   3.064  10.653 -1.4738 -0.3236  0.7303
 4121SOL     OW23821   3.693   2.071   6.498 -0.4271  0.1323 -0.7640
 4121SOL    HW123822   3.685   1.992   6.551  0.2031  0.1123 -0.6953
 4121SOL    HW223823   3.614   2.076   6.444 -1.3574  0.0895  0.5990
 4122SOL     OW23824   0.372   4.454   8.264  0.3504  0.2550 -0.3289
 4122SOL    HW123825   0.422   4.429   8.342 -0.9998 -0.3649  0.3617
 4122SOL    HW223826   0.344   4.367   8.235  0.8215  0.4710 -1.4102
 4123SOL     OW23827   4.294   3.025   1.966 -0.5819 -0.0573  0.1246
 4123SOL    HW123828   4.299   3.041   2.060 -2.1398  2.9249 -0.3182
 4123SOL    HW223829   4.321   3.107   1.926  0.0433 -0.7512 -0.8907
 4124SOL     OW23830   1.132   0.526   2.948 -0.2910  0.1112 -0.5755
 4124SOL    HW123831   1.037   0.520   2.947 -0.2698 -0.0610 -1.3540
 4124SOL    HW223832   1.153   0.596   2.886 -0.4220  0.3566 -0.3432
 4125SOL     OW23833   2.680   0.284  12.623 -0.1312 -0.1776 -0.1936
 4125SOL    HW123834   2.609   0.347  12.632 -0.6438 -0.4279 -2.4943
 4125SOL    HW223835   2.703   0.267  12.714  1.7079 -1.7663 -0.9463
 4126SOL     OW23836   3.090   2.644   3.561 -0.0490 -0.3857 -0.5881
 4126SOL    HW123837   3.047   2.592   3.629 -0.7087  1.2746  0.2461
 4126SOL    HW223838   3.111   2.581   3.492 -2.5887 -0.9148 -0.9009
 4127SOL     OW23839   2.333   1.603   6.983 -0.6692 -0.3747  0.4508
 4127SOL    HW123840   2.366   1.631   6.897 -1.3165  0.8662  0.6195
 4127SOL    HW223841   2.240   1.596   6.963 -0.9925 -0.6109  2.0882
 4128SOL     OW23842   2.115   1.966  11.663  0.1499 -0.3556  0.1581
 4128SOL    HW123843   2.134   1.995  11.574  0.7724 -1.3570 -0.0422
 4128SOL    HW223844   2.176   1.892  11.670 -0.8927 -1.1140  1.1600
 4129SOL     OW23845   2.383   2.162   3.057  0.1801 -0.9963  0.0391
 4129SOL    HW123846   2.397   2.129   2.968  0.7995 -0.4101 -0.0865
 4129SOL    HW223847   2.417   2.096   3.117  2.7546 -0.7757 -1.1667
 4130SOL     OW23848   2.209   2.522   3.639  0.0912  0.0901  0.7656
 4130SOL    HW123849   2.170   2.446   3.683 -0.3791 -0.7262 -1.0583
 4130SOL    HW223850   2.158   2.590   3.684  1.2507  0.9614  0.7817
 4131SOL     OW23851   0.058   0.188   6.667 -0.3073  0.4022  0.2352
 4131SOL    HW123852   0.089   0.278   6.659  1.7892 -0.5195 -1.9562
 4131SOL    HW223853   0.137   0.138   6.686 -0.7299 -0.5624 -0.5103
 4132SOL     OW23854   2.184   1.105   7.630 -0.0473 -0.1993 -0.1979
 4132SOL    HW123855   2.133   1.173   7.586 -1.2637 -0.1024  1.3239
 4132SOL    HW223856   2.200   1.059   7.548 -0.6055  0.5695 -0.7462
 4133SOL     OW23857   1.299   4.145   9.499  0.2704 -0.0436 -0.2701
 4133SOL    HW123858   1.279   4.165   9.407  4.0265  0.2935 -1.0276
 4133SOL    HW223859   1.227   4.187   9.546  0.8891  0.4538  0.2320
 4134SOL     OW23860   0.171   1.967   9.314  0.4144 -0.0861 -0.6115
 4134SOL    HW123861   0.089   2.005   9.283  1.1987  2.2715  0.1762
 4134SOL    HW223862   0.226   2.042   9.337 -0.7374 -0.3021  2.9298
 4135SOL     OW23863   4.085   0.730  10.126 -0.0311 -0.3275 -0.2209
 4135SOL    HW123864   4.037   0.693  10.200  0.6974  1.7988  1.2856
 4135SOL    HW223865   4.041   0.811  10.100  0.0306  0.4030  2.0155
 4136SOL     OW23866   0.991   3.743   6.290  0.4083 -0.1096 -0.4647
 4136SOL    HW123867   1.028   3.727   6.377 -2.7989 -1.6337  0.6308
 4136SOL    HW223868   1.051   3.810   6.257 -0.2141  1.3352  1.3307
 4137SOL     OW23869   4.665   3.572   2.996 -0.3006  0.2753 -0.0120
 4137SOL    HW123870   4.644   3.531   2.912 -1.4918  0.7732  0.0478
 4137SOL    HW223871   0.017   3.520   3.026 -0.9587  0.0860  1.3031
 4138SOL     OW23872   3.682   2.642   3.457  0.1527 -0.6096  0.5893
 4138SOL    HW123873   3.747   2.579   3.427  0.0662 -1.8052  2.8759
 4138SOL    HW223874   3.625   2.599   3.521  0.1877 -1.3752  0.1030
 4139SOL     OW23875   4.152   1.229  17.253  0.0233  0.0281 -0.7032
 4139SOL    HW123876   4.114   1.314  17.274  0.7545  0.1029  0.3107
 4139SOL    HW223877   4.240   1.259  17.229 -0.1487  0.8454 -0.2994
 4140SOL     OW23878   1.050   1.366   7.584  0.7989  0.1019  0.5138
 4140SOL    HW123879   1.104   1.301   7.628  0.7552  0.4202  1.0389
 4140SOL    HW223880   1.035   1.427   7.656  1.5830 -0.3585  1.0682
 4141SOL     OW23881   0.668   3.816  16.906 -0.1622  0.2961  0.4649
 4141SOL    HW123882   0.743   3.853  16.953 -0.0898  2.4925 -1.3856
 4141SOL    HW223883   0.644   3.885  16.845  0.5036  1.4450  1.5090
 4142SOL     OW23884   0.332   1.935   3.401 -0.1968 -0.0480  0.1061
 4142SOL    HW123885   0.398   1.982   3.451 -1.1626  1.3883  0.0332
 4142SOL    HW223886   0.379   1.919   3.319  0.3241 -0.5893  0.5130
 4143SOL     OW23887   2.468   1.418   2.784  0.6074  0.4200 -0.3140
 4143SOL    HW123888   2.543   1.463   2.746 -0.1066  0.8334 -1.2202
 4143SOL    HW223889   2.507   1.345   2.834  2.5762  1.6708 -0.0208
 4144SOL     OW23890   4.317   3.652   4.066  0.1795 -0.1878 -0.5411
 4144SOL    HW123891   4.227   3.673   4.043  0.0653  1.2016  1.1118
 4144SOL    HW223892   4.361   3.682   3.986  2.4499 -0.8518  0.4712
 4145SOL     OW23893   2.862   3.590   4.508 -0.3716 -0.8180  0.0232
 4145SOL    HW123894   2.954   3.583   4.532  0.0384 -0.8898 -1.5500
 4145SOL    HW223895   2.871   3.571   4.414 -0.2553  0.9310 -0.3104
 4146SOL     OW23896   2.785   3.748   8.138 -0.5277 -0.0464  0.6420
 4146SOL    HW123897   2.732   3.826   8.155  0.9657  0.9447  0.7448
 4146SOL    HW223898   2.727   3.674   8.118  0.8341 -0.5712 -1.2632
 4147SOL     OW23899   4.395   0.312   8.888 -0.7406  0.1943 -0.2648
 4147SOL    HW123900   4.332   0.317   8.816 -0.1861 -0.9556 -0.8388
 4147SOL    HW223901   4.461   0.253   8.850 -1.4448  0.2661 -1.6268
 4148SOL     OW23902   3.619   2.465   2.248  0.8308  0.0111  0.5314
 4148SOL    HW123903   3.684   2.512   2.299  0.0555  2.1833 -0.4998
 4148SOL    HW223904   3.585   2.530   2.187  2.7150  1.8634  1.4796
 4149SOL     OW23905   1.478   1.490   7.393  0.2419 -0.0364 -0.1833
 4149SOL    HW123906   1.459   1.470   7.301 -1.9804  1.6905 -0.0819
 4149SOL    HW223907   1.409   1.552   7.416  0.8313  0.4438  0.2938
 4150SOL     OW23908   0.967   0.495   2.604 -1.0493  0.4444 -0.1191
 4150SOL    HW123909   0.910   0.569   2.585 -0.2049  1.2164  0.3114
 4150SOL    HW223910   0.934   0.472   2.691 -1.8054  0.6596 -0.3451
 4151SOL     OW23911   2.357   2.148   7.702  0.0911 -0.1362 -0.0887
 4151SOL    HW123912   2.415   2.072   7.699 -2.2889 -2.0266  1.3560
 4151SOL    HW223913   2.357   2.171   7.609  0.2704  0.6873  0.1168
 4152SOL     OW23914   3.437   1.199  17.127  0.1862  0.2476 -0.1555
 4152SOL    HW123915   3.376   1.264  17.090  0.6462  0.8455  0.1239
 4152SOL    HW223916   3.422   1.198  17.222 -2.0993  0.4987 -0.4949
 4153SOL     OW23917   1.406   1.096   8.894 -0.3308  0.3389  0.5365
 4153SOL    HW123918   1.481   1.100   8.953 -0.0793  1.1448  0.1644
 4153SOL    HW223919   1.413   1.009   8.855  2.5546  0.1700  1.4124
 4154SOL     OW23920   0.960   2.690   7.747 -0.1270  0.3879  0.7761
 4154SOL    HW123921   0.965   2.671   7.654  1.0679 -0.3103  0.9770
 4154SOL    HW223922   1.017   2.767   7.748  0.3775  0.0261 -0.3679
 4155SOL     OW23923   4.395   0.017  11.034 -0.4628 -0.0071  0.3512
 4155SOL    HW123924   4.405   0.088  10.970 -1.5108 -0.3937 -0.2361
 4155SOL    HW223925   4.328   0.059  11.088 -0.1647 -1.1663  1.6281
 4156SOL     OW23926   4.700   1.242   5.973 -0.4127 -0.2971  0.2392
 4156SOL    HW123927   4.695   1.249   6.068  0.5337 -0.4461  0.3013
 4156SOL    HW223928   0.071   1.244   5.951 -1.0183  1.5610 -2.1887
 4157SOL     OW23929   3.995   3.489  12.671 -0.7193 -0.3536 -0.0085
 4157SOL    HW123930   3.971   3.575  12.636 -2.6372 -0.9222 -0.1196
 4157SOL    HW223931   3.941   3.438  12.611 -0.2771  0.2501 -0.9290
 4158SOL     OW23932   0.659   2.453   4.330 -0.0411  0.6815  0.1489
 4158SOL    HW123933   0.636   2.360   4.330  1.2883  0.3489  0.8789
 4158SOL    HW223934   0.753   2.453   4.310  0.1454 -0.0720  1.0059
 4159SOL     OW23935   2.137   0.198   7.661 -0.4753  0.2427  0.0684
 4159SOL    HW123936   2.062   0.242   7.620 -1.0607 -0.1333  0.7484
 4159SOL    HW223937   2.195   0.271   7.683  0.8791 -1.4800  2.1818
 4160SOL     OW23938   0.461   3.199   2.022 -0.0504  0.1621  0.3627
 4160SOL    HW123939   0.486   3.246   1.943  1.7676  1.3120  1.6336
 4160SOL    HW223940   0.532   3.217   2.084  0.3670 -2.3235  0.6160
 4161SOL     OW23941   4.323   2.174   7.285 -0.3312 -0.2622 -0.5492
 4161SOL    HW123942   4.330   2.156   7.379 -1.0875  2.0526 -0.0713
 4161SOL    HW223943   4.381   2.250   7.285 -1.3880  0.5284 -0.6289
 4162SOL     OW23944   1.909   3.682   9.459 -0.5620 -0.3221 -0.4307
 4162SOL    HW123945   1.894   3.608   9.518  0.2149 -0.5296 -0.4875
 4162SOL    HW223946   1.940   3.738   9.530 -1.8294 -0.9701  0.6401
 4163SOL     OW23947   3.550   1.021   8.450 -0.0713  0.7717 -0.2662
 4163SOL    HW123948   3.535   1.004   8.357  1.9860 -1.3484 -0.1930
 4163SOL    HW223949   3.518   1.111   8.452  1.4309  1.3082 -0.5564
 4164SOL     OW23950   1.004   3.580   7.978  0.1938  0.4987 -0.1726
 4164SOL    HW123951   0.979   3.580   7.885  1.6565  0.7265 -0.5668
 4164SOL    HW223952   0.969   3.665   8.007 -0.5081 -0.8979  3.0140
 4165SOL     OW23953   1.291   0.377   2.562  0.2026 -0.5593 -0.1764
 4165SOL    HW123954   1.317   0.336   2.645  0.7067  0.9449  0.4183
 4165SOL    HW223955   1.308   0.309   2.497  0.2400 -0.1530 -0.5875
 4166SOL     OW23956   2.016   0.871   4.136  0.3225 -0.8759 -0.5479
 4166SOL    HW123957   1.944   0.841   4.081  1.0612  0.9847 -2.5197
 4166SOL    HW223958   2.080   0.901   4.072  2.8368 -0.7068  2.0548
 4167SOL     OW23959   0.461   0.984   4.732  0.5239 -0.1529 -0.0331
 4167SOL    HW123960   0.434   1.043   4.803  2.8057 -1.4849  1.9740
 4167SOL    HW223961   0.378   0.940   4.713  0.1768  0.5434 -0.1127
 4168SOL     OW23962   0.881   3.781   9.914 -0.5867  0.7981 -0.3163
 4168SOL    HW123963   0.869   3.873   9.940  0.8610  0.4041  1.7662
 4168SOL    HW223964   0.817   3.743   9.974  0.0970 -0.3874 -0.3391
 4169SOL     OW23965   3.587   4.425   4.430 -0.8729 -0.2632 -0.4036
 4169SOL    HW123966   3.581   4.406   4.523  0.5502  1.7704  0.0944
 4169SOL    HW223967   3.502   4.460   4.402 -1.7680  1.1431  4.1525
 4170SOL     OW23968   3.161   1.034   7.535  0.2335  0.0285 -0.6674
 4170SOL    HW123969   3.097   1.053   7.603  0.1179  1.1967 -1.1018
 4170SOL    HW223970   3.145   1.115   7.486  1.9909  0.1966 -0.9793
 4171SOL     OW23971   3.938   2.404   1.659  0.4142 -0.2834  0.1902
 4171SOL    HW123972   3.872   2.433   1.596 -0.6193  0.1892  1.4771
 4171SOL    HW223973   3.984   2.487   1.670  0.1121  0.0111 -0.7775
 4172SOL     OW23974   4.130   2.089   7.909  0.3629 -0.1032 -0.1424
 4172SOL    HW123975   4.166   2.169   7.870 -0.3847  0.9353  1.2870
 4172SOL    HW223976   4.166   2.021   7.852  0.2136 -0.4029  0.1236
 4173SOL     OW23977   1.510   0.881  14.927  0.3029  0.2287 -0.1103
 4173SOL    HW123978   1.497   0.937  15.004  2.2591 -0.1911  0.5281
 4173SOL    HW223979   1.591   0.835  14.949 -0.3887 -0.5643  0.7490
 4174SOL     OW23980   1.276   3.642   1.578 -0.3473  0.2574 -0.6083
 4174SOL    HW123981   1.254   3.710   1.642 -1.6393 -1.9289  1.2848
 4174SOL    HW223982   1.242   3.564   1.622 -1.9668  1.1650 -0.2717
 4175SOL     OW23983   1.714   1.994  14.898  0.1430  0.5376  0.2052
 4175SOL    HW123984   1.724   2.089  14.890 -0.9557  0.7771  1.7776
 4175SOL    HW223985   1.716   1.964  14.807 -0.0757 -1.0442  0.7295
 4176SOL     OW23986   4.113   0.219  15.354 -0.1748 -0.1261  0.4564
 4176SOL    HW123987   4.073   0.216  15.267  2.7391  1.5675 -0.9297
 4176SOL    HW223988   4.165   0.139  15.353 -0.0037  0.0350 -2.0176
 4177SOL     OW23989   0.181   3.579   9.059 -0.4659 -0.0796 -0.2592
 4177SOL    HW123990   0.173   3.570   8.964  1.1808 -0.0268 -0.4016
 4177SOL    HW223991   0.258   3.636   9.060 -0.6702  0.1811  1.8234
 4178SOL     OW23992   0.671   4.699   3.195 -0.0470 -0.5911 -0.5363
 4178SOL    HW123993   0.593   4.647   3.172 -1.9176  1.9574  0.1109
 4178SOL    HW223994   0.730   4.624   3.184 -0.0150 -0.4569 -1.3032
 4179SOL     OW23995   3.111   2.392   4.669  0.0094  0.0002  0.4815
 4179SOL    HW123996   3.107   2.483   4.639 -1.0828  0.4739  2.0517
 4179SOL    HW223997   3.206   2.383   4.666  0.2157  1.0819  3.7730
 4180SOL     OW23998   1.315   3.601   6.449  0.6509  0.2524 -0.7087
 4180SOL    HW123999   1.307   3.616   6.355  1.3513 -1.2230 -0.9943
 4180SOL    HW224000   1.230   3.558   6.458  0.0081  1.6848  0.1676
 4181SOL     OW24001   1.213   3.387   0.063 -0.5703  0.4910  0.0870
 4181SOL    HW124002   1.209   3.439   0.143 -0.9539 -0.0142  0.3956
 4181SOL    HW224003   1.131   3.413   0.022 -0.0659 -1.0097 -1.8848
 4182SOL     OW24004   4.070   1.519   0.782 -0.2478 -0.5896  0.6595
 4182SOL    HW124005   4.133   1.483   0.719  1.7095  1.4035  1.4823
 4182SOL    HW224006   4.002   1.539   0.717  1.7331 -0.1493 -1.2808
 4183SOL     OW24007   2.136   4.522  10.051 -0.0913 -0.2899 -0.4629
 4183SOL    HW124008   2.180   4.608  10.053 -0.7423 -0.0215  2.1481
 4183SOL    HW224009   2.198   4.452  10.070  2.6513  2.9095  2.4390
 4184SOL     OW24010   4.319   3.869   3.488  0.6551 -0.3114  0.5873
 4184SOL    HW124011   4.278   3.847   3.571 -1.0841 -1.2466 -0.5168
 4184SOL    HW224012   4.347   3.785   3.453  0.1593  0.4090 -1.5562
 4185SOL     OW24013   2.709   2.563   8.038  0.3828 -0.1358  0.1359
 4185SOL    HW124014   2.704   2.628   8.108  0.6107  0.3344 -0.2748
 4185SOL    HW224015   2.700   2.474   8.071  3.1323 -0.3188  0.3389
 4186SOL     OW24016   1.841   3.935   5.542 -0.2287 -0.0852  0.2749
 4186SOL    HW124017   1.749   3.934   5.517 -0.2114  0.3220  0.1917
 4186SOL    HW224018   1.871   3.975   5.460 -1.9551  1.5446  0.4315
 4187SOL     OW24019   1.734   1.381   6.817  0.1695  0.0378  0.6417
 4187SOL    HW124020   1.733   1.470   6.853  1.9020  0.6105 -0.7140
 4187SOL    HW224021   1.814   1.337   6.846 -0.3661 -0.2117  1.7620
 4188SOL     OW24022   4.605   2.681   6.679  0.4307 -0.4108 -0.1306
 4188SOL    HW124023   4.547   2.635   6.618 -0.1774 -0.2801  0.3648
 4188SOL    HW224024   4.597   2.645   6.767  2.0299 -0.8278 -0.1460
 4189SOL     OW24025   4.250   3.456   5.999  0.6560 -0.0300  0.2285
 4189SOL    HW124026   4.221   3.464   5.908  1.1752 -2.7763 -0.1817
 4189SOL    HW224027   4.326   3.399   5.989  1.5473  0.4732  4.4392
 4190SOL     OW24028   0.836   2.405   5.789  0.0816  0.1644 -0.0427
 4190SOL    HW124029   0.811   2.417   5.881 -0.6387 -1.8452  0.0226
 4190SOL    HW224030   0.766   2.459   5.754  0.4035  1.3005  1.0591
 4191SOL     OW24031   1.654   4.349  10.754 -0.0989  0.1386  0.4391
 4191SOL    HW124032   1.634   4.442  10.765  0.8666  0.3749  0.1596
 4191SOL    HW224033   1.747   4.348  10.780  0.0878 -0.4627 -0.2515
 4192SOL     OW24034   0.625   3.291   3.020 -0.7601  0.0388  0.5599
 4192SOL    HW124035   0.619   3.385   3.001 -0.6680 -0.5977 -2.5634
 4192SOL    HW224036   0.660   3.301   3.109  0.7734  0.3521 -0.0880
 4193SOL     OW24037   4.554   1.245   2.640 -0.9278 -0.0162 -0.4106
 4193SOL    HW124038   4.565   1.159   2.600 -2.4018  0.0379 -0.9392
 4193SOL    HW224039   4.534   1.297   2.562 -0.4956 -0.9403 -1.1364
 4194SOL     OW24040   2.301   3.314   8.965  0.5624  0.1064 -0.8676
 4194SOL    HW124041   2.287   3.298   8.872 -2.9518 -2.6871  0.1203
 4194SOL    HW224042   2.273   3.404   8.980 -1.0760 -0.2530 -1.7562
 4195SOL     OW24043   3.956   1.483  17.349 -0.1334 -0.3200 -0.2999
 4195SOL    HW124044   3.901   1.532  17.288  0.0362  1.2766  0.8235
 4195SOL    HW224045   3.890   1.433  17.398  0.1827 -0.1577  0.2939
 4196SOL     OW24046   1.365   1.487   2.134  0.1938 -0.1926  0.1640
 4196SOL    HW124047   1.423   1.560   2.150  0.5617 -0.3791 -0.3166
 4196SOL    HW224048   1.389   1.422   2.200 -1.2064 -1.2468 -0.3519
 4197SOL     OW24049   3.955   3.835   4.939 -0.4931  0.4324  0.5934
 4197SOL    HW124050   4.020   3.845   5.009  0.4381 -0.5138 -0.1425
 4197SOL    HW224051   3.999   3.784   4.872 -0.7180 -0.5783  1.2116
 4198SOL     OW24052   2.879   2.364   6.221  0.1044 -0.0912 -0.1512
 4198SOL    HW124053   2.943   2.354   6.150 -1.1417  0.4856 -1.3502
 4198SOL    HW224054   2.816   2.296   6.197 -0.9023  0.5622  0.6782
 4199SOL     OW24055   0.634   3.765   5.534  0.2313 -0.7158 -0.1066
 4199SOL    HW124056   0.682   3.848   5.528  0.4523 -0.8840 -0.6526
 4199SOL    HW224057   0.542   3.766   5.560  0.5910  0.4609  1.1310
 4200SOL     OW24058   0.677   3.701   9.297 -0.6473 -0.1128  0.0572
 4200SOL    HW124059   0.582   3.692   9.297 -0.6688  0.1255 -0.4458
 4200SOL    HW224060   0.705   3.647   9.371  1.1700  2.9887  1.6524
 4201SOL     OW24061   1.347   1.914   5.953  0.0741 -1.1515 -0.0097
 4201SOL    HW124062   1.370   2.005   5.973 -0.6137 -0.3989 -2.6392
 4201SOL    HW224063   1.266   1.924   5.903  1.1605 -0.1825 -1.5776
 4202SOL     OW24064   3.777   0.202  15.919  0.0418  0.1944 -0.1643
 4202SOL    HW124065   3.824   0.130  15.878 -2.0128 -0.5506 -1.2068
 4202SOL    HW224066   3.824   0.277  15.882 -1.3958  1.8513  1.3032
 4203SOL     OW24067   0.397   4.310   8.741 -0.4791  0.7393  0.6267
 4203SOL    HW124068   0.396   4.219   8.710 -0.1863  0.8089  0.4153
 4203SOL    HW224069   0.321   4.315   8.799 -0.2426  0.6930  0.9437
 4204SOL     OW24070   2.432   2.816   8.128 -0.2958 -0.0111 -0.1149
 4204SOL    HW124071   2.404   2.730   8.098  0.0572 -0.8689  2.0196
 4204SOL    HW224072   2.382   2.831   8.209  0.6478 -2.1320  0.8387
 4205SOL     OW24073   0.296   1.500   6.329  0.5408  0.2496  0.0523
 4205SOL    HW124074   0.359   1.454   6.385 -1.1584 -3.0745 -0.7883
 4205SOL    HW224075   0.211   1.483   6.369  0.4156 -0.4339 -0.5035
 4206SOL     OW24076   2.981   3.083  15.924 -0.2701 -0.1473  0.0261
 4206SOL    HW124077   2.903   3.116  15.879  0.5211  0.6620 -0.7360
 4206SOL    HW224078   2.929   3.031  15.985 -1.3884 -0.3504 -1.0997
 4207SOL     OW24079   4.453   1.438   3.686  0.0332 -0.0378 -0.9141
 4207SOL    HW124080   4.445   1.517   3.633 -0.5854 -0.4395 -1.4178
 4207SOL    HW224081   4.547   1.422   3.680  0.2446  0.5045  1.0537
 4208SOL     OW24082   1.316   2.208   1.943  0.5427 -0.1041  0.2368
 4208SOL    HW124083   1.304   2.295   1.903  0.7580 -0.3745 -0.4255
 4208SOL    HW224084   1.361   2.160   1.873 -0.5702  0.4034 -0.8367
 4209SOL     OW24085   3.619   1.521  12.824  0.4792 -0.4572  0.4090
 4209SOL    HW124086   3.580   1.589  12.879 -1.1580 -0.0388 -1.2532
 4209SOL    HW224087   3.697   1.510  12.878  0.6298  0.3154  0.3541
 4210SOL     OW24088   0.020   2.767   1.987 -0.2179  0.1800 -0.5259
 4210SOL    HW124089   0.042   2.829   2.057  1.0746  1.9240 -2.4675
 4210SOL    HW224090   0.105   2.768   1.943  0.2299 -0.9928  0.2977
 4211SOL     OW24091   2.197   0.176   1.061  0.0901 -0.1710 -0.6323
 4211SOL    HW124092   2.206   0.188   1.155  0.3771  0.0396 -0.6853
 4211SOL    HW224093   2.286   0.156   1.032 -0.0497 -1.5399 -0.0604
 4212SOL     OW24094   1.673   1.044   7.169  0.6545  0.1988 -0.5662
 4212SOL    HW124095   1.752   1.077   7.125  1.7800  1.5596  2.4024
 4212SOL    HW224096   1.714   0.984   7.232 -0.3767  0.9353  0.8107
 4213SOL     OW24097   3.862   1.415   6.762 -1.0747 -0.0983  0.3481
 4213SOL    HW124098   3.951   1.413   6.726 -1.3361 -0.3262 -0.2709
 4213SOL    HW224099   3.846   1.508   6.779 -1.2359  0.6495 -3.9127
 4214SOL     OW24100   1.749   1.807   8.431  0.1007 -0.1090  0.0119
 4214SOL    HW124101   1.749   1.739   8.499  2.7832 -1.3640 -1.2327
 4214SOL    HW224102   1.706   1.871   8.487 -1.6388  0.7824 -2.3515
 4215SOL     OW24103   3.666   1.416  11.270 -0.0929  0.2432  0.0503
 4215SOL    HW124104   3.754   1.454  11.266 -0.7131  1.3721 -2.5704
 4215SOL    HW224105   3.680   1.370  11.187 -1.2063 -0.6838  0.3819
 4216SOL     OW24106   3.955   4.307  10.677 -0.6245  0.1783 -0.5866
 4216SOL    HW124107   4.035   4.359  10.676 -0.4200 -0.0814  1.8943
 4216SOL    HW224108   3.892   4.361  10.725 -0.7785 -2.4308  2.1768
 4217SOL     OW24109   3.338   0.622   1.060  0.1291 -0.1985 -0.0701
 4217SOL    HW124110   3.350   0.590   1.149  0.9373 -2.0286 -0.8320
 4217SOL    HW224111   3.340   0.717   1.065  3.4622 -0.1234 -2.8482
 4218SOL     OW24112   1.849   2.820   3.595 -0.3642  0.3260  0.1781
 4218SOL    HW124113   1.911   2.834   3.524 -2.5065  1.3904 -1.4690
 4218SOL    HW224114   1.767   2.793   3.554 -0.3149  1.0593 -0.3949
 4219SOL     OW24115   0.773   1.696   7.740  0.5627  0.1603  0.2206
 4219SOL    HW124116   0.834   1.623   7.749 -0.8628 -1.1048 -0.3858
 4219SOL    HW224117   0.756   1.706   7.646  0.1934  0.7416  0.3477
 4220SOL     OW24118   2.461   3.165   4.852  0.5688  0.2295 -0.4397
 4220SOL    HW124119   2.539   3.203   4.892 -0.1075  0.6972  0.4353
 4220SOL    HW224120   2.425   3.135   4.936 -1.1181 -0.7798 -1.5341
 4221SOL     OW24121   2.896   2.484   4.261 -0.3904  0.2972  0.1042
 4221SOL    HW124122   2.986   2.452   4.266 -0.0168  1.5821  1.5408
 4221SOL    HW224123   2.895   2.529   4.346  0.4827 -2.4644  1.5581
 4222SOL     OW24124   2.146   2.509  10.425  0.0359  0.5851 -0.0162
 4222SOL    HW124125   2.090   2.527  10.349  1.1578 -1.9990 -1.4465
 4222SOL    HW224126   2.089   2.539  10.497  1.4195  1.1446  0.8342
 4223SOL     OW24127   1.823   1.867   4.141  0.4956 -0.5995 -0.2023
 4223SOL    HW124128   1.836   1.801   4.209  2.5766  1.0981  1.0628
 4223SOL    HW224129   1.880   1.930   4.185  1.1266  0.3046 -2.2788
 4224SOL     OW24130   2.785   1.407   6.524  0.5981 -0.0389 -0.6487
 4224SOL    HW124131   2.698   1.417   6.563  0.9351 -0.2811  0.1693
 4224SOL    HW224132   2.822   1.335   6.575 -1.6235 -0.6811  0.0383
 4225SOL     OW24133   3.912   0.900   1.332 -0.2530 -0.0887  0.0109
 4225SOL    HW124134   3.820   0.885   1.307 -0.0766 -0.1842 -0.5966
 4225SOL    HW224135   3.942   0.811   1.353 -0.6428 -0.8250 -2.5320
 4226SOL     OW24136   0.879   0.174   2.240 -0.5802 -0.5912 -0.2707
 4226SOL    HW124137   0.843   0.206   2.322  0.8274 -2.1639  0.9768
 4226SOL    HW224138   0.800   0.174   2.186 -0.2619 -2.2412 -0.7488
 4227SOL     OW24139   2.497   2.409   7.815  0.1781 -0.4379 -0.4243
 4227SOL    HW124140   2.495   2.324   7.771  2.5138 -1.2423  1.0232
 4227SOL    HW224141   2.512   2.381   7.906  1.2503  1.6774  0.0435
 4228SOL     OW24142   1.403   0.249   4.202  0.0889 -0.3778 -0.1345
 4228SOL    HW124143   1.319   0.274   4.240  0.6982  1.6939 -0.1663
 4228SOL    HW224144   1.416   0.332   4.156  0.5135  1.0522  2.5030
 4229SOL     OW24145   3.304   0.038   7.374  0.1290 -0.0883  0.1400
 4229SOL    HW124146   3.390   0.079   7.383 -0.7513  1.9603 -0.6134
 4229SOL    HW224147   3.266   0.048   7.461 -1.8190  0.5066 -0.7711
 4230SOL     OW24148   1.255   2.609   7.241  0.0062 -0.7068  0.1805
 4230SOL    HW124149   1.328   2.555   7.271 -0.8347 -2.1261 -0.3160
 4230SOL    HW224150   1.193   2.598   7.313 -0.1575  0.8109  0.2738
 4231SOL     OW24151   3.212   1.312   9.447  0.4807 -0.7401  0.5014
 4231SOL    HW124152   3.135   1.288   9.396 -0.2767  3.1794 -0.1644
 4231SOL    HW224153   3.180   1.328   9.536 -1.5537 -0.8555 -0.2050
 4232SOL     OW24154   2.241   1.936   3.317  0.3881 -0.0064 -0.4939
 4232SOL    HW124155   2.249   1.841   3.323  1.5657  0.1678  0.8957
 4232SOL    HW224156   2.324   1.962   3.278  1.3908 -1.7489  0.4456
 4233SOL     OW24157   0.689   2.770  17.329  0.2683  0.2474 -0.1395
 4233SOL    HW124158   0.655   2.718  17.401  0.8039 -0.0261 -0.0867
 4233SOL    HW224159   0.647   2.855  17.337  1.2572  0.9543 -2.2906
 4234SOL     OW24160   2.441   0.021   1.365 -0.2230 -0.1734  0.1594
 4234SOL    HW124161   2.536   0.034   1.374 -0.6709  1.5644  2.0654
 4234SOL    HW224162   2.430   4.670   1.425 -0.3218 -0.5871 -0.3640
 4235SOL     OW24163   2.784   4.005   4.176  0.1580  0.0261  0.1467
 4235SOL    HW124164   2.718   4.060   4.133 -0.0605  0.2695  0.7870
 4235SOL    HW224165   2.855   3.995   4.112 -1.6740 -0.5955 -1.7782
 4236SOL     OW24166   4.676   1.103   4.277 -0.2259 -0.0281 -0.4366
 4236SOL    HW124167   4.636   1.018   4.296 -0.8512  0.0995 -1.1440
 4236SOL    HW224168   4.695   1.139   4.363 -1.5517  1.2782 -0.6904
 4237SOL     OW24169   0.079   1.871  16.340  0.0980  0.3891 -0.5492
 4237SOL    HW124170   0.054   1.784  16.371  0.0078  0.2238 -1.0812
 4237SOL    HW224171   0.146   1.840  16.280  0.5453 -0.0244  0.1704
 4238SOL     OW24172   0.104   4.005  10.352 -0.4752  0.0455  0.4367
 4238SOL    HW124173   0.158   4.084  10.356 -0.4880  0.2100 -2.5016
 4238SOL    HW224174   0.062   4.019  10.267  1.0622 -0.0022 -0.3258
 4239SOL     OW24175   2.492   1.246   3.928  0.2853 -0.0556 -0.4504
 4239SOL    HW124176   2.462   1.333   3.955 -1.8657 -1.2468  0.9912
 4239SOL    HW224177   2.507   1.261   3.835  2.6388  0.3243  0.0080
 4240SOL     OW24178   4.158   2.979   8.494 -0.0664 -0.0165  0.7958
 4240SOL    HW124179   4.113   2.945   8.571 -0.0754 -3.0352 -0.5597
 4240SOL    HW224180   4.232   2.918   8.483  1.3099  2.0375 -1.5191
 4241SOL     OW24181   3.207   2.576   9.855  0.0346  0.1091 -0.0133
 4241SOL    HW124182   3.183   2.660   9.896  1.2957  2.0382 -3.2467
 4241SOL    HW224183   3.273   2.609   9.795  0.5159 -0.2141  0.3405
 4242SOL     OW24184   3.029   2.856   3.140  0.0860 -0.0855  0.2521
 4242SOL    HW124185   3.069   2.775   3.169  0.7714 -0.1599 -0.8888
 4242SOL    HW224186   3.097   2.917   3.168  1.5683 -1.6584  0.0307
 4243SOL     OW24187   4.346   2.883   2.774 -0.4826  0.0426 -0.2494
 4243SOL    HW124188   4.267   2.831   2.788 -1.5319  1.1293 -2.2368
 4243SOL    HW224189   4.405   2.814   2.746 -2.2887 -1.6429  0.1147
 4244SOL     OW24190   1.457   0.038   2.707 -0.1329  0.5561 -0.5162
 4244SOL    HW124191   1.508   0.097   2.763 -0.1210 -2.0194  2.1902
 4244SOL    HW224192   1.377   0.090   2.712 -1.2718 -1.0089 -2.8830
 4245SOL     OW24193   1.266   3.798   3.151  0.1199  0.1197  0.3616
 4245SOL    HW124194   1.306   3.775   3.067 -0.4788  0.0406  0.0999
 4245SOL    HW224195   1.314   3.730   3.198 -1.4407 -1.9334 -1.0057
 4246SOL     OW24196   0.323   1.395   4.782  0.0098 -0.4399  0.2002
 4246SOL    HW124197   0.282   1.336   4.720  2.1931 -2.5174  0.7208
 4246SOL    HW224198   0.402   1.343   4.792 -0.6801 -1.6605 -0.8068
 4247SOL     OW24199   4.170   3.423   5.069  0.2994  0.2799  0.2591
 4247SOL    HW124200   4.255   3.390   5.100  2.5627  4.9366 -0.8860
 4247SOL    HW224201   4.146   3.361   5.000  2.5712 -2.3469  1.8203
 4248SOL     OW24202   0.626   4.570  11.711 -0.1567  0.5835  0.4500
 4248SOL    HW124203   0.722   4.580  11.711 -0.0002 -0.8801  0.8864
 4248SOL    HW224204   0.604   4.640  11.650  0.3951  1.8746  1.7256
 4249SOL     OW24205   2.916   2.737  17.587 -0.2563 -0.0655 -0.3051
 4249SOL    HW124206   2.994   2.757  17.534 -0.3805 -0.5076 -0.6505
 4249SOL    HW224207   2.953   2.714  17.672 -2.4422  1.5953  1.0799
 4250SOL     OW24208   0.677   3.903   9.589 -0.1630 -0.7482 -0.3183
 4250SOL    HW124209   0.732   3.969   9.631 -0.6857  1.2809 -2.8711
 4250SOL    HW224210   0.701   3.894   9.497  1.7968 -1.8696  0.2963
 4251SOL     OW24211   4.301   0.824   7.472 -0.5315  0.1698  0.6882
 4251SOL    HW124212   4.320   0.792   7.560  0.9536  0.1628  0.3688
 4251SOL    HW224213   4.387   0.850   7.438 -0.0337 -2.0619  0.2100
 4252SOL     OW24214   3.735   4.069   6.999 -0.9853  0.0982 -0.2390
 4252SOL    HW124215   3.800   4.002   7.021 -1.2861 -0.1686 -0.1498
 4252SOL    HW224216   3.766   4.101   6.915  2.5394  0.5202  1.2457
 4253SOL     OW24217   3.160   4.160   9.693 -0.2041 -0.7312 -0.3463
 4253SOL    HW124218   3.107   4.219   9.746  0.5551 -1.4971  1.2709
 4253SOL    HW224219   3.149   4.078   9.743 -0.8170 -0.6818 -0.4008
 4254SOL     OW24220   1.275   3.754   6.699  0.0396  0.0599  0.4082
 4254SOL    HW124221   1.366   3.757   6.730 -0.3389  1.6018  1.3598
 4254SOL    HW224222   1.274   3.691   6.627  0.0211 -1.1391  1.4561
 4255SOL     OW24223   3.046   1.966   2.731 -0.4165  0.1472  0.0116
 4255SOL    HW124224   3.071   1.874   2.745  0.6624  0.6580  1.4233
 4255SOL    HW224225   3.132   2.005   2.720 -0.2190 -0.0106  0.9592
 4256SOL     OW24226   2.337   4.505   7.015  0.1941 -0.1472 -0.6426
 4256SOL    HW124227   2.417   4.462   7.047  0.5082  1.3917  0.6255
 4256SOL    HW224228   2.270   4.444   7.045 -0.7984 -0.4279 -3.4701
 4257SOL     OW24229   3.255   2.174   3.025  0.4587  0.1743  0.2008
 4257SOL    HW124230   3.162   2.181   3.049 -0.1452  2.5205 -2.7241
 4257SOL    HW224231   3.285   2.171   3.115  0.7508 -0.5634  0.0742
 4258SOL     OW24232   0.154   0.538  11.800  0.0355 -0.1209 -0.3109
 4258SOL    HW124233   0.170   0.526  11.893  0.0156  0.3331 -0.2491
 4258SOL    HW224234   0.242   0.525  11.763 -0.3845  0.1713 -1.4246
 4259SOL     OW24235   1.835   3.551   4.221  0.4038 -0.4065  0.8170
 4259SOL    HW124236   1.751   3.561   4.265 -0.3137 -0.9020 -0.4286
 4259SOL    HW224237   1.813   3.506   4.139  0.0285  1.5971 -0.1832
 4260SOL     OW24238   2.724   0.050   3.168 -0.0248 -0.1050  0.2065
 4260SOL    HW124239   2.749   4.713   3.238  0.0107 -1.6139 -1.0749
 4260SOL    HW224240   2.698   0.130   3.212  2.3147  1.2172 -0.8395
 4261SOL     OW24241   1.593   1.160   3.464  0.2230 -0.4498 -0.5157
 4261SOL    HW124242   1.644   1.092   3.507 -0.1693 -1.0408 -0.9851
 4261SOL    HW224243   1.553   1.209   3.536  1.8469 -0.1887  0.1981
 4262SOL     OW24244   2.562   0.426   1.937  0.1234  0.1785 -0.5356
 4262SOL    HW124245   2.471   0.455   1.947  0.0285 -1.1853  2.4696
 4262SOL    HW224246   2.558   0.343   1.889 -0.6957  0.5168 -1.0622
 4263SOL     OW24247   0.641   3.172   6.512 -0.0385 -0.0988 -0.2993
 4263SOL    HW124248   0.650   3.179   6.417  0.8672 -0.6484 -0.2538
 4263SOL    HW224249   0.563   3.227   6.521 -1.0177 -1.5546  0.0809
 4264SOL     OW24250   1.938   3.725   8.094  0.6358 -0.0613  0.2302
 4264SOL    HW124251   1.955   3.660   8.162  2.0215 -0.6523 -0.6873
 4264SOL    HW224252   2.026   3.744   8.062 -0.3771  3.4601 -0.5905
 4265SOL     OW24253   3.619   1.848  17.087  0.2948  0.1226 -0.1043
 4265SOL    HW124254   3.685   1.907  17.122  2.0046 -1.5578 -0.4802
 4265SOL    HW224255   3.677   1.798  17.029  0.7488 -1.8213  2.0423
 4266SOL     OW24256   2.924   4.010   4.403  0.0027 -0.1082  0.2207
 4266SOL    HW124257   2.879   3.959   4.470  1.0087 -2.1344 -0.6643
 4266SOL    HW224258   2.871   3.990   4.325 -0.4391 -0.8434  0.7100
 4267SOL     OW24259   2.699   3.748   8.639  0.4091 -0.6925 -0.4941
 4267SOL    HW124260   2.612   3.743   8.678 -0.3051 -1.4242 -2.1872
 4267SOL    HW224261   2.748   3.778   8.715  0.0627 -0.0766 -0.5079
 4268SOL     OW24262   1.135   1.994  15.322  0.1442  0.1772 -0.3515
 4268SOL    HW124263   1.155   2.087  15.330 -0.2833  0.2633 -0.2619
 4268SOL    HW224264   1.182   1.968  15.401  0.1883  1.2940 -0.0204
 4269SOL     OW24265   1.565   3.293   5.285  0.6522 -0.5717  0.3666
 4269SOL    HW124266   1.607   3.220   5.240 -0.5987 -0.6479 -0.6858
 4269SOL    HW224267   1.620   3.370   5.266  0.0997 -0.0805  0.7615
 4270SOL     OW24268   3.707   2.704  14.359  0.2226 -0.1553 -0.2535
 4270SOL    HW124269   3.680   2.612  14.353  0.3456 -0.1976 -0.1516
 4270SOL    HW224270   3.751   2.694  14.443  0.2259 -2.2741 -0.4942
 4271SOL     OW24271   2.821   3.585  11.577  0.0691  0.1172  0.1872
 4271SOL    HW124272   2.772   3.649  11.627 -1.1790 -1.0337  0.4462
 4271SOL    HW224273   2.757   3.590  11.505 -0.3957  0.5348  0.6319
 4272SOL     OW24274   3.238   2.670  11.169  0.2960  0.1115 -0.6948
 4272SOL    HW124275   3.244   2.585  11.124 -0.0545 -0.7763  0.9120
 4272SOL    HW224276   3.284   2.736  11.119  1.0656  2.1387  2.6994
 4273SOL     OW24277   1.876   1.770  11.676 -0.0277 -0.4443  0.2424
 4273SOL    HW124278   1.954   1.736  11.632 -1.1163  1.3135 -3.0988
 4273SOL    HW224279   1.803   1.710  11.662  0.1154 -0.5845  0.0874
 4274SOL     OW24280   4.381   4.069  12.514  0.4321 -0.2656  0.5390
 4274SOL    HW124281   4.474   4.047  12.519  0.5671  0.0434 -0.4620
 4274SOL    HW224282   4.377   4.155  12.554 -1.1457 -1.1743  2.3115
 4275SOL     OW24283   1.764   2.011  10.170 -0.7723  0.3678  0.3119
 4275SOL    HW124284   1.747   1.960  10.091 -0.7102  0.7765  0.0332
 4275SOL    HW224285   1.859   2.016  10.159 -0.8177  0.2010 -0.1555
 4276SOL     OW24286   4.020   0.567   2.844 -0.2542 -0.4389  0.4049
 4276SOL    HW124287   4.069   0.539   2.921  0.2517  0.6137  0.4667
 4276SOL    HW224288   4.009   0.482   2.803  1.6954  0.7797 -2.6010
 4277SOL     OW24289   1.545   4.494   0.781 -0.0493  0.3721  0.0033
 4277SOL    HW124290   1.535   4.499   0.876 -0.8880  1.5915 -0.1497
 4277SOL    HW224291   1.471   4.539   0.741  1.9163  2.1126 -1.7294
 4278SOL     OW24292   2.930   3.925  16.966  0.0965  0.4842  0.5041
 4278SOL    HW124293   3.015   3.970  16.975  0.3188 -0.0344  0.9619
 4278SOL    HW224294   2.952   3.837  16.935  1.5559  0.9667  0.1338
 4279SOL     OW24295   0.171   0.144   9.860 -0.4630  0.5614  0.1747
 4279SOL    HW124296   0.231   0.218   9.866 -0.9906  0.9888  0.2108
 4279SOL    HW224297   0.089   0.186   9.888 -0.9606 -0.8454  0.8260
 4280SOL     OW24298   2.377   3.148  13.058  0.3908  0.0700 -0.0398
 4280SOL    HW124299   2.407   3.236  13.079 -0.5056  0.6985 -1.3813
 4280SOL    HW224300   2.394   3.092  13.134  2.5485  0.4335 -0.2626
 4281SOL     OW24301   1.811   1.977   9.439  0.5417  0.1646  0.3356
 4281SOL    HW124302   1.791   2.047   9.377  0.4024  0.0971  0.3036
 4281SOL    HW224303   1.816   1.898   9.386 -2.1869  1.1672 -1.3860
 4282SOL     OW24304   0.249   1.514  12.698  0.4624  0.5360  0.7521
 4282SOL    HW124305   0.172   1.570  12.698 -1.4203 -2.0823  1.5831
 4282SOL    HW224306   0.251   1.483  12.788 -1.1444  1.2991  1.0458
 4283SOL     OW24307   1.975   3.903   7.607 -0.2802 -0.5003  0.2704
 4283SOL    HW124308   1.926   3.912   7.688 -0.9444 -1.0285 -0.0692
 4283SOL    HW224309   2.042   3.969   7.622 -1.8138  0.6179  2.0487
 4284SOL     OW24310   4.616   3.951   6.041 -0.3832 -0.1288  0.1491
 4284SOL    HW124311   4.669   4.024   6.074  1.8892 -1.4322 -0.6419
 4284SOL    HW224312   4.685   3.890   6.015 -0.0303  0.9632 -1.4628
 4285SOL     OW24313   1.080   1.060   6.787  0.7868  0.3696  0.3512
 4285SOL    HW124314   1.053   1.152   6.785  1.8064  0.7408  3.0518
 4285SOL    HW224315   0.997   1.015   6.798  0.4705  0.9718  0.4738
 4286SOL     OW24316   3.516   1.508   1.160 -0.2428  0.1280  0.7211
 4286SOL    HW124317   3.498   1.437   1.099  0.9727 -2.2015  3.0767
 4286SOL    HW224318   3.611   1.498   1.165 -0.2943  1.1408  3.9706
 4287SOL     OW24319   1.185   3.094   9.193 -0.3353  0.1042  0.1793
 4287SOL    HW124320   1.187   3.100   9.098 -1.0077  0.9149  0.2164
 4287SOL    HW224321   1.091   3.097   9.210 -0.6264 -1.5668 -1.1816
 4288SOL     OW24322   2.090   1.843   0.464  0.2825  0.1587  0.3755
 4288SOL    HW124323   2.011   1.871   0.418 -0.0924 -1.6268 -0.0785
 4288SOL    HW224324   2.164   1.856   0.404  0.1310  2.2040  0.6376
 4289SOL     OW24325   1.977   3.880   9.216  0.3011  0.1868  0.2557
 4289SOL    HW124326   2.037   3.806   9.208 -1.3575 -0.8352 -2.8012
 4289SOL    HW224327   1.916   3.846   9.282 -0.7507 -0.3228 -0.9807
 4290SOL     OW24328   3.198   2.552  10.127 -0.7052 -0.0918 -0.4219
 4290SOL    HW124329   3.228   2.633  10.086 -0.1581 -0.3063 -0.4446
 4290SOL    HW224330   3.171   2.501  10.051 -0.3768 -0.3501 -0.3621
 4291SOL     OW24331   1.287   3.762  13.975 -0.3801  0.4165 -0.5814
 4291SOL    HW124332   1.325   3.823  13.911  0.1736  0.1730 -0.4828
 4291SOL    HW224333   1.198   3.793  13.991 -0.4445  0.4292 -0.9550
 4292SOL     OW24334   4.473   2.149   4.429 -0.1716 -0.2788 -0.4155
 4292SOL    HW124335   4.404   2.095   4.390 -0.8513 -0.2259  0.7131
 4292SOL    HW224336   4.534   2.082   4.460 -0.3298 -0.5933 -0.7779
 4293SOL     OW24337   4.288   3.623   7.829  0.0647 -0.4775  0.0058
 4293SOL    HW124338   4.311   3.557   7.895  1.1800  0.7590  0.8732
 4293SOL    HW224339   4.240   3.690   7.877 -0.5903  0.1865 -1.5837
 4294SOL     OW24340   3.909   3.548   3.947 -0.1963  1.3784 -0.1142
 4294SOL    HW124341   3.814   3.562   3.943 -0.3735 -0.1622 -1.1204
 4294SOL    HW224342   3.920   3.515   4.036  1.4000  1.8744 -0.1275
 4295SOL     OW24343   3.610   0.225   6.193 -0.0256  0.5314 -0.5327
 4295SOL    HW124344   3.548   0.255   6.259 -1.4352 -2.2954 -0.5701
 4295SOL    HW224345   3.691   0.276   6.203 -0.4738  0.9180  1.1429
 4296SOL     OW24346   0.836   3.922   3.467 -0.1905 -0.1113 -0.2235
 4296SOL    HW124347   0.790   4.003   3.444 -0.4765 -0.5332 -1.1455
 4296SOL    HW224348   0.766   3.873   3.510 -0.2523  0.2755  0.1198
 4297SOL     OW24349   0.096   2.996   3.083  0.1854 -0.5471  0.2528
 4297SOL    HW124350   0.025   3.050   3.046 -0.1262 -0.4176  1.0411
 4297SOL    HW224351   0.055   2.923   3.129 -0.0073 -0.6596 -0.1014
 4298SOL     OW24352   2.519   0.923   2.819  0.0554  0.3667 -0.0252
 4298SOL    HW124353   2.514   1.018   2.825 -0.7593  0.2593  1.0952
 4298SOL    HW224354   2.533   0.928   2.725  0.8116 -0.5895  0.0448
 4299SOL     OW24355   1.265   3.696   2.770  0.9269 -0.3264  0.1280
 4299SOL    HW124356   1.186   3.710   2.822 -1.9912 -1.5182 -3.9418
 4299SOL    HW224357   1.305   3.782   2.759  1.0681 -0.3443  0.5033
 4300SOL     OW24358   4.317   1.383   5.373  0.0568  0.2443 -0.4983
 4300SOL    HW124359   4.240   1.338   5.408  2.0461 -0.8446  2.4684
 4300SOL    HW224360   4.346   1.312   5.315 -1.0922  0.1327 -0.9216
 4301SOL     OW24361   3.503   1.499  17.142  0.3345  0.0396  0.2116
 4301SOL    HW124362   3.440   1.550  17.193  0.1112 -1.0630  1.0464
 4301SOL    HW224363   3.552   1.467  17.218  3.4160 -0.7193 -2.0780
 4302SOL     OW24364   0.701   0.229  14.949  0.0201 -0.4220  0.3708
 4302SOL    HW124365   0.676   0.322  14.945 -2.5539 -1.0372  2.0620
 4302SOL    HW224366   0.763   0.242  15.020 -1.0888  3.2712  0.7018
 4303SOL     OW24367   3.491   0.207   4.352  0.2011 -1.1272 -0.3813
 4303SOL    HW124368   3.417   0.216   4.293  0.4388  1.4957 -0.2662
 4303SOL    HW224369   3.548   0.142   4.310  0.3417  0.3745 -2.4958
 4304SOL     OW24370   1.762   0.620   3.884 -0.4322 -0.1867 -0.4205
 4304SOL    HW124371   1.745   0.535   3.924 -0.0242  0.6417  1.5153
 4304SOL    HW224372   1.793   0.600   3.795 -0.1536 -0.2197 -0.3153
 4305SOL     OW24373   1.776   1.541   8.550 -0.1568  0.6582  0.4470
 4305SOL    HW124374   1.865   1.540   8.586  0.9665 -0.2987 -2.3353
 4305SOL    HW224375   1.737   1.458   8.576  0.0975  0.2992 -0.3274
 4306SOL     OW24376   3.934   2.614   6.465 -0.1893 -0.1032 -0.5072
 4306SOL    HW124377   3.861   2.590   6.408  0.5435  2.2023 -2.4176
 4306SOL    HW224378   4.011   2.572   6.425  1.1071 -0.7544  2.6385
 4307SOL     OW24379   0.218   1.885  16.658  0.1156  0.4124  0.4796
 4307SOL    HW124380   0.220   1.980  16.648 -0.6169  0.3328 -0.4006
 4307SOL    HW224381   0.306   1.871  16.625  1.3045 -0.0823  3.7769
 4308SOL     OW24382   3.795   3.517   0.144 -0.2378  0.2468 -0.5255
 4308SOL    HW124383   3.861   3.505   0.212  2.1791 -0.4146 -3.0019
 4308SOL    HW224384   3.733   3.576   0.188 -1.0808 -3.1516  2.8777
 4309SOL     OW24385   3.420   0.006   3.984 -0.7351  0.7339  0.1461
 4309SOL    HW124386   3.408   4.640   4.018  1.1977  0.3674 -0.1704
 4309SOL    HW224387   3.342   0.011   3.928 -1.5037 -1.6469  1.0069
 4310SOL     OW24388   2.680   2.300   5.035 -0.5174  0.3840  0.2494
 4310SOL    HW124389   2.761   2.298   4.984  0.0053  0.7241  1.0765
 4310SOL    HW224390   2.648   2.214   5.007 -0.7555  0.5767 -0.0777
 4311SOL     OW24391   2.823   2.719  10.791  0.3794 -0.5295  0.5247
 4311SOL    HW124392   2.770   2.690  10.717 -0.7372  0.3448  0.9838
 4311SOL    HW224393   2.858   2.632  10.811  0.4250 -0.8787 -1.1204
 4312SOL     OW24394   3.814   1.861   4.123  0.6900 -0.2130  0.3542
 4312SOL    HW124395   3.830   1.949   4.088 -3.1895  1.1984  2.1231
 4312SOL    HW224396   3.757   1.826   4.055  1.9990  1.1702 -1.4523
 4313SOL     OW24397   0.676   1.259   5.893 -0.0618  0.3653 -0.0442
 4313SOL    HW124398   0.649   1.168   5.908 -4.1173  1.2139 -2.1325
 4313SOL    HW224399   0.760   1.245   5.850  1.5125 -0.7940  3.3909
 4314SOL     OW24400   3.063   3.751   4.765 -0.2586  0.1138 -0.9358
 4314SOL    HW124401   3.073   3.720   4.675  0.7822  0.7500 -1.0394
 4314SOL    HW224402   3.155   3.763   4.789 -0.6455 -1.2102  1.2267
 4315SOL     OW24403   1.337   0.510   1.899  0.3474 -0.2826 -0.1084
 4315SOL    HW124404   1.399   0.438   1.894  1.0364  0.3472 -0.5841
 4315SOL    HW224405   1.389   0.566   1.955  0.3024 -0.2610 -0.0882
 4316SOL     OW24406   1.705   3.884  11.594 -0.4880  0.1365 -0.1463
 4316SOL    HW124407   1.724   3.796  11.562 -0.0423 -0.2849  1.2903
 4316SOL    HW224408   1.777   3.887  11.657  1.6949  0.7197 -2.6185
 4317SOL     OW24409   0.976   2.165   5.325 -0.3245  0.1161  0.3645
 4317SOL    HW124410   1.034   2.181   5.250 -0.5594  2.4128  0.6596
 4317SOL    HW224411   0.964   2.254   5.360 -0.0346 -0.1397  1.1167
 4318SOL     OW24412   3.535   1.322  11.586  0.3712  0.3311 -0.2617
 4318SOL    HW124413   3.543   1.313  11.491 -0.7998 -1.4778 -0.1736
 4318SOL    HW224414   3.622   1.294  11.615  0.4740  1.3509  0.4250
 4319SOL     OW24415   0.531   2.559  12.313  0.0051  0.4287  0.0815
 4319SOL    HW124416   0.587   2.482  12.325 -0.6275 -0.3271 -1.8207
 4319SOL    HW224417   0.589   2.633  12.330 -1.7009  1.3819  1.7719
 4320SOL     OW24418   0.061   0.290   0.539 -0.1069 -0.5535  0.6853
 4320SOL    HW124419   4.706   0.301   0.594  0.6080 -1.1960  1.8241
 4320SOL    HW224420   0.032   0.211   0.495 -1.5254  0.7236 -0.6786
 4321SOL     OW24421   2.959   4.273   8.592 -0.0459 -0.6694  0.2483
 4321SOL    HW124422   3.008   4.332   8.650 -0.7340 -0.8416  1.0023
 4321SOL    HW224423   2.923   4.206   8.650 -3.1546 -0.7706 -1.8283
 4322SOL     OW24424   4.486   0.620   8.606 -0.2070  0.1270 -0.1232
 4322SOL    HW124425   4.437   0.540   8.629  0.3410  0.0050  0.6222
 4322SOL    HW224426   4.421   0.690   8.610 -2.4672 -2.1432  2.9652
 4323SOL     OW24427   3.146   3.240  13.980 -0.3626  0.6476 -0.6925
 4323SOL    HW124428   3.175   3.277  13.897 -0.8106  0.1341 -1.0795
 4323SOL    HW224429   3.162   3.306  14.048  3.1977 -1.2618  0.3089
 4324SOL     OW24430   3.278   1.728   0.427 -0.1971  0.1601 -0.5546
 4324SOL    HW124431   3.331   1.726   0.348  0.5853  2.2053 -0.0889
 4324SOL    HW224432   3.231   1.811   0.425 -1.8466 -0.7585  0.5377
 4325SOL     OW24433   0.591   2.787   2.888 -0.3234  0.4219 -0.4897
 4325SOL    HW124434   0.619   2.855   2.948  3.6376 -2.1397  0.5626
 4325SOL    HW224435   0.657   2.795   2.819  0.8720 -1.4929  0.4379
 4326SOL     OW24436   0.366   2.844  10.329  0.1923  0.3047 -0.3387
 4326SOL    HW124437   0.340   2.752  10.334  0.4831  0.4075  2.7340
 4326SOL    HW224438   0.343   2.858  10.420  2.4477  0.6764  0.1875
 4327SOL     OW24439   1.208   3.797   9.097 -0.1424  0.2381 -0.4264
 4327SOL    HW124440   1.264   3.870   9.121 -0.8159  0.2516  1.1817
 4327SOL    HW224441   1.249   3.776   9.014  0.9494 -1.5312  0.5528
 4328SOL     OW24442   2.757   4.673  15.902  0.0825  0.0356 -0.4157
 4328SOL    HW124443   2.764   4.644  15.993  0.6160 -0.8527 -0.7331
 4328SOL    HW224444   2.785   4.590  15.863  1.5565  1.4069 -2.2482
 4329SOL     OW24445   2.920   0.313   2.169  0.2154  0.7794 -0.1766
 4329SOL    HW124446   2.983   0.271   2.111 -0.2373 -1.8499  1.2535
 4329SOL    HW224447   2.927   0.407   2.149  0.3048  1.0330  1.0506
 4330SOL     OW24448   1.225   4.201   3.949  0.2093  0.1726 -0.7733
 4330SOL    HW124449   1.243   4.119   3.902 -1.4688 -0.0202 -1.1087
 4330SOL    HW224450   1.171   4.161   4.018  0.4393 -0.7187 -1.1050
 4331SOL     OW24451   4.644   3.725  11.760  0.2872  0.2622 -0.0448
 4331SOL    HW124452   4.629   3.639  11.722 -0.2627  0.3160  0.0612
 4331SOL    HW224453   4.556   3.747  11.789 -0.0529 -0.8155 -0.2704
 4332SOL     OW24454   4.200   1.512   3.145  0.3700 -0.1700  0.0113
 4332SOL    HW124455   4.276   1.540   3.093 -0.7788  3.0684  0.0960
 4332SOL    HW224456   4.209   1.572   3.219  0.4777 -0.2365  0.0522
 4333SOL     OW24457   2.582   3.998   7.405 -0.1226  0.2499  0.0096
 4333SOL    HW124458   2.530   4.068   7.367 -2.4248 -2.8795 -2.6637
 4333SOL    HW224459   2.636   4.040   7.472 -0.1787 -1.0811  0.9008
 4334SOL     OW24460   2.943   1.099   7.235 -0.0580 -0.2730  0.0698
 4334SOL    HW124461   3.006   1.040   7.193 -1.2644 -1.5922  0.1175
 4334SOL    HW224462   2.984   1.179   7.268 -0.9517  0.0529  0.3931
 4335SOL     OW24463   3.049   0.449   8.338  0.0278  0.0972  0.6573
 4335SOL    HW124464   3.109   0.513   8.300 -0.4807  1.0226  1.4320
 4335SOL    HW224465   2.975   0.459   8.279  1.7911  2.2838 -1.1757
 4336SOL     OW24466   4.234   4.224   7.729  0.8008 -0.1263  0.8144
 4336SOL    HW124467   4.172   4.263   7.667  1.3163 -0.5400  0.0421
 4336SOL    HW224468   4.214   4.274   7.809  0.7202 -0.7220  1.1673
 4337SOL     OW24469   3.484   3.246   9.115  0.1790  0.3345  0.7462
 4337SOL    HW124470   3.565   3.296   9.112 -0.3534  1.2891  2.7081
 4337SOL    HW224471   3.479   3.245   9.210 -1.3742 -0.1387  0.6650
 4338SOL     OW24472   2.808   0.969  11.395  0.1157  0.8399  0.7268
 4338SOL    HW124473   2.805   0.894  11.456  1.0378  0.0357 -0.2125
 4338SOL    HW224474   2.832   0.934  11.310 -0.3892 -0.3102  1.0531
 4339SOL     OW24475   3.824   4.244   5.601 -0.0169  0.1817 -0.5594
 4339SOL    HW124476   3.879   4.240   5.679  1.2856 -0.6247 -1.5230
 4339SOL    HW224477   3.876   4.196   5.537  0.3429  1.4409 -1.2328
 4340SOL     OW24478   4.334   2.771  15.146  0.4481  0.1533  0.1334
 4340SOL    HW124479   4.326   2.705  15.077 -1.6598 -1.6045  2.0195
 4340SOL    HW224480   4.428   2.783  15.161  0.0856  0.9992  1.7584
 4341SOL     OW24481   2.643   3.787  11.667  0.9695 -0.1052  0.1469
 4341SOL    HW124482   2.610   3.875  11.647  3.0547  0.5030 -0.6409
 4341SOL    HW224483   2.602   3.783  11.754  3.0233  0.5600  1.1401
 4342SOL     OW24484   1.322   4.492   2.111 -0.4664 -0.6914  0.0589
 4342SOL    HW124485   1.333   4.399   2.126 -3.8820 -0.8195  1.5920
 4342SOL    HW224486   1.252   4.509   2.174  1.4898 -0.1487  2.1203
 4343SOL     OW24487   1.372   2.167   5.496 -0.3210 -0.0848 -0.6117
 4343SOL    HW124488   1.377   2.173   5.591 -2.5480  3.9806 -0.7812
 4343SOL    HW224489   1.309   2.095   5.490 -1.6164  1.0256 -0.2131
 4344SOL     OW24490   2.866   2.626   1.247 -0.1658 -0.5739 -0.2711
 4344SOL    HW124491   2.947   2.600   1.291  0.3687 -0.6364 -1.2903
 4344SOL    HW224492   2.913   2.677   1.181 -0.4988 -0.6248 -0.5505
 4345SOL     OW24493   1.769   3.381   5.690 -0.1177 -0.2957  0.0542
 4345SOL    HW124494   1.674   3.373   5.688 -0.1112 -0.1751 -0.6937
 4345SOL    HW224495   1.787   3.400   5.782  2.3597 -0.9517 -0.2848
 4346SOL     OW24496   1.038   3.441   9.385  0.4929 -0.0851  0.0212
 4346SOL    HW124497   0.999   3.426   9.299 -0.0110 -0.5659  0.3364
 4346SOL    HW224498   1.089   3.519   9.365  1.1698 -0.7474 -0.8552
 4347SOL     OW24499   0.854   2.640  14.785 -0.1657 -0.1696 -0.2930
 4347SOL    HW124500   0.788   2.692  14.831 -0.8268  0.2483 -1.7276
 4347SOL    HW224501   0.926   2.703  14.793  0.2404 -0.8793  1.6284
 4348SOL     OW24502   1.461   3.173   4.073  0.0642 -0.2330  0.6326
 4348SOL    HW124503   1.422   3.132   4.150 -1.1331  1.2304  0.8085
 4348SOL    HW224504   1.456   3.111   4.000  1.2904  0.5425 -0.1039
 4349SOL     OW24505   4.721   1.995   4.509 -0.3670  0.6652  0.2078
 4349SOL    HW124506   0.081   2.026   4.471 -0.9047  1.4687 -0.3022
 4349SOL    HW224507   0.023   1.960   4.595 -2.1215  0.0638  0.4661
 4350SOL     OW24508   1.749   1.935   6.085 -0.3380 -0.2057 -0.3297
 4350SOL    HW124509   1.670   1.882   6.095 -0.0672  0.0972  3.1539
 4350SOL    HW224510   1.782   1.928   6.174  1.4066  2.9425 -0.6976
 4351SOL     OW24511   2.847   1.289  14.668 -0.5677 -0.4845  0.7475
 4351SOL    HW124512   2.770   1.313  14.616 -1.1961 -2.1973  0.8806
 4351SOL    HW224513   2.806   1.263  14.750 -0.0707 -2.2716  0.4153
 4352SOL     OW24514   4.130   4.493   3.162 -0.0879 -0.0704 -0.1249
 4352SOL    HW124515   4.071   4.448   3.102  0.0287 -0.2607 -0.0972
 4352SOL    HW224516   4.107   4.463   3.250  1.0834  1.9852  0.8924
 4353SOL     OW24517   1.491   1.407  16.197 -0.0619 -0.6957 -0.2111
 4353SOL    HW124518   1.584   1.385  16.187  0.9152  1.8286  3.3206
 4353SOL    HW224519   1.500   1.463  16.274  1.3071  0.4298 -1.1763
 4354SOL     OW24520   2.686   3.555  12.605 -0.2670 -0.7232 -0.3246
 4354SOL    HW124521   2.621   3.501  12.559  1.8080 -3.9751  0.5308
 4354SOL    HW224522   2.635   3.636  12.602  0.7441 -0.1721 -2.4518
 4355SOL     OW24523   3.413   0.773   9.420 -0.6935  0.0227  0.1951
 4355SOL    HW124524   3.502   0.803   9.433 -0.3201 -0.7515 -0.5394
 4355SOL    HW224525   3.413   0.695   9.476  1.5604  1.1830  1.7752
 4356SOL     OW24526   4.136   2.374   3.149  0.7370  0.2604  0.7159
 4356SOL    HW124527   4.162   2.461   3.120  0.3602  0.2868  0.4612
 4356SOL    HW224528   4.168   2.322   3.076  2.7961  2.8476 -0.2228
 4357SOL     OW24529   0.166   3.095   5.841 -0.6362  0.3711  0.7019
 4357SOL    HW124530   0.118   3.012   5.832 -0.7014  0.4553  0.2300
 4357SOL    HW224531   0.086   3.146   5.831 -1.3813 -0.9258 -0.0306
 4358SOL     OW24532   3.078   0.786  13.513 -0.1528 -0.2001 -0.2647
 4358SOL    HW124533   3.081   0.705  13.462  0.2115 -0.5540  0.3192
 4358SOL    HW224534   3.148   0.770  13.576  0.6436  0.4354 -1.0020
 4359SOL     OW24535   3.441   0.882   6.040  0.0651 -0.5559 -0.4330
 4359SOL    HW124536   3.435   0.790   6.063 -0.0449 -0.5237 -0.3313
 4359SOL    HW224537   3.535   0.898   6.031 -0.4553  0.9432 -3.2523
 4360SOL     OW24538   3.328   2.490  16.490  0.5298  0.5780  0.6097
 4360SOL    HW124539   3.371   2.425  16.546  1.6257  1.0989  0.3833
 4360SOL    HW224540   3.311   2.561  16.553  0.6020  0.6247  0.5769
 4361SOL     OW24541   0.159   4.171   5.244  0.5630 -0.1952 -0.0479
 4361SOL    HW124542   0.210   4.220   5.309 -0.6595  0.8743  0.0922
 4361SOL    HW224543   0.151   4.235   5.173 -1.3183 -0.4742 -0.0780
 4362SOL     OW24544   4.410   0.159  10.804  0.2211 -0.8130  0.2030
 4362SOL    HW124545   4.394   0.251  10.827 -0.1520 -1.1087  1.1144
 4362SOL    HW224546   4.335   0.129  10.752 -1.4027  0.3118  1.8862
 4363SOL     OW24547   1.706   0.626   2.324 -0.3992 -0.1870  0.2312
 4363SOL    HW124548   1.612   0.609   2.332 -0.6556  1.3044  0.4572
 4363SOL    HW224549   1.714   0.720   2.341  2.1606 -0.2912 -0.3394
 4364SOL     OW24550   0.563   2.588  15.499  0.3161  0.1789  0.5059
 4364SOL    HW124551   0.542   2.520  15.562 -2.2771  1.2760  0.8183
 4364SOL    HW224552   0.656   2.600  15.517  0.4167 -2.0001  1.4003
 4365SOL     OW24553   0.322   3.629   3.141 -0.4191 -0.1174 -0.2450
 4365SOL    HW124554   0.306   3.708   3.090 -0.5198  0.5639  0.8462
 4365SOL    HW224555   0.394   3.643   3.202 -1.2112  1.0399  0.4228
 4366SOL     OW24556   1.064   1.473   5.453 -0.0768 -0.1470  0.3699
 4366SOL    HW124557   1.127   1.527   5.501  0.7499 -1.8522  1.2269
 4366SOL    HW224558   0.988   1.463   5.510 -0.1302  2.9875  0.8595
 4367SOL     OW24559   2.699   3.332   5.216 -0.2972 -0.5934 -0.1376
 4367SOL    HW124560   2.662   3.244   5.226 -2.0304  0.0142 -1.3245
 4367SOL    HW224561   2.701   3.359   5.308  0.0689 -0.4888 -0.1744
 4368SOL     OW24562   0.186   0.759   6.069 -0.3094 -0.1040  0.1364
 4368SOL    HW124563   0.140   0.799   6.143  1.3111  2.1356 -0.0697
 4368SOL    HW224564   0.238   0.836   6.043  0.4770  0.0119  2.0606
 4369SOL     OW24565   1.995   4.630   9.843 -0.0548  0.1106 -0.2198
 4369SOL    HW124566   2.015   4.606   9.933  1.7362  0.6434 -0.4717
 4369SOL    HW224567   1.904   4.604   9.838 -0.0362 -0.1417  0.6947
 4370SOL     OW24568   0.314   1.085   0.280  0.4176 -0.3409  0.3322
 4370SOL    HW124569   0.221   1.106   0.274 -0.0974 -3.5811 -3.0626
 4370SOL    HW224570   0.305   0.990   0.275 -1.6299 -0.1826  0.8862
 4371SOL     OW24571   1.982   4.181   6.574  0.0044  0.0335  0.5721
 4371SOL    HW124572   2.028   4.140   6.647  1.1190  1.0197  0.4430
 4371SOL    HW224573   2.062   4.199   6.523 -0.4723  0.5920  0.0136
 4372SOL     OW24574   4.690   2.460  11.740  0.4373  0.2789 -0.1775
 4372SOL    HW124575   4.653   2.379  11.706  3.9326 -0.0260 -3.2589
 4372SOL    HW224576   4.659   2.459  11.831 -1.4749 -1.4164 -0.8535
 4373SOL     OW24577   3.664   3.436   3.542 -0.1988 -0.3706  0.2118
 4373SOL    HW124578   3.699   3.374   3.479  0.6324  1.3384 -1.0054
 4373SOL    HW224579   3.584   3.462   3.496  1.4309  0.1726 -2.3019
 4374SOL     OW24580   0.642   3.808   7.263 -0.6019  0.3622 -0.6657
 4374SOL    HW124581   0.640   3.808   7.167 -1.6486 -2.4426 -0.6402
 4374SOL    HW224582   0.582   3.735   7.274  2.2391 -2.4480 -3.7357
 4375SOL     OW24583   2.449   0.589  11.770 -0.5237  0.3894 -0.4482
 4375SOL    HW124584   2.420   0.553  11.686  2.0752 -3.9180  0.4698
 4375SOL    HW224585   2.501   0.514  11.799 -1.1836  0.0049 -0.2399
 4376SOL     OW24586   1.395   2.065   3.308  0.1180  0.1995  0.1175
 4376SOL    HW124587   1.487   2.093   3.312 -0.4134  2.2407 -1.6930
 4376SOL    HW224588   1.347   2.131   3.358 -1.1188  0.7329 -1.7821
 4377SOL     OW24589   3.949   4.004   4.482 -0.1782 -0.1072  0.5292
 4377SOL    HW124590   4.036   3.978   4.453 -0.1730 -0.3224  0.7372
 4377SOL    HW224591   3.943   4.094   4.449 -1.0308 -1.0508 -1.8877
 4378SOL     OW24592   0.229   0.528   7.050 -0.2324  0.5813 -0.2349
 4378SOL    HW124593   0.284   0.593   7.094  1.6434 -1.6810  0.7856
 4378SOL    HW224594   0.264   0.542   6.962 -0.7652  0.3377 -0.4886
 4379SOL     OW24595   2.733   4.225   7.623  0.2365  0.2322 -0.4008
 4379SOL    HW124596   2.808   4.166   7.621  1.9215  2.3771 -0.0131
 4379SOL    HW224597   2.766   4.311   7.648  1.5927 -0.0527 -1.2588
 4380SOL     OW24598   4.411   3.153   4.391  0.1374 -0.3126  0.1377
 4380SOL    HW124599   4.490   3.119   4.349 -1.1323 -1.8305 -1.0284
 4380SOL    HW224600   4.360   3.073   4.403  1.9040 -1.2913  1.0855
 4381SOL     OW24601   1.599   3.600   3.936 -0.3247  0.4479  0.2967
 4381SOL    HW124602   1.529   3.621   3.874 -0.6752  1.7336  1.1428
 4381SOL    HW224603   1.543   3.541   3.986  1.5096 -0.2499  1.5225
 4382SOL     OW24604   1.214   0.916   2.300 -0.3571 -0.8019  0.0125
 4382SOL    HW124605   1.191   1.004   2.269  4.4289  0.8361  1.1987
 4382SOL    HW224606   1.309   0.912   2.299 -0.2561  1.4087 -0.8018
 4383SOL     OW24607   0.379   4.618   1.923 -0.2959 -0.1066  0.2550
 4383SOL    HW124608   0.366   4.629   1.829  1.5526 -0.2575 -0.0281
 4383SOL    HW224609   0.469   4.651   1.919 -0.7604  1.0871 -0.2285
 4384SOL     OW24610   2.254   1.873   2.688 -0.7394  0.4862  0.4929
 4384SOL    HW124611   2.303   1.947   2.724  1.5739 -1.3368  1.0962
 4384SOL    HW224612   2.249   1.903   2.597  1.0935  0.3944  0.3681
 4385SOL     OW24613   1.116   4.396  11.705 -0.5281 -0.4288  0.2082
 4385SOL    HW124614   1.106   4.490  11.724  1.6263 -0.0221 -0.6448
 4385SOL    HW224615   1.171   4.405  11.627 -1.5254 -1.5817 -0.6186
 4386SOL     OW24616   2.373   3.709   6.003 -0.4505  0.6575 -0.0288
 4386SOL    HW124617   2.286   3.749   6.000 -0.4549  0.6962  0.7065
 4386SOL    HW224618   2.418   3.784   5.964  0.5841 -0.1388 -0.3594
 4387SOL     OW24619   0.106   2.913   2.198  0.5547 -0.2475 -0.3930
 4387SOL    HW124620   0.078   2.917   2.289  0.5992  1.9146 -0.4705
 4387SOL    HW224621   0.193   2.953   2.208  0.1119  0.5310  0.3930
 4388SOL     OW24622   3.948   0.820   4.617  0.1094  0.3595  0.0957
 4388SOL    HW124623   3.911   0.890   4.565  1.8484  1.0069 -0.2795
 4388SOL    HW224624   4.042   0.836   4.609  0.4033 -1.7900 -0.5634
 4389SOL     OW24625   3.292   0.241  12.089  0.1532  0.1531 -0.1390
 4389SOL    HW124626   3.313   0.319  12.141  0.6454  0.5653 -0.9643
 4389SOL    HW224627   3.374   0.226  12.042 -0.8409 -2.0742 -1.1502
 4390SOL     OW24628   2.909   4.238   2.760 -0.1451 -0.4529 -0.9403
 4390SOL    HW124629   2.881   4.147   2.771 -1.0290 -0.0762 -0.0161
 4390SOL    HW224630   2.830   4.277   2.723 -1.0275 -0.5696  0.8219
 4391SOL     OW24631   0.133   1.876   2.737 -0.5242  0.1939 -0.2129
 4391SOL    HW124632   0.098   1.889   2.649  0.4678 -0.6632 -0.7401
 4391SOL    HW224633   0.220   1.841   2.716 -0.3910  0.8168 -0.7081
 4392SOL     OW24634   0.936   2.034   8.638  0.1854  0.4973 -0.1263
 4392SOL    HW124635   0.996   2.105   8.615 -1.0006  1.0217 -1.5830
 4392SOL    HW224636   0.925   2.048   8.732 -0.9143 -0.6256 -0.0802
 4393SOL     OW24637   1.409   3.953   4.633 -0.2131  0.4004  0.0924
 4393SOL    HW124638   1.406   3.933   4.727  2.1936 -2.8099 -0.5101
 4393SOL    HW224639   1.468   3.889   4.594  1.9255  1.2972  1.8478
 4394SOL     OW24640   2.398   4.226   3.339  0.2177 -0.1773  0.2021
 4394SOL    HW124641   2.439   4.214   3.425 -2.8746  4.2621  2.3135
 4394SOL    HW224642   2.418   4.143   3.297 -1.2869 -1.9360  2.9085
 4395SOL     OW24643   1.211   2.015   9.126  0.9102 -0.1549 -0.0386
 4395SOL    HW124644   1.176   2.100   9.153  0.4354 -0.7729  1.3163
 4395SOL    HW224645   1.235   1.979   9.212 -1.0509 -1.6804 -0.1170
 4396SOL     OW24646   0.836   1.818   3.891 -0.0580  0.4921 -0.3050
 4396SOL    HW124647   0.843   1.762   3.813 -1.6089  2.8760 -2.1647
 4396SOL    HW224648   0.760   1.874   3.870 -0.5391 -0.2410 -0.5171
 4397SOL     OW24649   1.926   3.566  15.648 -0.6222 -0.0206  0.0072
 4397SOL    HW124650   1.960   3.655  15.651  1.5287 -0.7761 -1.3387
 4397SOL    HW224651   1.831   3.577  15.651 -0.4121  1.6234  0.2257
 4398SOL     OW24652   1.675   3.082   7.607 -1.3075 -0.0066 -0.0742
 4398SOL    HW124653   1.706   2.998   7.640 -0.6799  0.1935 -0.1541
 4398SOL    HW224654   1.650   3.129   7.687 -0.9287  0.2125 -0.0828
 4399SOL     OW24655   3.320   2.416   2.730  0.4307 -0.0182 -0.4341
 4399SOL    HW124656   3.225   2.412   2.724  0.4230 -3.4135  1.8875
 4399SOL    HW224657   3.357   2.441   2.645  1.2681 -2.0647 -0.6931
 4400SOL     OW24658   1.611   3.639  16.676 -0.4383  0.2052 -0.8247
 4400SOL    HW124659   1.580   3.595  16.754  2.4144 -2.8583 -1.4195
 4400SOL    HW224660   1.583   3.576  16.609  1.6256  1.3087 -2.7265
 4401SOL     OW24661   0.940   4.028  16.380  0.2065 -0.0351  0.1233
 4401SOL    HW124662   1.008   4.071  16.328  0.9026 -1.5526 -0.2422
 4401SOL    HW224663   0.949   4.074  16.464 -0.3100 -0.0641  0.1969
 4402SOL     OW24664   1.994   0.658   7.706 -0.2166 -0.4977 -0.4360
 4402SOL    HW124665   1.999   0.720   7.779  0.9811 -0.6246 -0.4225
 4402SOL    HW224666   2.072   0.677   7.655  0.0900 -3.4081 -1.0495
 4403SOL     OW24667   0.985   2.764  11.624 -0.7226 -0.0012  0.0186
 4403SOL    HW124668   1.050   2.695  11.638 -0.8432  0.2947  2.0625
 4403SOL    HW224669   1.035   2.828  11.675 -0.4447  0.8705 -1.3660
 4404SOL     OW24670   2.746   2.294   5.702  0.2421 -0.7969 -0.0438
 4404SOL    HW124671   2.705   2.360   5.759  3.6060  1.5473 -0.3517
 4404SOL    HW224672   2.715   2.218   5.752 -0.9882  0.2252  0.7541
 4405SOL     OW24673   2.375   3.075   5.620  0.0525  0.3387 -0.2940
 4405SOL    HW124674   2.339   3.003   5.671 -1.7044  0.4144 -1.4581
 4405SOL    HW224675   2.467   3.053   5.635 -0.0666 -0.1567 -0.2900
 4406SOL     OW24676   3.818   3.401  14.643 -0.2225 -0.4345  0.3849
 4406SOL    HW124677   3.811   3.434  14.732 -1.7874 -0.6338  0.3343
 4406SOL    HW224678   3.912   3.419  14.631 -0.1908 -0.3957  0.7035
 4407SOL     OW24679   4.120   1.288   6.678  0.6579  1.3101 -0.0486
 4407SOL    HW124680   4.167   1.208   6.705 -1.3197  0.2875  0.3414
 4407SOL    HW224681   4.198   1.343   6.689  0.5565  0.9437  2.5411
 4408SOL     OW24682   3.251   4.474  14.025  0.1905 -0.0143 -0.4735
 4408SOL    HW124683   3.222   4.553  14.069 -1.3198 -1.5275  1.2458
 4408SOL    HW224684   3.219   4.494  13.937 -1.3221  2.6617  0.6848
 4409SOL     OW24685   4.291   0.237   2.559 -0.3133  0.2518  0.0085
 4409SOL    HW124686   4.368   0.279   2.520 -0.0279  0.1262  0.4294
 4409SOL    HW224687   4.326   0.149   2.576  3.3498  1.5045 -1.0507
 4410SOL     OW24688   3.751   0.834   4.385  0.2955 -0.7169 -0.1398
 4410SOL    HW124689   3.656   0.828   4.387  0.2577  0.1067  0.5003
 4410SOL    HW224690   3.758   0.928   4.400 -1.0504 -0.4193 -1.3760
 4411SOL     OW24691   0.296   3.357   9.209 -0.4853  0.7042 -0.3942
 4411SOL    HW124692   0.372   3.376   9.154  0.4559  0.5357  0.8554
 4411SOL    HW224693   0.233   3.425   9.186 -0.7593  0.3662 -0.6300
 4412SOL     OW24694   0.424   3.503   2.520  0.4802  0.2769  0.5108
 4412SOL    HW124695   0.497   3.564   2.514 -0.2128  1.0618 -0.0834
 4412SOL    HW224696   0.370   3.531   2.446  2.9423  0.3567 -1.2220
 4413SOL     OW24697   3.999   1.333  10.964 -0.2914  0.2454  0.0463
 4413SOL    HW124698   3.993   1.238  10.976  1.8885  0.1539  0.3853
 4413SOL    HW224699   3.964   1.333  10.875  0.1205  2.5920 -0.1103
 4414SOL     OW24700   1.495   1.276   8.340 -0.1330  0.4195  0.2962
 4414SOL    HW124701   1.462   1.365   8.351  2.3877  1.3338  0.5322
 4414SOL    HW224702   1.412   1.230   8.355 -0.2700  0.5256 -0.1457
 4415SOL     OW24703   0.056   4.470   8.532  0.2681 -0.2938 -0.3210
 4415SOL    HW124704   0.023   4.546   8.581 -0.5855  0.3963 -1.9454
 4415SOL    HW224705   0.056   4.513   8.446  0.6553  1.0540  0.3492
 4416SOL     OW24706   0.941   1.857  14.140 -0.4699  0.3530 -0.2256
 4416SOL    HW124707   0.899   1.788  14.191  2.0672  0.0959  1.5313
 4416SOL    HW224708   0.994   1.894  14.211  1.4532 -1.3735 -0.7583
 4417SOL     OW24709   3.132   0.504   5.611 -0.3935  0.0107 -0.0811
 4417SOL    HW124710   3.065   0.572   5.625  1.4742  1.6604  0.8482
 4417SOL    HW224711   3.102   0.455   5.535 -3.1119  1.9085 -0.2612
 4418SOL     OW24712   3.203   4.430  14.836  0.0424 -0.0005  0.0265
 4418SOL    HW124713   3.240   4.434  14.925 -1.8902 -1.5483  0.8892
 4418SOL    HW224714   3.242   4.506  14.792 -0.9651 -1.8950 -4.0875
 4419SOL     OW24715   3.274   1.375   1.357  0.1116  0.1194 -0.5360
 4419SOL    HW124716   3.330   1.329   1.419 -0.8538 -1.1641 -0.6263
 4419SOL    HW224717   3.261   1.455   1.409 -0.9297  0.0722 -0.7245
 4420SOL     OW24718   2.519   1.889   9.111  0.0948 -0.6782  0.0305
 4420SOL    HW124719   2.475   1.804   9.106 -0.7944 -0.2283  0.2506
 4420SOL    HW224720   2.451   1.937   9.065 -0.2506  0.1531  1.4253
 4421SOL     OW24721   2.178   4.344   6.431 -0.7492  0.2208  0.2928
 4421SOL    HW124722   2.256   4.305   6.394 -0.1775  0.0426  1.6867
 4421SOL    HW224723   2.113   4.331   6.362  0.5013 -0.9121 -0.6495
 4422SOL     OW24724   3.076   1.008   1.980 -0.2328  0.1299  0.6952
 4422SOL    HW124725   3.024   1.056   1.916  0.1027 -0.3348  0.0740
 4422SOL    HW224726   3.140   1.074   2.006 -0.7988  1.0738 -0.3488
 4423SOL     OW24727   3.580   2.998   4.702  0.3029  1.0041  0.2313
 4423SOL    HW124728   3.514   3.020   4.767 -0.4512 -0.5675 -0.0002
 4423SOL    HW224729   3.529   2.955   4.633 -0.2792  1.6392  0.2661
 4424SOL     OW24730   1.560   1.641  15.038  0.7010  0.7993  0.2286
 4424SOL    HW124731   1.552   1.725  15.084  0.4848  0.0064  1.6243
 4424SOL    HW224732   1.513   1.580  15.094 -0.0723 -0.6098 -1.9587
 4425SOL     OW24733   2.156   4.418   5.155 -0.5885 -0.1350 -0.2112
 4425SOL    HW124734   2.247   4.393   5.138 -0.1263  0.7913  0.9553
 4425SOL    HW224735   2.152   4.513   5.141  0.4882 -0.2691 -1.5000
 4426SOL     OW24736   0.031   0.866   5.395  0.3107 -0.0829  0.1860
 4426SOL    HW124737   4.681   0.821   5.351 -0.8864  2.1803 -0.1716
 4426SOL    HW224738   0.067   0.785   5.432  3.0450  1.7263  1.4643
 4427SOL     OW24739   1.006   3.616   4.804 -0.7966 -0.0511 -0.2485
 4427SOL    HW124740   1.085   3.572   4.774 -0.1617 -0.2597  1.7057
 4427SOL    HW224741   0.993   3.687   4.741  0.5972  0.2070 -0.2515
 4428SOL     OW24742   3.885   4.359   3.393 -0.4875 -0.5002 -0.2027
 4428SOL    HW124743   3.860   4.344   3.301 -2.1876 -0.1715  0.2154
 4428SOL    HW224744   3.819   4.299   3.427 -1.0652  0.1592 -0.1563
 4429SOL     OW24745   3.219   4.386   3.075 -0.0076  0.6014 -0.1751
 4429SOL    HW124746   3.146   4.410   3.017  0.7429 -1.0295 -1.7997
 4429SOL    HW224747   3.175   4.370   3.159 -0.3541 -3.0837 -1.0806
 4430SOL     OW24748   2.067   0.259   5.693 -0.3211 -0.1429 -0.4116
 4430SOL    HW124749   2.142   0.209   5.660  2.1566  1.7684  2.2734
 4430SOL    HW224750   2.092   0.351   5.689 -1.2721  0.2289  2.2854
 4431SOL     OW24751   1.944   0.288  12.392 -0.1797  0.4000  0.4727
 4431SOL    HW124752   1.959   0.355  12.459 -0.3444  0.3108  0.5982
 4431SOL    HW224753   1.876   0.327  12.337 -0.5518  0.1817  0.7769
 4432SOL     OW24754   2.365   1.596   0.316  0.0058 -0.6903 -0.0293
 4432SOL    HW124755   2.386   1.655   0.244 -0.8185 -1.8850 -1.2643
 4432SOL    HW224756   2.270   1.603   0.316 -0.0819 -1.8488 -0.1305
 4433SOL     OW24757   1.746   2.257   4.818 -0.1177  0.1362  0.5295
 4433SOL    HW124758   1.656   2.282   4.797 -0.1958 -0.4090  0.2298
 4433SOL    HW224759   1.738   2.248   4.913 -1.1390  1.6405  0.5851
 4434SOL     OW24760   0.170   0.367   8.361  0.1953  0.2875 -0.1726
 4434SOL    HW124761   0.096   0.348   8.418 -0.3103 -0.8020 -1.1782
 4434SOL    HW224762   0.176   0.293   8.301  1.1943 -1.1382  1.6636
 4435SOL     OW24763   0.804   1.354   8.278  0.2429 -0.2330 -0.0632
 4435SOL    HW124764   0.798   1.286   8.345  0.9371  0.1634  0.4040
 4435SOL    HW224765   0.724   1.337   8.229  1.0286 -0.4342 -1.2610
 4436SOL     OW24766   1.160   2.529  15.061  0.1967 -0.7403 -0.6147
 4436SOL    HW124767   1.208   2.500  15.139  1.8436 -0.9215 -1.6785
 4436SOL    HW224768   1.207   2.598  15.014 -0.6793 -0.5832 -1.2466
 4437SOL     OW24769   0.839   2.984  10.945 -0.5404 -0.2061  0.3987
 4437SOL    HW124770   0.789   3.059  10.914  2.2428  0.2988 -2.8227
 4437SOL    HW224771   0.814   2.985  11.037  0.4895 -3.1058  0.7196
 4438SOL     OW24772   0.140   0.221   9.090 -0.4057 -0.2869 -0.4654
 4438SOL    HW124773   0.118   0.302   9.045 -0.2330  0.1861  0.2893
 4438SOL    HW224774   0.112   0.158   9.024 -0.0259 -0.5059 -0.4230
 4439SOL     OW24775   3.184   2.415   1.626 -0.0339  0.2337  0.6966
 4439SOL    HW124776   3.216   2.502   1.646  0.8211  0.1588 -0.3649
 4439SOL    HW224777   3.257   2.386   1.571 -1.4584 -0.2590 -0.9416
 4440SOL     OW24778   0.345   3.285   2.687  0.5995  0.2820 -1.0788
 4440SOL    HW124779   0.381   3.342   2.756  0.6915 -1.0723 -0.0003
 4440SOL    HW224780   0.335   3.339   2.608  0.4045  3.1892  0.9272
 4441SOL     OW24781   1.634   3.060  12.763 -0.6488  0.0933  0.2598
 4441SOL    HW124782   1.686   2.984  12.789 -1.2403 -0.4621 -0.1982
 4441SOL    HW224783   1.690   3.127  12.803  1.7716 -1.1533 -1.0287
 4442SOL     OW24784   2.168   2.186   1.505  0.0384 -0.2765 -0.7780
 4442SOL    HW124785   2.177   2.188   1.409 -0.8787 -2.7453 -0.9068
 4442SOL    HW224786   2.097   2.122   1.514 -1.2207  1.3671  0.8168
 4443SOL     OW24787   4.140   4.258   1.799 -0.8254 -0.0495 -0.7248
 4443SOL    HW124788   4.117   4.168   1.822  0.0303  0.5054  2.3045
 4443SOL    HW224789   4.181   4.259   1.712  1.5859  2.0177  0.4220
 4444SOL     OW24790   0.897   4.666  11.660 -0.5627 -0.0012 -0.0927
 4444SOL    HW124791   0.889   4.611  11.582 -0.3259 -0.2520  0.0609
 4444SOL    HW224792   0.982   4.709  11.648 -0.3842  0.3293  2.3013
 4445SOL     OW24793   2.736   0.299   6.194  0.2369 -0.2053  0.1097
 4445SOL    HW124794   2.778   0.341   6.118  0.3178 -1.6273 -0.6246
 4445SOL    HW224795   2.648   0.276   6.167  0.1326 -0.7893  0.9777
 4446SOL     OW24796   0.873   4.187  13.031 -0.0979  0.3508  0.0715
 4446SOL    HW124797   0.905   4.098  13.024 -1.0668  0.1462 -1.5614
 4446SOL    HW224798   0.943   4.228  13.082 -1.5141  0.4064  1.9933
 4447SOL     OW24799   3.408   2.669   2.826 -1.0886  0.2877  0.0570
 4447SOL    HW124800   3.473   2.684   2.758 -1.0847  0.5628  0.1210
 4447SOL    HW224801   3.386   2.576   2.820  0.4253 -0.0674  0.1238
 4448SOL     OW24802   3.401   3.419   3.800  0.0710 -0.6348 -0.1852
 4448SOL    HW124803   3.378   3.333   3.764 -1.5522 -1.2934  2.4063
 4448SOL    HW224804   3.314   3.447   3.828  0.4016  1.3011 -1.0944
 4449SOL     OW24805   0.655   2.670   8.357  0.1646  0.4462 -1.1287
 4449SOL    HW124806   0.663   2.588   8.405 -1.0976 -0.1750 -1.9766
 4449SOL    HW224807   0.675   2.649   8.266  0.0797  1.6251 -1.4215
 4450SOL     OW24808   3.669   3.008   9.460 -0.2226  0.9474  0.2016
 4450SOL    HW124809   3.579   2.980   9.444  0.4340 -1.4451  0.7610
 4450SOL    HW224810   3.715   2.925   9.454 -0.7236  0.4703  2.8680
 4451SOL     OW24811   4.369   2.578  17.442  0.2138  0.3323 -0.5233
 4451SOL    HW124812   4.410   2.664  17.430  0.0381  0.5821  0.6941
 4451SOL    HW224813   4.400   2.533  17.363 -1.7929 -1.4255 -0.2957
 4452SOL     OW24814   0.740   4.553   2.281 -0.1017  0.0773  0.1325
 4452SOL    HW124815   0.732   4.478   2.223 -2.3845  0.6845 -0.3231
 4452SOL    HW224816   0.707   4.513   2.361  1.2826 -0.7605  0.2864
 4453SOL     OW24817   2.696   2.564   1.647 -0.0617  0.4097 -0.0180
 4453SOL    HW124818   2.685   2.490   1.587 -0.2444  0.8049 -0.4738
 4453SOL    HW224819   2.781   2.599   1.619  0.9489 -1.7297  0.3972
 4454SOL     OW24820   3.873   3.356   2.759 -0.5749  0.3032  1.0823
 4454SOL    HW124821   3.954   3.306   2.752 -0.1497  0.9523  1.4159
 4454SOL    HW224822   3.907   3.442   2.734  0.4884 -1.0451 -2.2042
 4455SOL     OW24823   3.938   4.417  13.381  0.0818  0.3702 -0.0262
 4455SOL    HW124824   3.938   4.508  13.411 -0.3539  0.0317  1.0139
 4455SOL    HW224825   3.886   4.374  13.449 -1.2278  1.4087 -0.3578
 4456SOL     OW24826   1.816   0.854   3.987 -0.4915 -0.5573 -0.0365
 4456SOL    HW124827   1.771   0.923   3.938  0.0319 -1.9546 -2.4849
 4456SOL    HW224828   1.792   0.782   3.930  2.7130 -1.3793 -0.3780
 4457SOL     OW24829   1.081   0.520   0.901  0.6113  0.1607  0.1187
 4457SOL    HW124830   1.171   0.489   0.887 -0.0788 -1.1255 -1.5076
 4457SOL    HW224831   1.051   0.444   0.952  1.5028 -0.9066 -0.9410
 4458SOL     OW24832   0.377   4.542  17.468 -0.1218 -0.0839  0.1986
 4458SOL    HW124833   0.349   4.596  17.542  5.3624 -1.2237  3.0802
 4458SOL    HW224834   0.466   4.576  17.464  0.0038 -0.3074  1.0630
 4459SOL     OW24835   0.672   2.412   5.221  0.0605 -0.7141  0.4104
 4459SOL    HW124836   0.757   2.453   5.212  0.0173 -0.8349 -0.5357
 4459SOL    HW224837   0.614   2.485   5.199  1.3101  0.2031  0.2008
 4460SOL     OW24838   1.154   0.026   6.020 -0.0725  0.0481 -0.2792
 4460SOL    HW124839   1.188   0.081   6.091 -0.1733 -0.6500  0.3071
 4460SOL    HW224840   1.115   0.101   5.976 -0.7396  0.1120  0.4130
 4461SOL     OW24841   3.609   4.345   5.985 -0.0511 -0.3913 -0.0293
 4461SOL    HW124842   3.560   4.326   6.065  0.7239  1.0589  0.8182
 4461SOL    HW224843   3.685   4.374   6.036  1.0210 -1.1794 -1.1901
 4462SOL     OW24844   1.373   0.809  13.081  0.4388 -0.3070 -0.4416
 4462SOL    HW124845   1.375   0.904  13.093  1.8957 -0.4085  0.1825
 4462SOL    HW224846   1.332   0.777  13.162  3.0313  0.3000  1.1196
 4463SOL     OW24847   3.604   0.431   7.729 -0.3394  0.2509  0.1276
 4463SOL    HW124848   3.641   0.440   7.641  1.6402 -0.7026  0.8829
 4463SOL    HW224849   3.509   0.422   7.716 -0.2095  1.5022 -1.7167
 4464SOL     OW24850   3.216   4.460   3.568  0.5572  0.4684  0.3605
 4464SOL    HW124851   3.167   4.379   3.577  0.8252  0.1304 -1.2439
 4464SOL    HW224852   3.157   4.513   3.514  1.3465  0.0872 -0.8811
 4465SOL     OW24853   2.224   1.996   4.715 -0.1872  0.8598  0.3469
 4465SOL    HW124854   2.211   1.915   4.666 -0.9813 -0.4715  2.7689
 4465SOL    HW224855   2.154   2.054   4.685 -0.3959 -0.1713 -1.1827
 4466SOL     OW24856   1.376   3.843  11.416 -0.4991  0.4382 -0.0579
 4466SOL    HW124857   1.404   3.845  11.507  1.9447  0.7895 -0.8114
 4466SOL    HW224858   1.379   3.937  11.396 -4.2056 -0.1491 -3.2431
 4467SOL     OW24859   3.375   0.716   8.434 -0.4542 -0.0645 -0.0341
 4467SOL    HW124860   3.415   0.803   8.429 -0.3274 -0.0794  0.7857
 4467SOL    HW224861   3.298   0.753   8.477 -0.4718 -0.8064  0.5612
 4468SOL     OW24862   1.056   4.117   3.392  0.4282  0.0894  0.2621
 4468SOL    HW124863   1.105   4.119   3.310  0.0603  2.0200  0.1012
 4468SOL    HW224864   1.005   4.037   3.378 -0.1917  0.5217  0.0732
 4469SOL     OW24865   1.167   4.623  11.853 -0.4437 -0.0746  0.3657
 4469SOL    HW124866   1.259   4.617  11.830 -0.1188  0.7973  1.4798
 4469SOL    HW224867   1.161   4.708  11.897 -0.5068 -0.2510  0.7038
 4470SOL     OW24868   2.114   4.707   9.575  0.1675  0.0162 -0.3044
 4470SOL    HW124869   2.051   0.000   9.504  0.2751  0.6404 -0.2636
 4470SOL    HW224870   2.067   4.662   9.645  0.9166  1.4332  1.1110
 4471SOL     OW24871   0.818   1.438   8.671 -0.0086 -0.7417 -0.4034
 4471SOL    HW124872   0.862   1.366   8.626 -3.1075 -0.2619 -4.2551
 4471SOL    HW224873   0.857   1.512   8.625 -1.1822 -0.5421 -1.0633
 4472SOL     OW24874   2.286   3.476   5.852 -0.5023 -0.5453  0.0344
 4472SOL    HW124875   2.274   3.535   5.777 -1.8780 -0.2847  0.4591
 4472SOL    HW224876   2.326   3.540   5.911  1.5276 -0.9240 -0.9273
 4473SOL     OW24877   2.992   2.618   4.918 -0.2498  0.0771 -0.1574
 4473SOL    HW124878   2.975   2.596   5.010 -0.4004  0.3692 -0.1138
 4473SOL    HW224879   3.087   2.613   4.910 -0.4261 -1.8235 -0.9846
 4474SOL     OW24880   2.821   0.542  14.158  0.1048  0.2171 -0.4730
 4474SOL    HW124881   2.767   0.474  14.199 -1.2578  1.2666 -0.5418
 4474SOL    HW224882   2.754   0.602  14.126  0.4907  0.1801 -1.3505
 4475SOL     OW24883   0.944   0.586  15.654  0.1053  0.5325  0.3046
 4475SOL    HW124884   0.898   0.540  15.584  1.0764  1.2077 -0.7756
 4475SOL    HW224885   0.883   0.577  15.727 -2.0037 -2.0411 -1.7561
 4476SOL     OW24886   2.143   2.647  12.665 -0.1938 -0.3560  0.1241
 4476SOL    HW124887   2.202   2.687  12.601  4.2798 -2.2441  3.0009
 4476SOL    HW224888   2.068   2.639  12.608 -1.2427  1.6963  1.2182
 4477SOL     OW24889   0.434   3.363   7.943  0.0215  0.1281 -0.0271
 4477SOL    HW124890   0.397   3.436   7.992  0.7068  1.5254 -1.5696
 4477SOL    HW224891   0.518   3.406   7.926  1.3366 -1.8689  1.5252
 4478SOL     OW24892   2.328   3.509   6.290 -0.0070 -0.3249  0.5971
 4478SOL    HW124893   2.321   3.602   6.314 -1.3055 -0.1765 -0.3902
 4478SOL    HW224894   2.241   3.475   6.270  0.6669 -1.1014 -0.9738
 4479SOL     OW24895   0.973   1.082   5.429  0.0874 -0.1720 -0.3698
 4479SOL    HW124896   1.067   1.101   5.428 -0.1616  1.0836  1.0186
 4479SOL    HW224897   0.949   1.164   5.473 -0.0022 -0.9503  1.0409
 4480SOL     OW24898   0.296   0.905   6.640 -0.4472 -0.1835  0.3247
 4480SOL    HW124899   0.261   0.994   6.639 -2.2781 -0.9218 -2.0085
 4480SOL    HW224900   0.381   0.920   6.682 -1.4407  1.1016  1.8721
 4481SOL     OW24901   0.102   1.683   4.496  0.0194 -0.5044  0.1578
 4481SOL    HW124902   0.011   1.704   4.520 -0.0661 -0.9745  0.2378
 4481SOL    HW224903   0.145   1.750   4.550  2.2814 -1.9486  0.1305
 4482SOL     OW24904   3.223   0.950   4.704 -0.4791  0.3117 -0.0888
 4482SOL    HW124905   3.202   1.041   4.723  1.0555  0.2823  1.8543
 4482SOL    HW224906   3.140   0.927   4.663  0.5788 -1.0966 -1.4680
 4483SOL     OW24907   1.503   1.484   9.107  0.2413 -0.5561 -0.0699
 4483SOL    HW124908   1.455   1.428   9.168  1.2062 -0.7906  0.4772
 4483SOL    HW224909   1.438   1.497   9.038  0.0018  2.1690  0.6701
 4484SOL     OW24910   2.140   0.262   6.894  0.6645  0.3093  0.2915
 4484SOL    HW124911   2.233   0.282   6.903  0.8579 -0.2230 -0.5212
 4484SOL    HW224912   2.155   0.172   6.866 -0.2583  0.0386  0.6846
 4485SOL     OW24913   0.470   2.927  10.761 -0.7105  0.4900  0.1745
 4485SOL    HW124914   0.478   2.969  10.675 -0.6334  1.1113  0.4900
 4485SOL    HW224915   0.382   2.959  10.782 -0.6026 -1.1599  3.1263
 4486SOL     OW24916   2.143   3.683   4.713  0.5740  0.3116 -0.0805
 4486SOL    HW124917   2.069   3.644   4.760 -0.1673 -0.3262 -1.7805
 4486SOL    HW224918   2.201   3.693   4.789  1.8938  0.6707 -1.1316
 4487SOL     OW24919   4.179   0.382   6.363  0.2567 -0.5333  0.3152
 4487SOL    HW124920   4.225   0.464   6.351 -1.2798 -0.2575 -3.8903
 4487SOL    HW224921   4.135   0.369   6.279  2.2641 -0.6621 -0.7149
 4488SOL     OW24922   0.669   1.231   6.649  0.1754 -0.1155 -0.3732
 4488SOL    HW124923   0.653   1.147   6.605 -3.0621  1.5976 -2.4867
 4488SOL    HW224924   0.621   1.211   6.729 -0.8768  0.0439 -0.9623
 4489SOL     OW24925   1.263   3.987   2.724 -0.4599  0.8226 -0.0785
 4489SOL    HW124926   1.331   4.043   2.686  1.1229 -1.6609 -0.9394
 4489SOL    HW224927   1.191   4.043   2.751  0.4234  2.2568 -0.7021
 4490SOL     OW24928   2.853   2.841   7.916 -0.0939 -0.4260  0.1049
 4490SOL    HW124929   2.804   2.923   7.909  0.2774 -0.2515 -0.4539
 4490SOL    HW224930   2.934   2.858   7.965  0.4011  0.3730 -1.0023
 4491SOL     OW24931   2.460   2.404   2.627  0.2469 -0.8905  0.4185
 4491SOL    HW124932   2.400   2.473   2.655 -0.5182 -1.1392 -0.6182
 4491SOL    HW224933   2.496   2.447   2.550 -1.3534  1.9768  1.2399
 4492SOL     OW24934   1.005   0.257   5.955  0.0099  0.5977 -0.1734
 4492SOL    HW124935   0.965   0.316   6.019  0.3294  0.3357  0.2686
 4492SOL    HW224936   0.953   0.276   5.877 -0.3026  0.3750 -0.0204
 4493SOL     OW24937   3.253   3.245   2.226 -0.6102  0.3918 -0.2740
 4493SOL    HW124938   3.249   3.211   2.136 -0.4411 -0.6489  0.1031
 4493SOL    HW224939   3.169   3.291   2.228 -0.1306  1.1107  2.8076
 4494SOL     OW24940   3.102   0.281  11.808  0.0141 -0.4380 -0.3725
 4494SOL    HW124941   3.190   0.244  11.798  0.1396 -0.2447 -0.0037
 4494SOL    HW224942   3.052   0.200  11.794  0.7938 -1.1092  0.6511
 4495SOL     OW24943   2.226   3.449   4.166  0.1753  0.6739 -0.0448
 4495SOL    HW124944   2.156   3.449   4.232 -0.1050  0.2144 -0.3391
 4495SOL    HW224945   2.259   3.361   4.184 -1.2505  0.1230 -0.1300
 4496SOL     OW24946   1.807   1.208   3.309 -0.5871  0.6076  0.0786
 4496SOL    HW124947   1.728   1.196   3.362 -0.1631 -0.2260  0.5290
 4496SOL    HW224948   1.843   1.285   3.352  1.4264 -1.3159  1.8085
 4497SOL     OW24949   1.746   2.492   7.712 -0.0764  0.0405  0.1167
 4497SOL    HW124950   1.839   2.473   7.705 -0.0748  0.1341 -0.1195
 4497SOL    HW224951   1.705   2.409   7.686 -1.3346  0.4536  0.7727
 4498SOL     OW24952   3.854   3.352   4.912  0.4857 -0.3237  0.2916
 4498SOL    HW124953   3.919   3.419   4.929 -1.1614  0.6490  2.8356
 4498SOL    HW224954   3.786   3.372   4.976 -0.3927 -3.2651  0.3086
 4499SOL     OW24955   0.184   3.058   8.989  0.5142  0.1289 -0.0888
 4499SOL    HW124956   0.099   3.017   9.003 -0.8812  3.6682  1.8563
 4499SOL    HW224957   0.159   3.139   9.034  1.0276 -1.6646  3.4211
 4500SOL     OW24958   1.092   3.283   7.610  0.0419 -0.5887  0.2456
 4500SOL    HW124959   1.146   3.240   7.677  0.7536  1.3216  0.9071
 4500SOL    HW224960   1.138   3.253   7.532  0.3243  1.1747 -0.2809
 4501SOL     OW24961   1.659   4.600   3.628  0.0427 -0.3147 -0.3557
 4501SOL    HW124962   1.692   4.516   3.661  2.5233 -0.2244 -2.5597
 4501SOL    HW224963   1.736   4.623   3.577  0.4883  1.4677  1.1080
 4502SOL     OW24964   1.500   3.514  12.675 -0.1132  0.1442 -0.0713
 4502SOL    HW124965   1.494   3.503  12.770 -0.1201  1.1598  0.0467
 4502SOL    HW224966   1.480   3.422  12.661  0.3855  0.2053 -1.1951
 4503SOL     OW24967   2.292   0.740   8.623  0.7308  0.2726 -0.5861
 4503SOL    HW124968   2.227   0.806   8.600  0.0357 -0.5699 -1.0798
 4503SOL    HW224969   2.310   0.709   8.534 -1.1251 -2.5642  0.0091
 4504SOL     OW24970   1.019   4.417   4.732 -0.0170  0.1805  0.1056
 4504SOL    HW124971   1.064   4.354   4.788  0.8810 -0.1742 -1.0246
 4504SOL    HW224972   0.950   4.361   4.697  0.2212 -0.9946  1.5023
 4505SOL     OW24973   3.826   4.690  17.455  0.2348  0.3604  0.2938
 4505SOL    HW124974   3.733   4.697  17.477  0.8962  2.4581  2.4638
 4505SOL    HW224975   3.860   4.628  17.519  0.8136  0.3132 -0.0604
 4506SOL     OW24976   0.775   3.594  16.004  0.3085 -0.5091  0.8796
 4506SOL    HW124977   0.870   3.581  16.013  0.1093 -0.8991  2.5316
 4506SOL    HW224978   0.762   3.514  16.055 -1.2199 -0.8344 -0.0117
 4507SOL     OW24979   4.303   0.174  17.217 -0.6481  0.1258 -0.5092
 4507SOL    HW124980   4.303   0.109  17.147  0.4387 -0.7299  0.2832
 4507SOL    HW224981   4.247   0.238  17.175 -1.3013  0.9887  1.6761
 4508SOL     OW24982   1.217   4.327   5.135  0.2381 -0.0858 -0.2460
 4508SOL    HW124983   1.227   4.297   5.226  1.3349  0.3529 -0.2182
 4508SOL    HW224984   1.292   4.387   5.131  1.8741 -1.9286  2.3434
 4509SOL     OW24985   4.188   3.113   3.904  0.6309 -0.2626 -0.4859
 4509SOL    HW124986   4.139   3.144   3.980  1.1287  4.2595 -2.0219
 4509SOL    HW224987   4.123   3.135   3.838  1.3523 -0.4888 -1.2665
 4510SOL     OW24988   4.439   4.324   5.883 -0.3450  0.5738 -0.2326
 4510SOL    HW124989   4.402   4.404   5.919 -3.0764 -0.3117 -1.1175
 4510SOL    HW224990   4.416   4.347   5.793 -0.9307  0.2941 -0.1521
 4511SOL     OW24991   1.965   0.088   8.495 -0.2846 -0.1310 -0.5781
 4511SOL    HW124992   1.992   0.048   8.578  1.8487  1.0250 -0.6970
 4511SOL    HW224993   2.008   0.174   8.499  0.3558 -0.3098 -3.4478
 4512SOL     OW24994   1.530   0.819  11.676 -0.3158 -0.1901  0.0386
 4512SOL    HW124995   1.469   0.773  11.619 -0.3588 -0.1139  0.0243
 4512SOL    HW224996   1.598   0.844  11.614  1.6943 -2.2223  1.4059
 4513SOL     OW24997   2.960   0.891   8.756  0.2226  0.3383 -0.1215
 4513SOL    HW124998   2.868   0.897   8.782 -0.6113 -0.7501 -2.8150
 4513SOL    HW224999   3.009   0.859   8.833 -1.6045  3.1955  2.2174
 4514SOL     OW25000   4.559   4.415   3.004 -0.5391 -0.0016  0.4840
 4514SOL    HW125001   4.594   4.410   2.915 -2.0669  1.1979 -0.1698
 4514SOL    HW225002   4.496   4.344   3.013  0.9203 -1.4739 -0.9346
 4515SOL     OW25003   2.153   1.068   3.542  0.1163  0.0116  0.1345
 4515SOL    HW125004   2.119   1.156   3.527 -0.2838  0.0422  1.2194
 4515SOL    HW225005   2.166   1.073   3.636  0.6989  0.7720  0.0096
 4516SOL     OW25006   2.805   1.836   3.880  0.1308  0.6500  0.3492
 4516SOL    HW125007   2.712   1.823   3.900  0.3279 -2.0203 -0.3690
 4516SOL    HW225008   2.798   1.830   3.785 -1.5084 -0.8402  0.5506
 4517SOL     OW25009   0.416   3.921  13.610 -0.4888 -0.1883 -0.2256
 4517SOL    HW125010   0.468   3.904  13.532 -1.1031 -1.3315 -0.3919
 4517SOL    HW225011   0.344   3.857  13.604 -0.3349 -0.5138  1.3016
 4518SOL     OW25012   2.613   0.782   1.328 -0.0033 -0.0745  0.0256
 4518SOL    HW125013   2.695   0.809   1.369  1.2402 -0.1240 -2.4515
 4518SOL    HW225014   2.590   0.840   1.255 -0.1968 -2.2250 -1.6418
 4519SOL     OW25015   1.682   2.215   4.314  0.1648  0.1999 -0.0839
 4519SOL    HW125016   1.715   2.211   4.224  2.9702 -1.4194  1.0285
 4519SOL    HW225017   1.673   2.122   4.336  2.0737  0.5518  2.1091
 4520SOL     OW25018   2.588   1.502   2.169 -0.0935 -0.2812 -0.2404
 4520SOL    HW125019   2.621   1.463   2.250  1.3038  2.8506  0.7021
 4520SOL    HW225020   2.663   1.496   2.110  0.4445 -0.3896  0.4557
 4521SOL     OW25021   2.917   2.100   8.061 -0.2365 -0.2126  0.3452
 4521SOL    HW125022   2.910   2.081   8.154  0.1308 -0.6780  0.2821
 4521SOL    HW225023   2.827   2.088   8.030 -0.1273  1.3815 -0.5901
 4522SOL     OW25024   4.003   2.941  14.608 -0.4111 -0.4616  0.1213
 4522SOL    HW125025   4.020   3.032  14.635 -2.3543  0.5326 -2.0448
 4522SOL    HW225026   4.004   2.953  14.513 -0.5923 -0.1664  0.1548
 4523SOL     OW25027   0.158   0.263   7.025  0.2441 -0.0462 -0.0233
 4523SOL    HW125028   0.186   0.352   7.049 -0.1229 -0.2034  0.9748
 4523SOL    HW225029   0.064   0.279   7.024  0.4540  1.1223 -0.9821
 4524SOL     OW25030   0.826   3.255   7.626  0.0710 -0.3859 -0.2684
 4524SOL    HW125031   0.822   3.206   7.544 -1.6612  0.1402 -0.4932
 4524SOL    HW225032   0.922   3.255   7.627  0.0718  0.7709 -0.1571
 4525SOL     OW25033   0.656   0.844   5.735  0.1745 -0.5083 -0.5856
 4525SOL    HW125034   0.667   0.905   5.662 -0.4574  0.2193 -0.0736
 4525SOL    HW225035   0.572   0.811   5.704  0.2731 -0.4101 -0.9513
 4526SOL     OW25036   3.473   4.069   6.096 -0.0554 -0.2832 -0.2398
 4526SOL    HW125037   3.547   4.063   6.156  0.0219 -3.9865 -0.6980
 4526SOL    HW225038   3.434   4.148   6.133 -0.3975 -0.5198 -0.0963
 4527SOL     OW25039   0.394   4.005   7.231 -0.3473  0.2906  0.1477
 4527SOL    HW125040   0.428   4.039   7.148  1.7846  1.7323  1.6185
 4527SOL    HW225041   0.472   3.956   7.257  0.5422  2.8651  2.2551
 4528SOL     OW25042   0.718   1.935   2.594 -0.3462 -0.4448 -0.2416
 4528SOL    HW125043   0.737   1.855   2.642 -1.2562 -0.1805  0.5696
 4528SOL    HW225044   0.733   1.922   2.500  1.5020  1.1071 -0.1618
 4529SOL     OW25045   0.530   2.083   7.106  0.4847  0.0378 -0.3896
 4529SOL    HW125046   0.567   2.139   7.174 -0.6123  0.1884  0.0760
 4529SOL    HW225047   0.487   2.153   7.057 -2.2058 -0.9203  0.6343
 4530SOL     OW25048   4.457   3.368   3.951 -0.5655 -0.3678 -0.0392
 4530SOL    HW125049   4.416   3.336   4.031 -0.0118  1.0882  0.8225
 4530SOL    HW225050   4.520   3.423   3.997 -1.6287  0.1577  0.7946
 4531SOL     OW25051   3.304   1.951   0.032  0.0397 -0.2852 -0.2610
 4531SOL    HW125052   3.305   1.856   0.043  0.5895 -0.2185  0.2454
 4531SOL    HW225053   3.338   1.983   0.115 -0.4127 -2.8745  0.9166
 4532SOL     OW25054   2.253   1.423  10.466 -0.3570 -0.3562  0.2650
 4532SOL    HW125055   2.249   1.327  10.472 -0.9554 -0.3154  0.5261
 4532SOL    HW225056   2.160   1.438  10.482 -0.4591  0.8092 -1.3973
 4533SOL     OW25057   4.185   3.150   6.065 -0.3254 -0.1322 -0.3862
 4533SOL    HW125058   4.243   3.199   6.007  0.9006 -1.2353 -0.0786
 4533SOL    HW225059   4.253   3.131   6.130 -2.7820 -0.2135  2.1747
 4534SOL     OW25060   3.113   1.040  11.454  0.0854  0.3558  0.6157
 4534SOL    HW125061   3.144   0.981  11.385  1.5981  1.2405  0.5266
 4534SOL    HW225062   3.138   0.992  11.533  1.6020 -1.1319 -0.7632
 4535SOL     OW25063   2.979   4.706   1.830  0.3293  0.2069  0.4167
 4535SOL    HW125064   2.938   0.032   1.758  0.1320  1.1669  1.1753
 4535SOL    HW225065   3.002   0.066   1.873 -0.3529  1.0022 -0.7723
 4536SOL     OW25066   4.705   3.766   3.576  0.0128 -0.7288 -0.7258
 4536SOL    HW125067   4.661   3.838   3.530 -1.8087 -1.3451  0.0639
 4536SOL    HW225068   0.056   3.746   3.517 -0.1774 -1.6630 -0.6336
 4537SOL     OW25069   0.516   1.129   7.366 -0.2202  0.3918 -0.5505
 4537SOL    HW125070   0.470   1.206   7.400  0.2063  0.8624 -1.0399
 4537SOL    HW225071   0.533   1.159   7.277  0.2238 -0.4271 -0.7442
 4538SOL     OW25072   2.173   2.703  16.002 -0.2165 -0.2946 -0.0345
 4538SOL    HW125073   2.095   2.753  15.980 -0.9186  0.4925  4.2702
 4538SOL    HW225074   2.205   2.664  15.920  1.2987 -0.2867  0.5448
 4539SOL     OW25075   2.134   2.510   2.961 -0.1756  0.5425  1.0253
 4539SOL    HW125076   2.230   2.509   2.961 -0.1788 -1.2428 -2.8965
 4539SOL    HW225077   2.124   2.448   3.034  3.0482  0.0416  1.0626
 4540SOL     OW25078   1.559   1.152   7.631  0.6643 -0.2832  0.4932
 4540SOL    HW125079   1.509   1.074   7.656 -1.0987  0.3386 -1.0840
 4540SOL    HW225080   1.513   1.214   7.688  0.8512 -0.3468  0.7110
 4541SOL     OW25081   4.606   4.621  14.842  0.8713 -0.1846  0.7030
 4541SOL    HW125082   4.576   4.580  14.923  1.9732 -0.5203  0.9507
 4541SOL    HW225083   4.535   4.602  14.782 -1.6354 -0.1936  3.6760
 4542SOL     OW25084   3.542   4.647   8.816  0.0948 -0.3025  0.1839
 4542SOL    HW125085   3.508   0.005   8.777  2.5282  0.4444 -0.3919
 4542SOL    HW225086   3.470   4.588   8.792 -1.1243  1.7766 -1.1957
 4543SOL     OW25087   3.484   3.982   8.618  0.7106 -0.8121 -0.3066
 4543SOL    HW125088   3.496   3.890   8.641 -2.4130 -0.7075  1.7336
 4543SOL    HW225089   3.547   4.024   8.676 -1.1751  0.2576  0.9602
 4544SOL     OW25090   1.991   3.182  14.789  0.1315 -0.5096  0.8034
 4544SOL    HW125091   2.011   3.191  14.882  2.3696  2.2522  0.0697
 4544SOL    HW225092   1.898   3.204  14.784 -0.0255 -1.8896 -2.7137
 4545SOL     OW25093   4.247   1.638   8.444 -0.7504 -0.1195 -0.1728
 4545SOL    HW125094   4.284   1.703   8.503 -1.6361  0.1117  0.1360
 4545SOL    HW225095   4.162   1.681   8.439  0.3945  1.8636 -2.6300
 4546SOL     OW25096   3.306   3.314   4.418 -0.2559 -0.5468 -0.4383
 4546SOL    HW125097   3.306   3.301   4.323  1.3697 -0.5492 -0.4430
 4546SOL    HW225098   3.398   3.309   4.445  0.3373 -0.9617 -2.5265
 4547SOL     OW25099   1.648   0.782  13.056 -0.2350 -0.7253  0.1138
 4547SOL    HW125100   1.554   0.779  13.043 -0.1893  0.0115 -0.4062
 4547SOL    HW225101   1.659   0.876  13.044 -2.2451 -0.1031  3.2968
 4548SOL     OW25102   0.633   3.840   8.769 -0.1088  0.0381 -0.0633
 4548SOL    HW125103   0.577   3.803   8.700  2.1257 -1.0440 -1.2913
 4548SOL    HW225104   0.690   3.765   8.784  1.5138  1.1979 -0.4377
 4549SOL     OW25105   0.348   2.891   5.845 -0.2008  0.4721 -0.5101
 4549SOL    HW125106   0.301   2.974   5.859 -0.6119  0.0897  0.4120
 4549SOL    HW225107   0.434   2.923   5.819 -0.5980 -0.0698 -2.4759
 4550SOL     OW25108   3.885   2.169  17.377 -0.2918  0.0044  0.4526
 4550SOL    HW125109   3.979   2.168  17.394 -0.2696  1.4950  0.4294
 4550SOL    HW225110   3.868   2.262  17.358 -0.4645  0.0254  0.7061
 4551SOL     OW25111   4.572   1.416  16.057 -0.2191  0.3479 -0.7434
 4551SOL    HW125112   4.630   1.485  16.092 -0.9393  0.9915 -0.8155
 4551SOL    HW225113   4.591   1.419  15.964 -1.1135 -0.9566 -0.9697
 4552SOL     OW25114   4.170   0.872   3.711 -0.5744  0.0351  0.3671
 4552SOL    HW125115   4.100   0.871   3.646  0.5564 -1.1921 -0.8513
 4552SOL    HW225116   4.149   0.954   3.756  0.1021 -0.1269  0.9782
 4553SOL     OW25117   4.505   3.879   3.199  1.2418  0.4065 -0.0770
 4553SOL    HW125118   4.415   3.846   3.200  1.7723 -1.0486  0.0177
 4553SOL    HW225119   4.528   3.845   3.112 -1.2042  0.3231 -0.6778
 4554SOL     OW25120   1.394   2.931  14.689  0.6000 -0.3894 -0.2601
 4554SOL    HW125121   1.366   3.000  14.628  0.7729 -0.1803 -0.1050
 4554SOL    HW225122   1.368   2.850  14.646  0.9716 -1.1861  1.0327
 4555SOL     OW25123   0.351   2.018  13.705 -0.0587  0.0845 -0.3484
 4555SOL    HW125124   0.323   1.927  13.696  2.6108 -1.0250  2.5556
 4555SOL    HW225125   0.396   2.015  13.790  2.1218  1.9337 -1.4338
 4556SOL     OW25126   2.890   1.554  16.129 -0.0855 -0.5122 -0.2695
 4556SOL    HW125127   2.886   1.647  16.106 -1.6806 -0.2674  0.9899
 4556SOL    HW225128   2.860   1.555  16.220 -0.3340  2.8065 -0.4081
 4557SOL     OW25129   2.642   0.170   5.891 -0.1376 -0.1578 -0.3418
 4557SOL    HW125130   2.569   0.196   5.835 -1.5483 -2.5075  0.4098
 4557SOL    HW225131   2.667   0.258   5.919  0.3792 -0.5052  0.2959
 4558SOL     OW25132   1.257   1.080   8.089 -0.2622 -0.0453  0.2585
 4558SOL    HW125133   1.229   1.005   8.037 -0.3998 -0.4727  0.9550
 4558SOL    HW225134   1.181   1.090   8.147 -0.4596 -0.2460  0.0325
 4559SOL     OW25135   4.317   0.934  14.135  0.5047 -0.5663 -0.0093
 4559SOL    HW125136   4.341   1.003  14.073  1.6112 -0.3217  0.6761
 4559SOL    HW225137   4.227   0.946  14.165  0.4537  2.5894 -1.4180
 4560SOL     OW25138   2.726   2.374   1.027  0.9810  0.2703 -0.2773
 4560SOL    HW125139   2.812   2.332   1.033 -1.1191 -3.2594  4.3650
 4560SOL    HW225140   2.711   2.395   1.119  1.0606  1.1852 -0.4642
 4561SOL     OW25141   3.811   3.209   5.574 -0.4931 -0.3218  0.0001
 4561SOL    HW125142   3.842   3.277   5.514  0.9502 -2.2157 -1.3952
 4561SOL    HW225143   3.737   3.248   5.621 -1.1236 -0.4381 -0.8916
 4562SOL     OW25144   3.805   2.884  17.514 -0.7551 -0.5879  0.1606
 4562SOL    HW125145   3.770   2.972  17.529 -3.1590 -1.4113 -0.5878
 4562SOL    HW225146   3.810   2.846  17.601 -2.5366 -2.8436 -0.7305
 4563SOL     OW25147   4.528   2.254  11.395 -0.2347  0.7332 -0.2474
 4563SOL    HW125148   4.581   2.291  11.325 -0.8236 -0.4632 -1.3344
 4563SOL    HW225149   4.455   2.211  11.351 -1.2506 -0.0578  2.2061
 4564SOL     OW25150   1.962   3.385   7.354  0.0039 -0.2554 -0.1137
 4564SOL    HW125151   1.929   3.461   7.401 -0.9244 -1.2782  0.9019
 4564SOL    HW225152   1.962   3.318   7.423  1.2141 -1.0382 -0.8734
 4565SOL     OW25153   4.222   2.103   6.403 -0.4963  0.3390 -0.3443
 4565SOL    HW125154   4.188   2.013   6.400 -0.7534  0.4254 -0.0734
 4565SOL    HW225155   4.148   2.145   6.446  0.0453  1.3503 -0.4123
 4566SOL     OW25156   4.695   3.027   7.904 -0.0083  0.2645  0.1117
 4566SOL    HW125157   4.638   3.048   7.830 -1.2118 -2.0336  0.4166
 4566SOL    HW225158   0.035   2.960   7.875  0.0852  0.3207  0.1811
 4567SOL     OW25159   0.233   3.186   6.929  0.7771  0.0072  0.6264
 4567SOL    HW125160   0.212   3.248   6.999 -3.8162 -0.4535 -0.3735
 4567SOL    HW225161   0.154   3.131   6.929  0.2431  0.7671 -0.7311
 4568SOL     OW25162   2.310   3.209   2.774  0.4676 -0.3906  0.4882
 4568SOL    HW125163   2.227   3.251   2.752 -0.0803 -1.8942 -0.3519
 4568SOL    HW225164   2.312   3.157   2.694 -1.4052  0.9001 -0.3715
 4569SOL     OW25165   4.582   2.823   4.102  0.3609  0.0660  0.2238
 4569SOL    HW125166   4.497   2.809   4.060  0.3880  2.2425 -0.5274
 4569SOL    HW225167   4.639   2.798   4.029 -1.6598  0.4701 -1.5052
 4570SOL     OW25168   1.756   3.163   3.339  0.2721 -0.2218 -0.2160
 4570SOL    HW125169   1.769   3.094   3.273  3.9984 -0.5865  0.8616
 4570SOL    HW225170   1.847   3.187   3.356 -0.0185 -0.7154  2.0275
 4571SOL     OW25171   4.646   3.679  13.266 -0.5508  0.2957  0.0128
 4571SOL    HW125172   4.670   3.693  13.357  0.8755 -1.9988 -0.0227
 4571SOL    HW225173   4.673   3.762  13.225  0.9578 -1.5355 -2.7252
 4572SOL     OW25174   3.109   2.949  11.493  0.3041  0.2419 -0.4835
 4572SOL    HW125175   3.163   2.918  11.566 -2.2507 -1.4226  0.6750
 4572SOL    HW225176   3.023   2.916  11.518  0.6425  0.1133  0.5103
 4573SOL     OW25177   3.019   0.556   7.938 -0.3632 -0.3448 -0.2330
 4573SOL    HW125178   2.987   0.605   7.863  3.3029  0.5461 -1.2316
 4573SOL    HW225179   2.953   0.487   7.942 -0.8192  0.0603 -0.9403
 4574SOL     OW25180   3.595   0.867   1.854 -0.0680 -0.0678 -0.0740
 4574SOL    HW125181   3.658   0.911   1.797 -1.7245 -0.7912 -2.4731
 4574SOL    HW225182   3.532   0.938   1.862 -0.4613 -0.3042 -1.0342
 4575SOL     OW25183   2.648   2.376   8.348 -0.2885 -0.4691 -0.4150
 4575SOL    HW125184   2.669   2.326   8.427  1.2603 -0.8051 -1.0559
 4575SOL    HW225185   2.721   2.436   8.358 -0.1814 -0.6357 -0.1913
 4576SOL     OW25186   2.687   4.278   4.991 -0.4323  0.0155 -0.3385
 4576SOL    HW125187   2.693   4.183   4.989  1.4128  0.0980  1.6489
 4576SOL    HW225188   2.781   4.291   5.002 -1.0961  2.0623  2.8250
 4577SOL     OW25189   1.138   0.150   0.015  0.2088  0.9569 -0.2994
 4577SOL    HW125190   1.230   0.171   0.001  0.8316 -1.2057  0.6411
 4577SOL    HW225191   1.110   0.142  17.617 -1.6410  0.1426  0.3364
 4578SOL     OW25192   1.077   1.738  10.500 -0.2215  0.3777  0.1389
 4578SOL    HW125193   1.150   1.787  10.538  1.0567 -1.8844  0.5914
 4578SOL    HW225194   1.037   1.810  10.452  0.6975 -0.1022 -1.3459
 4579SOL     OW25195   1.300   3.364   3.197  0.0273  0.2503  0.4819
 4579SOL    HW125196   1.294   3.401   3.108 -0.8980 -0.1711  0.3724
 4579SOL    HW225197   1.393   3.344   3.202  0.0169 -0.3296 -1.3143
 4580SOL     OW25198   2.130   2.902   6.466  0.2032  0.0375 -0.1098
 4580SOL    HW125199   2.143   2.925   6.374 -2.9108 -0.7386 -0.7597
 4580SOL    HW225200   2.068   2.973   6.486 -0.2326 -0.7026  1.1780
 4581SOL     OW25201   3.908   3.157  11.664 -0.0984 -0.1051  0.3234
 4581SOL    HW125202   3.905   3.127  11.755 -2.1296  0.2640  0.3932
 4581SOL    HW225203   3.997   3.192  11.659 -0.9011  1.7274 -0.9100
 4582SOL     OW25204   4.062   3.200  12.298 -1.0453 -0.0185 -0.4446
 4582SOL    HW125205   4.158   3.205  12.298 -1.0228 -0.3555  2.3822
 4582SOL    HW225206   4.039   3.215  12.206 -0.6033 -0.3778 -0.6157
 4583SOL     OW25207   2.983   1.430   0.020 -0.4036 -0.2005  0.3927
 4583SOL    HW125208   3.055   1.437   0.082  1.4746  2.4215 -2.0535
 4583SOL    HW225209   2.915   1.392   0.075 -1.9025 -0.0537 -1.3583
 4584SOL     OW25210   0.086   4.108  13.733 -0.0444 -0.0458  0.3511
 4584SOL    HW125211   4.717   4.123  13.757 -0.6081 -1.2411 -1.0644
 4584SOL    HW225212   0.090   4.014  13.750  0.2951  0.2262  1.7935
 4585SOL     OW25213   3.882   2.643  15.606 -0.0473 -0.3899  0.5668
 4585SOL    HW125214   3.806   2.665  15.552  1.8991  0.9898 -1.6230
 4585SOL    HW225215   3.878   2.547  15.611 -1.3948 -0.3356  0.4543
 4586SOL     OW25216   3.948   4.036  10.798 -0.0017 -0.2880 -0.0336
 4586SOL    HW125217   3.897   4.103  10.753  0.3599 -0.6218 -0.9555
 4586SOL    HW225218   4.014   4.088  10.843 -1.1210  1.5576 -0.4950
 4587SOL     OW25219   0.047   2.015  16.931 -0.4139 -0.0277  0.3788
 4587SOL    HW125220   0.090   1.961  16.998  0.0221 -0.8612 -0.5633
 4587SOL    HW225221   4.684   1.972  16.940 -0.7673  1.4140  3.6789
 4588SOL     OW25222   3.831   1.289   5.412 -0.4503  0.8229 -0.0151
 4588SOL    HW125223   3.736   1.293   5.421 -0.3484 -0.9143  1.8460
 4588SOL    HW225224   3.845   1.199   5.382  1.3447  0.7772  0.9330
 4589SOL     OW25225   1.694   1.209   5.077 -0.2608 -0.3173 -0.2599
 4589SOL    HW125226   1.668   1.134   5.025 -0.7775  0.6072 -1.3397
 4589SOL    HW225227   1.759   1.238   5.013  0.2321 -0.6678  0.0835
 4590SOL     OW25228   1.128   1.924  13.977 -0.3589  0.2893  0.3509
 4590SOL    HW125229   1.143   2.005  14.027 -0.1240  0.8160 -0.5704
 4590SOL    HW225230   1.050   1.890  14.021  0.9893 -1.3155  1.4961
 4591SOL     OW25231   2.049   1.772   4.899  0.5861 -0.0358 -0.5452
 4591SOL    HW125232   2.095   1.689   4.911  0.4363 -0.0856 -0.2940
 4591SOL    HW225233   2.066   1.787   4.807 -0.0436 -1.7759 -0.9453
 4592SOL     OW25234   4.604   1.468   4.674 -0.2124  0.0024 -0.6700
 4592SOL    HW125235   4.650   1.498   4.753 -1.8065 -2.3839  1.1900
 4592SOL    HW225236   4.615   1.543   4.615  3.7537  1.5615  2.0681
 4593SOL     OW25237   1.613   4.392   5.541 -0.0876  0.3234 -0.0053
 4593SOL    HW125238   1.594   4.301   5.566 -2.0594  0.0435 -2.4709
 4593SOL    HW225239   1.630   4.425   5.630  1.9898  0.3412 -0.4140
 4594SOL     OW25240   1.559   3.753   4.560 -0.0868  0.3731 -0.8403
 4594SOL    HW125241   1.647   3.780   4.586 -0.0681  1.1652 -1.7237
 4594SOL    HW225242   1.576   3.684   4.495 -0.8563  0.5101 -1.1840
 4595SOL     OW25243   0.575   2.610   7.926 -0.3421  0.3314  0.1264
 4595SOL    HW125244   0.531   2.671   7.985 -3.6318 -0.4937 -1.5056
 4595SOL    HW225245   0.552   2.523   7.958  0.7011  0.0886  0.2065
 4596SOL     OW25246   1.193   3.932   6.276  0.0114 -0.1674  0.3714
 4596SOL    HW125247   1.262   3.954   6.339 -0.0452  0.4613  0.2147
 4596SOL    HW225248   1.144   4.014   6.274 -0.4707 -0.3692  3.7009
 4597SOL     OW25249   2.616   3.903   2.630  0.6363 -0.0076  0.4722
 4597SOL    HW125250   2.523   3.889   2.613  0.5152  3.1660 -1.4470
 4597SOL    HW225251   2.617   3.957   2.709 -1.1569  1.2019 -0.3401
 4598SOL     OW25252   0.118   3.484  13.703  0.5909 -0.0036 -0.1207
 4598SOL    HW125253   0.096   3.418  13.768 -1.7555  0.4479 -0.4635
 4598SOL    HW225254   0.200   3.518  13.738 -0.3197  0.6393  1.3557
 4599SOL     OW25255   1.923   2.009   3.742 -0.1024  0.1629 -0.0112
 4599SOL    HW125256   1.983   1.984   3.812 -0.2368  2.5847  0.9826
 4599SOL    HW225257   1.938   1.942   3.675 -0.5992  0.5875 -0.5444
 4600SOL     OW25258   2.669   3.899   3.473  0.0071 -0.1316 -0.0815
 4600SOL    HW125259   2.596   3.839   3.486 -3.0286  2.8124 -3.5503
 4600SOL    HW225260   2.617   3.979   3.467  2.1550  1.2877 -0.0388
 4601SOL     OW25261   3.420   2.883   5.330  0.2196  0.2909  0.2931
 4601SOL    HW125262   3.385   2.917   5.248  0.7475  2.0975  0.8247
 4601SOL    HW225263   3.344   2.893   5.388  0.0029  2.8592 -0.4406
 4602SOL     OW25264   1.118   4.512   6.158 -0.3776 -0.4588  0.0682
 4602SOL    HW125265   1.054   4.558   6.212 -0.2164 -0.9510  0.6853
 4602SOL    HW225266   1.139   4.580   6.095 -0.2763 -2.6474 -2.2740
 4603SOL     OW25267   0.203   4.142   2.884  0.0001 -0.0400  0.8087
 4603SOL    HW125268   0.224   4.217   2.829 -0.3556  0.5190  1.4399
 4603SOL    HW225269   0.117   4.178   2.908 -0.3085  0.7962 -1.5429
 4604SOL     OW25270   4.469   2.029  12.524 -0.2866 -0.0216 -0.2083
 4604SOL    HW125271   4.457   2.050  12.431  0.7748 -2.1853 -0.8246
 4604SOL    HW225272   4.396   2.080  12.560 -0.3019 -0.0993 -0.1300
 4605SOL     OW25273   4.716   1.011   6.613  0.5539 -0.2723  0.4317
 4605SOL    HW125274   4.677   1.091   6.647 -0.9054 -0.5229 -0.6483
 4605SOL    HW225275   0.012   0.959   6.690 -0.2908 -1.0438  0.1146
 4606SOL     OW25276   1.079   3.027   4.227 -0.1408 -0.4631  0.0670
 4606SOL    HW125277   1.168   3.063   4.221  0.3212 -1.4015  1.0546
 4606SOL    HW225278   1.053   3.035   4.135 -0.2625  1.9793  0.3225
 4607SOL     OW25279   0.259   0.653   0.861  0.5605 -0.0288  0.8717
 4607SOL    HW125280   0.343   0.686   0.891  1.3524  0.6498 -2.0909
 4607SOL    HW225281   0.268   0.638   0.766  0.8862  0.7166  0.7850
 4608SOL     OW25282   3.235   2.177   6.297  0.1066  0.0379 -0.0835
 4608SOL    HW125283   3.186   2.193   6.378 -0.3087  0.5220 -0.4332
 4608SOL    HW225284   3.172   2.212   6.234  0.3477  0.3382 -0.1507
 4609SOL     OW25285   1.271   1.908   9.363  0.2156 -0.1641 -0.4318
 4609SOL    HW125286   1.350   1.925   9.414  1.8285  0.3327 -3.0800
 4609SOL    HW225287   1.269   1.813   9.361 -1.1973 -0.1291  0.0429
 4610SOL     OW25288   3.670   2.256  11.824 -1.0477  0.6068  0.0745
 4610SOL    HW125289   3.688   2.227  11.734 -0.1942 -0.5916  0.6384
 4610SOL    HW225290   3.586   2.298  11.805 -0.4593  1.6039 -0.3340
 4611SOL     OW25291   0.990   3.708   3.999  0.4565 -0.1661  0.4838
 4611SOL    HW125292   0.960   3.640   3.938  1.8712 -1.0905  0.8225
 4611SOL    HW225293   0.980   3.786   3.945 -0.2974 -0.0728  0.7456
 4612SOL     OW25294   1.691   0.671  16.478  0.6681 -0.6468 -0.4553
 4612SOL    HW125295   1.742   0.746  16.509 -2.4701  0.5815  1.6896
 4612SOL    HW225296   1.622   0.679  16.544 -0.4446 -1.2329 -1.5485
 4613SOL     OW25297   2.807   1.908  12.967  0.5661 -0.4501 -0.1866
 4613SOL    HW125298   2.763   1.823  12.965  2.0906 -1.2181 -1.2357
 4613SOL    HW225299   2.851   1.915  12.882  2.2008 -1.6344  0.5693
 4614SOL     OW25300   2.789   1.777   6.646  0.2841  0.3993  0.2808
 4614SOL    HW125301   2.709   1.747   6.603  0.2914  1.6935 -0.6687
 4614SOL    HW225302   2.757   1.848   6.702 -1.6495 -0.9252  0.8664
 4615SOL     OW25303   2.971   0.253   3.515  0.2141  0.3704  0.0174
 4615SOL    HW125304   2.918   0.288   3.443  0.6334  0.5545 -0.2003
 4615SOL    HW225305   2.911   0.268   3.588 -2.3163  0.5443 -2.1010
 4616SOL     OW25306   1.734   0.010  12.888  0.3068  0.7018  0.2272
 4616SOL    HW125307   1.661   4.675  12.911  1.3464 -1.1034 -0.9664
 4616SOL    HW225308   1.814   4.687  12.914 -0.0627 -1.3881 -2.2319
 4617SOL     OW25309   0.809   0.898   4.015 -0.2108 -0.8546 -0.1124
 4617SOL    HW125310   0.872   0.957   4.057 -0.1779 -1.5137  0.7534
 4617SOL    HW225311   0.779   0.854   4.094 -1.5149 -0.3120 -0.3100
 4618SOL     OW25312   3.838   3.976   8.836  0.4404 -0.4055 -0.0537
 4618SOL    HW125313   3.830   3.921   8.758  0.0870  0.2049 -0.4419
 4618SOL    HW225314   3.920   3.953   8.881 -0.1266 -2.2290  0.0456
 4619SOL     OW25315   2.573   0.500   8.872 -0.4361 -0.3345 -0.3462
 4619SOL    HW125316   2.520   0.576   8.851 -0.6675  0.3263  2.6275
 4619SOL    HW225317   2.657   0.546   8.873 -1.2258  1.1189 -1.9032
 4620SOL     OW25318   3.869   0.066  12.513 -0.1655  0.5979 -0.1348
 4620SOL    HW125319   3.797   0.127  12.528 -0.2292  0.8145 -1.2958
 4620SOL    HW225320   3.851   0.004  12.584 -0.0348  0.8864  0.1504
 4621SOL     OW25321   3.041   0.838   7.241  0.3225  0.1183 -0.4903
 4621SOL    HW125322   2.976   0.777   7.209  0.1446  0.8740 -1.5746
 4621SOL    HW225323   3.116   0.805   7.192 -0.6957  0.4849 -2.2900
 4622SOL     OW25324   2.399   3.183  10.038  0.1384 -0.7016  0.3378
 4622SOL    HW125325   2.319   3.134  10.058  0.3594 -1.4741 -0.6504
 4622SOL    HW225326   2.389   3.187   9.943  2.2697 -0.0096  0.1473
 4623SOL     OW25327   0.783   1.933   4.900  0.1297 -0.5079  0.4715
 4623SOL    HW125328   0.769   1.879   4.822 -3.2833 -1.4500  1.7322
 4623SOL    HW225329   0.865   1.974   4.870 -2.0219  1.6276 -2.5507
 4624SOL     OW25330   0.860   1.898  17.334  0.4845 -0.3795  0.8271
 4624SOL    HW125331   0.858   1.913  17.429  0.9599 -1.2571  0.9716
 4624SOL    HW225332   0.810   1.816  17.327  0.1681 -0.1951  0.8872
 4625SOL     OW25333   1.687   0.778  16.006  0.0757  0.1841 -0.4217
 4625SOL    HW125334   1.647   0.864  15.992 -0.6528 -0.4558 -2.3225
 4625SOL    HW225335   1.756   0.763  15.941  1.0322  2.8105  0.0296
 4626SOL     OW25336   2.477   3.938   6.636 -0.1281  0.2442 -0.0798
 4626SOL    HW125337   2.491   3.868   6.571  0.6561 -0.5167  0.9066
 4626SOL    HW225338   2.445   3.905   6.720  1.8217  0.4581  0.7453
 4627SOL     OW25339   1.371   1.493   9.946 -0.0430  0.0555  0.1111
 4627SOL    HW125340   1.394   1.582   9.976 -0.8552 -0.0236  0.9710
 4627SOL    HW225341   1.276   1.487   9.939  0.2183 -2.3895 -1.0763
 4628SOL     OW25342   0.248   2.408   7.060 -0.5643 -0.1881 -0.2693
 4628SOL    HW125343   0.299   2.348   7.006 -2.6340 -2.0557 -0.1514
 4628SOL    HW225344   0.277   2.487   7.015  2.2260 -1.7576 -1.1995
 4629SOL     OW25345   2.491   4.498  13.249 -0.2302 -0.0775 -0.2077
 4629SOL    HW125346   2.543   4.418  13.256  1.2325  0.7826 -1.1752
 4629SOL    HW225347   2.459   4.497  13.339  0.7207 -0.3966  0.1384
 4630SOL     OW25348   3.385   4.443   6.674 -0.0800 -0.2924  0.3151
 4630SOL    HW125349   3.370   4.489   6.591  1.3928 -1.1643 -0.4378
 4630SOL    HW225350   3.355   4.507   6.738 -0.0823 -0.9462  0.9693
 4631SOL     OW25351   0.785   4.384   3.905 -0.0161  0.4171 -0.4467
 4631SOL    HW125352   0.875   4.363   3.881  0.5055  2.2956 -0.1297
 4631SOL    HW225353   0.804   4.466   3.950 -0.9393 -0.6333  1.8335
 4632SOL     OW25354   3.391   2.207   7.223  0.0982  0.2744 -0.2964
 4632SOL    HW125355   3.395   2.303   7.217  0.8372  0.0945 -2.5275
 4632SOL    HW225356   3.300   2.199   7.252  0.7653 -3.4692  0.7104
 4633SOL     OW25357   1.787   3.985   8.655 -0.6527  0.0357 -0.1337
 4633SOL    HW125358   1.790   3.907   8.601  0.2230 -1.1768  1.6607
 4633SOL    HW225359   1.868   4.027   8.626  0.4021 -2.7269 -1.1083
 4634SOL     OW25360   2.639   2.236   2.783 -0.5053  0.2364  0.1954
 4634SOL    HW125361   2.615   2.144   2.771 -1.1590  0.6090 -1.2764
 4634SOL    HW225362   2.567   2.283   2.741  0.6521 -1.3915 -3.5848
 4635SOL     OW25363   1.949   0.031  13.201  0.4317 -0.4502  0.5182
 4635SOL    HW125364   1.955   0.084  13.122  0.4757 -1.6679 -0.2963
 4635SOL    HW225365   1.905   0.095  13.257  1.9843  1.1790 -0.1448
 4636SOL     OW25366   2.691   3.989   5.660 -0.0608  0.1777 -0.5585
 4636SOL    HW125367   2.726   4.073   5.631 -0.7887 -0.0980 -2.2381
 4636SOL    HW225368   2.695   3.933   5.583  1.5197 -1.1896  0.5191
 4637SOL     OW25369   3.469   4.018   5.318 -0.0966 -0.2238 -0.0058
 4637SOL    HW125370   3.396   3.980   5.367  0.3077  0.1001  0.8496
 4637SOL    HW225371   3.529   4.038   5.390  1.2257  2.2936 -1.8340
 4638SOL     OW25372   0.697   2.261   3.917  0.4715  0.3342 -0.0816
 4638SOL    HW125373   0.786   2.273   3.883  0.6631  1.4856  0.8372
 4638SOL    HW225374   0.671   2.351   3.932  0.0055  0.3618 -1.0941
 4639SOL     OW25375   0.385   0.176   6.414  0.1270 -0.0341 -0.2769
 4639SOL    HW125376   0.471   0.138   6.432 -0.0721 -1.1657 -1.7852
 4639SOL    HW225377   0.372   0.231   6.492  0.3993 -0.4724  0.0761
 4640SOL     OW25378   4.135   3.998   1.909  0.6317  0.2711  0.0481
 4640SOL    HW125379   4.084   3.918   1.924  2.3205 -1.1418 -1.6541
 4640SOL    HW225380   4.178   4.001   1.994 -0.2594 -0.8526  0.5429
 4641SOL     OW25381   1.426   2.475   7.457 -0.6380  0.3258  0.3793
 4641SOL    HW125382   1.521   2.468   7.441 -0.5398  1.6992  0.3373
 4641SOL    HW225383   1.411   2.435   7.542  1.4433  2.3021  1.6875
 4642SOL     OW25384   2.790   0.918   7.484 -0.5729 -0.3814 -0.4066
 4642SOL    HW125385   2.878   0.920   7.448  0.9968  0.4533  3.5247
 4642SOL    HW225386   2.761   0.832   7.453  3.4901 -2.5193  1.8614
 4643SOL     OW25387   3.044   1.880   6.055 -0.9454 -0.5208  0.4085
 4643SOL    HW125388   3.051   1.965   6.011  0.9621 -0.7261  0.2987
 4643SOL    HW225389   2.951   1.868   6.072 -1.5199  1.9510 -1.0712
 4644SOL     OW25390   3.004   2.384  11.269 -0.5378  0.0835  0.1466
 4644SOL    HW125391   3.045   2.337  11.342  0.0907  0.9834  0.3763
 4644SOL    HW225392   2.951   2.312  11.236  0.9659 -0.3764 -1.3189
 4645SOL     OW25393   0.540   4.177   6.298 -0.2826  0.2378 -0.1886
 4645SOL    HW125394   0.454   4.161   6.259 -0.1119  0.9416 -0.8683
 4645SOL    HW225395   0.568   4.244   6.235  3.4946 -1.5668 -0.4385
 4646SOL     OW25396   2.697   0.382  16.584  0.0864  0.3893 -0.3661
 4646SOL    HW125397   2.627   0.398  16.520  0.5039 -1.2223 -1.2188
 4646SOL    HW225398   2.661   0.438  16.653 -0.3912  1.3070 -1.3562
 4647SOL     OW25399   1.068   2.953   7.698 -0.4059  0.0309 -0.1448
 4647SOL    HW125400   1.085   2.985   7.787  2.3664  1.7888 -1.3118
 4647SOL    HW225401   0.974   2.967   7.695 -0.5057 -0.2796  1.2338
 4648SOL     OW25402   2.693   0.912  16.258  0.0246  0.8030  0.2142
 4648SOL    HW125403   2.599   0.908  16.243 -0.0076 -0.0881  0.6099
 4648SOL    HW225404   2.705   0.818  16.242 -0.6521  0.4345  1.8021
 4649SOL     OW25405   1.224   1.360   0.709  0.3235 -0.4759  0.4774
 4649SOL    HW125406   1.224   1.265   0.718 -3.2383 -0.5172  0.0523
 4649SOL    HW225407   1.284   1.366   0.635  0.9453  1.2828  1.1191
 4650SOL     OW25408   3.634   4.575   6.846 -0.3637 -0.5149 -0.0014
 4650SOL    HW125409   3.721   4.535   6.836 -0.4237 -0.8968  0.9965
 4650SOL    HW225410   3.594   4.497   6.884 -1.7789  2.3073  4.2515
 4651SOL     OW25411   4.315   4.279   4.224  0.0027  0.1650 -0.2356
 4651SOL    HW125412   4.237   4.332   4.209 -0.4359 -0.4404 -0.0754
 4651SOL    HW225413   4.290   4.188   4.212 -0.7248  0.1525  1.3683
 4652SOL     OW25414   1.112   3.785   9.571  0.0745 -0.5302 -0.3421
 4652SOL    HW125415   1.190   3.811   9.618 -1.1171  2.8888 -0.2676
 4652SOL    HW225416   1.095   3.861   9.515  0.3217 -1.8053 -2.1710
 4653SOL     OW25417   3.244   1.467   7.942 -0.2128 -0.3053 -0.1415
 4653SOL    HW125418   3.314   1.517   7.985 -0.8109  1.1342 -0.8628
 4653SOL    HW225419   3.168   1.495   7.993  1.1321  0.4467  1.4500
 4654SOL     OW25420   1.924   4.566   7.411 -0.1871 -0.1012 -0.2379
 4654SOL    HW125421   1.837   4.594   7.438 -0.4034  0.3481 -1.4008
 4654SOL    HW225422   1.975   4.574   7.492 -2.0462  0.5360  0.8657
 4655SOL     OW25423   3.451   1.140  17.395  0.3085 -0.0413 -0.0201
 4655SOL    HW125424   3.539   1.177  17.404  0.9080 -0.8682 -2.3356
 4655SOL    HW225425   3.448   1.073  17.463  0.6071  1.6120  1.6210
 4656SOL     OW25426   0.667   4.295   7.755 -0.4051  0.1343  0.2824
 4656SOL    HW125427   0.603   4.335   7.814 -1.1633 -0.0795 -0.3942
 4656SOL    HW225428   0.666   4.359   7.685  1.9451  0.2708  0.3703
 4657SOL     OW25429   3.211   0.737  10.562  0.4862 -0.0076  0.0008
 4657SOL    HW125430   3.236   0.667  10.502  1.0999  1.6963 -1.7129
 4657SOL    HW225431   3.116   0.737  10.552  0.3239  0.7722  1.3626
 4658SOL     OW25432   3.023   0.360   9.834  0.3399  0.0050 -0.1231
 4658SOL    HW125433   2.929   0.350   9.844  0.3982  1.1244  1.6971
 4658SOL    HW225434   3.033   0.332   9.743  1.7375  2.1751 -0.6270
 4659SOL     OW25435   4.422   2.996   6.886  0.0590  0.1007  0.6245
 4659SOL    HW125436   4.367   3.039   6.951  0.9875  1.4837  0.4856
 4659SOL    HW225437   4.474   2.947   6.950 -0.5405 -1.5776 -0.1794
 4660SOL     OW25438   2.034   3.411   4.771  0.1364  0.0159  0.1331
 4660SOL    HW125439   2.111   3.392   4.716 -0.8220 -0.1462 -1.1607
 4660SOL    HW225440   1.970   3.344   4.746  0.9689 -0.3011 -1.1520
 4661SOL     OW25441   4.426   3.584   3.147  0.4704  0.0166 -0.0351
 4661SOL    HW125442   4.509   3.603   3.104  0.6232  0.4195  0.4374
 4661SOL    HW225443   4.409   3.502   3.102  0.8642  0.3020 -0.7013
 4662SOL     OW25444   1.920   2.279   2.878 -0.1982 -0.0856 -0.3091
 4662SOL    HW125445   1.951   2.239   2.797  2.9989  2.8056 -0.5480
 4662SOL    HW225446   2.000   2.272   2.930 -1.5078 -1.1212  1.5524
 4663SOL     OW25447   4.677   2.879   5.243  0.0419 -0.8431  0.6289
 4663SOL    HW125448   4.659   2.867   5.150 -0.7252 -0.1358  0.6886
 4663SOL    HW225449   4.671   2.788   5.273  0.6197 -0.6612  1.2774
 4664SOL     OW25450   1.813   0.350   7.854  0.2088 -0.4340  0.1119
 4664SOL    HW125451   1.737   0.312   7.808  0.5571 -0.1845 -0.6774
 4664SOL    HW225452   1.801   0.320   7.943 -1.7087  1.9015  0.6690
 4665SOL     OW25453   3.294   3.088   3.663  0.3156 -0.1936  0.0335
 4665SOL    HW125454   3.346   3.116   3.588 -0.0779 -0.0541 -0.1862
 4665SOL    HW225455   3.268   3.000   3.638 -1.2845  0.1199  0.5605
 4666SOL     OW25456   4.606   1.291  17.292 -0.3970 -0.1581  0.0764
 4666SOL    HW125457   4.514   1.275  17.270 -0.7696  1.4230  0.5007
 4666SOL    HW225458   4.604   1.371  17.345 -0.3732 -0.7546  0.9885
 4667SOL     OW25459   3.256   3.367   8.391 -1.1237 -0.0647 -0.1222
 4667SOL    HW125460   3.311   3.291   8.410 -0.3151  0.7602  0.8474
 4667SOL    HW225461   3.197   3.381   8.465  0.1208 -3.9911  1.5913
 4668SOL     OW25462   4.372   3.138   3.014  0.0792  0.0880  0.6589
 4668SOL    HW125463   4.454   3.173   3.049  0.7966  0.7599 -1.7525
 4668SOL    HW225464   4.399   3.057   2.973  1.2814  0.3256  0.9752
 4669SOL     OW25465   4.551   1.612   6.122 -0.2578 -0.4851  0.5999
 4669SOL    HW125466   4.577   1.626   6.031  0.8067  0.1294  1.0037
 4669SOL    HW225467   4.607   1.680   6.159 -0.8401  0.3539 -0.0689
 4670SOL     OW25468   2.817   0.456  13.146  0.4157  0.6157 -0.3078
 4670SOL    HW125469   2.727   0.444  13.115 -0.2796 -0.3390  2.1114
 4670SOL    HW225470   2.842   0.365  13.160  1.0519  0.7094 -0.8337
 4671SOL     OW25471   0.651   3.535  11.283  0.5437  0.3830 -0.1013
 4671SOL    HW125472   0.723   3.486  11.324  0.9534  0.8533 -0.2520
 4671SOL    HW225473   0.691   3.616  11.249  0.5557  0.7932  0.9090
 4672SOL     OW25474   2.424   1.374   7.427 -0.3369 -0.1031 -0.0564
 4672SOL    HW125475   2.395   1.406   7.513  2.3880  0.3098  0.7451
 4672SOL    HW225476   2.364   1.419   7.368  0.0134 -0.5715 -0.7725
 4673SOL     OW25477   1.952   1.288   2.348 -0.1661 -0.1445 -0.1803
 4673SOL    HW125478   1.909   1.364   2.308 -1.3110  0.8592  2.9909
 4673SOL    HW225479   1.972   1.330   2.432  1.0427 -0.8834 -0.0930
 4674SOL     OW25480   2.838   4.293   2.417  0.5099 -0.2882  1.2026
 4674SOL    HW125481   2.919   4.341   2.400 -1.0083  1.6626 -0.5196
 4674SOL    HW225482   2.855   4.228   2.485 -0.5408 -0.4863  1.2746
 4675SOL     OW25483   3.437   3.251  12.169  0.7293  0.1577 -0.0530
 4675SOL    HW125484   3.344   3.227  12.174  0.0991  2.2936 -1.4602
 4675SOL    HW225485   3.431   3.336  12.126 -1.4862 -0.7314 -1.5093
 4676SOL     OW25486   2.287   1.470   8.027  0.4594 -0.3103 -0.3688
 4676SOL    HW125487   2.231   1.543   8.001  0.5430 -0.1104  0.0058
 4676SOL    HW225488   2.341   1.459   7.949 -1.7998  1.9939 -2.2520
 4677SOL     OW25489   0.411   2.866   8.011  0.2780  0.3654  0.0703
 4677SOL    HW125490   0.400   2.958   8.036  0.9277  0.3012  0.6034
 4677SOL    HW225491   0.322   2.832   8.018  0.7038 -0.9398 -0.9043
 4678SOL     OW25492   1.144   0.722   2.080  0.5042 -0.2996 -0.1897
 4678SOL    HW125493   1.171   0.772   2.157  0.0529  2.8234 -2.0555
 4678SOL    HW225494   1.210   0.742   2.014  0.7108 -1.7345 -0.4103
 4679SOL     OW25495   2.347   2.360   3.992  0.0487  0.1687  0.5897
 4679SOL    HW125496   2.308   2.425   4.050 -0.7124 -1.8205  2.2881
 4679SOL    HW225497   2.274   2.334   3.935  0.5135 -1.2749  0.6583
 4680SOL     OW25498   2.728   1.054   6.790 -0.4263  0.0223 -0.0214
 4680SOL    HW125499   2.781   0.977   6.809  0.7180  0.5585 -1.0283
 4680SOL    HW225500   2.712   1.090   6.878  0.8819 -1.1410  0.6797
 4681SOL     OW25501   4.462   2.049  13.823  1.1643 -0.0998  0.6724
 4681SOL    HW125502   4.418   2.010  13.747  2.0802 -1.6456  0.9273
 4681SOL    HW225503   4.506   2.123  13.781 -1.0918  1.0371  0.3033
 4682SOL     OW25504   3.013   1.319  16.503 -0.4112  0.0233 -0.6617
 4682SOL    HW125505   3.010   1.311  16.407 -1.0910 -2.3008 -0.4541
 4682SOL    HW225506   2.965   1.401  16.513 -0.4019 -0.1240  0.5550
 4683SOL     OW25507   2.701   1.683  10.243  0.0845 -0.0106  0.0536
 4683SOL    HW125508   2.614   1.676  10.203 -0.2707  1.0126  0.6352
 4683SOL    HW225509   2.708   1.777  10.258  3.1090 -0.3512  0.8085
 4684SOL     OW25510   1.515   2.406  15.878  0.3032 -0.6398  0.1338
 4684SOL    HW125511   1.447   2.433  15.816  2.0009 -0.1922 -1.5574
 4684SOL    HW225512   1.542   2.322  15.841 -1.0152 -0.7300 -0.6292
 4685SOL     OW25513   1.535   3.236   5.555 -0.2292 -0.0649 -0.6924
 4685SOL    HW125514   1.491   3.158   5.522  0.6879 -0.0200 -2.0533
 4685SOL    HW225515   1.563   3.278   5.473  1.4974 -0.7293 -0.4362
 4686SOL     OW25516   3.132   0.845   3.317  0.3503  0.0393 -0.1543
 4686SOL    HW125517   3.224   0.824   3.331 -0.4343 -3.2837  0.0118
 4686SOL    HW225518   3.112   0.793   3.240 -1.8959  1.0761 -0.2788
 4687SOL     OW25519   2.431   1.975  15.108 -0.3077 -0.6174 -0.6109
 4687SOL    HW125520   2.352   1.920  15.111 -1.7418  1.4957  0.4851
 4687SOL    HW225521   2.417   2.019  15.024 -1.4309  1.2124  0.5256
 4688SOL     OW25522   2.324   1.277   8.209  0.2408  0.5863  0.0728
 4688SOL    HW125523   2.261   1.314   8.148 -0.4933 -0.5800  0.1305
 4688SOL    HW225524   2.391   1.253   8.144 -0.9678 -0.9439 -0.6110
 4689SOL     OW25525   4.039   1.369   3.908  0.3089  0.1302 -0.5669
 4689SOL    HW125526   4.112   1.428   3.895  2.3842 -1.9417  1.5404
 4689SOL    HW225527   3.972   1.424   3.868 -0.1711 -0.0743 -0.0495
 4690SOL     OW25528   1.240   1.625   5.269  0.0124 -0.2788 -0.2875
 4690SOL    HW125529   1.323   1.594   5.305  1.2816  1.2182 -1.9026
 4690SOL    HW225530   1.191   1.548   5.297  2.2301 -2.3147 -2.0497
 4691SOL     OW25531   0.365   3.280  11.331 -0.1867  0.1008 -0.4731
 4691SOL    HW125532   0.300   3.218  11.363 -1.6729  2.5194  1.2169
 4691SOL    HW225533   0.401   3.226  11.260  0.0677 -0.6093  0.2056
 4692SOL     OW25534   0.742   3.083   3.538 -0.1478 -0.4168  0.3349
 4692SOL    HW125535   0.828   3.042   3.539 -0.5133 -1.1967 -1.4783
 4692SOL    HW225536   0.756   3.120   3.625  0.6076  1.6672 -0.6892
 4693SOL     OW25537   2.306   1.533   8.634 -0.7273  0.3980  0.3785
 4693SOL    HW125538   2.311   1.508   8.542 -1.4257 -0.1307  0.4847
 4693SOL    HW225539   2.397   1.553   8.656 -0.3650  0.4674 -1.1788
 4694SOL     OW25540   3.148   2.373   4.316 -0.0773  0.5819  0.2483
 4694SOL    HW125541   3.179   2.283   4.328 -2.3655 -0.6107 -2.7403
 4694SOL    HW225542   3.206   2.416   4.379 -0.6560 -1.3341  2.0696
 4695SOL     OW25543   1.986   2.449  11.128 -0.1656 -0.1455 -0.6758
 4695SOL    HW125544   2.044   2.429  11.055 -1.3232 -0.7701 -1.4329
 4695SOL    HW225545   1.915   2.490  11.078  1.0252  0.3727 -1.9447
 4696SOL     OW25546   0.009   2.188   5.271  0.0381  0.2659 -0.0241
 4696SOL    HW125547   0.001   2.120   5.338 -1.5621  0.9075  0.4325
 4696SOL    HW225548   0.066   2.150   5.203 -3.6497 -1.8822 -1.8900
 4697SOL     OW25549   1.938   4.128  10.330 -0.2595 -0.1640  0.0771
 4697SOL    HW125550   1.845   4.152  10.332 -0.9523 -3.0434  1.4273
 4697SOL    HW225551   1.960   4.196  10.394  0.9528  1.4103 -1.9911
 4698SOL     OW25552   2.038   2.887   5.727 -0.2652 -0.0435  0.5211
 4698SOL    HW125553   2.054   2.980   5.709  1.7580 -0.6234 -0.6132
 4698SOL    HW225554   2.018   2.857   5.638  2.2994  1.7811 -0.6672
 4699SOL     OW25555   3.454   1.830   6.857 -0.0802 -0.2197  0.0136
 4699SOL    HW125556   3.528   1.833   6.917 -1.0444 -2.7642  1.3323
 4699SOL    HW225557   3.434   1.924   6.862 -1.5965 -0.3080 -3.5812
 4700SOL     OW25558   2.140   1.714   4.630 -0.1816 -0.4435 -0.4898
 4700SOL    HW125559   2.169   1.730   4.540  1.6148  1.5522  0.4513
 4700SOL    HW225560   2.072   1.647   4.619  0.8412 -1.3649 -1.1898
 4701SOL     OW25561   1.265   1.901   5.577  0.5347 -0.4104 -0.0589
 4701SOL    HW125562   1.318   1.842   5.630 -2.5170 -2.0239  1.1867
 4701SOL    HW225563   1.195   1.845   5.543 -1.0598 -0.4335  3.2909
 4702SOL     OW25564   1.659   3.260   8.446  0.2682 -0.1258  0.2216
 4702SOL    HW125565   1.691   3.350   8.443  0.8931 -0.4085 -1.2896
 4702SOL    HW225566   1.746   3.221   8.436 -0.3006 -1.2326 -0.3590
 4703SOL     OW25567   4.408   1.948   6.647 -0.2897 -0.2257 -0.1300
 4703SOL    HW125568   4.420   1.938   6.553 -0.8071  0.4267 -0.2684
 4703SOL    HW225569   4.496   1.931   6.681 -0.2135 -0.4841 -0.4578
 4704SOL     OW25570   1.886   0.447   4.677 -0.0347 -0.0156 -0.3518
 4704SOL    HW125571   1.899   0.523   4.619  1.1475 -1.0614 -1.4444
 4704SOL    HW225572   1.973   0.438   4.715 -0.0968 -1.1710 -0.5056
 4705SOL     OW25573   2.873   1.080   5.455  0.2750  0.3863 -1.2568
 4705SOL    HW125574   2.874   1.113   5.366 -0.7959  0.6337 -1.1748
 4705SOL    HW225575   2.909   1.155   5.502 -2.4550 -0.4887  2.3037
 4706SOL     OW25576   2.333   4.455   2.971  0.7083 -0.4002  0.3098
 4706SOL    HW125577   2.258   4.509   2.996 -0.4669 -1.0785 -1.8023
 4706SOL    HW225578   2.408   4.499   3.011  1.5514 -0.6980 -0.9360
 4707SOL     OW25579   2.536   1.178   8.065  0.4723 -0.6429 -0.4861
 4707SOL    HW125580   2.632   1.184   8.062  0.3678  0.3307 -2.7820
 4707SOL    HW225581   2.517   1.231   7.987 -0.1358 -1.3499 -0.8120
 4708SOL     OW25582   3.179   3.076   7.266 -0.5289  0.6641 -0.0728
 4708SOL    HW125583   3.107   3.034   7.219 -1.0152  1.2504  0.1598
 4708SOL    HW225584   3.173   3.158   7.218 -0.0888 -0.2857 -1.7791
 4709SOL     OW25585   0.246   0.855   3.164  0.3155 -0.1616  0.7334
 4709SOL    HW125586   0.215   0.915   3.231 -1.5629 -0.9391  0.5788
 4709SOL    HW225587   0.340   0.859   3.181  0.6247 -0.8093 -0.8371
 4710SOL     OW25588   1.603   2.649   1.862  0.1836 -0.0872 -0.1456
 4710SOL    HW125589   1.638   2.663   1.950 -2.2562 -0.1997  0.8546
 4710SOL    HW225590   1.517   2.611   1.881  0.1238  0.0082 -0.2288
 4711SOL     OW25591   4.005   0.570  16.768 -0.2133  0.1293  0.4221
 4711SOL    HW125592   4.082   0.607  16.725 -0.0580  0.0304  0.6131
 4711SOL    HW225593   4.012   0.475  16.755 -0.9140  0.2794 -1.0623
 4712SOL     OW25594   0.146   2.767   6.018 -0.2889 -0.6865 -0.1560
 4712SOL    HW125595   0.115   2.703   5.954  0.5373 -0.7638 -0.4920
 4712SOL    HW225596   0.201   2.833   5.973  1.3395 -1.5799  0.5192
 4713SOL     OW25597   0.467   1.860  16.533  0.5624  0.3840  0.1993
 4713SOL    HW125598   0.554   1.878  16.568  0.8237 -2.0006  0.7428
 4713SOL    HW225599   0.485   1.849  16.440  1.9592 -0.6248  0.5994
 4714SOL     OW25600   3.167   0.367  17.168  0.4371 -0.6507  0.1298
 4714SOL    HW125601   3.091   0.382  17.112 -2.4168 -2.0392  3.6618
 4714SOL    HW225602   3.219   0.440  17.134  1.4467 -2.4347 -2.2295
 4715SOL     OW25603   1.148   1.876   7.920  0.4095 -1.0487  0.8086
 4715SOL    HW125604   1.193   1.822   7.855  1.7403 -1.1808  1.8405
 4715SOL    HW225605   1.060   1.883   7.883 -0.0524 -0.3120  2.0395
 4716SOL     OW25606   3.204   1.684   5.239  0.1850 -0.2331  0.3424
 4716SOL    HW125607   3.141   1.755   5.225  0.2510 -0.5501 -1.5895
 4716SOL    HW225608   3.251   1.702   5.320  0.7833 -0.4443  0.0422
 4717SOL     OW25609   2.805   4.323   0.361  0.1099  0.3354  0.2627
 4717SOL    HW125610   2.737   4.332   0.295  0.9473  0.1126 -0.6354
 4717SOL    HW225611   2.757   4.291   0.437 -0.6807 -0.1930 -0.4713
 4718SOL     OW25612   1.969   4.242   2.826 -0.4721 -0.5427  0.1591
 4718SOL    HW125613   1.966   4.337   2.830  1.0140 -0.5379  0.8838
 4718SOL    HW225614   2.062   4.223   2.813 -0.1706  0.2545  1.1412
 4719SOL     OW25615   1.642   1.478   8.154  0.2000  0.7556 -0.1594
 4719SOL    HW125616   1.668   1.475   8.246 -0.2028  2.2300 -0.0132
 4719SOL    HW225617   1.650   1.385   8.130  2.0859  0.7190  0.6143
 4720SOL     OW25618   2.368   1.625   2.250  0.1078 -0.1485  0.5873
 4720SOL    HW125619   2.452   1.588   2.222  0.5541  2.0842 -1.1027
 4720SOL    HW225620   2.368   1.573   2.330  0.9023  1.6971  1.7906
 4721SOL     OW25621   2.199   0.128   5.381  0.6151  0.2050 -0.0361
 4721SOL    HW125622   2.126   0.189   5.391  0.0146 -0.6274  0.6109
 4721SOL    HW225623   2.228   0.163   5.296 -0.7695 -0.3640 -0.7510
 4722SOL     OW25624   1.795   3.691   3.771  0.2106 -0.2259  0.2744
 4722SOL    HW125625   1.736   3.634   3.820  0.1918 -1.2769 -0.9583
 4722SOL    HW225626   1.864   3.712   3.834  1.1581 -0.4314 -0.6877
 4723SOL     OW25627   2.038   1.113   5.657  0.2448 -0.1006 -0.0403
 4723SOL    HW125628   2.085   1.195   5.643  1.3807 -1.0445 -1.8328
 4723SOL    HW225629   1.954   1.150   5.631 -1.5256 -1.6035  3.6323
 4724SOL     OW25630   4.572   1.713   8.897 -0.1936  0.1149 -0.2023
 4724SOL    HW125631   4.584   1.619   8.909  0.0543  0.4583  2.2359
 4724SOL    HW225632   4.600   1.730   8.807  0.2893  0.2782 -0.0191
 4725SOL     OW25633   1.176   1.217  16.423  0.3912  0.9105  0.1496
 4725SOL    HW125634   1.220   1.209  16.339  0.0832 -0.2537  0.1000
 4725SOL    HW225635   1.085   1.215  16.396  0.2705 -2.0940  0.7901
 4726SOL     OW25636   1.846   1.938   0.378  0.2955 -0.2238  0.2557
 4726SOL    HW125637   1.864   1.922   0.285  1.4707 -3.0344  0.9616
 4726SOL    HW225638   1.827   2.032   0.381  0.2209 -0.1842 -1.8597
 4727SOL     OW25639   3.372   3.523   0.848 -0.0895  0.1069 -0.1660
 4727SOL    HW125640   3.334   3.577   0.917 -0.3917  0.4791 -0.6177
 4727SOL    HW225641   3.431   3.590   0.813  2.1723 -0.5207  2.4508
 4728SOL     OW25642   0.053   3.209  11.332 -0.4483  0.5617 -0.8554
 4728SOL    HW125643   4.717   3.147  11.376  0.0206  1.5280  1.1575
 4728SOL    HW225644   0.046   3.287  11.388 -2.1205 -0.5190  0.4420
 4729SOL     OW25645   3.660   1.339   0.960  0.3134 -0.2099  0.0576
 4729SOL    HW125646   3.565   1.344   0.950  0.2806  1.1799  1.1394
 4729SOL    HW225647   3.685   1.282   0.887  0.1206  1.1786 -1.0988
 4730SOL     OW25648   4.200   0.708   5.940  0.2762 -0.0686 -0.4549
 4730SOL    HW125649   4.229   0.780   5.997  0.3978 -1.0651  0.7251
 4730SOL    HW225650   4.250   0.642   5.988 -2.2161 -2.0102 -0.5736
 4731SOL     OW25651   1.375   1.320   6.765  0.2347 -0.0301 -0.3530
 4731SOL    HW125652   1.325   1.331   6.846 -0.9697  1.2086 -1.2473
 4731SOL    HW225653   1.429   1.249   6.799  0.5681  0.0411 -0.7449
 4732SOL     OW25654   1.343   3.831   5.669  0.3546 -0.2163 -0.0138
 4732SOL    HW125655   1.436   3.814   5.688  0.3151 -0.4636 -0.0375
 4732SOL    HW225656   1.323   3.924   5.672 -0.4765 -0.3033 -3.0029
 4733SOL     OW25657   0.590   1.866   8.054 -0.0342 -0.3624  0.1033
 4733SOL    HW125658   0.612   1.789   8.107 -1.4483  0.2702  1.6134
 4733SOL    HW225659   0.549   1.821   7.980 -0.9535  0.9426 -0.1788
 4734SOL     OW25660   2.507   2.808   7.590  0.3921 -0.2148 -0.0696
 4734SOL    HW125661   2.505   2.886   7.645 -0.3423  0.4568 -1.0575
 4734SOL    HW225662   2.549   2.751   7.655 -1.2999 -2.5876 -1.0442
 4735SOL     OW25663   3.424   2.194   0.544 -0.2202 -0.5216 -0.2340
 4735SOL    HW125664   3.417   2.265   0.481 -1.3871 -1.5209 -1.2345
 4735SOL    HW225665   3.518   2.177   0.538  0.0949  0.7720  0.9797
 4736SOL     OW25666   2.577   2.728  13.216  0.0303 -0.4487  0.5672
 4736SOL    HW125667   2.511   2.692  13.158 -2.0054  0.8795  2.0593
 4736SOL    HW225668   2.654   2.752  13.163  0.1931  1.2740  1.5684
 4737SOL     OW25669   2.589   1.804   3.554  0.4140 -0.4077  0.2886
 4737SOL    HW125670   2.618   1.819   3.464 -1.1482 -1.8093 -0.4575
 4737SOL    HW225671   2.497   1.788   3.530  1.0494 -1.7667 -1.2430
 4738SOL     OW25672   2.942   3.515   2.303 -0.4443 -0.3143 -0.4075
 4738SOL    HW125673   2.856   3.506   2.344  0.6150 -0.1581  1.8700
 4738SOL    HW225674   2.984   3.582   2.357  0.0688  0.0877 -1.3191
 4739SOL     OW25675   3.714   0.748  11.552 -0.2544 -0.5524  0.1183
 4739SOL    HW125676   3.635   0.725  11.503  1.2433 -1.2970 -1.9375
 4739SOL    HW225677   3.732   0.833  11.511 -0.3535 -0.2731  0.6529
 4740SOL     OW25678   2.517   1.337   0.549 -0.6928 -0.0736  0.4262
 4740SOL    HW125679   2.559   1.423   0.554 -1.6126  0.4616 -0.7427
 4740SOL    HW225680   2.466   1.338   0.468  1.1727 -0.4135 -0.7516
 4741SOL     OW25681   3.287   3.314   4.822  0.3530  0.6341 -0.2271
 4741SOL    HW125682   3.228   3.307   4.896  0.7287  0.9551  0.1082
 4741SOL    HW225683   3.326   3.402   4.830  1.5202  0.0728  0.2444
 4742SOL     OW25684   4.399   0.406   0.000 -0.0345  0.2145 -0.3693
 4742SOL    HW125685   4.377   0.443  17.607 -0.9481 -3.2081 -1.6002
 4742SOL    HW225686   4.446   0.483   0.033  3.4715 -1.3144 -1.7837
 4743SOL     OW25687   3.492   0.268   0.212 -0.3290  0.0529  0.1161
 4743SOL    HW125688   3.553   0.329   0.254 -1.2985  1.7845 -1.0298
 4743SOL    HW225689   3.544   0.187   0.214 -0.7872 -0.2187  0.9445
 4744SOL     OW25690   3.324   4.300  12.663  0.2882 -0.1645  0.3793
 4744SOL    HW125691   3.241   4.324  12.622  0.5749  1.6149  0.8335
 4744SOL    HW225692   3.299   4.323  12.752 -1.8094  0.6701 -0.4177
 4745SOL     OW25693   0.137   4.447  12.699  0.7145  0.1035 -0.1541
 4745SOL    HW125694   0.190   4.437  12.620  0.3654 -1.0593 -0.2425
 4745SOL    HW225695   0.111   4.538  12.690 -1.4834 -0.5920 -0.9252
 4746SOL     OW25696   0.442   4.711   1.445  0.1515 -0.1068  0.0443
 4746SOL    HW125697   0.428   0.045   1.369 -0.6778  0.3862  0.5731
 4746SOL    HW225698   0.538   4.711   1.435  0.4281  1.2209  2.5255
 4747SOL     OW25699   0.780   1.322   3.407 -0.0748 -0.7673 -0.0942
 4747SOL    HW125700   0.837   1.284   3.474  1.4345  0.9013 -0.4378
 4747SOL    HW225701   0.714   1.253   3.413 -0.1898 -0.5136  1.3650
 4748SOL     OW25702   1.865   4.251   7.419 -0.2046  0.0362 -0.3319
 4748SOL    HW125703   1.910   4.200   7.352 -0.6163 -0.9066  0.0906
 4748SOL    HW225704   1.935   4.311   7.443  0.4247 -0.7636 -0.1541
 4749SOL     OW25705   2.245   0.688  13.234  0.2634  0.1721 -0.1171
 4749SOL    HW125706   2.283   0.602  13.253 -1.0960 -0.8657 -2.0917
 4749SOL    HW225707   2.281   0.706  13.147  0.2037 -0.8922 -0.3526
 4750SOL     OW25708   0.263   3.378   5.087 -0.1451 -0.1560  0.0004
 4750SOL    HW125709   0.251   3.435   5.163  1.4986  0.5451 -0.2632
 4750SOL    HW225710   0.212   3.422   5.019  1.2592  3.5083  1.3083
 4751SOL     OW25711   0.784   4.593  10.573  1.0662  0.1965  0.1527
 4751SOL    HW125712   0.834   4.638  10.504 -1.0548 -0.0892 -1.5659
 4751SOL    HW225713   0.782   4.503  10.540 -1.9719  0.3249  0.0268
 4752SOL     OW25714   1.016   3.637   5.436  0.2552  0.2544 -1.0001
 4752SOL    HW125715   1.064   3.554   5.433  1.2466  0.8189 -0.6971
 4752SOL    HW225716   0.928   3.607   5.415 -0.3051  1.6247 -0.5923
 4753SOL     OW25717   2.577   0.148   1.853 -0.2189  0.0449 -0.2287
 4753SOL    HW125718   2.518   0.079   1.882 -1.3628  1.7535  1.5515
 4753SOL    HW225719   2.658   0.123   1.899 -2.1826 -1.6171  2.3157
 4754SOL     OW25720   4.177   3.364  14.296  0.1998  0.2726 -0.1062
 4754SOL    HW125721   4.245   3.310  14.336 -2.1465 -2.9032 -0.3729
 4754SOL    HW225722   4.131   3.296  14.247  3.0584 -0.7264 -1.3583
 4755SOL     OW25723   2.780   1.366   2.303 -0.5682  0.1015 -0.0974
 4755SOL    HW125724   2.865   1.360   2.259 -0.6614  1.2177 -0.4416
 4755SOL    HW225725   2.786   1.286   2.355 -1.9549 -0.6150 -1.0320
 4756SOL     OW25726   2.416   2.905   7.282  0.3027 -0.1099 -0.4115
 4756SOL    HW125727   2.477   2.843   7.322  0.7982 -0.0245 -1.0356
 4756SOL    HW225728   2.422   2.990   7.325  1.1294 -1.1084  1.4303
 4757SOL     OW25729   1.368   0.131   0.899  0.1812 -0.4367  0.1647
 4757SOL    HW125730   1.290   0.075   0.895 -0.4498  0.4506 -0.1341
 4757SOL    HW225731   1.428   0.087   0.958  1.4415 -0.1975 -0.9431
 4758SOL     OW25732   4.435   4.229  11.741 -0.1511 -0.3966 -0.7104
 4758SOL    HW125733   4.444   4.311  11.789  0.1523  0.2713 -1.9112
 4758SOL    HW225734   4.340   4.218  11.734 -0.3236 -0.1330  1.2071
 4759SOL     OW25735   0.236   3.881   5.207  0.1397 -0.8121 -0.0870
 4759SOL    HW125736   0.329   3.888   5.188  0.1218 -1.6514 -0.4799
 4759SOL    HW225737   0.217   3.966   5.247  0.4772 -0.0648 -1.5056
 4760SOL     OW25738   3.168   3.183   4.610  0.3105 -0.3302 -0.0962
 4760SOL    HW125739   3.208   3.231   4.537 -1.5497 -0.2815 -1.0904
 4760SOL    HW225740   3.205   3.235   4.681 -0.3145  0.3444 -0.2615
 4761SOL     OW25741   2.643   2.746   6.505 -0.0063  0.3776 -0.4162
 4761SOL    HW125742   2.620   2.831   6.467  1.6512  0.6447 -0.8193
 4761SOL    HW225743   2.716   2.753   6.565  0.6548 -1.3164 -1.0143
 4762SOL     OW25744   1.814   3.814   2.296  0.1127 -0.0981 -0.3381
 4762SOL    HW125745   1.890   3.868   2.317  0.8788 -1.6327  0.8363
 4762SOL    HW225746   1.825   3.806   2.201  0.2199  2.1771 -0.5043
 4763SOL     OW25747   1.842   2.407   0.704 -0.1310  0.2311 -0.1365
 4763SOL    HW125748   1.748   2.394   0.690 -0.3966 -0.8761  2.6563
 4763SOL    HW225749   1.849   2.386   0.797  1.7462 -2.7974 -0.9834
 4764SOL     OW25750   1.559   3.926   5.465  0.0752 -0.1715 -0.4450
 4764SOL    HW125751   1.506   3.993   5.422  2.6158  1.0666 -1.6696
 4764SOL    HW225752   1.516   3.850   5.427 -0.9493 -0.5546  1.4514
 4765SOL     OW25753   1.788   4.159   8.943  0.2416  0.6036 -0.2324
 4765SOL    HW125754   1.810   4.084   8.887 -0.5543  1.4349 -1.6522
 4765SOL    HW225755   1.769   4.216   8.869 -0.6178  1.0280  0.3076
 4766SOL     OW25756   4.559   3.898   0.840 -0.3052 -0.3333 -0.6230
 4766SOL    HW125757   4.649   3.924   0.858 -0.0698  1.4738 -4.3638
 4766SOL    HW225758   4.544   3.826   0.901 -0.8535  0.0397 -0.3225
 4767SOL     OW25759   3.203   0.845   8.598 -0.2271  0.2972 -0.7772
 4767SOL    HW125760   3.292   0.841   8.635 -0.8409  0.8219  0.7464
 4767SOL    HW225761   3.146   0.847   8.675  0.7404  2.2712 -0.0952
 4768SOL     OW25762   2.198   4.423  14.671  0.1193  0.0066 -0.4238
 4768SOL    HW125763   2.277   4.430  14.619  0.7176  1.1310  0.6481
 4768SOL    HW225764   2.237   4.413  14.758  1.5658 -0.1613 -1.0969
 4769SOL     OW25765   0.397   1.223   7.803 -0.0135  0.1478 -0.8457
 4769SOL    HW125766   0.392   1.290   7.871 -0.7197 -0.5053 -0.2590
 4769SOL    HW225767   0.491   1.222   7.786  0.4257 -1.2877  1.7054
 4770SOL     OW25768   1.829   4.654   5.916 -0.2701 -0.3647  0.4729
 4770SOL    HW125769   1.840   4.658   5.821  1.9364  0.0629  0.7389
 4770SOL    HW225770   1.913   4.630   5.956 -0.9710  1.7741  3.2807
 4771SOL     OW25771   2.290   4.705   3.834  0.1362  0.0429 -0.2198
 4771SOL    HW125772   2.246   4.718   3.918 -0.5377 -0.4940 -0.4877
 4771SOL    HW225773   2.227   0.018   3.771  0.1164 -0.3447 -0.4183
 4772SOL     OW25774   0.527   2.973   1.197  0.2775 -0.3726  0.3102
 4772SOL    HW125775   0.599   2.911   1.183 -1.9320 -2.9682  0.6748
 4772SOL    HW225776   0.459   2.934   1.143  1.7219  0.4001 -2.1090
 4773SOL     OW25777   1.670   2.224   1.721 -0.0572  0.3446  0.1539
 4773SOL    HW125778   1.699   2.233   1.812  1.0910 -0.4438 -0.1316
 4773SOL    HW225779   1.597   2.165   1.735  0.1990  0.1950  0.8857
 4774SOL     OW25780   3.404   1.938  17.478 -0.0931  0.6306  0.4412
 4774SOL    HW125781   3.387   2.018  17.428 -0.1488  0.2532 -0.1464
 4774SOL    HW225782   3.368   1.958  17.564  0.2254 -3.5259  1.5193
 4775SOL     OW25783   2.281   3.750   7.723 -0.0509 -0.4246  0.5306
 4775SOL    HW125784   2.234   3.755   7.806 -1.4124  0.9978 -0.3293
 4775SOL    HW225785   2.327   3.834   7.720 -1.9065  0.5924  1.0956
 4776SOL     OW25786   4.048   1.225  14.802  0.5624  0.3520  0.1856
 4776SOL    HW125787   4.004   1.273  14.873 -0.6548  0.0043 -0.3451
 4776SOL    HW225788   4.137   1.252  14.827 -0.2767  2.8358  0.5727
 4777SOL     OW25789   1.439   3.558   8.214  0.1021  0.5455 -0.1563
 4777SOL    HW125790   1.388   3.542   8.134  0.2963 -0.0364 -0.1651
 4777SOL    HW225791   1.521   3.593   8.181  1.1871 -0.4410  1.4893
 4778SOL     OW25792   2.004   2.697  10.870  0.7283  0.1893  0.1605
 4778SOL    HW125793   1.936   2.647  10.915 -1.0423  0.9561 -1.6491
 4778SOL    HW225794   2.071   2.700  10.937 -0.2184 -2.3885  1.2171
 4779SOL     OW25795   0.248   0.477   3.652 -0.1983 -0.2036  0.1155
 4779SOL    HW125796   0.240   0.383   3.637  1.4025 -0.6650  2.1423
 4779SOL    HW225797   0.319   0.485   3.716  1.6355  0.1450 -1.9511
 4780SOL     OW25798   2.343   3.031  12.701 -0.0153  0.5110  0.3158
 4780SOL    HW125799   2.370   2.944  12.672  0.2956  0.8994 -0.5818
 4780SOL    HW225800   2.319   3.058  12.612  1.1039  0.0353 -0.1290
 4781SOL     OW25801   2.614   2.138  17.606 -0.6852  0.2632 -0.0093
 4781SOL    HW125802   2.682   2.178  17.552  0.6857  0.0034  1.5150
 4781SOL    HW225803   2.541   2.169  17.553  0.5190  2.4626 -0.3786
 4782SOL     OW25804   0.088   1.626   2.486 -0.4643 -0.6075 -0.2267
 4782SOL    HW125805   0.037   1.673   2.420  0.3479 -2.3944 -2.1250
 4782SOL    HW225806   0.022   1.608   2.553  0.5635 -1.1798  0.6310
 4783SOL     OW25807   1.874   2.936   6.783 -0.1629 -0.3420 -0.3951
 4783SOL    HW125808   1.796   2.921   6.838 -0.6186 -0.0902 -0.9739
 4783SOL    HW225809   1.847   2.882   6.709 -1.0305  0.0180 -0.3430
 4784SOL     OW25810   3.823   4.357   4.653  0.5748  0.4496 -0.3481
 4784SOL    HW125811   3.914   4.338   4.630  0.9852 -1.1064  2.6270
 4784SOL    HW225812   3.794   4.266   4.665  0.9807  0.4564  0.6189
 4785SOL     OW25813   1.958   4.662   5.339 -0.4494  0.0310  0.2518
 4785SOL    HW125814   1.991   0.004   5.401 -0.7550  1.0776 -0.6525
 4785SOL    HW225815   1.868   4.695   5.335 -1.0307 -1.8689 -2.6734
 4786SOL     OW25816   2.096   2.316   5.712 -0.6874 -0.1770  0.1878
 4786SOL    HW125817   2.161   2.247   5.701  1.7810  2.0899  0.3737
 4786SOL    HW225818   2.023   2.291   5.655  0.2030 -0.6232 -0.7598
 4787SOL     OW25819   3.827   3.120   6.544 -0.1866  0.0837  0.6310
 4787SOL    HW125820   3.757   3.066   6.579 -1.0166  0.5925 -0.2304
 4787SOL    HW225821   3.812   3.200   6.595  0.7429  0.3123  0.5451
 4788SOL     OW25822   1.937   2.772   9.068  1.2170 -0.0149  0.0436
 4788SOL    HW125823   1.872   2.773   8.999 -0.5262 -1.5669  1.6402
 4788SOL    HW225824   1.973   2.860   9.057  1.6459  0.4810  5.0673
 4789SOL     OW25825   2.784   2.198  17.367 -0.2436 -0.5642  0.2690
 4789SOL    HW125826   2.806   2.282  17.409  0.1345 -0.5330  0.0065
 4789SOL    HW225827   2.733   2.232  17.294 -0.3680 -1.0799  0.1189
 4790SOL     OW25828   0.647   2.015   8.276 -0.4257  0.4971  0.4564
 4790SOL    HW125829   0.643   1.983   8.186 -1.9388 -1.8942  1.3607
 4790SOL    HW225830   0.724   1.978   8.320 -2.4899 -3.3374  0.8545
 4791SOL     OW25831   1.725   1.664   4.291  0.2986  0.0719  0.4358
 4791SOL    HW125832   1.631   1.659   4.274  0.5793 -0.9712 -0.8689
 4791SOL    HW225833   1.773   1.592   4.248 -1.3804  0.1862 -1.6262
 4792SOL     OW25834   3.631   0.225   3.830  0.7531  0.4660  0.1226
 4792SOL    HW125835   3.670   0.310   3.811 -1.0080  0.3720 -3.9176
 4792SOL    HW225836   3.645   0.222   3.924 -0.8386  0.3594  0.3544
 4793SOL     OW25837   2.567   3.274  10.964 -0.2191  0.2114 -0.7219
 4793SOL    HW125838   2.654   3.237  10.953 -0.8308 -1.6293  0.6339
 4793SOL    HW225839   2.525   3.226  10.892  1.9089  0.3410 -2.0522
 4794SOL     OW25840   1.831   0.188  13.378 -0.0902  0.0062 -0.0180
 4794SOL    HW125841   1.787   0.251  13.320 -0.7826  1.5967  2.2217
 4794SOL    HW225842   1.858   0.236  13.457  2.1357 -2.7694  0.8876
 4795SOL     OW25843   4.432   1.526   2.351  0.1435 -0.0388 -0.7135
 4795SOL    HW125844   4.386   1.443   2.336  1.8851 -0.9182 -1.2491
 4795SOL    HW225845   4.384   1.552   2.429  0.0398 -0.6567 -0.5749
 4796SOL     OW25846   1.840   3.499   0.565 -0.5428  0.2902  0.9728
 4796SOL    HW125847   1.919   3.546   0.595 -0.5114 -0.2770  1.7877
 4796SOL    HW225848   1.769   3.535   0.618 -1.8089 -0.6595 -0.0769
 4797SOL     OW25849   3.538   0.564   9.854 -0.1753  0.1380  0.3571
 4797SOL    HW125850   3.518   0.600   9.768  1.8830 -0.0072 -0.1719
 4797SOL    HW225851   3.501   0.616   9.925 -0.6497  0.9908 -0.5121
 4798SOL     OW25852   3.588   3.639  16.413 -0.1953  0.5675 -0.1739
 4798SOL    HW125853   3.613   3.605  16.327 -1.5548  0.3337 -0.4721
 4798SOL    HW225854   3.531   3.571  16.448 -0.9706  2.5997  2.4840
 4799SOL     OW25855   4.629   0.643   8.353 -0.2919 -0.2832  0.6836
 4799SOL    HW125856   4.572   0.625   8.428 -2.1372  0.0004 -0.6848
 4799SOL    HW225857   4.574   0.604   8.286  2.0511  1.4485 -2.2112
 4800SOL     OW25858   1.886   0.831   4.768  0.0735 -0.1053 -0.0151
 4800SOL    HW125859   1.980   0.818   4.754 -0.2839 -0.0025 -2.5484
 4800SOL    HW225860   1.866   0.905   4.711 -1.5252  1.3411  2.4677
 4801SOL     OW25861   0.194   2.832   3.559  0.0848 -0.3182  0.8923
 4801SOL    HW125862   0.259   2.838   3.628  1.9673  1.7321 -1.0636
 4801SOL    HW225863   0.192   2.919   3.519  0.4794 -0.0387  1.4841
 4802SOL     OW25864   3.222   3.901  10.148  0.2835  0.0898 -0.2028
 4802SOL    HW125865   3.265   3.824  10.186 -0.5875  0.2504  1.1229
 4802SOL    HW225866   3.131   3.875  10.157  0.5947 -1.8703 -2.6303
 4803SOL     OW25867   4.389   2.603   2.103  0.2427 -0.1900  0.1547
 4803SOL    HW125868   4.422   2.632   2.017 -1.4947  0.0156 -0.4499
 4803SOL    HW225869   4.437   2.659   2.163 -1.8210  1.3837  0.3389
 4804SOL     OW25870   4.324   3.932  10.972  0.1533 -0.1533 -0.0055
 4804SOL    HW125871   4.418   3.915  10.964 -0.0079 -0.4150 -1.3183
 4804SOL    HW225872   4.315   4.000  10.905  0.7108  0.9857  1.0886
 4805SOL     OW25873   3.741   3.886   8.160  0.1010  0.6272 -0.1868
 4805SOL    HW125874   3.790   3.890   8.077  2.2907  1.8732  1.1632
 4805SOL    HW225875   3.817   3.867   8.215 -0.5614  1.2424  0.9394
 4806SOL     OW25876   4.676   4.478   4.515  0.2027  0.2536  0.6226
 4806SOL    HW125877   4.694   4.546   4.581  1.7278  0.4920 -0.0369
 4806SOL    HW225878   4.597   4.514   4.475  1.3208  1.0729 -0.8597
 4807SOL     OW25879   3.133   2.301   6.063 -0.3296 -0.2056  0.2843
 4807SOL    HW125880   3.182   2.350   5.997 -1.0066  1.3155  0.9351
 4807SOL    HW225881   3.104   2.229   6.007  1.1857 -0.8950  0.3729
 4808SOL     OW25882   3.618   3.413  10.099 -0.8605  0.3313 -0.1942
 4808SOL    HW125883   3.682   3.372  10.042 -0.6046 -1.9190  1.7208
 4808SOL    HW225884   3.688   3.454  10.148 -0.4701 -0.2662 -0.2559
 4809SOL     OW25885   0.073   1.089  16.286  0.3372  0.3362 -0.0493
 4809SOL    HW125886   0.084   1.025  16.217 -1.1906  0.8584 -0.7780
 4809SOL    HW225887   0.158   1.133  16.293  0.2920  0.6670 -1.5837
 4810SOL     OW25888   4.136   0.526   9.524  0.1237 -0.5294 -0.5351
 4810SOL    HW125889   4.073   0.502   9.593 -1.3370  0.1227 -1.6409
 4810SOL    HW225890   4.141   0.437   9.488  0.2803 -1.3009  1.3780
 4811SOL     OW25891   4.063   1.511  10.511  0.2975  0.2387 -0.1974
 4811SOL    HW125892   4.150   1.471  10.503 -0.5095 -1.0689 -2.5880
 4811SOL    HW225893   4.031   1.464  10.587 -0.9582  0.7610 -0.4120
 4812SOL     OW25894   4.444   0.621   4.682 -0.1093 -0.2558  0.2522
 4812SOL    HW125895   4.352   0.595   4.690 -0.4356  0.4914 -0.9970
 4812SOL    HW225896   4.461   0.642   4.773 -0.6082 -0.7172  0.4507
 4813SOL     OW25897   4.157   3.960  12.685 -0.0355  0.1348 -0.2168
 4813SOL    HW125898   4.131   4.017  12.757 -0.3704 -1.6552  1.0498
 4813SOL    HW225899   4.214   4.021  12.636  2.0571 -0.1557  1.8778
 4814SOL     OW25900   1.044   1.035   8.235  0.1356  0.4249  0.0390
 4814SOL    HW125901   0.960   0.992   8.250 -0.4801  0.2724 -3.8880
 4814SOL    HW225902   1.096   0.994   8.305 -0.4103  1.9373  1.3459
 4815SOL     OW25903   4.006   2.877  15.597 -0.1781  0.5423  0.3423
 4815SOL    HW125904   3.932   2.937  15.591  0.7550  1.4332 -2.7315
 4815SOL    HW225905   3.966   2.791  15.587  1.4074 -0.5353  3.3302
 4816SOL     OW25906   4.328   2.161   3.339  0.1103  0.3779 -0.2120
 4816SOL    HW125907   4.302   2.248   3.370 -3.1042 -0.8403  0.5619
 4816SOL    HW225908   4.423   2.167   3.336  0.2957 -2.8235  0.0976
 4817SOL     OW25909   2.174   0.784   5.393  0.1236  0.0633 -0.1703
 4817SOL    HW125910   2.216   0.829   5.467 -1.0279  1.2500 -0.2322
 4817SOL    HW225911   2.095   0.838   5.390 -0.0343 -0.1876 -0.4785
 4818SOL     OW25912   4.691   1.208   9.302 -0.9049 -0.1656 -0.1158
 4818SOL    HW125913   0.014   1.198   9.218 -1.8791 -0.3978 -0.6215
 4818SOL    HW225914   4.711   1.125   9.345  2.7875  0.9893  0.4193
 4819SOL     OW25915   0.419   1.729  12.631 -0.3315 -0.0103 -0.9615
 4819SOL    HW125916   0.446   1.752  12.719 -1.8637 -0.3100 -0.4042
 4819SOL    HW225917   0.378   1.643  12.645 -1.2902  0.3599 -1.4363
 4820SOL     OW25918   2.603   4.353   0.181 -0.4860  0.0764  0.3012
 4820SOL    HW125919   2.541   4.405   0.232  0.0456  0.1392  0.8828
 4820SOL    HW225920   2.556   4.269   0.184  0.1936 -0.3082  0.2462
 4821SOL     OW25921   1.728   0.039   3.992  0.4140  0.1046  0.2377
 4821SOL    HW125922   1.692   0.060   4.078 -1.0816 -1.0642 -0.1083
 4821SOL    HW225923   1.690   4.675   3.979 -0.6023  0.5722  0.1195
 4822SOL     OW25924   3.203   2.918  15.809  0.5236 -0.1545 -0.0591
 4822SOL    HW125925   3.231   2.983  15.873 -0.1286  0.6244 -0.5695
 4822SOL    HW225926   3.108   2.917  15.821  0.3967 -2.6692 -1.2120
 4823SOL     OW25927   4.580   0.684   0.783  0.0217 -0.2655  0.3254
 4823SOL    HW125928   4.654   0.674   0.724 -1.8938 -2.7786 -1.6442
 4823SOL    HW225929   4.572   0.598   0.826 -0.6717  0.3792  1.4896
 4824SOL     OW25930   2.136   0.537   5.841 -0.4298 -0.4681  0.9209
 4824SOL    HW125931   2.123   0.616   5.893  3.7919  1.5159 -1.0319
 4824SOL    HW225932   2.134   0.461   5.899  3.3746  0.1061  1.8227
 4825SOL     OW25933   3.426   1.849  15.548  0.0411  0.1703  0.0570
 4825SOL    HW125934   3.331   1.847  15.548  0.1001 -1.8626  0.7148
 4825SOL    HW225935   3.441   1.778  15.610  0.8530  0.5957  0.3543
 4826SOL     OW25936   4.197   2.713   3.455 -0.5503  0.1884 -0.5646
 4826SOL    HW125937   4.290   2.699   3.476 -0.9240 -0.7738  0.5254
 4826SOL    HW225938   4.192   2.801   3.420  0.7277 -0.0073 -1.2414
 4827SOL     OW25939   3.984   1.995   2.563  0.3872 -0.1933 -0.2689
 4827SOL    HW125940   4.073   1.993   2.528  0.3153 -1.6881 -0.3725
 4827SOL    HW225941   3.971   1.913   2.610 -0.9474 -0.4922 -1.1625
 4828SOL     OW25942   2.235   0.862   4.314 -0.1388  0.3133 -0.0862
 4828SOL    HW125943   2.246   0.930   4.381 -0.1977 -1.2858  1.5343
 4828SOL    HW225944   2.159   0.892   4.265 -0.8794 -0.6117  0.4863
 4829SOL     OW25945   1.698   0.598   4.187  0.1901  0.2267  0.3342
 4829SOL    HW125946   1.767   0.626   4.247 -0.1385 -0.9076  1.2329
 4829SOL    HW225947   1.702   0.676   4.131  1.0972  0.7752  1.1651
 4830SOL     OW25948   4.288   1.575   8.178 -0.2031 -0.0901 -0.3151
 4830SOL    HW125949   4.280   1.624   8.260  0.1367  1.1197 -1.0165
 4830SOL    HW225950   4.211   1.604   8.129  0.0316  2.2766  0.7550
 4831SOL     OW25951   4.081   4.014  13.417  0.1524 -0.2275  0.1295
 4831SOL    HW125952   4.038   4.061  13.346 -0.1439 -1.8430 -0.7688
 4831SOL    HW225953   4.099   4.083  13.480  0.9107 -1.4820  1.2801
 4832SOL     OW25954   2.622   2.860   0.244  0.6347  0.5602  0.2660
 4832SOL    HW125955   2.628   2.798   0.171 -1.0047  1.8646 -0.9926
 4832SOL    HW225956   2.682   2.826   0.310  0.1121 -0.5600  0.1538
 4833SOL     OW25957   0.182   1.792   8.428 -0.0146  0.5205  0.4861
 4833SOL    HW125958   0.272   1.774   8.402  0.3091  2.1815  0.4595
 4833SOL    HW225959   0.176   1.879   8.387 -1.2788  0.5074  0.6509
 4834SOL     OW25960   2.718   1.066  17.323  0.1570 -0.5344  0.2529
 4834SOL    HW125961   2.719   1.162  17.321  1.9264 -0.5616 -0.2338
 4834SOL    HW225962   2.737   1.050  17.416  0.5573  0.9483  0.4330
 4835SOL     OW25963   2.839   0.343  13.516 -0.0512  0.2044  0.8067
 4835SOL    HW125964   2.797   0.293  13.445  1.1571  0.9469 -0.4221
 4835SOL    HW225965   2.920   0.293  13.527  0.1887  0.5269  0.5143
 4836SOL     OW25966   0.552   2.593  13.810 -0.0963  0.1245 -0.0842
 4836SOL    HW125967   0.590   2.619  13.894  2.1668 -3.7476  0.0439
 4836SOL    HW225968   0.542   2.682  13.775 -1.6618  0.6023  1.5843
 4837SOL     OW25969   1.395   1.795   2.300 -0.1267  0.1491  0.8108
 4837SOL    HW125970   1.418   1.818   2.209  2.4541 -3.2055  0.6432
 4837SOL    HW225971   1.300   1.804   2.305 -0.2043  1.7192 -2.8972
 4838SOL     OW25972   0.725   4.275   4.312  0.1084 -0.5581  0.0475
 4838SOL    HW125973   0.673   4.356   4.318 -0.6013 -1.1650  1.9721
 4838SOL    HW225974   0.682   4.232   4.238 -0.2864 -0.7810  0.4075
 4839SOL     OW25975   1.218   3.212   7.855 -0.1526  0.5615 -0.0784
 4839SOL    HW125976   1.157   3.185   7.924 -0.2390 -1.8875 -1.1273
 4839SOL    HW225977   1.253   3.298   7.880  1.0483 -0.3505  1.4058
 4840SOL     OW25978   3.417   1.182  16.447 -0.2487  0.1489 -0.4026
 4840SOL    HW125979   3.440   1.261  16.398  4.1198 -1.1386 -0.3932
 4840SOL    HW225980   3.337   1.214  16.489  0.4536  0.7719  0.4605
 4841SOL     OW25981   2.693   2.417  10.693  0.2736  0.5644 -0.1893
 4841SOL    HW125982   2.755   2.369  10.638  1.0830  0.2451  1.0138
 4841SOL    HW225983   2.669   2.495  10.643 -1.7023 -0.0716 -0.2269
 4842SOL     OW25984   0.122   4.648   5.634  0.1702 -0.1001  0.5136
 4842SOL    HW125985   0.065   4.573   5.655 -2.0411  1.5717  0.4640
 4842SOL    HW225986   0.057   4.701   5.588  0.7604 -0.9426 -1.3135
 4843SOL     OW25987   4.108   2.423   8.124 -0.0646 -0.3203  0.3674
 4843SOL    HW125988   4.201   2.405   8.110 -0.1899  0.7061 -1.7818
 4843SOL    HW225989   4.066   2.340   8.145 -2.3580  1.2018  1.8990
 4844SOL     OW25990   4.078   2.254   2.753 -0.4161 -0.0409  0.2808
 4844SOL    HW125991   4.033   2.182   2.708  2.0804 -0.7244 -1.1064
 4844SOL    HW225992   4.036   2.265   2.838 -0.1712  1.7793  0.1583
 4845SOL     OW25993   1.855   0.997   8.925 -0.7164 -0.4026  0.4914
 4845SOL    HW125994   1.823   1.026   9.010  1.7966  0.7480  1.0396
 4845SOL    HW225995   1.900   1.076   8.896 -0.0073 -0.7319  0.6884
 4846SOL     OW25996   0.487   0.653   0.187 -0.0408  0.5983  0.4174
 4846SOL    HW125997   0.461   0.660   0.279  2.0592  2.4655  0.8758
 4846SOL    HW225998   0.504   0.741   0.152  0.3354 -0.1132 -1.1742
 4847SOL     OW25999   2.256   4.497   5.624  0.1876  0.4194  0.3091
 4847SOL    HW126000   2.343   4.463   5.602 -0.3935  0.1119 -1.5166
 4847SOL    HW226001   2.207   4.449   5.557  3.6483 -1.5632 -0.7739
 4848SOL     OW26002   2.757   2.658   3.753 -0.4613 -0.1806  0.1042
 4848SOL    HW126003   2.828   2.594   3.750  0.3554  0.8231 -2.1252
 4848SOL    HW226004   2.743   2.667   3.847  0.5954  1.2501  0.1298
 4849SOL     OW26005   3.959   2.479   1.981 -0.6829 -0.1549 -0.1751
 4849SOL    HW126006   3.952   2.393   1.938  0.1232 -0.8889  1.1771
 4849SOL    HW226007   4.017   2.440   2.046 -2.0358 -3.9653 -1.2574
 4850SOL     OW26008   4.087   2.052  10.094  0.0460  0.0009  0.2347
 4850SOL    HW126009   4.121   1.963  10.082 -4.1163 -1.1871 -2.7748
 4850SOL    HW226010   4.136   2.090  10.167  0.5556 -0.3636  0.0831
 4851SOL     OW26011   4.425   3.826   5.589 -0.4146 -0.0899  0.3138
 4851SOL    HW126012   4.431   3.917   5.619 -2.8431 -0.2647  1.3851
 4851SOL    HW226013   4.402   3.834   5.496  1.6292 -0.1561 -0.1902
 4852SOL     OW26014   2.743   3.300   6.421  0.2847  0.1403 -0.5365
 4852SOL    HW126015   2.648   3.299   6.416  0.2045  0.5337  1.0739
 4852SOL    HW226016   2.764   3.319   6.329 -0.9251  0.0198 -0.8401
 4853SOL     OW26017   2.111   4.237   3.361  0.1298  0.2400  0.3723
 4853SOL    HW126018   2.122   4.330   3.344 -0.0568  0.3383  0.7815
 4853SOL    HW226019   2.203   4.213   3.365 -0.4324 -1.8042  0.9174
 4854SOL     OW26020   0.245   4.213   3.285  0.4273 -0.0174  0.3414
 4854SOL    HW126021   0.190   4.291   3.285 -1.8802 -1.6333 -1.8518
 4854SOL    HW226022   0.336   4.240   3.301 -0.1612  3.0638 -1.6052
 4855SOL     OW26023   1.527   1.314   9.758  0.4980 -0.4575  0.4371
 4855SOL    HW126024   1.444   1.361   9.754  1.1181  0.4489 -1.7784
 4855SOL    HW226025   1.551   1.309   9.665 -1.6075 -0.9737 -0.0941
 4856SOL     OW26026   2.107   3.539   7.157  0.2119  0.0137  0.1922
 4856SOL    HW126027   2.177   3.479   7.183 -1.2063 -1.3965  0.7526
 4856SOL    HW226028   2.052   3.550   7.235  2.4730 -1.3114  1.9444
 4857SOL     OW26029   1.248   1.185  14.570  0.7294  0.3507  0.1169
 4857SOL    HW126030   1.236   1.252  14.637 -3.5899  0.4010 -0.7180
 4857SOL    HW226031   1.242   1.235  14.489 -2.0357 -0.6625 -0.3024
 4858SOL     OW26032   4.322   1.298   8.240 -0.2953  0.6415  0.1741
 4858SOL    HW126033   4.298   1.389   8.225 -1.4406  0.2157 -0.6149
 4858SOL    HW226034   4.255   1.265   8.300 -1.7730  1.2442 -1.1426
 4859SOL     OW26035   3.317   3.716  16.588  0.6756  0.3589  0.0363
 4859SOL    HW126036   3.405   3.731  16.553  0.3910  1.9377  0.0049
 4859SOL    HW226037   3.319   3.623  16.569  0.3830  0.5438 -0.8869
 4860SOL     OW26038   3.113   2.412  14.593  0.7037  0.7751 -0.8877
 4860SOL    HW126039   3.205   2.392  14.604  0.5846  0.7302  0.0461
 4860SOL    HW226040   3.104   2.495  14.639 -0.0699 -0.4683  1.2080
 4861SOL     OW26041   1.629   1.846   4.961 -0.5387 -1.0486 -0.1459
 4861SOL    HW126042   1.676   1.785   5.017  0.5734  0.9422  1.0801
 4861SOL    HW226043   1.541   1.843   5.000  0.0200 -1.2294  1.0858
 4862SOL     OW26044   1.335   3.482  13.493 -0.9961  0.0584 -0.2831
 4862SOL    HW126045   1.338   3.399  13.540 -0.4887 -0.0740 -0.5439
 4862SOL    HW226046   1.337   3.537  13.571 -1.7674 -0.4883  0.1201
 4863SOL     OW26047   2.456   0.328   5.751 -0.6007 -0.2150 -0.4905
 4863SOL    HW126048   2.490   0.316   5.662  1.8007  0.1567  0.3668
 4863SOL    HW226049   2.454   0.423   5.763 -1.5992 -0.1345 -1.3730
 4864SOL     OW26050   0.068   0.562   8.631  0.5014 -0.8313 -1.2211
 4864SOL    HW126051   0.037   0.488   8.579 -1.2488 -2.5586  2.2405
 4864SOL    HW226052   4.713   0.615   8.650  0.3294 -1.2646 -0.6975
 4865SOL     OW26053   2.951   1.142   1.160 -0.8378 -0.0657 -0.1994
 4865SOL    HW126054   2.897   1.064   1.147 -0.6488  0.0879 -1.8826
 4865SOL    HW226055   2.908   1.206   1.102  1.9656 -0.1014 -2.3156
 4866SOL     OW26056   3.374   0.588  17.637 -0.3080  0.1552 -0.8394
 4866SOL    HW126057   3.379   0.658  17.572  1.0669  2.7117  1.9737
 4866SOL    HW226058   3.443   0.529  17.605 -0.5173 -1.9644  2.5988
 4867SOL     OW26059   4.722   0.091   3.300  0.0966  0.4481 -0.0906
 4867SOL    HW126060   0.038   0.032   3.365  2.2150  2.0799  0.1351
 4867SOL    HW226061   4.698   0.029   3.231 -1.4744  1.2398 -0.2542
 4868SOL     OW26062   4.193   0.363   8.375 -0.0086 -0.2294  0.2766
 4868SOL    HW126063   4.177   0.420   8.450 -1.6339  0.2844 -0.4627
 4868SOL    HW226064   4.289   0.357   8.383  0.0006 -0.5687 -0.0849
 4869SOL     OW26065   4.003   4.126   5.415 -0.0446 -0.5190 -0.2709
 4869SOL    HW126066   4.039   4.162   5.334  0.7295  2.3645  1.3584
 4869SOL    HW226067   4.008   4.034   5.391  0.5939 -0.8467  1.1340
 4870SOL     OW26068   2.754   2.999   5.028  0.1061  0.2271  0.2134
 4870SOL    HW126069   2.686   2.932   5.035 -0.6338  0.9224 -0.2957
 4870SOL    HW226070   2.815   2.969   5.095  0.3450 -0.1483 -0.1698
 4871SOL     OW26071   0.508   3.669   8.568  0.1352 -0.1177  0.0785
 4871SOL    HW126072   0.458   3.620   8.633  1.4113 -2.2149 -0.5510
 4871SOL    HW226073   0.559   3.597   8.532 -2.2296 -0.8085 -1.8917
 4872SOL     OW26074   0.650   2.090   2.940 -0.2054 -0.2507  0.7433
 4872SOL    HW126075   0.623   2.094   2.848 -0.7171 -0.2558  0.8896
 4872SOL    HW226076   0.615   2.174   2.970 -1.8907 -0.9271  0.6769
 4873SOL     OW26077   3.982   4.571   9.106 -0.5784 -0.0602  0.0897
 4873SOL    HW126078   3.917   4.508   9.078 -0.5448  0.0099 -0.1486
 4873SOL    HW226079   3.938   4.613   9.180  0.4865  0.8514  0.2204
 4874SOL     OW26080   1.397   0.580  12.936 -0.1044  0.2923  0.2249
 4874SOL    HW126081   1.397   0.668  12.973  1.0051  1.0748 -1.6507
 4874SOL    HW226082   1.324   0.573  12.875  1.1652  1.1182 -1.3930
 4875SOL     OW26083   2.343   0.916   0.305  0.2284  0.5179 -0.2366
 4875SOL    HW126084   2.372   1.004   0.278 -0.9267  1.2140  0.7769
 4875SOL    HW226085   2.256   0.908   0.266 -0.3364  0.8518  0.9421
 4876SOL     OW26086   0.459   1.281  16.471  0.9497 -0.3528  0.5439
 4876SOL    HW126087   0.424   1.339  16.403 -0.6540  0.5608  2.1669
 4876SOL    HW226088   0.399   1.206  16.469  1.3710 -0.6593 -1.2694
 4877SOL     OW26089   4.038   2.556   7.491  0.3420  0.1541 -0.3364
 4877SOL    HW126090   3.974   2.595   7.551 -0.1296 -0.4693 -0.4462
 4877SOL    HW226091   3.991   2.581   7.411  2.4811 -1.8262 -2.1929
 4878SOL     OW26092   1.674   4.408   1.901  0.4775 -0.0424  0.4270
 4878SOL    HW126093   1.579   4.404   1.892  0.2731  2.1531  1.5062
 4878SOL    HW226094   1.688   4.502   1.916  2.4416 -0.4810  1.4119
 4879SOL     OW26095   3.684   1.173   5.976 -0.0469  0.0712 -0.0461
 4879SOL    HW126096   3.623   1.233   6.020  0.6344 -0.2287  1.3096
 4879SOL    HW226097   3.733   1.133   6.047  0.8425  0.7364 -0.2800
 4880SOL     OW26098   2.855   3.082   3.416 -0.1323 -0.2382  0.2720
 4880SOL    HW126099   2.805   3.014   3.462  1.5634 -2.2381 -0.8604
 4880SOL    HW226100   2.811   3.160   3.448  0.5885  0.2281  0.1140
 4881SOL     OW26101   2.274   2.755   9.240 -0.2800  0.0697 -0.2469
 4881SOL    HW126102   2.302   2.840   9.272  1.5378  0.0622 -1.8091
 4881SOL    HW226103   2.184   2.751   9.273 -0.4369  1.7701 -0.4924
 4882SOL     OW26104   3.346   1.180   3.366 -0.4747 -0.2490  0.8015
 4882SOL    HW126105   3.320   1.169   3.457  0.5334  1.1653  1.2690
 4882SOL    HW226106   3.422   1.123   3.358 -0.8284 -0.4763 -1.0386
 4883SOL     OW26107   2.311   4.475   6.637 -0.1849  0.3209 -0.2012
 4883SOL    HW126108   2.247   4.441   6.575 -2.0181  2.4618  0.5229
 4883SOL    HW226109   2.258   4.490   6.716 -2.6153 -0.8839 -1.6167
 4884SOL     OW26110   2.885   3.208   9.650 -0.3389  0.2504 -0.0517
 4884SOL    HW126111   2.958   3.153   9.677  1.4907  1.4962 -2.3978
 4884SOL    HW226112   2.925   3.288   9.616  0.8260 -0.4972 -0.4443
 4885SOL     OW26113   0.186   4.182   4.643 -0.2519 -0.7465  0.4634
 4885SOL    HW126114   0.231   4.216   4.566 -1.1715 -0.8319 -0.1160
 4885SOL    HW226115   0.224   4.235   4.713  0.6052 -0.2548 -0.3826
 4886SOL     OW26116   2.350   1.770   7.452  0.2205 -0.1396  0.2461
 4886SOL    HW126117   2.325   1.838   7.389  2.3227  0.5579  0.1527
 4886SOL    HW226118   2.442   1.792   7.468  1.0429 -2.2868 -1.6222
 4887SOL     OW26119   2.521   1.439   4.714  0.3106  0.4884 -0.5082
 4887SOL    HW126120   2.488   1.353   4.687  3.1219 -0.8096  0.2287
 4887SOL    HW226121   2.570   1.465   4.636  0.1682 -2.1796 -1.4742
 4888SOL     OW26122   0.496   1.873   9.321  0.4503 -0.8365  0.3661
 4888SOL    HW126123   0.581   1.916   9.329  0.3809 -1.0748  2.3398
 4888SOL    HW226124   0.437   1.949   9.316 -0.4694 -1.4400  1.9951
 4889SOL     OW26125   0.936   2.912   2.267 -0.2128  0.2802  0.3365
 4889SOL    HW126126   0.933   2.981   2.334  1.1277 -0.4424  1.1255
 4889SOL    HW226127   0.963   2.836   2.318  0.6476  0.8602  0.7371
 4890SOL     OW26128   1.883   2.612   6.686  0.8491  0.0082 -0.2179
 4890SOL    HW126129   1.974   2.637   6.666  0.9879 -0.4757 -0.1929
 4890SOL    HW226130   1.890   2.591   6.779  2.6813  1.4962 -0.0193
 4891SOL     OW26131   2.621   2.981   5.718 -0.1791 -0.4325  0.3120
 4891SOL    HW126132   2.596   2.963   5.809  2.8757 -0.4645  1.1538
 4891SOL    HW226133   2.697   3.037   5.734 -0.3367 -0.0069 -0.4879
 4892SOL     OW26134   2.355   3.355   8.595  0.2311  0.3971  0.1221
 4892SOL    HW126135   2.280   3.315   8.552 -2.0800  3.4317  1.3506
 4892SOL    HW226136   2.314   3.419   8.653 -1.3533  1.5828 -2.2986
 4893SOL     OW26137   1.898   3.561   3.247  0.6847 -0.3527 -0.0311
 4893SOL    HW126138   1.974   3.503   3.246 -0.4741 -1.8676 -2.3027
 4893SOL    HW226139   1.903   3.581   3.340  1.5445 -2.0783  0.2886
 4894SOL     OW26140   3.995   0.235   9.383 -0.2952  0.7881  0.0728
 4894SOL    HW126141   4.073   0.179   9.376 -0.5634  0.6509 -1.7269
 4894SOL    HW226142   3.934   0.168   9.414  0.5101  0.1197  0.1952
 4895SOL     OW26143   2.091   4.479  12.465  0.5301 -0.5271  0.1030
 4895SOL    HW126144   2.070   4.394  12.426 -0.0095  0.9524 -2.7670
 4895SOL    HW226145   2.021   4.531  12.427  1.5072 -0.3311 -1.4106
 4896SOL     OW26146   2.780   4.240   4.632 -0.2883 -0.4743  0.4893
 4896SOL    HW126147   2.849   4.200   4.685  0.3733 -0.5967 -0.4658
 4896SOL    HW226148   2.828   4.229   4.550 -1.0451 -0.5330  0.0539
 4897SOL     OW26149   3.075   2.707  11.391 -0.2809 -0.2244  0.2865
 4897SOL    HW126150   3.064   2.801  11.374 -0.7029 -0.5514 -1.2022
 4897SOL    HW226151   3.142   2.689  11.325  0.2174 -1.6767  1.1906
 4898SOL     OW26152   0.819   3.930   4.315 -0.0710  0.0613 -0.1539
 4898SOL    HW126153   0.760   3.951   4.387 -2.0444 -2.0901 -1.1356
 4898SOL    HW226154   0.908   3.956   4.341 -1.0867  1.9061  1.4663
 4899SOL     OW26155   2.510   1.751   8.042 -0.6113 -0.3365  0.2849
 4899SOL    HW126156   2.592   1.739   7.994 -0.4854 -0.3310  0.4986
 4899SOL    HW226157   2.521   1.687   8.112 -0.5534 -1.3365 -0.6396
 4900SOL     OW26158   3.595   1.413   0.335  0.5563 -0.1824 -0.0362
 4900SOL    HW126159   3.599   1.491   0.390  0.2386  0.6371 -1.1750
 4900SOL    HW226160   3.601   1.441   0.243 -0.5228  0.4330  0.0881
 4901SOL     OW26161   0.619   1.619   5.854  0.3324 -0.1015 -0.2990
 4901SOL    HW126162   0.597   1.526   5.861  3.2367 -0.5823  2.0828
 4901SOL    HW226163   0.601   1.635   5.761  2.2535  2.7837 -0.1492
 4902SOL     OW26164   0.078   1.817   3.315  0.2259  0.6027 -0.4637
 4902SOL    HW126165   0.138   1.813   3.240  0.6083  0.0851 -0.1330
 4902SOL    HW226166   0.111   1.894   3.361  1.0238 -0.0253  0.0221
 4903SOL     OW26167   3.899   2.933   6.240  0.5535  0.0407  0.1563
 4903SOL    HW126168   3.934   2.990   6.171 -0.1291 -1.5577 -1.5068
 4903SOL    HW226169   3.813   2.974   6.252  0.7759  0.5869 -0.0959
 4904SOL     OW26170   1.378   4.269   1.694 -0.6997 -0.2573 -0.1707
 4904SOL    HW126171   1.426   4.190   1.668  0.2887 -0.1362  1.2730
 4904SOL    HW226172   1.413   4.321   1.622  1.0472  0.6662  1.3293
 4905SOL     OW26173   3.457   3.439   6.662  0.2595  0.2653 -0.1346
 4905SOL    HW126174   3.438   3.390   6.581 -1.0419  0.7641 -0.1347
 4905SOL    HW226175   3.486   3.522   6.624 -0.4879  0.2003 -0.8724
 4906SOL     OW26176   1.645   1.991   3.774 -0.3372  0.1970  0.1357
 4906SOL    HW126177   1.631   2.032   3.688 -0.9121  1.9477  1.0679
 4906SOL    HW226178   1.735   1.960   3.767 -0.6936 -0.8659  0.2724
 4907SOL     OW26179   3.256   2.627   4.960 -0.5061  1.0943  0.0401
 4907SOL    HW126180   3.341   2.583   4.958  0.1435  2.4168 -1.2247
 4907SOL    HW226181   3.275   2.698   5.022 -2.0864 -0.6162  2.5352
 4908SOL     OW26182   3.486   2.538   0.940 -0.3150  0.1961 -0.1864
 4908SOL    HW126183   3.490   2.443   0.937 -0.1531  0.1024  3.0083
 4908SOL    HW226184   3.557   2.553   0.877  0.6578 -0.6110  0.7032
 4909SOL     OW26185   4.107   0.969  12.490 -0.1114  0.6368 -1.1271
 4909SOL    HW126186   4.115   1.063  12.503  1.6334  0.1665  1.4183
 4909SOL    HW226187   4.172   0.956  12.421 -3.0863  0.1136 -3.8038
 4910SOL     OW26188   4.100   3.209   2.992  0.2061  0.2846 -0.5197
 4910SOL    HW126189   4.072   3.156   2.917  1.0398 -3.0091  1.4805
 4910SOL    HW226190   4.191   3.182   3.006  0.1944 -1.0451 -2.9898
 4911SOL     OW26191   3.605   4.476  17.367  0.0355  0.4692 -0.3100
 4911SOL    HW126192   3.546   4.415  17.322  0.5010  1.2679 -1.9878
 4911SOL    HW226193   3.566   4.562  17.350 -0.7628  0.3550  0.9295
 4912SOL     OW26194   0.882   2.761   9.066  0.2547  0.0796  0.8841
 4912SOL    HW126195   0.822   2.782   8.994 -0.1067  1.8442  1.7270
 4912SOL    HW226196   0.889   2.846   9.107 -0.8182  0.1971  0.8119
 4913SOL     OW26197   0.835   0.503   4.316  0.0795  0.0678 -0.6718
 4913SOL    HW126198   0.768   0.470   4.376  1.8937 -0.0732  1.3062
 4913SOL    HW226199   0.901   0.544   4.373  1.0379 -0.6671 -1.2647
 4914SOL     OW26200   2.289   3.886   1.975 -0.3915  0.8479  0.2587
 4914SOL    HW126201   2.302   3.961   2.033 -0.1543  0.4658  0.6988
 4914SOL    HW226202   2.195   3.873   1.987 -0.7388  2.6659 -0.4825
 4915SOL     OW26203   2.445   0.685   1.857  0.2645  0.5194  0.4027
 4915SOL    HW126204   2.511   0.717   1.919 -0.7151  1.2666  1.0713
 4915SOL    HW226205   2.372   0.746   1.869  0.2334  0.7613 -1.0673
 4916SOL     OW26206   0.644   3.187  11.375 -0.2443  0.1320 -0.2907
 4916SOL    HW126207   0.556   3.218  11.353  0.1397  1.3783 -0.0684
 4916SOL    HW226208   0.661   3.245  11.449 -0.5104 -3.0834  2.3161
 4917SOL     OW26209   3.061   2.826   9.408 -0.2544  0.3656 -0.3062
 4917SOL    HW126210   3.128   2.831   9.477 -0.7905 -0.1791  0.2591
 4917SOL    HW226211   3.022   2.910   9.433  2.4831  1.3757  0.6299
 4918SOL     OW26212   4.362   4.482   4.780 -0.0001 -0.5774 -0.6946
 4918SOL    HW126213   4.352   4.426   4.703 -2.1748 -1.5503  0.2905
 4918SOL    HW226214   4.411   4.424   4.838  0.2510  1.9803  1.6590
 4919SOL     OW26215   3.730   2.590   5.593  0.0494 -0.3167 -0.0096
 4919SOL    HW126216   3.698   2.665   5.543  1.3951 -0.4008 -1.0018
 4919SOL    HW226217   3.798   2.626   5.650 -0.0459 -2.0700  1.2017
 4920SOL     OW26218   2.059   0.254   6.040  0.0770 -0.1196  0.3215
 4920SOL    HW126219   2.142   0.235   5.996 -0.4304 -1.6747  0.0546
 4920SOL    HW226220   2.007   0.219   5.969  1.0524 -1.3208  0.1916
 4921SOL     OW26221   2.397   2.865  10.220 -0.3116 -0.3320 -0.3740
 4921SOL    HW126222   2.448   2.805  10.275 -0.0925 -0.3014 -0.5438
 4921SOL    HW226223   2.442   2.948  10.235  0.6069 -0.3430 -3.0668
 4922SOL     OW26224   3.827   2.642   7.674  0.2510 -0.3899 -0.1255
 4922SOL    HW126225   3.798   2.620   7.763  1.8040 -1.4488  0.1179
 4922SOL    HW226226   3.808   2.559   7.630 -0.9570 -0.2013  0.0533
 4923SOL     OW26227   3.476   2.244   9.013 -0.0900  0.1006  0.0015
 4923SOL    HW126228   3.492   2.222   9.105 -0.1200  2.1254  0.5070
 4923SOL    HW226229   3.558   2.213   8.976 -0.3880  1.1826 -1.5594
 4924SOL     OW26230   0.313   3.529   8.116 -0.2667  0.7687  0.4531
 4924SOL    HW126231   0.225   3.529   8.081  0.7139  0.8014 -1.9813
 4924SOL    HW226232   0.303   3.535   8.211  1.1943 -0.6002  0.7037
 4925SOL     OW26233   4.463   1.500   7.376 -0.2533  0.5054  0.8489
 4925SOL    HW126234   4.534   1.448   7.339 -2.4641 -0.5562 -1.8821
 4925SOL    HW226235   4.455   1.474   7.468  1.6877  1.7496  1.3824
 4926SOL     OW26236   4.345   0.717   1.575 -0.0145  0.6774 -0.1387
 4926SOL    HW126237   4.290   0.704   1.652  0.7313 -1.1119  0.1043
 4926SOL    HW226238   4.402   0.778   1.621  1.0753  1.3281 -2.3531
 4927SOL     OW26239   3.446   2.286   6.140 -0.3557 -0.5522 -0.1717
 4927SOL    HW126240   3.381   2.279   6.210  0.7571  1.0196  1.0082
 4927SOL    HW226241   3.441   2.372   6.098  1.2789 -0.4882 -0.2264
 4928SOL     OW26242   4.633   3.829   2.942 -0.3044 -0.2383  0.1428
 4928SOL    HW126243   4.644   3.734   2.941  0.9811 -0.0725 -1.3018
 4928SOL    HW226244   4.660   3.849   2.853 -0.2991  2.3846  0.7303
 4929SOL     OW26245   2.483   0.529   9.385  0.3580  0.0169 -0.5512
 4929SOL    HW126246   2.512   0.449   9.341 -2.2621 -0.7169 -0.9832
 4929SOL    HW226247   2.391   0.507   9.398  0.7777 -1.7381 -0.5174
 4930SOL     OW26248   2.145   4.519   3.373 -0.1191 -0.0901  0.2502
 4930SOL    HW126249   2.186   4.515   3.459 -0.1659  1.5519  0.3564
 4930SOL    HW226250   2.181   4.604   3.346  1.1924 -0.5755  0.4862
 4931SOL     OW26251   3.351   3.804   4.808 -0.3781 -0.2571  0.1822
 4931SOL    HW126252   3.418   3.757   4.758 -0.3945  0.5471 -0.5953
 4931SOL    HW226253   3.363   3.896   4.785 -2.3519 -0.4096 -1.4301
 4932SOL     OW26254   0.686   1.445   2.981 -0.0570  0.5304 -0.8867
 4932SOL    HW126255   0.590   1.442   2.982 -0.0710  2.2747  2.3049
 4932SOL    HW226256   0.700   1.351   2.970 -3.1900  0.2001 -2.2250
 4933SOL     OW26257   4.698   1.653  16.123 -0.0311 -0.2124  0.4261
 4933SOL    HW126258   4.646   1.720  16.078  0.1748 -0.7761 -0.6512
 4933SOL    HW226259   4.656   1.659  16.209 -2.4807  0.1273 -0.7824
 4934SOL     OW26260   3.409   3.099   8.050 -0.6718 -0.5355  0.2231
 4934SOL    HW126261   3.376   3.188   8.037 -0.2668 -0.3519  0.4269
 4934SOL    HW226262   3.454   3.070   7.970 -0.2445  0.5300  0.0726
 4935SOL     OW26263   0.900   3.567   2.483 -0.4666  1.0749  0.1252
 4935SOL    HW126264   0.891   3.574   2.578 -1.1279 -0.9989  0.2113
 4935SOL    HW226265   0.974   3.624   2.463 -0.6601  1.5418  0.7336
 4936SOL     OW26266   3.511   0.803   4.262  0.1235  0.1441 -0.2494
 4936SOL    HW126267   3.490   0.711   4.278 -0.4377  0.1171 -1.1279
 4936SOL    HW226268   3.456   0.845   4.328 -2.7528 -2.0448 -1.2300
 4937SOL     OW26269   3.068   4.622   6.723 -0.1766 -0.3956  0.4365
 4937SOL    HW126270   3.135   4.691   6.718  0.3635 -0.9321  0.3352
 4937SOL    HW226271   3.127   4.552   6.750  0.5531  0.8768  2.1847
 4938SOL     OW26272   1.806   4.461   0.485 -0.6214 -0.0084 -0.5181
 4938SOL    HW126273   1.849   4.376   0.476  2.1380  1.3241  0.2848
 4938SOL    HW226274   1.833   4.515   0.411  0.4465  1.7688  1.1640
 4939SOL     OW26275   3.640   2.706  11.641  0.4164  0.3447  0.5445
 4939SOL    HW126276   3.646   2.662  11.726 -2.0228 -3.3829 -1.2027
 4939SOL    HW226277   3.704   2.776  11.646  0.6792  0.0082  1.9754
 4940SOL     OW26278   4.218   3.972   4.115 -0.5503  0.0896  0.0109
 4940SOL    HW126279   4.214   3.969   4.019  3.5937  2.1461 -0.2215
 4940SOL    HW226280   4.137   3.922   4.130 -0.9473  0.6595 -0.2361
 4941SOL     OW26281   1.593   4.140   1.888 -0.3188  0.6895  0.1002
 4941SOL    HW126282   1.629   4.227   1.871 -0.7913  1.2573  1.9695
 4941SOL    HW226283   1.566   4.110   1.801 -0.4736 -0.7330  0.6309
 4942SOL     OW26284   4.179   0.175   7.047  0.3460 -0.6175 -0.2097
 4942SOL    HW126285   4.269   0.171   7.078  0.1903  2.4031  0.5859
 4942SOL    HW226286   4.183   0.097   6.991  1.4374 -0.4941 -0.3017
 4943SOL     OW26287   3.153   0.202   6.935  0.7294 -0.8699  0.5474
 4943SOL    HW126288   3.216   0.156   6.991  1.8367 -0.5421 -0.4335
 4943SOL    HW226289   3.126   0.264   7.002 -4.2706 -1.4266 -0.9277
 4944SOL     OW26290   1.212   1.207  10.958 -0.4956  0.5446  0.0527
 4944SOL    HW126291   1.161   1.256  11.022 -1.7314 -1.1669  0.3803
 4944SOL    HW226292   1.141   1.149  10.930 -0.0248 -0.1827  0.3710
 4945SOL     OW26293   1.823   3.910   7.273 -0.2711  0.3302  0.0831
 4945SOL    HW126294   1.890   3.876   7.334 -2.8867 -1.3001  2.0611
 4945SOL    HW226295   1.868   3.989   7.245  0.2178  0.0347  0.0344
 4946SOL     OW26296   2.216   1.160  10.437  0.4672 -0.4063  0.2990
 4946SOL    HW126297   2.220   1.084  10.494 -0.0215 -0.8234 -0.2172
 4946SOL    HW226298   2.199   1.116  10.354 -1.5824 -2.3037  1.7313
 4947SOL     OW26299   1.215   4.263   1.919 -0.2904  0.1696  0.4873
 4947SOL    HW126300   1.142   4.316   1.887  0.2478  1.1567  0.8894
 4947SOL    HW226301   1.280   4.260   1.849  0.2290 -1.6596  1.0539
 4948SOL     OW26302   2.536   4.202   8.443 -0.1264 -0.0365  0.3157
 4948SOL    HW126303   2.575   4.121   8.407  1.7117  1.0793 -0.2216
 4948SOL    HW226304   2.608   4.264   8.451  0.1325 -0.4615  1.3055
 4949SOL     OW26305   1.530   1.364   5.543 -0.5445 -0.1490  0.3869
 4949SOL    HW126306   1.618   1.374   5.580 -1.4574  3.4368  1.6311
 4949SOL    HW226307   1.482   1.358   5.626 -0.6592 -2.7023  0.1429
 4950SOL     OW26308   4.085   0.839   3.111 -0.8164 -0.5500  0.0230
 4950SOL    HW126309   4.087   0.861   3.205  1.2094 -0.6656 -0.0069
 4950SOL    HW226310   4.086   0.927   3.072  1.3537  0.1734  1.7148
 4951SOL     OW26311   0.152   1.128  11.639  0.3810  0.4041  0.6115
 4951SOL    HW126312   0.216   1.163  11.702  0.2287 -0.4458  1.2313
 4951SOL    HW226313   0.162   1.034  11.653  1.4248  0.4186 -0.0487
 4952SOL     OW26314   3.430   2.583   1.861 -0.3078  0.1519  0.6980
 4952SOL    HW126315   3.379   2.657   1.829 -0.6945 -0.7324 -0.7284
 4952SOL    HW226316   3.448   2.615   1.949  0.2875  2.9331 -0.4466
 4953SOL     OW26317   1.383   2.211   2.673  0.2847  0.3108  0.2357
 4953SOL    HW126318   1.459   2.167   2.709 -0.3157  1.2960  2.6835
 4953SOL    HW226319   1.323   2.143   2.641  0.7099 -1.0300  2.3412
 4954SOL     OW26320   2.879   3.816   6.864 -0.4575 -0.6940 -0.3532
 4954SOL    HW126321   2.892   3.854   6.777  1.3841 -0.7653 -0.1179
 4954SOL    HW226322   2.966   3.794   6.898 -0.1841  0.4480 -0.3391
 4955SOL     OW26323   0.427   1.505   3.141 -0.1593 -0.3924  0.2654
 4955SOL    HW126324   0.512   1.518   3.182 -0.9006  1.0647  1.3269
 4955SOL    HW226325   0.425   1.580   3.082 -0.2162 -1.2606 -0.8583
 4956SOL     OW26326   4.073   2.152  11.531  0.3760 -0.3159  0.8522
 4956SOL    HW126327   4.117   2.203  11.463 -2.2516  2.4250  1.2454
 4956SOL    HW226328   4.005   2.109  11.478  1.9406 -0.8735 -0.7262
 4957SOL     OW26329   2.605   4.364   2.267  0.0500 -0.7588  0.2968
 4957SOL    HW126330   2.692   4.342   2.301  0.7842  2.6111  0.6632
 4957SOL    HW226331   2.621   4.431   2.200 -1.1105 -0.9258 -0.1368
 4958SOL     OW26332   3.996   1.520   3.520 -0.7058  0.1735 -0.7392
 4958SOL    HW126333   3.917   1.533   3.468 -1.1459 -1.8742 -0.5777
 4958SOL    HW226334   4.001   1.603   3.568 -1.1596 -0.0441 -0.3136
 4959SOL     OW26335   1.663   3.652  15.273  0.8041 -0.1689  0.3697
 4959SOL    HW126336   1.589   3.638  15.332  1.0572 -0.9574  0.4975
 4959SOL    HW226337   1.726   3.591  15.310  0.7485 -0.7702 -0.5307
 4960SOL     OW26338   2.699   0.160   2.751 -0.5161  0.0331 -0.0797
 4960SOL    HW126339   2.747   0.078   2.763  2.0732  1.4096 -1.1081
 4960SOL    HW226340   2.770   0.214   2.715  1.1262 -0.3059  2.6714
 4961SOL     OW26341   4.426   4.008   7.753 -0.7445 -0.5737 -0.3448
 4961SOL    HW126342   4.503   4.055   7.784 -0.7103 -1.8654  1.5854
 4961SOL    HW226343   4.368   4.083   7.741  0.5166 -0.1416 -3.6571
 4962SOL     OW26344   1.389   3.012   5.490  0.0580 -0.5056 -0.3736
 4962SOL    HW126345   1.346   2.928   5.474  0.1905 -1.2255  3.1140
 4962SOL    HW226346   1.445   2.982   5.561 -0.9707  0.7970  0.9879
 4963SOL     OW26347   0.378   3.826   5.565 -0.6479  0.5070 -0.0328
 4963SOL    HW126348   0.311   3.809   5.632 -2.3705 -0.1792 -1.9382
 4963SOL    HW226349   0.355   3.913   5.533  1.6572  1.0300 -0.2415
 4964SOL     OW26350   2.237   3.953   5.808 -0.1858  0.0222 -0.2136
 4964SOL    HW126351   2.223   3.989   5.720  0.1499  1.5331  0.3436
 4964SOL    HW226352   2.333   3.960   5.804 -0.2734  1.8769  0.9718
 4965SOL     OW26353   0.326   1.237  14.093  0.1039 -0.8129  0.0451
 4965SOL    HW126354   0.418   1.221  14.116 -0.3793 -0.8331  1.9568
 4965SOL    HW226355   0.337   1.316  14.039  0.6801 -0.7846  0.1989
 4966SOL     OW26356   1.497   1.637   9.591  0.1101  0.0679 -0.6063
 4966SOL    HW126357   1.591   1.624   9.597  0.0943 -0.6255 -2.0969
 4966SOL    HW226358   1.479   1.710   9.650 -2.1200 -0.5381 -0.5203
 4967SOL     OW26359   0.381   3.091   8.460  0.1113 -0.1220  0.2252
 4967SOL    HW126360   0.382   3.081   8.555 -0.3898  1.3109  0.3832
 4967SOL    HW226361   0.454   3.036   8.430 -0.8025 -1.3004  0.1384
 4968SOL     OW26362   3.416   3.485   2.659  0.0717  0.2051  0.2124
 4968SOL    HW126363   3.482   3.421   2.631  0.3340 -0.0155  1.2954
 4968SOL    HW226364   3.343   3.426   2.678  0.7678 -0.1966  1.6719
 4969SOL     OW26365   2.171   0.845   4.747  0.0483  0.4575  0.4370
 4969SOL    HW126366   2.174   0.914   4.680  2.2066 -0.0073  0.0348
 4969SOL    HW226367   2.243   0.782   4.745 -0.1623  0.3241 -2.6948
 4970SOL     OW26368   0.563   2.277   8.712 -0.2649 -0.1413  0.8238
 4970SOL    HW126369   0.545   2.258   8.620  0.3297 -1.4016  0.9682
 4970SOL    HW226370   0.566   2.190   8.752 -1.9443 -0.8622 -0.6733
 4971SOL     OW26371   3.074   4.473   2.365 -0.3466  0.3942  0.4247
 4971SOL    HW126372   3.097   4.426   2.445 -0.5974 -0.3650  0.0469
 4971SOL    HW226373   3.092   4.562   2.396  0.1413 -0.4025  2.4296
 4972SOL     OW26374   1.396   3.562   7.836 -0.1093 -0.3149  0.1482
 4972SOL    HW126375   1.328   3.565   7.769 -0.3937 -0.8866  0.4119
 4972SOL    HW226376   1.350   3.519   7.908 -0.0811 -0.4281  0.0989
 4973SOL     OW26377   0.764   3.005  11.210 -1.1730 -0.3481  0.5030
 4973SOL    HW126378   0.813   2.939  11.259 -0.7100  0.2529  0.8466
 4973SOL    HW226379   0.748   3.071  11.277 -1.0194 -0.4863  0.6770
 4974SOL     OW26380   2.025   4.382   0.157  0.3066 -0.3012 -0.8800
 4974SOL    HW126381   1.935   4.358   0.137  0.0864  1.9175 -2.5394
 4974SOL    HW226382   2.036   4.321   0.230 -2.2001  1.0294  0.5802
 4975SOL     OW26383   0.742   3.588   5.289 -0.4873  0.3366 -0.4547
 4975SOL    HW126384   0.694   3.564   5.368 -1.8850  1.9175 -0.8097
 4975SOL    HW226385   0.703   3.671   5.260 -1.1023  0.6473  1.2767
 4976SOL     OW26386   0.172   4.608  14.773  0.5252 -0.2211  0.3674
 4976SOL    HW126387   0.088   4.590  14.813 -0.1875  1.8764 -0.1498
 4976SOL    HW226388   0.179   4.704  14.780 -0.5939 -0.0927 -0.2794
 4977SOL     OW26389   4.337   3.250   7.517  0.2187  0.1700 -0.5556
 4977SOL    HW126390   4.242   3.264   7.520  0.0165 -1.3058  0.1813
 4977SOL    HW226391   4.342   3.173   7.460 -0.1466 -0.9649  0.9426
 4978SOL     OW26392   3.401   4.023   7.691 -0.0579  0.0476 -0.0525
 4978SOL    HW126393   3.487   4.032   7.650  0.0770  1.4954  0.5435
 4978SOL    HW226394   3.421   4.001   7.782 -3.0487  0.5718  0.7519
 4979SOL     OW26395   2.897   2.595   5.860 -0.4189  0.0342 -0.0887
 4979SOL    HW126396   2.874   2.633   5.944  0.0171  1.7900 -0.7502
 4979SOL    HW226397   2.883   2.662   5.793 -1.1138 -0.4747 -0.4463
 4980SOL     OW26398   1.326   4.635   2.508  0.0801 -0.3688  0.9303
 4980SOL    HW126399   1.344   4.541   2.501  0.1069 -0.3553  0.8174
 4980SOL    HW226400   1.378   4.658   2.585 -0.7167 -0.4912  1.5093
 4981SOL     OW26401   1.248   3.178  12.828 -0.2443 -0.0670 -0.0674
 4981SOL    HW126402   1.283   3.089  12.827  1.1826  0.4808  1.1484
 4981SOL    HW226403   1.198   3.173  12.910  0.7357 -0.6146  0.4948
 4982SOL     OW26404   3.375   4.595   4.381  0.2141 -0.1544  0.1793
 4982SOL    HW126405   3.346   4.580   4.291 -2.4481 -0.9192  1.1870
 4982SOL    HW226406   3.383   4.690   4.390  1.6547 -0.1893 -0.6906
 4983SOL     OW26407   4.319   0.572   3.291 -0.0698  0.2860 -0.2796
 4983SOL    HW126408   4.382   0.539   3.354  1.0233  2.0321 -0.4523
 4983SOL    HW226409   4.357   0.652   3.254  0.3768 -0.6225 -1.7940
 4984SOL     OW26410   3.833   3.055  16.707  0.4399 -0.0237 -0.1872
 4984SOL    HW126411   3.788   3.083  16.787 -2.2438 -1.9870 -1.0346
 4984SOL    HW226412   3.882   2.982  16.744 -2.1094 -2.8501 -2.3751
 4985SOL     OW26413   0.381   3.205   9.406 -0.4876 -0.6939  0.5987
 4985SOL    HW126414   0.348   3.267   9.341  1.7032 -1.2811 -1.0800
 4985SOL    HW226415   0.417   3.141   9.345  1.0098 -0.7040  1.4937
 4986SOL     OW26416   3.330   1.259  10.569  0.4024 -0.3432 -0.0832
 4986SOL    HW126417   3.289   1.243  10.484 -1.7705 -2.1010  1.3014
 4986SOL    HW226418   3.410   1.210  10.551  0.3305 -0.4181 -0.2017
 4987SOL     OW26419   2.391   3.088  11.799 -0.0338  0.1274 -0.3220
 4987SOL    HW126420   2.418   3.056  11.713  2.3633 -0.4050  0.6036
 4987SOL    HW226421   2.474   3.076  11.847 -0.8569 -0.9184  0.8491
 4988SOL     OW26422   3.619   0.056   5.161  0.1604 -0.3681  0.4660
 4988SOL    HW126423   3.570   4.698   5.144 -0.9854  0.4433 -0.0695
 4988SOL    HW226424   3.704   0.013   5.172  0.1182  0.2160  2.9863
 4989SOL     OW26425   1.896   4.083   5.296  0.3483  0.8818  0.0106
 4989SOL    HW126426   1.988   4.064   5.279 -0.7515 -0.6307 -4.1983
 4989SOL    HW226427   1.874   4.120   5.211 -3.4073  1.8557  1.3936
 4990SOL     OW26428   2.297   0.380   7.713  0.4545  0.4433 -0.2202
 4990SOL    HW126429   2.337   0.427   7.639  1.1826  2.6690  1.5971
 4990SOL    HW226430   2.371   0.327   7.745 -0.2548  0.8955  2.1367
 4991SOL     OW26431   2.120   0.437   4.810 -0.3190  0.1055 -0.2412
 4991SOL    HW126432   2.215   0.437   4.800  0.0265  0.7801  3.1069
 4991SOL    HW226433   2.109   0.355   4.858 -2.1844  1.9234  2.4735
 4992SOL     OW26434   2.776   3.786   7.125  0.1218 -0.1932  0.0666
 4992SOL    HW126435   2.812   3.826   7.204 -0.4948  0.4310  0.0255
 4992SOL    HW226436   2.809   3.839   7.053  0.3164  2.0306  1.7844
 4993SOL     OW26437   4.630   2.631   8.039 -0.0996  0.1972  0.0342
 4993SOL    HW126438   4.600   2.561   7.982 -0.4101  0.3499  0.0101
 4993SOL    HW226439   4.573   2.701   8.008 -0.0702 -0.1716 -0.8640
 4994SOL     OW26440   1.120   1.655   6.825 -0.4099  0.7287  1.0053
 4994SOL    HW126441   1.062   1.651   6.750 -0.1336  0.9391  0.7804
 4994SOL    HW226442   1.065   1.703   6.888 -2.0525 -1.1269  0.9493
 4995SOL     OW26443   2.687   1.733  13.413 -0.2128  0.3414  0.2089
 4995SOL    HW126444   2.715   1.808  13.360  3.3242 -0.8199  0.4489
 4995SOL    HW226445   2.734   1.760  13.492 -2.1304  1.9423  0.8028
 4996SOL     OW26446   0.801   2.474   2.431  0.1114  0.4064 -0.1073
 4996SOL    HW126447   0.804   2.432   2.517  1.5365 -0.1912 -0.4445
 4996SOL    HW226448   0.723   2.431   2.396  0.2844 -0.9519  1.1809
 4997SOL     OW26449   3.488   3.160   4.215  0.1651  0.4608 -0.1917
 4997SOL    HW126450   3.547   3.157   4.139  0.4357 -1.9457  0.1358
 4997SOL    HW226451   3.540   3.220   4.269 -0.6653  1.3354 -0.3500
 4998SOL     OW26452   1.480   2.223  16.910 -0.0524 -0.2648  0.3507
 4998SOL    HW126453   1.513   2.156  16.969  1.5557  1.2256  1.1576
 4998SOL    HW226454   1.432   2.279  16.972  0.5408  0.6167  0.0252
 4999SOL     OW26455   2.235   2.237   1.225  0.6328  0.5347  0.0719
 4999SOL    HW126456   2.188   2.153   1.229 -0.3889  1.1654  1.5997
 4999SOL    HW226457   2.310   2.215   1.171  0.3114  0.8837 -0.5137
 5000SOL     OW26458   1.446   4.181   4.469  0.5724  0.3821 -0.6810
 5000SOL    HW126459   1.475   4.205   4.381  1.9566 -0.0577 -0.3532
 5000SOL    HW226460   1.453   4.085   4.477 -0.6271  0.5355  2.0051
 5001SOL     OW26461   2.728   3.047   8.419  0.3394 -0.2204  0.1505
 5001SOL    HW126462   2.686   3.049   8.333  1.2312  0.0182 -0.2776
 5001SOL    HW226463   2.655   3.011   8.469  1.0713 -0.2057  1.2246
 5002SOL     OW26464   1.302   0.307  17.442 -0.4625 -0.7237 -1.2385
 5002SOL    HW126465   1.352   0.291  17.521 -1.4293 -0.4862 -0.5727
 5002SOL    HW226466   1.246   0.230  17.444 -0.8322 -0.4155  0.0583
 5003SOL     OW26467   3.883   4.011  17.579  0.5630  0.2813 -0.1947
 5003SOL    HW126468   3.856   4.028  17.489  0.8480 -1.8124 -0.6710
 5003SOL    HW226469   3.971   3.978  17.559 -0.2993 -0.3725 -2.9201
 5004SOL     OW26470   3.293   0.042  10.673  0.7751 -0.3755  0.4525
 5004SOL    HW126471   3.331   0.128  10.687 -1.2249  1.0142 -2.9813
 5004SOL    HW226472   3.368   4.709  10.697  0.0945 -1.6476 -0.3794
 5005SOL     OW26473   0.198   0.679   8.327 -0.2280  0.0921 -0.3212
 5005SOL    HW126474   0.253   0.610   8.291  0.3090  1.2987 -1.8779
 5005SOL    HW226475   0.115   0.635   8.342  0.3911 -0.9704 -0.0637
 5006SOL     OW26476   1.560   0.849   5.139 -0.0081  0.3570 -0.0306
 5006SOL    HW126477   1.539   0.916   5.074 -0.4860  0.1469 -0.0910
 5006SOL    HW226478   1.555   0.773   5.080  1.7132 -0.6886  1.1580
 5007SOL     OW26479   0.844   0.213   3.271  0.0886  0.0523  0.1326
 5007SOL    HW126480   0.758   0.212   3.228 -0.3540  0.6002  0.9838
 5007SOL    HW226481   0.871   0.122   3.284 -0.6206  0.0561  1.7256
 5008SOL     OW26482   3.526   4.686   9.828  0.1572  0.2390  0.4833
 5008SOL    HW126483   3.434   4.669   9.848  0.5408 -0.3058  1.7771
 5008SOL    HW226484   3.560   4.674   9.917  0.7804  2.0701  0.4864
 5009SOL     OW26485   3.959   2.831   3.399 -0.0620  0.0020 -0.4458
 5009SOL    HW126486   4.019   2.762   3.426 -1.2821 -0.4311  1.1531
 5009SOL    HW226487   3.918   2.810   3.315  1.9221  0.1534 -1.4588
 5010SOL     OW26488   1.034   3.201  16.844  0.4683 -0.1496  0.6407
 5010SOL    HW126489   1.049   3.131  16.907 -1.2377  0.3790  1.6202
 5010SOL    HW226490   1.092   3.184  16.769  2.7279  1.0785  2.1174
 5011SOL     OW26491   0.827   3.199   0.386 -0.3224  0.3372  0.1914
 5011SOL    HW126492   0.873   3.126   0.345 -0.3820  0.8971 -0.8937
 5011SOL    HW226493   0.845   3.261   0.315  0.9302  1.9636  1.9236
 5012SOL     OW26494   3.511   1.199   9.092  0.1199  0.2590 -0.2410
 5012SOL    HW126495   3.455   1.189   9.169 -0.9245 -0.0995 -1.0590
 5012SOL    HW226496   3.594   1.220   9.135 -0.1989  0.2995  0.3517
 5013SOL     OW26497   0.672   0.533  12.673  0.5705 -0.1345 -0.1555
 5013SOL    HW126498   0.607   0.523  12.743  0.5214  4.6232  0.4740
 5013SOL    HW226499   0.641   0.477  12.602  2.7584  0.4972 -1.6019
 5014SOL     OW26500   2.939   4.554   3.498  0.1447 -0.2363 -0.2126
 5014SOL    HW126501   2.846   4.578   3.499  0.2175  0.0106  1.0184
 5014SOL    HW226502   2.934   4.508   3.581  1.1653 -1.1742 -0.6860
 5015SOL     OW26503   3.745   0.856  10.364 -0.0373 -0.2162  0.2846
 5015SOL    HW126504   3.690   0.904  10.302  0.4972  0.3383  0.2372
 5015SOL    HW226505   3.691   0.798  10.416  0.3382 -0.1707  0.7312
 5016SOL     OW26506   3.727   3.850   3.397  0.1570  1.2089 -0.0800
 5016SOL    HW126507   3.668   3.926   3.398 -1.9195 -0.4638  3.0657
 5016SOL    HW226508   3.684   3.793   3.334  2.8287 -1.1224  0.2434
 5017SOL     OW26509   0.255   0.148   1.581  0.4677 -0.3263 -0.4993
 5017SOL    HW126510   0.326   0.119   1.523  1.3950  0.7337  0.1033
 5017SOL    HW226511   0.239   0.068   1.630  0.1069  0.1896  0.2243
 5018SOL     OW26512   3.998   4.019   7.632  0.1355 -0.0506  0.2394
 5018SOL    HW126513   3.969   4.110   7.623  0.6659  0.1421  0.4852
 5018SOL    HW226514   4.088   4.020   7.601  0.4118 -2.4832  0.9634
 5019SOL     OW26515   3.041   0.117   4.235  0.2580  0.4001 -0.2981
 5019SOL    HW126516   2.959   0.133   4.189  0.1649 -1.4033 -0.7569
 5019SOL    HW226517   3.007   0.084   4.317  2.3754  1.9812  1.2200
 5020SOL     OW26518   4.241   2.868  14.656  0.3979  0.1804 -0.7658
 5020SOL    HW126519   4.231   2.773  14.647  2.9024 -0.3944  2.4087
 5020SOL    HW226520   4.160   2.908  14.624 -1.9959 -0.8087  4.0955
 5021SOL     OW26521   4.340   2.674   8.956  0.0174 -0.0653 -0.0042
 5021SOL    HW126522   4.371   2.748   8.905 -1.3100  0.5896  0.1340
 5021SOL    HW226523   4.327   2.612   8.884 -1.5759  0.5121 -0.2136
 5022SOL     OW26524   1.086   1.366   2.516 -0.2566 -0.5336  0.2799
 5022SOL    HW126525   1.092   1.450   2.470 -1.5980  1.1439  3.1689
 5022SOL    HW226526   1.062   1.390   2.605 -3.3880 -2.3533 -0.0778
 5023SOL     OW26527   0.705   3.347   4.946  0.1983  0.2220 -0.2527
 5023SOL    HW126528   0.740   3.304   4.869  1.7418 -1.5941  1.4516
 5023SOL    HW226529   0.736   3.281   5.008  0.4195 -0.0903 -0.6959
 5024SOL     OW26530   1.023   1.117  10.011 -0.2477 -0.5357 -0.4341
 5024SOL    HW126531   1.024   1.029  10.048 -0.7829  0.4768  1.9569
 5024SOL    HW226532   0.952   1.148  10.067  1.1469 -0.9927  1.5740
 5025SOL     OW26533   1.500   1.358   7.091  0.3330  0.0037 -0.1178
 5025SOL    HW126534   1.484   1.271   7.054  1.2064 -0.7349  1.2549
 5025SOL    HW226535   1.468   1.412   7.018 -0.9380  1.0235  1.2115
 5026SOL     OW26536   0.287   1.787   4.958  0.6146 -0.6608  0.2499
 5026SOL    HW126537   0.379   1.792   4.984  1.2744 -1.1493 -1.9208
 5026SOL    HW226538   0.247   1.725   5.018  1.1258 -0.4447  0.8094
 5027SOL     OW26539   1.492   4.043   1.627 -0.2750 -0.3101  0.0689
 5027SOL    HW126540   1.416   4.005   1.583 -0.8013  0.2875  0.4610
 5027SOL    HW226541   1.544   3.969   1.654 -0.2580  0.7405  2.8570
 5028SOL     OW26542   3.240   3.808   4.403 -0.5912 -0.2069  0.1072
 5028SOL    HW126543   3.181   3.849   4.340  1.1935  1.1980 -0.6683
 5028SOL    HW226544   3.294   3.747   4.353  0.1706 -0.4361  1.1983
 5029SOL     OW26545   4.324   1.618   5.177  0.0257  0.1446 -0.4882
 5029SOL    HW126546   4.332   1.551   5.245  0.7496 -2.4662 -3.1216
 5029SOL    HW226547   4.386   1.685   5.205  1.3424 -0.2373 -2.5000
 5030SOL     OW26548   2.156   0.319   8.537 -0.3305 -1.1444  0.2338
 5030SOL    HW126549   2.180   0.264   8.463 -0.7983 -3.2909  1.6856
 5030SOL    HW226550   2.242   0.350   8.568 -0.2487  0.7416 -1.9013
 5031SOL     OW26551   0.294   2.678  15.549  0.6262  0.0177  0.6609
 5031SOL    HW126552   0.281   2.731  15.628 -3.1726  0.2300 -0.1141
 5031SOL    HW226553   0.380   2.640  15.565  1.3166  1.3288  0.1031
 5032SOL     OW26554   1.025   2.444   1.985 -0.0298 -0.5987 -0.4410
 5032SOL    HW126555   0.930   2.433   1.985 -0.1918  0.7092  0.3506
 5032SOL    HW226556   1.045   2.428   1.893 -0.0167 -0.9494 -0.3773
 5033SOL     OW26557   2.594   1.462   9.602  0.3825  0.0058  0.0187
 5033SOL    HW126558   2.602   1.473   9.696 -1.6151 -0.3926  0.2518
 5033SOL    HW226559   2.646   1.531   9.561 -0.8298  1.6555  1.2302
 5034SOL     OW26560   4.647   4.110   5.361 -0.1675  0.0366 -0.3269
 5034SOL    HW126561   4.600   4.169   5.302 -0.7391 -0.3171 -0.2266
 5034SOL    HW226562   0.013   4.120   5.328 -0.7354 -1.3671 -2.2630
 5035SOL     OW26563   1.266   3.490   9.091  0.1747  0.2472  0.2170
 5035SOL    HW126564   1.211   3.559   9.128  0.5933  2.4118 -3.1405
 5035SOL    HW226565   1.211   3.469   9.015  1.7840 -1.1587 -0.5763
 5036SOL     OW26566   2.975   1.979  12.458  0.1735 -0.4418 -0.0972
 5036SOL    HW126567   2.982   1.912  12.389  3.8974  1.5375 -1.6506
 5036SOL    HW226568   2.929   2.054  12.420 -0.1840 -2.0027 -2.7541
 5037SOL     OW26569   4.475   0.928   4.844  0.3322 -0.0816 -0.1597
 5037SOL    HW126570   4.438   0.948   4.758 -1.2880  1.8696  0.9960
 5037SOL    HW226571   4.474   1.018   4.877  0.1451  0.4675 -1.6629
 5038SOL     OW26572   2.084   3.627   8.518 -0.2123 -0.4923 -0.0868
 5038SOL    HW126573   2.006   3.663   8.561 -0.7724 -1.2081 -0.4998
 5038SOL    HW226574   2.043   3.602   8.435  2.7447  0.7439 -1.8933
 5039SOL     OW26575   1.200   0.178  13.660 -0.7218 -0.2137  0.3427
 5039SOL    HW126576   1.149   0.152  13.736  1.2487 -0.6086  1.5247
 5039SOL    HW226577   1.284   0.211  13.691 -1.1836 -0.7521  2.1408
 5040SOL     OW26578   2.140   2.697   6.654  0.2932 -0.0494 -0.5126
 5040SOL    HW126579   2.123   2.769   6.593  2.6966  0.5882 -0.4489
 5040SOL    HW226580   2.227   2.670   6.622  0.2588  1.4947 -1.9276
 5041SOL     OW26581   3.010   2.957   9.731 -0.3809  0.0876  0.5270
 5041SOL    HW126582   3.088   2.911   9.761  0.3376 -0.5469 -2.3079
 5041SOL    HW226583   2.945   2.922   9.792  1.0847 -1.3904  1.2136
 5042SOL     OW26584   2.772   1.861  11.830  0.4542 -0.0643  0.4409
 5042SOL    HW126585   2.831   1.934  11.814  1.4721 -0.4483  2.4069
 5042SOL    HW226586   2.796   1.839  11.920  0.3581  0.3282  0.5614
 5043SOL     OW26587   2.674   2.691  11.614 -0.7655  0.2963 -0.3646
 5043SOL    HW126588   2.746   2.642  11.576  0.1641  0.5326  1.1006
 5043SOL    HW226589   2.698   2.783  11.600 -1.4748  0.8215  1.8817
 5044SOL     OW26590   2.380   1.646  10.213  0.3401 -0.7078 -0.0816
 5044SOL    HW126591   2.391   1.553  10.234 -0.7976 -0.6261  0.8302
 5044SOL    HW226592   2.375   1.682  10.301  2.9098  0.2222 -0.3016
 5045SOL     OW26593   0.903   2.095   6.026  0.2123  0.2374 -0.0676
 5045SOL    HW126594   0.898   2.024   5.963 -0.6040  0.1060  0.1489
 5045SOL    HW226595   0.824   2.144   6.004 -0.7848 -0.7938  1.1623
 5046SOL     OW26596   4.210   2.126  13.910 -0.2656 -0.3411  0.1083
 5046SOL    HW126597   4.203   2.112  14.005 -0.4777 -0.9704  0.0016
 5046SOL    HW226598   4.293   2.080  13.899 -0.4333 -0.6152 -0.0217
 5047SOL     OW26599   1.637   3.702   9.332  0.1543  0.1541  0.0822
 5047SOL    HW126600   1.723   3.679   9.369  0.5282 -0.1147 -0.9434
 5047SOL    HW226601   1.588   3.619   9.335 -0.1218  0.3330  0.6198
 5048SOL     OW26602   1.681   1.781   7.255  0.1176 -0.2981  0.0260
 5048SOL    HW126603   1.591   1.814   7.263  0.0443 -0.7641  1.0505
 5048SOL    HW226604   1.675   1.693   7.217  0.6525 -0.5983  0.6461
 5049SOL     OW26605   0.936   2.429   8.433 -0.1185  0.4624  0.2211
 5049SOL    HW126606   0.946   2.504   8.492 -0.5080  1.5946 -1.1511
 5049SOL    HW226607   0.987   2.366   8.485  1.0142  0.5600 -0.7678
 5050SOL     OW26608   0.536   0.629   6.538  0.2441  0.2536 -0.5061
 5050SOL    HW126609   0.506   0.670   6.457  0.5283  1.0744 -0.2014
 5050SOL    HW226610   0.573   0.548   6.503 -0.1541  0.7444 -2.0761
 5051SOL     OW26611   3.963   3.589   0.327 -0.8304 -0.4577  0.1019
 5051SOL    HW126612   4.041   3.606   0.380 -1.0126  2.1779 -0.4719
 5051SOL    HW226613   3.898   3.640   0.377 -1.5779 -0.3346 -1.0024
 5052SOL     OW26614   0.084   3.384   7.039  0.1516 -0.1831  0.5063
 5052SOL    HW126615   0.069   3.477   7.056 -0.8054 -0.7360  2.7027
 5052SOL    HW226616   4.715   3.356   7.033 -1.0827  3.5705  1.5204
 5053SOL     OW26617   1.988   0.964   0.491 -0.4004  0.0245  0.1163
 5053SOL    HW126618   2.072   0.956   0.536 -0.4618 -0.7855  0.0877
 5053SOL    HW226619   1.965   0.872   0.509  1.7724 -0.4593  0.4164
 5054SOL     OW26620   2.246   1.402   1.257 -0.4993  0.4440  0.1982
 5054SOL    HW126621   2.335   1.405   1.221 -0.8200  0.4930 -0.6033
 5054SOL    HW226622   2.207   1.443   1.179 -1.9378  0.4848  0.9434
 5055SOL     OW26623   1.729   0.799   1.619  0.1043 -0.3817 -0.3709
 5055SOL    HW126624   1.712   0.839   1.704  1.6712 -0.0109 -0.2133
 5055SOL    HW226625   1.746   0.711   1.651  1.2810  0.2737  0.8540
 5056SOL     OW26626   2.283   3.553  16.683 -0.0913 -0.2744 -1.0370
 5056SOL    HW126627   2.357   3.614  16.680 -0.3513  0.1021  0.0624
 5056SOL    HW226628   2.299   3.524  16.773 -0.6169 -0.3351 -0.9605
 5057SOL     OW26629   2.041   0.314   0.852 -0.3443 -0.0016 -0.3907
 5057SOL    HW126630   2.028   0.397   0.898  3.1103 -0.3323  1.1640
 5057SOL    HW226631   2.099   0.274   0.917  0.8547  0.4444 -1.1831
 5058SOL     OW26632   3.324   0.760  13.347  0.2643  0.6523 -0.4810
 5058SOL    HW126633   3.312   0.850  13.375 -1.0748  0.1882  0.4261
 5058SOL    HW226634   3.266   0.756  13.270 -0.9921  2.2228  0.3822
 5059SOL     OW26635   1.167   2.852  12.948 -0.7330 -0.1856  0.4560
 5059SOL    HW126636   1.223   2.785  12.986 -0.4172  0.7985  1.7111
 5059SOL    HW226637   1.227   2.916  12.909  0.7163  0.9507  4.5906
 5060SOL     OW26638   1.579   2.369  17.436 -0.4796  0.2321  0.8100
 5060SOL    HW126639   1.525   2.443  17.462  1.8714  2.3489 -0.3590
 5060SOL    HW226640   1.630   2.365  17.518  0.2435  2.3439  0.4566
 5061SOL     OW26641   1.683   3.388   6.005  0.0135  0.1208 -0.3953
 5061SOL    HW126642   1.601   3.369   5.961 -0.6479  1.2036  0.3632
 5061SOL    HW226643   1.661   3.474   6.041  1.6867 -0.5233  2.1803
 5062SOL     OW26644   3.297   0.867   7.091 -0.2095 -0.4456 -0.8484
 5062SOL    HW126645   3.349   0.839   7.016 -1.2780 -3.5562 -0.4436
 5062SOL    HW226646   3.330   0.952   7.120 -2.1788  0.3123 -0.8588
 5063SOL     OW26647   0.217   0.799   5.759 -0.6879  0.1932  0.3818
 5063SOL    HW126648   0.259   0.880   5.732 -0.9392  0.0180 -0.5474
 5063SOL    HW226649   0.129   0.818   5.726 -0.3386 -1.4712 -1.4869
 5064SOL     OW26650   0.709   0.612   7.560  0.9484  0.3056 -0.2815
 5064SOL    HW126651   0.627   0.594   7.514  0.3464 -0.4388  1.0914
 5064SOL    HW226652   0.753   0.528   7.548 -0.7167 -0.4137 -1.4172
 5065SOL     OW26653   3.746   2.021   3.738 -0.0471  0.1844  0.2652
 5065SOL    HW126654   3.772   1.939   3.779  2.2144 -0.7117 -2.9362
 5065SOL    HW226655   3.790   2.014   3.653 -2.3026 -0.9863 -0.7939
 5066SOL     OW26656   1.751   1.302   9.946 -0.7448  0.2905 -0.0802
 5066SOL    HW126657   1.689   1.297   9.873  0.3475  0.0392 -0.9870
 5066SOL    HW226658   1.699   1.260  10.015 -0.8463 -0.7670 -0.8007
 5067SOL     OW26659   1.283   4.485  14.986 -0.1243  0.3304  0.2110
 5067SOL    HW126660   1.313   4.548  15.051  0.1378  1.7017 -1.2399
 5067SOL    HW226661   1.348   4.496  14.917 -0.6785 -0.8977 -0.5136
 5068SOL     OW26662   4.084   4.211   1.095 -0.1529  0.0897  0.1285
 5068SOL    HW126663   4.095   4.306   1.108 -0.7386 -0.0017  1.3095
 5068SOL    HW226664   4.092   4.182   1.186 -0.1111 -1.0486 -0.2462
 5069SOL     OW26665   4.441   2.927   8.136 -0.2852 -0.1785 -0.1165
 5069SOL    HW126666   4.473   2.880   8.058  0.8872 -0.4628  0.5327
 5069SOL    HW226667   4.350   2.948   8.114 -0.5662 -1.4255 -0.1317
 5070SOL     OW26668   4.149   4.545   7.237  0.3193  0.1680 -0.5303
 5070SOL    HW126669   4.098   4.602   7.179  1.8423 -0.4962 -2.5269
 5070SOL    HW226670   4.125   4.564   7.328  0.7513 -1.4472 -0.0700
 5071SOL     OW26671   2.537   1.636  14.130 -0.5137  0.3178 -0.1693
 5071SOL    HW126672   2.536   1.562  14.190  0.5919 -1.8164 -2.7807
 5071SOL    HW226673   2.494   1.597  14.054 -2.8231  1.3940  0.5929
 5072SOL     OW26674   4.290   1.965   4.319  0.4879 -0.0279  0.4718
 5072SOL    HW126675   4.212   1.992   4.271 -0.0586 -3.0422 -0.3423
 5072SOL    HW226676   4.346   1.930   4.250 -2.2255 -0.7728 -1.3259
 5073SOL     OW26677   3.077   2.158   9.316  0.0919 -0.4442  0.1266
 5073SOL    HW126678   3.165   2.193   9.330 -0.7444  1.7914 -0.2780
 5073SOL    HW226679   3.087   2.074   9.362 -1.5909 -1.0556 -0.6095
 5074SOL     OW26680   4.399   3.965   1.766  0.0364 -0.0113 -0.1782
 5074SOL    HW126681   4.305   3.963   1.779 -0.0899  2.5364 -0.7303
 5074SOL    HW226682   4.402   4.004   1.678 -2.0778 -1.9083 -1.0870
 5075SOL     OW26683   2.053   3.201   2.261  0.2659  0.3047 -0.4683
 5075SOL    HW126684   2.130   3.193   2.204  0.0731 -0.2209 -0.6603
 5075SOL    HW226685   1.999   3.156   2.196  0.9415  0.7863 -1.3542
 5076SOL     OW26686   1.093   4.595   7.948  0.5325  0.1887  0.3477
 5076SOL    HW126687   1.028   4.536   7.985  1.5293 -0.4776  1.0363
 5076SOL    HW226688   1.096   4.662   8.017  1.8930  0.3853  0.1057
 5077SOL     OW26689   1.871   4.172   6.016  0.1222  0.4609  0.0023
 5077SOL    HW126690   1.883   4.228   5.940 -0.9669  1.9011  0.8860
 5077SOL    HW226691   1.783   4.199   6.044 -0.2944 -0.0223 -0.8521
 5078SOL     OW26692   0.676   3.362   7.308  0.7558 -0.0559  0.2681
 5078SOL    HW126693   0.767   3.345   7.286  1.2224  1.9915  0.5772
 5078SOL    HW226694   0.638   3.389   7.224  0.2168  0.2567  0.6100
 5079SOL     OW26695   0.640   1.346   3.911  0.5559  0.0879  0.5329
 5079SOL    HW126696   0.644   1.372   3.819  1.7537 -0.8482  0.3187
 5079SOL    HW226697   0.560   1.293   3.917  0.6709  0.0995  2.0788
 5080SOL     OW26698   2.791   0.531   4.326  0.7121 -0.3197 -0.0138
 5080SOL    HW126699   2.862   0.593   4.310 -0.1332  0.3953 -0.9419
 5080SOL    HW226700   2.763   0.518   4.236 -0.3688  2.3913 -0.0629
 5081SOL     OW26701   2.665   0.290   1.609  0.6307 -0.6170  0.2515
 5081SOL    HW126702   2.758   0.277   1.594  0.7857  1.0791 -0.3036
 5081SOL    HW226703   2.656   0.241   1.690  1.3967 -2.0503 -0.5295
 5082SOL     OW26704   2.775   0.058   4.458  0.4291 -0.3764  0.1909
 5082SOL    HW126705   2.747   4.707   4.514 -1.4410  1.8471  2.1782
 5082SOL    HW226706   2.870   0.046   4.467  0.4312 -2.5232 -2.6079
 5083SOL     OW26707   1.216   3.311   4.969 -0.5477 -0.4360  0.8873
 5083SOL    HW126708   1.127   3.278   4.983 -1.1508  0.2680 -1.2950
 5083SOL    HW226709   1.258   3.247   5.026  0.3471 -2.2028 -1.7914
 5084SOL     OW26710   3.132   4.649   2.745  0.4713 -0.4006  0.2529
 5084SOL    HW126711   3.056   4.706   2.751  1.3568  0.9842 -1.8499
 5084SOL    HW226712   3.100   4.567   2.783  2.3155 -1.6559 -0.9142
 5085SOL     OW26713   1.095   0.591   1.374 -0.4582  0.5176  0.2005
 5085SOL    HW126714   1.045   0.512   1.394 -1.2487  0.4820 -1.8650
 5085SOL    HW226715   1.146   0.613   1.452  2.4904 -1.9263 -1.0376
 5086SOL     OW26716   1.231   0.238  15.307  0.1516 -0.2016 -0.1879
 5086SOL    HW126717   1.312   0.225  15.259  0.5210  0.1992  0.3271
 5086SOL    HW226718   1.228   0.334  15.306  1.5551 -0.1608 -0.7796
 5087SOL     OW26719   3.340   1.947   0.685 -0.5966 -0.5403 -0.1159
 5087SOL    HW126720   3.385   1.873   0.643 -0.1049 -0.4856  0.3179
 5087SOL    HW226721   3.363   2.018   0.625  1.7809 -0.8837  0.3909
 5088SOL     OW26722   2.097   0.868   0.237  0.0017  0.0686  0.4963
 5088SOL    HW126723   2.059   0.955   0.224  0.9956  0.4384  0.0945
 5088SOL    HW226724   2.043   0.817   0.298  0.3684  0.1954  0.9342
 5089SOL     OW26725   2.741   3.975   2.222  0.8941  0.2848  0.0945
 5089SOL    HW126726   2.834   3.955   2.217  0.9940  0.8621 -0.4162
 5089SOL    HW226727   2.730   4.069   2.235 -0.4219 -0.3438  3.4448
 5090SOL     OW26728   4.506   1.131   7.191  0.5324 -0.0471 -0.1320
 5090SOL    HW126729   4.435   1.146   7.254  1.4583  0.4089  0.7948
 5090SOL    HW226730   4.518   1.221   7.159  0.2273  1.2065  3.2903
 5091SOL     OW26731   0.560   2.358   2.998  0.0974  0.0119 -0.1022
 5091SOL    HW126732   0.562   2.446   3.035 -1.1860  0.1070 -0.2816
 5091SOL    HW226733   0.494   2.329   3.061  1.9621 -3.9112  0.0280
 5092SOL     OW26734   3.256   1.594   3.863 -0.2981  0.4289  0.0372
 5092SOL    HW126735   3.166   1.620   3.846 -0.5981  0.8348  2.2801
 5092SOL    HW226736   3.264   1.603   3.958 -0.7332  1.9514 -0.0733
 5093SOL     OW26737   1.922   3.817   4.917  0.1903 -0.0384  0.0809
 5093SOL    HW126738   1.862   3.832   4.990 -0.5795  0.7192 -0.7241
 5093SOL    HW226739   1.998   3.768   4.950  0.0939  1.0541  1.8986
 5094SOL     OW26740   0.299   3.627   2.303 -0.1816  0.4285 -0.2215
 5094SOL    HW126741   0.347   3.686   2.244 -0.2747 -1.3417 -2.0476
 5094SOL    HW226742   0.250   3.572   2.242 -0.5881 -0.4001  0.8572
 5095SOL     OW26743   2.743   1.946  13.256  0.6737 -0.2973 -0.3765
 5095SOL    HW126744   2.820   2.002  13.270  1.4301 -1.6666  0.9433
 5095SOL    HW226745   2.740   1.916  13.166  1.2293 -1.1638 -0.1078
 5096SOL     OW26746   3.169   1.436  15.179 -0.6239 -0.0634 -0.2420
 5096SOL    HW126747   3.117   1.387  15.242  0.0731 -0.8155 -0.2596
 5096SOL    HW226748   3.112   1.418  15.104  0.8376 -0.0439 -1.3491
 5097SOL     OW26749   4.206   1.933   6.076  0.5727 -0.3592 -1.2154
 5097SOL    HW126750   4.171   2.021   6.065  0.0809 -0.0184  3.1388
 5097SOL    HW226751   4.292   1.949   6.114 -0.4556 -0.1992  1.0356
 5098SOL     OW26752   1.854   3.943   6.807 -0.0173  0.2363 -0.6450
 5098SOL    HW126753   1.787   3.913   6.869 -0.3733  0.7522 -0.7740
 5098SOL    HW226754   1.922   3.876   6.807  0.3859  0.6441 -0.5591
 5099SOL     OW26755   3.410   4.025   2.328  0.1394  0.1482 -0.3460
 5099SOL    HW126756   3.402   4.010   2.422  2.4203  0.8340 -0.0481
 5099SOL    HW226757   3.378   4.115   2.323 -0.4909 -0.0129  1.0784
 5100SOL     OW26758   4.502   3.258   6.683  0.2772  0.2151 -0.2085
 5100SOL    HW126759   4.519   3.269   6.776  0.2127  1.1207 -0.2971
 5100SOL    HW226760   4.554   3.332   6.650  2.0036 -1.7139 -1.7924
 5101SOL     OW26761   3.569   1.622   6.221 -0.1862 -0.3439 -0.0349
 5101SOL    HW126762   3.534   1.566   6.151 -0.6500 -2.5064  1.9327
 5101SOL    HW226763   3.640   1.663   6.172  1.0414 -0.9718  1.2103
 5102SOL     OW26764   1.917   2.947   3.831  0.1872  0.0617  0.5018
 5102SOL    HW126765   1.874   2.904   3.757  0.4457  0.1018  0.3254
 5102SOL    HW226766   1.857   2.930   3.904  0.7936  1.2988  1.2900
 5103SOL     OW26767   1.305   1.782  16.518 -0.2201 -0.8279 -0.5384
 5103SOL    HW126768   1.232   1.752  16.571 -0.7093 -0.3589 -0.9438
 5103SOL    HW226769   1.344   1.842  16.581  0.6565  0.8778 -2.6810
 5104SOL     OW26770   3.723   2.401   7.103 -0.0428 -0.0366  0.1711
 5104SOL    HW126771   3.713   2.319   7.055 -1.3660 -1.3686  2.7175
 5104SOL    HW226772   3.644   2.450   7.081 -0.3149 -1.0607 -1.1421
 5105SOL     OW26773   0.175   0.104   5.862 -0.0392 -0.3441  0.1543
 5105SOL    HW126774   0.142   0.058   5.784  0.5430  1.2744 -1.0587
 5105SOL    HW226775   0.119   0.064   5.929 -0.7664 -1.2064 -0.9631
 5106SOL     OW26776   0.876   0.711   4.546 -0.3741  0.6343 -0.1667
 5106SOL    HW126777   0.882   0.791   4.494  3.3542  1.1825  1.0928
 5106SOL    HW226778   0.786   0.715   4.580 -1.0056  1.4429 -1.9465
 5107SOL     OW26779   4.700   1.553   3.382  0.0950  0.1398  0.2290
 5107SOL    HW126780   4.704   1.545   3.478 -0.3321 -1.6137  0.0859
 5107SOL    HW226781   0.010   1.641   3.361  1.4008  0.3420  3.0187
 5108SOL     OW26782   1.139   3.910  10.018  0.2925 -0.2201  0.1986
 5108SOL    HW126783   1.133   3.941  10.109  1.7102  0.8039 -0.0577
 5108SOL    HW226784   1.061   3.953   9.983 -0.7681 -1.5153  0.9636
 5109SOL     OW26785   2.156   2.961  12.395  0.8218  0.3341 -0.0667
 5109SOL    HW126786   2.137   2.970  12.302  1.2800 -2.0218 -0.3867
 5109SOL    HW226787   2.081   3.003  12.438  0.6062 -0.6979  0.5751
 5110SOL     OW26788   1.363   3.410   7.093  0.3986  0.7357 -0.1243
 5110SOL    HW126789   1.348   3.457   7.011 -1.4453 -0.0255 -0.2357
 5110SOL    HW226790   1.458   3.412   7.097  0.3587 -0.3884  1.5604
 5111SOL     OW26791   2.629   0.753   8.393 -0.7409 -0.3582  0.8298
 5111SOL    HW126792   2.618   0.673   8.341  1.1920  1.0311 -1.7412
 5111SOL    HW226793   2.583   0.816   8.337  2.8783  0.9982 -0.6216
 5112SOL     OW26794   0.087   4.677   6.862 -0.6970  0.1935 -0.2302
 5112SOL    HW126795   0.097   0.004   6.943  3.4174  0.1660 -0.6823
 5112SOL    HW226796   0.159   4.717   6.812 -2.2785  0.1240 -2.5240
 5113SOL     OW26797   3.738   0.002  10.406  0.1297 -0.1159  0.3414
 5113SOL    HW126798   3.649   4.704  10.436 -0.8557 -0.2613 -2.6007
 5113SOL    HW226799   3.741   4.679  10.321 -2.0425 -0.6130  0.5152
 5114SOL     OW26800   2.732   0.004   1.995 -0.4959 -0.3533 -0.1381
 5114SOL    HW126801   2.694   0.070   2.052 -0.2342 -1.5479  1.4089
 5114SOL    HW226802   2.811   4.700   2.042  0.9688  1.6432 -1.4604
 5115SOL     OW26803   3.102   4.342   2.581  0.1336 -0.2726 -0.1071
 5115SOL    HW126804   3.157   4.292   2.641  0.0776  0.1617  0.3108
 5115SOL    HW226805   3.017   4.336   2.623  0.6910  1.5239  1.3027
 5116SOL     OW26806   3.053   2.457   7.586  0.4746  0.0520  0.0941
 5116SOL    HW126807   3.094   2.432   7.668 -0.4005 -3.1080 -0.4266
 5116SOL    HW226808   3.093   2.544   7.582  1.5474 -0.4303  0.4118
 5117SOL     OW26809   3.193   4.225   6.559  0.2670  0.4303 -0.2533
 5117SOL    HW126810   3.184   4.284   6.633 -0.9397 -1.3037  0.9736
 5117SOL    HW226811   3.263   4.167   6.588  0.7281  0.4874 -1.2520
 5118SOL     OW26812   0.549   2.947   7.795  0.0785 -0.2387 -0.3304
 5118SOL    HW126813   0.502   3.021   7.756  0.8387  0.4583  0.0719
 5118SOL    HW226814   0.483   2.910   7.854  2.1958 -0.1850  2.0386
 5119SOL     OW26815   4.336   4.223   3.075  0.2923 -0.1855 -0.1405
 5119SOL    HW126816   4.301   4.150   3.025 -2.1297  1.2928 -0.5871
 5119SOL    HW226817   4.284   4.208   3.154  0.6777  0.4497  0.2353
 5120SOL     OW26818   4.364   4.560   8.667  0.6288  0.4193 -0.3559
 5120SOL    HW126819   4.369   4.535   8.574  1.2128 -1.8150  0.2676
 5120SOL    HW226820   4.401   4.477   8.699 -1.1880 -0.8607 -1.5455
 5121SOL     OW26821   3.010   1.332  16.230 -0.5848 -0.2105 -0.0962
 5121SOL    HW126822   2.954   1.256  16.216 -0.4193 -0.5083  0.8665
 5121SOL    HW226823   2.972   1.394  16.168  1.2938  2.2626  1.2349
 5122SOL     OW26824   1.131   0.973   9.210 -0.3809 -0.0667 -0.6485
 5122SOL    HW126825   1.190   0.976   9.285 -0.7177  1.2693 -0.4297
 5122SOL    HW226826   1.053   1.010   9.252  0.1902  0.5969 -0.1880
 5123SOL     OW26827   1.490   0.037   4.524 -0.1820  0.1421 -0.2291
 5123SOL    HW126828   1.397   0.062   4.528 -0.9648 -2.5127 -1.5102
 5123SOL    HW226829   1.492   4.678   4.474 -0.4985 -0.3491  0.5478
 5124SOL     OW26830   1.484   0.606   7.754  0.7022 -0.2936  0.9814
 5124SOL    HW126831   1.416   0.623   7.690  0.7896 -0.1496  0.9280
 5124SOL    HW226832   1.443   0.529   7.793 -0.5793  0.4211  1.0520
 5125SOL     OW26833   2.283   2.642   8.472  0.2695 -0.5628 -0.4868
 5125SOL    HW126834   2.276   2.547   8.482  0.5121 -0.4056  1.2693
 5125SOL    HW226835   2.200   2.667   8.514  0.2565 -1.5447  0.0833
 5126SOL     OW26836   1.417   0.256  13.774 -0.0240  0.2618  0.0293
 5126SOL    HW126837   1.506   0.291  13.778  0.1219  0.0597 -1.4412
 5126SOL    HW226838   1.439   0.190  13.840  2.8301  0.9050 -0.2799
 5127SOL     OW26839   1.104   2.552  10.764 -0.4287 -0.4011  0.1815
 5127SOL    HW126840   1.064   2.639  10.752  0.3355 -0.2121 -1.0213
 5127SOL    HW226841   1.029   2.493  10.757 -1.7673  1.4310 -1.3059
 5128SOL     OW26842   1.488   4.633  11.867  0.1105  0.3401  0.2563
 5128SOL    HW126843   1.579   4.660  11.853  0.1861  1.1129  2.3020
 5128SOL    HW226844   1.482   4.640  11.962  0.8568 -0.0948  0.3373
 5129SOL     OW26845   3.003   0.715   2.575  0.0088 -0.1837 -0.1534
 5129SOL    HW126846   3.082   0.769   2.581  0.4537 -0.7518 -0.9497
 5129SOL    HW226847   3.021   0.686   2.486 -0.3649  1.8517 -0.9059
 5130SOL     OW26848   0.823   0.757  11.381 -0.4932  0.1575  0.4834
 5130SOL    HW126849   0.772   0.804  11.446 -0.7000 -0.4630  0.7703
 5130SOL    HW226850   0.759   0.688  11.367 -0.1407 -0.0998  0.1168
 5131SOL     OW26851   1.625   3.671   8.843 -0.5002  0.0185  0.2915
 5131SOL    HW126852   1.624   3.591   8.896 -1.1408 -0.4028 -0.3616
 5131SOL    HW226853   1.676   3.729   8.900  0.5057 -0.7027  0.1135
 5132SOL     OW26854   0.178   1.101  10.676  0.2932 -0.0524 -0.7138
 5132SOL    HW126855   0.213   1.016  10.702  0.2938 -0.4742 -2.0918
 5132SOL    HW226856   0.173   1.091  10.581  0.4609 -1.8724 -0.5283
 5133SOL     OW26857   3.606   3.400   3.132 -0.2662 -0.2697  0.3544
 5133SOL    HW126858   3.533   3.455   3.105  2.9898  2.8254 -2.2461
 5133SOL    HW226859   3.667   3.473   3.143 -0.2472 -0.2061 -0.1324
 5134SOL     OW26860   1.958   0.730   5.013  0.2624 -0.3622  0.3694
 5134SOL    HW126861   1.890   0.665   5.028 -1.1862  0.8621 -0.9192
 5134SOL    HW226862   1.923   0.771   4.934  2.2235  0.5492 -0.0405
 5135SOL     OW26863   4.144   1.027   3.333 -0.2935 -0.1603  0.4619
 5135SOL    HW126864   4.234   1.006   3.357 -0.7902 -3.7123 -0.7584
 5135SOL    HW226865   4.130   1.112   3.374 -1.2448 -0.3386  0.5057
 5136SOL     OW26866   3.292   0.748  12.940 -0.4945  0.3682  0.0055
 5136SOL    HW126867   3.253   0.775  13.023 -1.2728 -0.3200 -0.1326
 5136SOL    HW226868   3.354   0.819  12.929 -1.6418  1.3144 -0.3281
 5137SOL     OW26869   0.143   1.634  12.405  0.1404  0.8853 -0.1982
 5137SOL    HW126870   0.109   1.712  12.361 -0.4688  1.4501  1.2430
 5137SOL    HW226871   0.124   1.661  12.495 -2.0950 -0.0345 -0.3916
 5138SOL     OW26872   3.132   2.263   6.872  0.6543  0.1746 -0.0715
 5138SOL    HW126873   3.041   2.292   6.863  0.8938  0.8905 -0.2283
 5138SOL    HW226874   3.180   2.345   6.856  0.3092  0.6224  1.1552
 5139SOL     OW26875   2.909   1.164   0.151  0.0210 -0.4443 -0.1133
 5139SOL    HW126876   2.834   1.171   0.211  2.6449  1.4589  2.9290
 5139SOL    HW226877   2.978   1.128   0.206 -0.7908 -2.0570 -0.1520
 5140SOL     OW26878   3.454   0.096  15.680 -0.0205 -0.1955 -0.1240
 5140SOL    HW126879   3.384   0.093  15.615  1.1351 -0.7136 -1.3419
 5140SOL    HW226880   3.485   0.185  15.664 -0.8715 -0.3951 -2.8724
 5141SOL     OW26881   2.014   1.421   2.554 -0.0535 -0.7055  0.0482
 5141SOL    HW126882   1.976   1.401   2.639  0.8309  0.5416  0.7390
 5141SOL    HW226883   1.942   1.476   2.521  0.4571 -0.0258  0.0591
 5142SOL     OW26884   3.870   4.456   6.865  0.5483 -0.3143  0.0361
 5142SOL    HW126885   3.846   4.369   6.834 -0.6634 -0.1513  0.5056
 5142SOL    HW226886   3.946   4.474   6.810  1.5016 -1.4541  0.9988
 5143SOL     OW26887   2.580   2.737   4.975  0.1195 -0.4053 -0.2012
 5143SOL    HW126888   2.618   2.683   5.044 -0.1448  0.3483  0.5398
 5143SOL    HW226889   2.486   2.739   4.994  0.7035  1.2347  2.5626
 5144SOL     OW26890   4.450   0.140   4.227  0.7833 -0.0370 -0.4763
 5144SOL    HW126891   4.529   0.192   4.212  1.3548 -0.5689  0.6496
 5144SOL    HW226892   4.404   0.196   4.290 -0.5727  0.1216 -1.6246
 5145SOL     OW26893   3.057   1.581   0.391  0.1550 -0.1828 -0.4921
 5145SOL    HW126894   3.077   1.496   0.351 -0.8645 -0.0595 -1.2740
 5145SOL    HW226895   3.136   1.620   0.427 -0.8817 -1.2891  2.9998
 5146SOL     OW26896   2.711   0.652   7.468  0.1074  0.1216 -0.4979
 5146SOL    HW126897   2.667   0.646   7.383 -1.0435 -2.4391  0.3086
 5146SOL    HW226898   2.638   0.655   7.530 -0.3128 -1.2495 -0.9314
 5147SOL     OW26899   2.907   2.932   2.890  0.2162  0.2152  0.5013
 5147SOL    HW126900   2.959   2.893   2.960  0.1208  0.2420  0.5871
 5147SOL    HW226901   2.860   3.000   2.938 -1.4744 -0.4291 -0.2456
 5148SOL     OW26902   1.437   3.515   5.087 -0.4515 -0.2341  0.0110
 5148SOL    HW126903   1.495   3.541   5.015  0.9287  1.6780  1.8072
 5148SOL    HW226904   1.409   3.432   5.049 -0.6926  0.6213 -1.7105
 5149SOL     OW26905   3.051   0.277  10.464  0.7589 -0.3847  0.2790
 5149SOL    HW126906   3.040   0.362  10.421  0.0559 -0.1373  0.9438
 5149SOL    HW226907   2.960   0.268  10.492 -0.1536 -0.6204 -2.7860
 5150SOL     OW26908   4.401   3.025  13.549  0.8103 -0.1212 -0.1108
 5150SOL    HW126909   4.432   3.072  13.627  1.1574 -1.0486  0.3120
 5150SOL    HW226910   4.387   2.941  13.594  0.3316 -0.3671 -0.7274
 5151SOL     OW26911   4.320   3.321  12.614  0.1272 -0.2622  0.1959
 5151SOL    HW126912   4.227   3.300  12.622 -0.4794  2.3730  0.2078
 5151SOL    HW226913   4.320   3.394  12.552  1.2696 -0.1381  0.3379
 5152SOL     OW26914   2.218   2.667   4.619  0.2428  0.0096 -0.0566
 5152SOL    HW126915   2.284   2.730   4.649  1.6902 -0.4443 -2.2889
 5152SOL    HW226916   2.154   2.666   4.691 -0.2426  1.7664 -0.4621
 5153SOL     OW26917   2.793   1.467   1.575  0.0335  0.4354 -0.4089
 5153SOL    HW126918   2.769   1.386   1.529  1.4413  0.0343 -0.4194
 5153SOL    HW226919   2.882   1.475   1.543 -0.4709  0.6946 -1.7668
 5154SOL     OW26920   0.522   3.389   7.058 -0.0392 -0.1272 -0.0458
 5154SOL    HW126921   0.586   3.342   7.004 -0.8631  0.0650 -1.1785
 5154SOL    HW226922   0.478   3.453   7.003  3.1685  0.7867 -1.5463
 5155SOL     OW26923   2.749   0.077   8.083  0.4266 -0.7280 -0.4818
 5155SOL    HW126924   2.830   0.028   8.076  0.8847  0.0321 -0.5461
 5155SOL    HW226925   2.681   0.019   8.048  0.5701 -1.0810 -0.1688
 5156SOL     OW26926   3.681   2.322   8.028  0.6797 -0.0117 -0.0539
 5156SOL    HW126927   3.714   2.272   7.953 -2.1003 -0.0258 -1.2787
 5156SOL    HW226928   3.727   2.405   8.016 -1.1023  0.9786  0.0729
 5157SOL     OW26929   1.929   2.404   9.416 -0.1318  0.2493 -0.5356
 5157SOL    HW126930   1.906   2.402   9.509 -0.6877 -2.6302 -0.7113
 5157SOL    HW226931   1.951   2.494   9.394  2.0949  0.1035  1.0168
 5158SOL     OW26932   0.543   2.114   7.942 -0.0430  0.1342  0.6244
 5158SOL    HW126933   0.572   2.037   7.990 -0.2912 -1.0251 -1.0651
 5158SOL    HW226934   0.561   2.186   8.002 -0.7327  1.1039 -0.3314
 5159SOL     OW26935   4.576   0.421   0.921 -0.3310 -0.2569  0.5412
 5159SOL    HW126936   4.622   0.476   0.984 -0.6912 -0.5304  1.0511
 5159SOL    HW226937   4.606   0.331   0.936  2.8328  0.8866  0.9673
 5160SOL     OW26938   0.206   1.336   7.328 -0.2583  0.3553  0.5548
 5160SOL    HW126939   0.248   1.352   7.413  0.7087 -1.7186  0.4678
 5160SOL    HW226940   0.250   1.398   7.270  1.0445 -0.5119  0.5946
 5161SOL     OW26941   2.537   2.072  11.071  0.1685  0.1734  0.5059
 5161SOL    HW126942   2.600   2.072  10.998 -0.4024  0.9295  0.0066
 5161SOL    HW226943   2.497   1.986  11.061  0.5497  0.1342 -0.7353
 5162SOL     OW26944   1.959   3.795  15.460 -0.2985 -0.5300  0.0295
 5162SOL    HW126945   1.958   3.803  15.365  1.2944 -3.8056 -0.2616
 5162SOL    HW226946   2.047   3.758  15.465 -0.9747 -2.1725 -0.2304
 5163SOL     OW26947   0.057   4.302   1.928 -0.1791 -0.2601 -0.1666
 5163SOL    HW126948   0.054   4.391   1.891  0.6861 -1.0033 -1.9909
 5163SOL    HW226949   0.002   4.308   2.006 -0.3268 -0.0553 -0.2859
 5164SOL     OW26950   2.578   3.393   4.417  0.2252 -0.2215  0.0605
 5164SOL    HW126951   2.649   3.447   4.450  1.1345  0.0985 -2.3976
 5164SOL    HW226952   2.525   3.462   4.377  2.0962  2.3513  2.0200
 5165SOL     OW26953   3.927   1.097   1.525 -0.3505 -0.0874 -0.4786
 5165SOL    HW126954   4.021   1.082   1.534 -0.0474  2.2177  0.1559
 5165SOL    HW226955   3.910   1.034   1.455 -1.3306 -1.5084  1.0171
 5166SOL     OW26956   0.972   4.344   9.901 -0.1440 -0.4813  0.3732
 5166SOL    HW126957   0.896   4.382   9.946 -1.7078 -0.3768 -2.4045
 5166SOL    HW226958   1.036   4.360   9.971 -0.3518 -2.7531  1.0893
 5167SOL     OW26959   3.340   1.344   3.886  0.2916 -0.7121  0.3771
 5167SOL    HW126960   3.264   1.318   3.939  0.2904  1.6103  1.5111
 5167SOL    HW226961   3.313   1.435   3.879  0.2503 -0.7771 -0.3089
 5168SOL     OW26962   3.486   1.977   2.262  0.5334  0.1645 -0.2387
 5168SOL    HW126963   3.459   2.057   2.306 -0.2432 -0.5762  0.6317
 5168SOL    HW226964   3.549   1.944   2.326 -0.4928  2.2158  1.8143
 5169SOL     OW26965   3.016   2.318   3.476 -0.0532  0.0509 -0.0316
 5169SOL    HW126966   2.953   2.247   3.481  0.5163 -0.5190 -0.8788
 5169SOL    HW226967   3.094   2.287   3.522  0.8450 -0.0933 -1.6433
 5170SOL     OW26968   3.107   1.676  12.458 -0.4850 -0.2728  0.3115
 5170SOL    HW126969   3.190   1.711  12.425 -1.0525  0.9388  0.1760
 5170SOL    HW226970   3.049   1.702  12.387 -1.8040 -1.4948  0.9436
 5171SOL     OW26971   3.849   1.244   8.407 -0.5385  0.1501 -0.6295
 5171SOL    HW126972   3.793   1.283   8.340 -1.7817  1.1665  1.0142
 5171SOL    HW226973   3.852   1.312   8.474 -2.3684 -1.3393  0.9714
 5172SOL     OW26974   3.913   1.885   0.451 -0.1968  0.2248 -0.1445
 5172SOL    HW126975   3.930   1.879   0.357 -0.7774 -2.2709 -0.0819
 5172SOL    HW226976   3.902   1.980   0.462 -0.3017  0.3393 -1.1859
 5173SOL     OW26977   4.213   0.016   4.173 -0.0348 -0.4718  0.0641
 5173SOL    HW126978   4.293   0.057   4.206 -1.4045  0.5469  2.0964
 5173SOL    HW226979   4.245   4.677   4.106  1.7060  0.4910  0.0130
 5174SOL     OW26980   4.323   2.299   6.232 -0.2183  0.1980 -0.5371
 5174SOL    HW126981   4.251   2.353   6.263  0.5821  1.5993 -1.1280
 5174SOL    HW226982   4.313   2.229   6.297  1.0103  0.6265  0.1201
 5175SOL     OW26983   0.589   0.946   2.738  0.5044  0.4625  0.3395
 5175SOL    HW126984   0.498   0.932   2.765  0.3540  0.5423 -0.1222
 5175SOL    HW226985   0.603   0.929   2.645  0.1212 -0.4453  0.4473
 5176SOL     OW26986   2.092   0.933   6.596 -0.5067  0.4280 -0.3072
 5176SOL    HW126987   2.137   0.931   6.512 -1.3297  1.1386 -0.7591
 5176SOL    HW226988   2.156   0.982   6.648 -0.2659 -0.4477  0.2268
 5177SOL     OW26989   3.629   0.919   3.354 -0.7019 -0.2866  0.0677
 5177SOL    HW126990   3.686   0.989   3.323 -1.2383  0.3853  0.5931
 5177SOL    HW226991   3.683   0.841   3.345  0.7140  0.6831  0.2036
 5178SOL     OW26992   3.960   2.816   4.020 -0.2095  0.3650  0.1968
 5178SOL    HW126993   3.993   2.735   4.060 -0.7901 -0.7253 -1.5467
 5178SOL    HW226994   3.988   2.812   3.928  1.0450  0.7763  0.5532
 5179SOL     OW26995   0.696   1.155   6.941 -0.0203 -0.2887 -0.0040
 5179SOL    HW126996   0.775   1.201   6.970  0.7478 -0.8267 -1.2568
 5179SOL    HW226997   0.622   1.208   6.972  0.2608  1.0268 -1.5841
 5180SOL     OW26998   4.536   2.865  12.484  0.2282  0.3492 -0.3845
 5180SOL    HW126999   4.558   2.917  12.407 -0.9523 -1.2948 -1.8381
 5180SOL    HW227000   4.622   2.874  12.524  0.9797 -3.1007 -1.2335
 5181SOL     OW27001   2.877   2.066   7.560  0.7475 -0.1562 -0.5682
 5181SOL    HW127002   2.939   2.091   7.491 -1.9130  0.4746 -2.7325
 5181SOL    HW227003   2.843   2.149   7.592  0.1550 -0.1654 -1.1793
 5182SOL     OW27004   4.294   4.161  12.065 -0.2345  0.3127 -0.3054
 5182SOL    HW127005   4.388   4.167  12.049 -0.4585 -1.9535 -2.4978
 5182SOL    HW227006   4.283   4.092  12.130 -0.1818 -1.1394 -1.8385
 5183SOL     OW27007   2.172   2.542   1.746  0.4533  0.2249  0.6347
 5183SOL    HW127008   2.252   2.559   1.696 -0.3495  0.5122 -0.5465
 5183SOL    HW227009   2.134   2.629   1.757  3.5065  1.6009  0.2214
 5184SOL     OW27010   0.654   0.046   2.096 -0.2498  0.3662  0.2773
 5184SOL    HW127011   0.683   0.026   2.007  1.0647  2.4997  0.2140
 5184SOL    HW227012   0.693   4.693   2.140 -0.3307 -0.5101 -1.1461
 5185SOL     OW27013   0.234   1.077   4.894  0.3780  0.1173  0.0790
 5185SOL    HW127014   0.163   1.078   4.958 -0.4420 -1.0097 -0.8150
 5185SOL    HW227015   0.185   1.084   4.812 -0.2087 -0.9453  0.3437
 5186SOL     OW27016   0.251   2.575   3.264  0.1501  0.5767 -0.2838
 5186SOL    HW127017   0.314   2.645   3.246  1.6622 -1.3249 -2.3273
 5186SOL    HW227018   0.309   2.516   3.311  0.2917  1.5823  0.8130
 5187SOL     OW27019   3.709   2.742   4.385  0.1002 -0.3733  0.1424
 5187SOL    HW127020   3.707   2.804   4.312 -2.5593 -0.9410 -0.2641
 5187SOL    HW227021   3.618   2.751   4.412 -0.2286  2.7394 -2.0549
 5188SOL     OW27022   1.902   1.110   6.833 -0.0717  0.3591  0.0444
 5188SOL    HW127023   1.910   1.147   6.745 -0.6291  1.0544  0.2869
 5188SOL    HW227024   1.846   1.037   6.808  2.3547 -1.3337 -0.4207
 5189SOL     OW27025   1.652   1.811  13.498 -0.0090  0.4609  0.0914
 5189SOL    HW127026   1.731   1.769  13.531 -0.3456  0.0972  0.4452
 5189SOL    HW227027   1.582   1.787  13.559 -2.2538  0.2345 -2.5651
 5190SOL     OW27028   3.069   3.353   0.031  0.5357  0.2660  0.3593
 5190SOL    HW127029   3.087   3.447   0.024 -2.2426  0.9144  1.9264
 5190SOL    HW227030   3.106   3.333   0.117  0.1617 -0.9136  0.2341
 5191SOL     OW27031   3.423   3.779   3.706 -0.2645 -0.4528  0.1071
 5191SOL    HW127032   3.507   3.802   3.666 -0.6163  0.8081  0.1066
 5191SOL    HW227033   3.384   3.749   3.624  3.4032  1.8600 -2.4821
 5192SOL     OW27034   4.538   3.468   5.467 -0.5125  0.4494  0.1892
 5192SOL    HW127035   4.573   3.496   5.552  1.5623  0.4130 -0.6728
 5192SOL    HW227036   4.584   3.520   5.401 -1.5266  1.9854  0.6809
 5193SOL     OW27037   0.351   2.969   6.607 -0.4168  0.2739 -0.2698
 5193SOL    HW127038   0.368   3.062   6.620 -0.8295  0.0626  1.6787
 5193SOL    HW227039   0.363   2.941   6.698  1.9406  1.3425 -0.2444
 5194SOL     OW27040   0.319   2.184   3.968 -0.1650  0.2601 -0.0058
 5194SOL    HW127041   0.261   2.239   4.021 -0.4043  1.0690 -1.1115
 5194SOL    HW227042   0.357   2.133   4.040  0.4809  1.6641  0.6365
 5195SOL     OW27043   3.126   2.180   5.430  0.0619 -0.4896 -0.0591
 5195SOL    HW127044   3.087   2.109   5.481 -2.4076  0.8109 -0.1233
 5195SOL    HW227045   3.066   2.200   5.358 -1.7923 -1.1421  1.3222
 5196SOL     OW27046   0.944   2.954   5.613 -0.6296  0.3488 -0.3732
 5196SOL    HW127047   0.864   2.969   5.562 -1.4798 -1.4510  0.4528
 5196SOL    HW227048   0.996   3.035   5.611  1.6526 -1.1053 -0.1554
 5197SOL     OW27049   3.213   2.536   9.491  0.4606 -0.0756 -0.1151
 5197SOL    HW127050   3.235   2.621   9.530  2.7456 -0.9208  0.4304
 5197SOL    HW227051   3.128   2.523   9.533  0.0431  1.8404 -0.3579
 5198SOL     OW27052   0.623   0.606   9.235 -0.0035 -0.3666 -0.3505
 5198SOL    HW127053   0.675   0.684   9.217  0.7466 -0.5725  0.9542
 5198SOL    HW227054   0.559   0.640   9.298 -0.2012  0.1291 -0.8197
 5199SOL     OW27055   2.964   3.562   4.994 -0.0709  0.1968 -0.3345
 5199SOL    HW127056   2.870   3.565   4.977  0.3551  0.3780 -2.6052
 5199SOL    HW227057   2.997   3.634   4.941 -0.1909 -0.1591 -0.8964
 5200SOL     OW27058   1.665   1.480  10.214  0.4125 -0.3691 -0.7221
 5200SOL    HW127059   1.751   1.494  10.254 -0.9649  2.2851  1.3150
 5200SOL    HW227060   1.652   1.385  10.209  1.7036 -0.6649  1.2743
 5201SOL     OW27061   1.202   1.408  10.594  0.0162 -0.9355  0.1108
 5201SOL    HW127062   1.127   1.468  10.597 -0.6698 -1.5114 -4.9172
 5201SOL    HW227063   1.270   1.463  10.634 -1.3206  1.7173 -1.2391
 5202SOL     OW27064   3.127   4.115   5.261  0.3681 -0.6997 -0.4263
 5202SOL    HW127065   3.031   4.120   5.265  0.4750  1.1214  0.1597
 5202SOL    HW227066   3.130   4.066   5.178 -2.2808 -0.3710 -0.7317
 5203SOL     OW27067   2.838   2.104   9.201  0.1324  0.7662  0.0410
 5203SOL    HW127068   2.888   2.138   9.275  0.1603 -0.8354  0.7542
 5203SOL    HW227069   2.835   2.190   9.159 -0.1387 -0.0570 -1.6257
 5204SOL     OW27070   2.593   1.941  14.197 -0.2909  0.1075  0.0950
 5204SOL    HW127071   2.627   2.004  14.134 -2.4510  2.4495  1.2546
 5204SOL    HW227072   2.661   1.874  14.186 -2.0207 -2.0519  2.6267
 5205SOL     OW27073   0.112   2.823   7.108 -0.2280 -0.0143  0.1713
 5205SOL    HW127074   0.196   2.831   7.153 -0.2980 -3.8820  0.8974
 5205SOL    HW227075   0.131   2.832   7.014  0.9921 -3.2686  0.1112
 5206SOL     OW27076   3.065   3.425   6.599  0.3595 -0.7530  0.0581
 5206SOL    HW127077   2.993   3.484   6.576  0.6306  0.0088  1.1637
 5206SOL    HW227078   3.125   3.450   6.529  0.3631 -1.8065 -0.3063
 5207SOL     OW27079   2.322   3.255   6.046  0.7673 -0.0599  0.2288
 5207SOL    HW127080   2.300   3.309   5.970 -1.7776  1.4547  1.9995
 5207SOL    HW227081   2.261   3.280   6.117 -1.4463 -4.4026 -0.1377
 5208SOL     OW27082   3.751   1.303   0.560  0.0063 -0.2943 -0.7263
 5208SOL    HW127083   3.662   1.285   0.588  0.2351 -0.5215 -0.1369
 5208SOL    HW227084   3.742   1.382   0.507  1.2337 -0.1025 -0.6639
 5209SOL     OW27085   4.589   2.174   6.373 -0.0784 -0.1320  0.3187
 5209SOL    HW127086   4.532   2.103   6.400  1.1099 -1.4215 -0.5872
 5209SOL    HW227087   4.610   2.217   6.456  0.7701  0.2686 -0.0981
 5210SOL     OW27088   3.375   2.451  13.558 -0.0024  0.4317 -0.1157
 5210SOL    HW127089   3.355   2.531  13.607  0.3944  1.2889 -1.3572
 5210SOL    HW227090   3.307   2.397  13.600 -0.9703  0.3116 -1.8116
 5211SOL     OW27091   2.942   0.482   7.488 -0.1234 -0.4060  0.3324
 5211SOL    HW127092   2.869   0.539   7.464 -0.8354 -0.8384  1.5011
 5211SOL    HW227093   2.903   0.429   7.558 -1.1041 -0.1148  0.0142
 5212SOL     OW27094   0.320   3.687   3.538 -0.0294  0.2710 -0.3437
 5212SOL    HW127095   0.319   3.603   3.584  0.0970  0.2638 -0.3523
 5212SOL    HW227096   0.260   3.678   3.464  0.2278 -1.4290 -0.3518
 5213SOL     OW27097   1.868   2.084   5.884  0.0474  0.1848  0.5846
 5213SOL    HW127098   1.827   2.058   5.966  0.8999 -1.7783  0.3826
 5213SOL    HW227099   1.804   2.137   5.836 -0.0636 -0.4385  0.0393
 5214SOL     OW27100   0.483   1.701   2.968  0.0186  0.0275 -0.0828
 5214SOL    HW127101   0.496   1.656   2.884 -0.9979 -0.4603  0.0215
 5214SOL    HW227102   0.562   1.754   2.976  0.4701 -0.7484  0.6052
 5215SOL     OW27103   1.276   1.474   6.975  0.1293 -0.2056 -0.1835
 5215SOL    HW127104   1.264   1.532   7.050 -2.2413  0.0709 -0.7748
 5215SOL    HW227105   1.229   1.527   6.911 -0.3302 -2.6081 -1.8557
 5216SOL     OW27106   1.438   1.862   3.026 -0.7989 -0.3567 -0.1518
 5216SOL    HW127107   1.505   1.820   3.081 -0.6915 -1.5941 -1.2159
 5216SOL    HW227108   1.473   1.951   3.025  0.2578 -0.7664  0.2794
 5217SOL     OW27109   3.416   1.355  13.916  0.3886  0.0971  0.2166
 5217SOL    HW127110   3.372   1.440  13.918 -0.8704 -0.5735  1.1501
 5217SOL    HW227111   3.478   1.367  13.845  0.0376 -1.3338 -0.3391
 5218SOL     OW27112   0.278   2.200  12.511 -0.7912 -0.0557 -0.1186
 5218SOL    HW127113   0.205   2.252  12.478 -0.0927  1.2769  0.4383
 5218SOL    HW227114   0.284   2.237  12.599 -1.5806 -2.1243  0.8050
 5219SOL     OW27115   3.177   2.477  16.041 -0.2884 -0.2323  0.1118
 5219SOL    HW127116   3.201   2.525  15.961  1.7218  2.8989  2.5803
 5219SOL    HW227117   3.109   2.419  16.006 -2.7673  1.4442  2.1928
 5220SOL     OW27118   1.563   2.291   9.357 -0.2308 -0.2588 -0.8610
 5220SOL    HW127119   1.544   2.372   9.310 -2.8028 -1.1604 -1.4004
 5220SOL    HW227120   1.643   2.260   9.316 -1.2499 -0.7322 -2.4840
 5221SOL     OW27121   1.718   1.584   1.472 -0.1165 -0.2586 -0.1456
 5221SOL    HW127122   1.750   1.510   1.420  1.0144  1.5057 -1.9343
 5221SOL    HW227123   1.624   1.569   1.463 -0.2519  0.8788 -0.5952
 5222SOL     OW27124   2.492   4.621   0.256  0.1497  0.2678  0.3288
 5222SOL    HW127125   2.462   4.649   0.343  0.9165 -0.1576  0.7375
 5222SOL    HW227126   2.407   4.616   0.213 -0.0953 -1.3874  0.9849
 5223SOL     OW27127   1.591   1.360   8.753 -0.0027  0.8702 -0.8299
 5223SOL    HW127128   1.519   1.302   8.775  1.4751 -1.8130 -3.0317
 5223SOL    HW227129   1.613   1.327   8.665  0.3922 -0.5908 -0.1922
 5224SOL     OW27130   4.033   1.043  16.157 -0.3189 -0.1902 -0.3546
 5224SOL    HW127131   4.001   1.127  16.125  0.2028  0.6099  1.2278
 5224SOL    HW227132   4.126   1.064  16.156 -0.5577  0.9118  0.2921
 5225SOL     OW27133   2.910   1.695   6.939  0.0676 -0.1060 -0.5859
 5225SOL    HW127134   2.998   1.690   6.900  0.0721  1.8606 -0.8508
 5225SOL    HW227135   2.890   1.789   6.937 -0.4545 -0.1562  1.5434
 5226SOL     OW27136   1.870   0.600   3.197  0.0457  0.0482 -0.3358
 5226SOL    HW127137   1.856   0.630   3.107  0.2158  1.3902  0.0892
 5226SOL    HW227138   1.781   0.579   3.227  0.2604  1.5278  1.2889
 5227SOL     OW27139   3.629   0.054   6.642 -0.0859  0.5139 -0.1770
 5227SOL    HW127140   3.635   4.715   6.715  2.2502 -0.2486 -1.0212
 5227SOL    HW227141   3.540   0.086   6.658 -0.4698 -1.0784  0.8961
 5228SOL     OW27142   1.744   0.870   9.274 -0.5966 -0.0947  0.2189
 5228SOL    HW127143   1.832   0.841   9.297 -0.8886  0.8883  2.6578
 5228SOL    HW227144   1.734   0.954   9.319  0.7058  0.4285 -0.4730
 5229SOL     OW27145   1.235   2.008   3.632  0.5550  0.0815 -0.6207
 5229SOL    HW127146   1.158   1.996   3.576  2.0810 -0.8707 -2.5173
 5229SOL    HW227147   1.298   1.951   3.589  0.1404 -0.5011 -0.4500
 5230SOL     OW27148   4.029   2.940   4.265 -0.1399 -0.4629  0.9314
 5230SOL    HW127149   4.000   2.897   4.184  1.9115 -2.8055  1.4496
 5230SOL    HW227150   4.032   3.033   4.242 -0.0263 -0.6506  0.1950
 5231SOL     OW27151   2.500   0.695   4.931 -0.0222 -0.3248  0.4108
 5231SOL    HW127152   2.531   0.608   4.905  0.7312  0.2841 -0.7290
 5231SOL    HW227153   2.408   0.687   4.955  0.0155  1.0649  1.0385
 5232SOL     OW27154   4.308   3.305  17.431  0.1652 -0.2423  0.6838
 5232SOL    HW127155   4.254   3.383  17.422  0.2816 -0.2598 -0.2227
 5232SOL    HW227156   4.321   3.282  17.339  0.1922  1.1278  0.3466
 5233SOL     OW27157   0.012   0.766   5.080 -0.2216 -0.2129 -0.1203
 5233SOL    HW127158   0.044   0.856   5.081  3.2899 -1.4352 -0.4761
 5233SOL    HW227159   4.695   0.756   5.167  0.0739  0.6206  0.1103
 5234SOL     OW27160   3.281   3.959   5.506  0.4850  0.7879  0.4928
 5234SOL    HW127161   3.270   3.973   5.601 -0.2494  2.2781  0.1846
 5234SOL    HW227162   3.205   4.006   5.470  1.8412  1.1620 -1.8311
 5235SOL     OW27163   1.497   2.291   3.884  0.3878 -0.1098  0.5345
 5235SOL    HW127164   1.542   2.210   3.905 -0.8746 -0.9769 -0.0970
 5235SOL    HW227165   1.570   2.350   3.902  0.3844  0.4166 -1.1780
 5236SOL     OW27166   3.368   0.778  17.421 -0.2600 -0.5214 -0.2108
 5236SOL    HW127167   3.295   0.834  17.391  0.5577  1.0162  0.6816
 5236SOL    HW227168   3.408   0.740  17.343  1.2514 -1.8323  1.2318
 5237SOL     OW27169   2.601   3.231   8.665 -0.2277  0.7936  0.6184
 5237SOL    HW127170   2.577   3.143   8.638  1.9799  0.0666  1.0289
 5237SOL    HW227171   2.512   3.267   8.670 -0.6297 -0.0416 -0.5659
 5238SOL     OW27172   1.839   2.160  14.383 -0.6773  0.4014  0.6153
 5238SOL    HW127173   1.890   2.238  14.362 -0.6549  0.2846  0.2349
 5238SOL    HW227174   1.905   2.094  14.360 -0.8246  0.1251  0.9725
 5239SOL     OW27175   1.143   0.675   5.360  0.4239  0.2488 -0.3791
 5239SOL    HW127176   1.193   0.748   5.324  1.0472  0.1568  0.3081
 5239SOL    HW227177   1.065   0.726   5.383 -1.0347 -3.1323  2.1336
 5240SOL     OW27178   0.292   0.329   4.173 -0.0202  0.0901 -0.0014
 5240SOL    HW127179   0.261   0.272   4.102 -0.2946  1.5988 -1.0833
 5240SOL    HW227180   0.380   0.295   4.186  0.3298  0.6916 -0.7974
 5241SOL     OW27181   4.099   2.697  15.805  0.2805 -0.0826  0.3204
 5241SOL    HW127182   4.177   2.722  15.756 -0.5746 -1.1618 -1.6299
 5241SOL    HW227183   4.028   2.727  15.748  1.4636 -0.0668 -1.1593
 5242SOL     OW27184   4.721   3.054   6.991  0.1503  0.1853 -0.7856
 5242SOL    HW127185   4.653   2.990   7.011 -0.9054  1.1266 -1.3519
 5242SOL    HW227186   4.671   3.133   6.970 -0.5085 -0.4335 -1.5269
 5243SOL     OW27187   1.239   2.273   7.277 -0.0438 -1.0474 -0.1321
 5243SOL    HW127188   1.228   2.207   7.208  0.0031 -1.2365  0.0425
 5243SOL    HW227189   1.152   2.311   7.290 -0.5625 -1.8387 -1.2920
 5244SOL     OW27190   0.048   1.113  14.503 -0.0743 -0.3713  0.2541
 5244SOL    HW127191   4.699   1.140  14.446  0.3113  2.0038  0.9088
 5244SOL    HW227192   0.027   1.161  14.583 -2.4739 -0.8916 -0.0552
 5245SOL     OW27193   2.932   4.508  17.075 -0.1225  0.1752  0.2289
 5245SOL    HW127194   2.939   4.422  17.034 -2.0875 -0.1774  0.6753
 5245SOL    HW227195   2.847   4.536  17.042 -0.3414 -0.4875  0.2384
 5246SOL     OW27196   1.125   3.515   2.045  0.2001 -0.3861  0.7430
 5246SOL    HW127197   1.143   3.477   1.960  1.1195  2.1086 -0.1682
 5246SOL    HW227198   1.079   3.598   2.030 -0.8834 -1.4929 -1.9924
 5247SOL     OW27199   4.167   3.589   6.806  0.3767  0.1532 -0.1603
 5247SOL    HW127200   4.193   3.526   6.739  1.2853  0.1654  0.1799
 5247SOL    HW227201   4.248   3.637   6.819  0.0271  1.3007 -2.3332
 5248SOL     OW27202   4.073   4.450   4.219 -0.4151 -0.0934 -0.6004
 5248SOL    HW127203   4.003   4.495   4.266 -1.4285 -1.5616 -0.6922
 5248SOL    HW227204   4.129   4.517   4.180  0.0029 -0.6948 -1.0572
 5249SOL     OW27205   3.325   4.606   7.042  0.2179  0.2436  0.3413
 5249SOL    HW127206   3.389   4.535   7.033  0.5991  0.6649 -0.2800
 5249SOL    HW227207   3.269   4.576   7.113 -0.3616 -1.1060 -0.6771
 5250SOL     OW27208   4.246   2.431   0.245 -0.1234  0.3845 -0.6223
 5250SOL    HW127209   4.298   2.511   0.242 -0.7776  0.9172  1.7833
 5250SOL    HW227210   4.307   2.372   0.202 -0.3799 -1.1952  1.1554
 5251SOL     OW27211   4.681   1.238   3.806  0.2348  0.3459 -0.1720
 5251SOL    HW127212   4.655   1.151   3.776  0.3634 -0.1430  1.1477
 5251SOL    HW227213   4.597   1.254   3.848 -0.0360  2.1489 -1.3919
 5252SOL     OW27214   2.127   4.589   6.820 -0.3344 -0.1796  0.1335
 5252SOL    HW127215   2.117   4.664   6.762 -2.7548  1.0213  2.0845
 5252SOL    HW227216   2.209   4.604   6.866 -0.2533  0.4724 -0.2327
 5253SOL     OW27217   2.937   2.653   1.562  0.4176  0.6063  0.2554
 5253SOL    HW127218   2.992   2.642   1.485  0.4642  3.0507 -0.0482
 5253SOL    HW227219   2.940   2.747   1.579 -2.6570  0.7134  0.1757
 5254SOL     OW27220   1.200   3.868  13.125 -0.6964  0.6198 -0.5338
 5254SOL    HW127221   1.227   3.813  13.052  2.4860  0.7620  0.5020
 5254SOL    HW227222   1.183   3.805  13.196 -0.1364 -0.1015 -1.0396
 5255SOL     OW27223   1.184   2.750   6.571  0.3707  0.1430 -0.0451
 5255SOL    HW127224   1.155   2.819   6.630 -2.1758 -0.8884 -0.0780
 5255SOL    HW227225   1.269   2.787   6.548  0.4830  0.9520  1.6901
 5256SOL     OW27226   0.567   1.579   4.906  0.1130 -0.8149 -0.7506
 5256SOL    HW127227   0.650   1.532   4.894  1.5304  1.2892  0.8897
 5256SOL    HW227228   0.509   1.523   4.854 -1.2747 -0.4596  0.4195
 5257SOL     OW27229   2.053   1.436  15.088  0.4699  0.0529  0.2526
 5257SOL    HW127230   2.118   1.506  15.081 -1.1100  1.7858  2.8087
 5257SOL    HW227231   2.117   1.365  15.096  0.9253  0.2343 -1.8269
 5258SOL     OW27232   2.671   4.450   7.868  0.1999  0.4213  0.1957
 5258SOL    HW127233   2.591   4.501   7.865 -0.9281 -1.2888  1.0070
 5258SOL    HW227234   2.634   4.366   7.841 -1.7988  0.6450  2.1840
 5259SOL     OW27235   4.462   0.601   9.214 -0.4967 -0.2080 -0.1771
 5259SOL    HW127236   4.540   0.591   9.268  2.5169  0.9379 -4.2560
 5259SOL    HW227237   4.447   0.696   9.219 -1.6365 -0.6291  3.9663
 5260SOL     OW27238   2.500   4.024   8.723 -0.1628 -0.3160 -0.0509
 5260SOL    HW127239   2.483   3.932   8.746 -0.1589 -0.1703  0.5279
 5260SOL    HW227240   2.429   4.032   8.660  0.3526  1.9353 -0.3250
 5261SOL     OW27241   2.934   3.693   6.259  0.6106  0.1687 -0.6922
 5261SOL    HW127242   2.849   3.724   6.292  0.3230  2.9111 -4.0039
 5261SOL    HW227243   2.959   3.777   6.221  0.4694  0.8027  0.6499
 5262SOL     OW27244   2.962   3.485  10.779 -0.3738 -0.0648  0.2152
 5262SOL    HW127245   2.879   3.457  10.741  0.5094  0.2635 -1.9470
 5262SOL    HW227246   2.998   3.400  10.803  0.1064 -0.5317 -2.1431
 5263SOL     OW27247   2.253   3.624   7.475  0.2405  0.0952  0.4853
 5263SOL    HW127248   2.306   3.544   7.472 -0.7224 -0.6184  2.4135
 5263SOL    HW227249   2.296   3.666   7.549  1.0801 -0.1912  0.1553
 5264SOL     OW27250   4.680   1.722   5.139  0.0333  0.5184 -0.1430
 5264SOL    HW127251   4.705   1.646   5.192 -0.5878 -0.3068 -1.0362
 5264SOL    HW227252   0.016   1.790   5.173 -2.0613  2.8060 -1.1366
 5265SOL     OW27253   0.105   4.122   7.775  0.2656  0.3952  0.4516
 5265SOL    HW127254   0.062   4.080   7.849  2.2263 -0.8136  0.9054
 5265SOL    HW227255   0.195   4.112   7.807  0.4101  1.0634  0.2592
 5266SOL     OW27256   2.779   2.252   2.260  0.4143 -0.0199  0.0332
 5266SOL    HW127257   2.780   2.347   2.266 -1.0820 -0.0496  0.8384
 5266SOL    HW227258   2.808   2.239   2.170 -1.2749  1.8291 -0.7738
 5267SOL     OW27259   2.696   1.563   2.672 -0.1232 -0.1940 -0.2691
 5267SOL    HW127260   2.749   1.633   2.709  0.3933 -0.9746  0.4729
 5267SOL    HW227261   2.764   1.539   2.608  0.1107 -3.7873  1.3370
 5268SOL     OW27262   0.410   0.470  13.709 -0.0014 -0.1239 -0.2513
 5268SOL    HW127263   0.505   0.459  13.694 -0.1366  0.2959 -1.4073
 5268SOL    HW227264   0.383   0.382  13.683  0.3329 -0.0980 -0.7012
 5269SOL     OW27265   2.464   1.139  13.136 -0.2843 -0.8257  0.4126
 5269SOL    HW127266   2.483   1.190  13.214  0.0968  0.0936 -0.2875
 5269SOL    HW227267   2.542   1.086  13.124 -0.7298 -1.3856 -0.0152
 5270SOL     OW27268   3.080   1.275  11.817 -0.3135 -0.0362 -0.3171
 5270SOL    HW127269   3.043   1.338  11.879 -1.2442 -0.2740 -0.6362
 5270SOL    HW227270   3.147   1.321  11.765 -0.4154  0.3967 -0.0690
 5271SOL     OW27271   1.428   0.796   6.154  0.1124  0.2740 -0.7258
 5271SOL    HW127272   1.512   0.828   6.185 -0.5400  1.4926 -0.2044
 5271SOL    HW227273   1.422   0.850   6.075  0.3488  0.1519 -0.8254
 5272SOL     OW27274   2.910   1.071  16.233 -0.0296  0.6210  0.1166
 5272SOL    HW127275   2.972   1.011  16.276  1.7589  2.5949  0.2868
 5272SOL    HW227276   2.834   1.017  16.252  1.8824 -2.5083 -1.0256
 5273SOL     OW27277   0.415   2.733   3.701 -0.2067 -0.2717  0.0774
 5273SOL    HW127278   0.366   2.651   3.697 -1.2438  0.2958  1.0657
 5273SOL    HW227279   0.433   2.726   3.795 -2.8643 -0.1100  0.5788
 5274SOL     OW27280   0.189   2.997  17.110 -0.1998 -0.2480 -0.0397
 5274SOL    HW127281   0.271   2.953  17.089 -1.3741 -2.5801  0.2297
 5274SOL    HW227282   0.217   3.080  17.148  0.9405  0.1567 -1.7522
 5275SOL     OW27283   4.711   4.258   3.689 -0.1662 -0.7119  0.3503
 5275SOL    HW127284   0.023   4.185   3.638  2.3819  0.4146  0.4606
 5275SOL    HW227285   0.007   4.317   3.616 -0.5594 -0.9283  0.0797
 5276SOL     OW27286   2.142   1.632   0.183  0.0630 -0.1898 -0.3542
 5276SOL    HW127287   2.141   1.705   0.121 -0.3308  0.4443  0.3929
 5276SOL    HW227288   2.116   1.564   0.122 -0.1620  1.0392 -1.6293
 5277SOL     OW27289   3.229   4.686  12.126 -0.4010 -0.3565  0.0798
 5277SOL    HW127290   3.242   0.058  12.136  1.9044 -0.5023 -1.5719
 5277SOL    HW227291   3.236   4.652  12.215  0.6556  1.9581  0.8779
 5278SOL     OW27292   0.692   1.926  10.735  0.1807 -0.9638 -0.0880
 5278SOL    HW127293   0.736   1.995  10.784  0.4810 -0.7924 -0.5981
 5278SOL    HW227294   0.754   1.906  10.665 -0.0918  0.1396 -0.6543
 5279SOL     OW27295   1.198   4.176   4.648  0.1995 -0.0367  0.5861
 5279SOL    HW127296   1.271   4.116   4.636  0.4515  0.7882 -2.1196
 5279SOL    HW227297   1.153   4.143   4.725 -0.0435  0.7971  0.8043
 5280SOL     OW27298   3.633   1.536   4.318  0.1846 -0.4021  0.4995
 5280SOL    HW127299   3.713   1.589   4.322 -1.4384  2.0784  0.3800
 5280SOL    HW227300   3.670   1.450   4.300 -1.6783 -0.9948 -0.4325
 5281SOL     OW27301   2.650   4.614   5.204 -0.1487 -0.5050 -0.3375
 5281SOL    HW127302   2.666   4.547   5.270 -1.1732 -2.1151 -1.7501
 5281SOL    HW227303   2.732   4.663   5.193 -1.0510  0.9380 -0.7319
 5282SOL     OW27304   1.432   1.351  15.167 -0.2818  0.0028  0.3928
 5282SOL    HW127305   1.370   1.286  15.201  1.3204 -1.2893  0.8669
 5282SOL    HW227306   1.387   1.429  15.201 -1.0103 -0.2218 -0.0580
 5283SOL     OW27307   4.414   3.071   6.499 -0.5931 -0.7675 -0.1075
 5283SOL    HW127308   4.362   3.011   6.552 -0.7024 -0.7782 -0.2273
 5283SOL    HW227309   4.438   3.137   6.564  1.5911 -1.7952  0.0946
 5284SOL     OW27310   3.777   4.311  14.389 -0.4579  0.1533  0.3597
 5284SOL    HW127311   3.866   4.276  14.378 -1.0476 -1.5428  0.9351
 5284SOL    HW227312   3.716   4.238  14.388 -0.9675  0.5846  0.3370
 5285SOL     OW27313   1.668   2.639   9.321 -0.4782  0.3656 -0.3638
 5285SOL    HW127314   1.650   2.575   9.253  0.0264 -0.1316 -0.0322
 5285SOL    HW227315   1.590   2.694   9.317 -3.1748 -3.4256  0.8008
 5286SOL     OW27316   2.441   1.154   9.691  0.1936 -0.5201  0.3749
 5286SOL    HW127317   2.451   1.103   9.772  0.1974  0.3157  0.8946
 5286SOL    HW227318   2.533   1.181   9.691  0.5128 -1.6058 -0.9027
 5287SOL     OW27319   0.887   3.708   2.742  0.3634 -0.5813  0.4999
 5287SOL    HW127320   0.947   3.674   2.808 -0.0837  1.2587  1.8440
 5287SOL    HW227321   0.819   3.746   2.798 -0.2024  0.0398 -0.6068
 5288SOL     OW27322   3.252   0.811   2.630 -0.0847  0.4946  0.8550
 5288SOL    HW127323   3.281   0.843   2.716  0.4097 -2.0348  1.6403
 5288SOL    HW227324   3.322   0.756   2.595 -0.4535  0.1311  0.7016
 5289SOL     OW27325   3.763   1.788   3.835 -0.0809  0.1111  0.1069
 5289SOL    HW127326   3.855   1.761   3.835  0.2906  1.4143  2.0349
 5289SOL    HW227327   3.724   1.747   3.758  0.4401 -2.2768  1.1078
 5290SOL     OW27328   1.137   1.770   2.599  0.3325 -0.0091 -0.1465
 5290SOL    HW127329   1.093   1.719   2.667 -1.7614 -0.2216 -1.6689
 5290SOL    HW227330   1.096   1.724   2.526 -0.0205  0.1379 -0.0393
 5291SOL     OW27331   3.476   3.824   3.970  0.7767 -0.0151  0.5200
 5291SOL    HW127332   3.483   3.797   3.879 -2.4286  0.1076  0.2384
 5291SOL    HW227333   3.505   3.740   4.006 -1.1226 -1.0964 -0.5180
 5292SOL     OW27334   3.196   2.516  14.203  0.1100 -0.0826 -0.5110
 5292SOL    HW127335   3.129   2.473  14.255  0.5520 -1.3241 -0.9766
 5292SOL    HW227336   3.149   2.571  14.141  3.3279  1.7631 -1.3160
 5293SOL     OW27337   1.921   0.010   9.385  0.2936  0.6591 -0.7913
 5293SOL    HW127338   1.894   0.088   9.338 -1.1800  1.9957  2.2868
 5293SOL    HW227339   1.996   4.701   9.334  1.4330 -0.4559  1.5731
 5294SOL     OW27340   3.941   4.639   8.161  0.6937 -0.9423 -0.0015
 5294SOL    HW127341   3.915   4.694   8.087 -0.5947 -2.3937 -0.6179
 5294SOL    HW227342   3.884   4.562   8.161  0.9315 -1.1175  0.1507
 5295SOL     OW27343   0.897   2.772   6.727  0.4662 -0.5077 -0.1807
 5295SOL    HW127344   0.950   2.764   6.807 -0.8547 -0.0536  0.7489
 5295SOL    HW227345   0.839   2.838   6.765  0.3297 -0.7873  0.1009
 5296SOL     OW27346   1.263   2.825   4.055  0.2867 -0.3945 -0.2765
 5296SOL    HW127347   1.268   2.738   4.095 -0.0410  0.1811  1.0165
 5296SOL    HW227348   1.264   2.875   4.136  1.2690 -2.0338  0.7103
 5297SOL     OW27349   1.515   2.841   3.917  0.2163  0.6451 -0.0271
 5297SOL    HW127350   1.552   2.771   3.863 -1.2727 -0.1909  0.0262
 5297SOL    HW227351   1.428   2.808   3.937 -0.7441  1.8735 -2.2374
 5298SOL     OW27352   1.014   3.696   6.590 -0.1391 -0.1516 -0.1650
 5298SOL    HW127353   1.077   3.730   6.653  1.6585 -2.7681 -0.5591
 5298SOL    HW227354   0.950   3.766   6.578 -0.0829 -0.0731 -0.0005
 5299SOL     OW27355   2.126   1.392  12.253  0.8739 -0.4594 -0.1278
 5299SOL    HW127356   2.141   1.404  12.159 -1.5114  0.5976 -0.3580
 5299SOL    HW227357   2.188   1.453  12.293  0.9046  0.3645 -1.4292
 5300SOL     OW27358   4.161   2.041   5.459  0.4480 -0.1983  0.1591
 5300SOL    HW127359   4.087   2.100   5.444  1.8811  0.9756 -2.3225
 5300SOL    HW227360   4.221   2.069   5.389  0.4233 -1.5665 -0.4094
 5301SOL     OW27361   1.605   4.276   9.164  0.1886 -0.3463  0.3309
 5301SOL    HW127362   1.608   4.193   9.212  0.0361  0.8681  2.4168
 5301SOL    HW227363   1.681   4.270   9.106 -0.1384 -1.4630  0.0191
 5302SOL     OW27364   3.562   2.003   7.303 -0.1655  0.3496 -0.5083
 5302SOL    HW127365   3.505   2.074   7.273 -0.8308  0.5444  1.2037
 5302SOL    HW227366   3.643   2.040   7.266 -0.8698  1.5359 -0.8618
 5303SOL     OW27367   3.617   3.220  13.356 -0.4282 -0.2459 -0.7872
 5303SOL    HW127368   3.579   3.158  13.293 -3.0735  1.1553 -0.5774
 5303SOL    HW227369   3.687   3.261  13.306 -2.0516  1.6601 -1.5164
 5304SOL     OW27370   3.471   0.226   2.841  0.1381  0.5537  0.1227
 5304SOL    HW127371   3.530   0.173   2.787  1.0402 -0.4846  2.1340
 5304SOL    HW227372   3.467   0.319   2.815 -1.7748 -0.1364 -2.0472
 5305SOL     OW27373   2.292   3.359  17.613 -0.0232 -0.4008 -0.5856
 5305SOL    HW127374   2.313   3.442  17.657 -1.5962  0.5383 -1.5831
 5305SOL    HW227375   2.224   3.325  17.670  0.0859  0.3656  0.0077
 5306SOL     OW27376   4.408   1.027   2.454  0.8918 -0.2000 -0.7669
 5306SOL    HW127377   4.425   0.990   2.541 -0.5547 -0.3587 -0.5487
 5306SOL    HW227378   4.337   0.973   2.420 -0.8445  1.2495  0.6013
 5307SOL     OW27379   1.301   4.203   3.556 -1.0926  0.3739  0.1489
 5307SOL    HW127380   1.258   4.279   3.518 -0.2070  0.6392 -0.3115
 5307SOL    HW227381   1.291   4.146   3.480  0.9098  0.1008  0.0986
 5308SOL     OW27382   2.186   2.054   9.304 -0.2161 -1.0208 -0.1108
 5308SOL    HW127383   2.166   2.102   9.385  0.5101  1.4515 -1.4003
 5308SOL    HW227384   2.260   2.109   9.281  0.3655 -0.7244  2.4079
 5309SOL     OW27385   2.397   3.222  15.279  0.0369  0.0838  0.2333
 5309SOL    HW127386   2.410   3.136  15.240  1.1096  0.4039 -0.1452
 5309SOL    HW227387   2.307   3.221  15.309 -0.5045  0.4788 -1.3940
 5310SOL     OW27388   3.810   0.332   2.493 -0.1889 -0.1475  0.9688
 5310SOL    HW127389   3.884   0.351   2.550  0.1535  2.1588 -0.2519
 5310SOL    HW227390   3.835   0.251   2.447  0.9057  0.7447 -0.0098
 5311SOL     OW27391   2.393   0.369   8.049  1.2206  0.3080 -0.3254
 5311SOL    HW127392   2.376   0.318   7.969 -0.2774 -0.3426  0.4067
 5311SOL    HW227393   2.310   0.413   8.061  2.2571  2.5085 -1.2375
 5312SOL     OW27394   1.779   4.622   7.679  0.9464  0.3471  0.8437
 5312SOL    HW127395   1.754   4.704   7.635 -1.2812 -0.9439 -0.2763
 5312SOL    HW227396   1.722   4.557   7.640  1.7581  1.0665 -1.5561
 5313SOL     OW27397   0.856   4.315   5.980 -0.7936  0.5935  0.4829
 5313SOL    HW127398   0.884   4.386   6.037 -2.7803  1.7871 -0.0384
 5313SOL    HW227399   0.811   4.358   5.908  0.0449  1.5670  0.5417
 5314SOL     OW27400   1.196   3.661   9.337 -0.3768 -0.2246 -0.6734
 5314SOL    HW127401   1.207   3.722   9.264 -0.4574  0.7795  0.1536
 5314SOL    HW227402   1.164   3.719   9.406  1.4517  2.0159 -1.7088
 5315SOL     OW27403   3.237   0.914   5.874  0.5971  0.4304  0.1105
 5315SOL    HW127404   3.222   0.826   5.839  1.8448 -1.0078  3.0965
 5315SOL    HW227405   3.314   0.902   5.929  1.6263  1.9412 -1.0280
 5316SOL     OW27406   2.284   0.371  15.276 -0.1400 -0.0233  0.1057
 5316SOL    HW127407   2.280   0.354  15.370 -0.0478 -0.3559  0.0485
 5316SOL    HW227408   2.269   0.281  15.248  0.3567 -0.0101 -0.2046
 5317SOL     OW27409   0.970   1.973  10.682  0.1400 -0.4924  0.1479
 5317SOL    HW127410   1.019   1.892  10.670  2.9756  1.6638 -2.7010
 5317SOL    HW227411   1.034   2.038  10.652  0.5762  0.3922  2.9915
 5318SOL     OW27412   3.434   1.683   2.400  0.1630 -0.0380 -0.3802
 5318SOL    HW127413   3.375   1.721   2.464  1.8889  0.7802  0.7130
 5318SOL    HW227414   3.509   1.741   2.412  1.1248 -1.3714  0.1037
 5319SOL     OW27415   3.805   4.419   8.962 -0.5166 -0.4762 -0.8481
 5319SOL    HW127416   3.721   4.449   8.996 -1.2944 -3.4752 -0.1321
 5319SOL    HW227417   3.798   4.324   8.974 -1.3089 -0.2093  0.9093
 5320SOL     OW27418   4.046   0.277   3.292  0.0967 -0.1097  0.0372
 5320SOL    HW127419   4.039   0.198   3.238 -1.0570 -1.1661  1.7570
 5320SOL    HW227420   4.118   0.253   3.350 -1.5406 -0.7499  1.7985
 5321SOL     OW27421   0.664   2.954   2.175  0.1273  0.2718 -0.4585
 5321SOL    HW127422   0.750   2.914   2.188  1.1753  2.1690 -1.5245
 5321SOL    HW227423   0.687   3.041   2.140 -0.5830 -0.2761 -2.2893
 5322SOL     OW27424   0.848   3.583   7.000 -0.3509  0.1422 -0.3697
 5322SOL    HW127425   0.923   3.631   7.036 -0.8473  1.4800 -1.1308
 5322SOL    HW227426   0.785   3.654   6.994  1.3376  1.5006 -2.1020
 5323SOL     OW27427   4.662   2.405   8.265  0.1720 -0.1106 -0.0573
 5323SOL    HW127428   4.655   2.488   8.311  2.5649 -0.5748  1.1350
 5323SOL    HW227429   4.572   2.372   8.257  0.7979 -1.6687 -0.6773
 5324SOL     OW27430   1.865   1.591  17.369  0.5794  0.1063 -0.0521
 5324SOL    HW127431   1.888   1.641  17.291  2.2824 -0.7920 -0.1090
 5324SOL    HW227432   1.847   1.503  17.337  1.7645 -0.3317  0.4950
 5325SOL     OW27433   1.536   2.987   7.192  0.7566  0.2548  0.2462
 5325SOL    HW127434   1.578   2.925   7.252 -0.4632 -2.2250 -1.4963
 5325SOL    HW227435   1.554   3.067   7.242 -0.7295  2.0222 -2.0628
 5326SOL     OW27436   0.113   2.748   9.155 -0.0467  0.2016  0.3836
 5326SOL    HW127437   0.209   2.744   9.164 -0.0457 -0.3307  0.1355
 5326SOL    HW227438   0.102   2.809   9.083 -3.6908 -2.1594 -1.0394
 5327SOL     OW27439   4.037   2.387   5.568  0.1495 -0.4049  0.4059
 5327SOL    HW127440   4.117   2.360   5.524 -0.5882 -1.5426 -0.2336
 5327SOL    HW227441   3.975   2.378   5.495  1.8786  1.2484 -1.2582
 5328SOL     OW27442   3.927   0.849   8.077  0.0937 -0.2124  0.1596
 5328SOL    HW127443   3.865   0.851   8.150 -1.6702  2.0255 -1.3446
 5328SOL    HW227444   3.972   0.931   8.097 -0.9094  0.6850 -1.2430
 5329SOL     OW27445   3.254   1.776   7.660 -0.2300  0.1464  0.2743
 5329SOL    HW127446   3.176   1.729   7.630  0.3667 -0.5260 -0.2104
 5329SOL    HW227447   3.271   1.832   7.585  0.3786 -0.9455 -0.3949
 5330SOL     OW27448   4.420   1.066   3.352  0.4822  0.3629 -0.1026
 5330SOL    HW127449   4.511   1.082   3.329  0.3581 -0.2037 -0.9872
 5330SOL    HW227450   4.388   1.144   3.306 -2.7374 -2.1234 -2.0744
 5331SOL     OW27451   1.861   4.511   6.804 -0.0577 -0.7076  0.3184
 5331SOL    HW127452   1.825   4.565   6.875  0.1877  1.6121 -1.3008
 5331SOL    HW227453   1.951   4.541   6.805 -0.1326 -0.4651 -0.0201
 5332SOL     OW27454   4.156   3.750  13.492 -1.1659 -0.8415 -0.7557
 5332SOL    HW127455   4.108   3.728  13.572  0.3612  1.7440  0.8609
 5332SOL    HW227456   4.108   3.831  13.475 -0.2349 -0.0192  0.5591
 5333SOL     OW27457   4.016   4.652  12.812 -0.0127  0.3201 -0.4828
 5333SOL    HW127458   4.025   4.594  12.888 -0.8726 -1.6542 -1.8746
 5333SOL    HW227459   3.945   4.610  12.763  0.2072  0.1093 -0.6183
 5334SOL     OW27460   3.781   0.433   1.308  0.3280  0.2104  0.1157
 5334SOL    HW127461   3.769   0.434   1.213  1.3727  1.6592 -0.0072
 5334SOL    HW227462   3.771   0.339   1.323  1.1458  0.3322  1.3980
 5335SOL     OW27463   2.622   3.419   1.430 -0.5787 -0.2687 -0.1027
 5335SOL    HW127464   2.704   3.463   1.407 -0.5419 -0.1693  0.2141
 5335SOL    HW227465   2.581   3.487   1.484 -0.2817  1.4169 -2.0016
 5336SOL     OW27466   3.940   3.573   6.187  0.0437 -0.2970 -0.4551
 5336SOL    HW127467   4.030   3.543   6.181 -0.1434 -0.6596 -1.3480
 5336SOL    HW227468   3.929   3.585   6.093 -0.4791  2.1445 -0.0860
 5337SOL     OW27469   2.277   1.496  11.145 -0.3031  0.3274  0.0195
 5337SOL    HW127470   2.345   1.541  11.195  0.5989 -0.9179 -0.1077
 5337SOL    HW227471   2.248   1.572  11.094  0.2654 -0.0770 -0.9065
 5338SOL     OW27472   3.916   3.429   5.403  0.1048 -0.1002  0.8039
 5338SOL    HW127473   3.830   3.468   5.422  0.1809  0.7720 -0.6133
 5338SOL    HW227474   3.946   3.484   5.331  3.2551 -2.0832  0.6080
 5339SOL     OW27475   3.280   2.067   4.822  0.3631  0.7337  0.8301
 5339SOL    HW127476   3.342   2.007   4.864 -0.5978 -0.8822 -0.0689
 5339SOL    HW227477   3.238   2.103   4.900 -1.9695  2.7259 -1.3157
 5340SOL     OW27478   0.996   4.249   4.270 -0.2036  0.5287 -0.0519
 5340SOL    HW127479   0.905   4.221   4.276  0.5796 -2.2622 -1.2221
 5340SOL    HW227480   0.978   4.331   4.224  1.2821  0.0786 -1.4701
 5341SOL     OW27481   2.730   1.148   7.059  0.7492  0.0730 -0.1847
 5341SOL    HW127482   2.776   1.154   7.143  2.5302 -0.4962 -1.1327
 5341SOL    HW227483   2.714   1.240   7.039  0.6054  0.0460 -0.1907
 5342SOL     OW27484   1.106   1.602   3.243 -0.2813 -0.1103 -0.1244
 5342SOL    HW127485   1.097   1.668   3.311  2.4723 -0.4711  0.6071
 5342SOL    HW227486   1.146   1.533   3.296  1.3712  0.7087 -0.2916
 5343SOL     OW27487   0.985   4.463   7.078  0.9427 -0.1550 -0.3639
 5343SOL    HW127488   0.939   4.386   7.044  2.7220 -2.1951  1.8117
 5343SOL    HW227489   1.067   4.452   7.030  1.5737 -0.7568  0.8185
 5344SOL     OW27490   3.327   0.152  17.526  0.0396 -0.2004 -0.3346
 5344SOL    HW127491   3.256   0.156  17.462  0.0613  2.9309 -0.1473
 5344SOL    HW227492   3.294   0.195  17.605 -0.5040 -0.9422 -0.1577
 5345SOL     OW27493   4.674   3.832   1.967  0.1944 -0.4394  0.1167
 5345SOL    HW127494   4.629   3.783   2.035 -1.3895 -0.3425 -0.8696
 5345SOL    HW227495   0.041   3.832   2.002  0.3510  1.2386 -0.2785
 5346SOL     OW27496   3.913   3.732   4.532 -0.0278 -0.1244 -0.0491
 5346SOL    HW127497   3.935   3.723   4.439 -0.1182 -0.9342  0.0052
 5346SOL    HW227498   3.907   3.827   4.539 -0.8662  0.0000 -2.5564
 5347SOL     OW27499   1.503   3.044  12.295  0.2109  0.1555  0.4429
 5347SOL    HW127500   1.470   2.956  12.312  0.2344  0.3744  1.6374
 5347SOL    HW227501   1.563   3.020  12.224  1.3730  3.3616  0.3163
 5348SOL     OW27502   3.320   0.911   1.711 -0.0112 -0.3504  0.1170
 5348SOL    HW127503   3.325   0.979   1.779 -1.8754 -0.5326  0.4429
 5348SOL    HW227504   3.346   0.962   1.634 -0.0454  0.9585  0.9552
 5349SOL     OW27505   3.859   1.207  10.201  0.6058  0.1535  0.1641
 5349SOL    HW127506   3.861   1.272  10.131  1.2491  0.4387  0.4552
 5349SOL    HW227507   3.766   1.210  10.225  0.5046 -0.4599 -0.1429
 5350SOL     OW27508   4.504   1.664  14.244  0.0783 -0.2344  0.3458
 5350SOL    HW127509   4.567   1.634  14.178 -0.7838 -0.3168 -0.4364
 5350SOL    HW227510   4.496   1.755  14.216  0.8291 -0.4246 -0.4628
 5351SOL     OW27511   4.141   0.333   8.763  0.1045  0.4158  0.3357
 5351SOL    HW127512   4.122   0.371   8.849  1.7256  0.7822  0.5418
 5351SOL    HW227513   4.077   0.264   8.746  1.8768 -1.3026  0.5922
 5352SOL     OW27514   3.782   3.693   1.156 -0.5508 -0.3307 -0.0629
 5352SOL    HW127515   3.732   3.623   1.199 -1.3197 -1.0580 -2.1487
 5352SOL    HW227516   3.707   3.744   1.127 -0.0504  0.0922 -0.5892
 5353SOL     OW27517   1.396   2.504   7.999  0.4949 -0.0009 -0.2494
 5353SOL    HW127518   1.478   2.502   8.048  0.6751 -0.5695 -0.5800
 5353SOL    HW227519   1.337   2.516   8.074  0.3202 -1.0210 -0.2314
 5354SOL     OW27520   0.114   4.554  10.761 -0.4903 -0.4155  0.3966
 5354SOL    HW127521   0.064   4.584  10.837  1.2053 -1.7245  2.0333
 5354SOL    HW227522   0.113   4.459  10.772  1.8996 -0.1922  2.6308
 5355SOL     OW27523   0.235   3.900   8.412 -0.0018 -0.0819 -0.0260
 5355SOL    HW127524   0.159   3.958   8.414 -1.0104 -1.5303  3.5392
 5355SOL    HW227525   0.231   3.859   8.326 -0.5473  0.1410 -0.1045
 5356SOL     OW27526   3.496   3.895   2.985  0.2879  0.2279 -0.1130
 5356SOL    HW127527   3.439   3.926   2.915  0.1024  0.3793  0.1039
 5356SOL    HW227528   3.512   3.804   2.960 -1.4859 -0.7700  2.3918
 5357SOL     OW27529   0.751   4.444   8.947  0.1245  0.8127  0.0990
 5357SOL    HW127530   0.672   4.483   8.910 -1.2136 -1.5531  0.4197
 5357SOL    HW227531   0.813   4.452   8.874  0.4395 -0.8389  0.1709
 5358SOL     OW27532   3.795   1.162   7.723 -0.3556  0.1388  0.1717
 5358SOL    HW127533   3.767   1.099   7.658  2.3373  1.0320 -1.8475
 5358SOL    HW227534   3.715   1.207   7.750 -0.9032 -0.7234 -0.0097
 5359SOL     OW27535   1.638   3.185   8.781 -0.2531 -0.3528  0.3896
 5359SOL    HW127536   1.555   3.175   8.827 -1.5935 -1.0396 -2.1766
 5359SOL    HW227537   1.680   3.235   8.851 -1.6285 -0.2783  1.1770
 5360SOL     OW27538   3.328   2.900  11.043  0.2450 -0.3631 -0.2987
 5360SOL    HW127539   3.314   2.930  11.133 -2.2915 -0.4948 -0.6666
 5360SOL    HW227540   3.397   2.962  11.017 -0.7173  1.6454  1.9584
 5361SOL     OW27541   4.004   0.279  16.760 -0.5298  0.6367  0.1625
 5361SOL    HW127542   4.021   0.217  16.831 -1.2230  3.3579  2.7217
 5361SOL    HW227543   3.908   0.274  16.765 -0.4622 -0.2426  0.6134
 5362SOL     OW27544   1.910   2.336   2.358 -0.3436  0.2536 -0.1128
 5362SOL    HW127545   1.962   2.374   2.287  1.4749  0.7963  1.4790
 5362SOL    HW227546   1.917   2.417   2.408 -0.2723  0.5410 -0.5928
 5363SOL     OW27547   2.083   2.981   9.289  0.1142  0.1253  0.5804
 5363SOL    HW127548   2.164   3.012   9.329  0.1279 -0.9376  1.3499
 5363SOL    HW227549   2.042   2.943   9.366  3.0786  1.7206  2.9303
 5364SOL     OW27550   0.051   3.251   2.278 -0.8648  0.1226 -0.0082
 5364SOL    HW127551   0.060   3.174   2.333  1.6700 -1.1801 -2.2286
 5364SOL    HW227552   0.069   3.311   2.350  0.0452 -1.7591  1.3319
 5365SOL     OW27553   1.006   0.814  12.328  0.0275  0.0696  0.6133
 5365SOL    HW127554   1.013   0.909  12.326  2.5877 -0.1203  0.9792
 5365SOL    HW227555   0.982   0.797  12.419  0.8930  2.3653  1.2626
 5366SOL     OW27556   3.044   1.352  11.387 -0.4520  0.5465 -0.1538
 5366SOL    HW127557   3.027   1.444  11.367 -1.6096  0.7474  1.7656
 5366SOL    HW227558   3.138   1.340  11.374 -0.7001 -2.6092  1.1018
 5367SOL     OW27559   1.482   3.401   6.620 -0.1136  0.2869  0.0140
 5367SOL    HW127560   1.388   3.421   6.616 -0.4187 -0.7934  1.6759
 5367SOL    HW227561   1.470   3.315   6.662 -1.3921  1.1041  1.3276
 5368SOL     OW27562   2.116   1.692   8.138  0.7779 -0.1712 -0.4608
 5368SOL    HW127563   2.048   1.683   8.205  1.0291 -1.8665 -0.4468
 5368SOL    HW227564   2.159   1.610   8.160 -0.8982 -1.5793 -2.5280
 5369SOL     OW27565   3.229   1.730  15.288 -0.0571 -0.1619  0.0633
 5369SOL    HW127566   3.194   1.640  15.290 -0.4563  0.0086  1.2002
 5369SOL    HW227567   3.180   1.783  15.351 -0.9090 -0.5630 -0.2602
 5370SOL     OW27568   4.138   0.597   8.528  0.3270  0.3874 -0.1481
 5370SOL    HW127569   4.070   0.544   8.570  1.4139 -0.9400 -0.0890
 5370SOL    HW227570   4.085   0.639   8.460  1.4952 -1.5262 -2.2352
 5371SOL     OW27571   1.623   0.774   8.396 -0.5113  0.4402 -0.2105
 5371SOL    HW127572   1.629   0.773   8.301  0.8824 -0.2680 -0.1091
 5371SOL    HW227573   1.677   0.702   8.427  0.8568  0.5577 -2.3636
 5372SOL     OW27574   4.125   2.103   9.111  0.1588 -0.1613  0.0372
 5372SOL    HW127575   4.077   2.034   9.065 -1.3232  0.6686  0.3386
 5372SOL    HW227576   4.135   2.064   9.198  1.0697 -0.5666 -0.2369
 5373SOL     OW27577   1.229   3.435   8.015  0.1187  0.3627 -0.3407
 5373SOL    HW127578   1.150   3.479   7.984 -0.2052 -0.8471 -1.2210
 5373SOL    HW227579   1.201   3.420   8.106  0.0715  4.1504  0.2607
 5374SOL     OW27580   1.717   0.223   3.112  0.2528 -0.1443 -0.0191
 5374SOL    HW127581   1.763   0.149   3.152  1.7351 -0.4093 -2.2479
 5374SOL    HW227582   1.704   0.279   3.189  0.7800 -0.8579  0.5948
 5375SOL     OW27583   2.889   3.515  12.432  0.3051 -0.4203 -0.4853
 5375SOL    HW127584   2.838   3.484  12.357  1.6518 -1.7982 -0.8163
 5375SOL    HW227585   2.821   3.521  12.500  0.1443 -1.4571 -0.5620
 5376SOL     OW27586   1.746   2.990  13.659 -0.5000 -0.9389  0.0130
 5376SOL    HW127587   1.702   3.055  13.604 -0.3234 -2.2882 -1.7280
 5376SOL    HW227588   1.787   3.043  13.727 -0.8507 -0.2813 -0.2964
 5377SOL     OW27589   0.297   0.841  10.743 -0.0319 -0.4676 -0.0750
 5377SOL    HW127590   0.214   0.794  10.754 -0.8172  1.5894  2.4696
 5377SOL    HW227591   0.326   0.786  10.669 -0.6857 -0.6792 -0.1682
 5378SOL     OW27592   0.542   2.645   8.951 -0.3513 -0.3113 -0.2797
 5378SOL    HW127593   0.506   2.723   8.995 -1.8392 -0.4288 -1.2749
 5378SOL    HW227594   0.461   2.593   8.951 -0.6006  0.0731 -0.5167
 5379SOL     OW27595   2.523   0.313   1.195 -0.1980 -0.4606  0.0357
 5379SOL    HW127596   2.469   0.283   1.269  0.1402  0.8614  0.8094
 5379SOL    HW227597   2.574   0.375   1.247  0.7537 -1.3126  0.1087
 5380SOL     OW27598   4.159   0.245   2.139  0.8923 -0.5681  0.0865
 5380SOL    HW127599   4.203   0.203   2.213  0.0103  3.8973  3.1137
 5380SOL    HW227600   4.070   0.222   2.163  0.9206 -1.7098 -0.8985
 5381SOL     OW27601   1.231   3.053   2.370 -0.1809  0.3539 -0.1951
 5381SOL    HW127602   1.139   3.068   2.392  0.6089 -0.0495  3.3200
 5381SOL    HW227603   1.215   2.979   2.312  0.0995  0.1068  0.0445
 5382SOL     OW27604   1.959   1.973   6.598 -0.1767 -0.0684  0.8713
 5382SOL    HW127605   1.974   2.054   6.648  0.4255  0.5058 -0.2316
 5382SOL    HW227606   2.038   1.956   6.547  0.4235  1.5225  1.2507
 5383SOL     OW27607   4.696   0.110   2.496  0.1413  0.5994 -0.2726
 5383SOL    HW127608   0.064   0.082   2.483  0.6894  2.3339 -0.2398
 5383SOL    HW227609   4.681   0.186   2.440 -1.9017 -0.2881 -0.9609
 5384SOL     OW27610   3.388   2.093   6.944  0.1468 -0.4190 -0.2575
 5384SOL    HW127611   3.450   2.147   6.994 -1.6076  0.6922  0.7133
 5384SOL    HW227612   3.332   2.159   6.902 -2.6587 -2.0063  1.0109
 5385SOL     OW27613   2.621   0.570   2.723 -0.8550  0.3929 -0.0254
 5385SOL    HW127614   2.625   0.551   2.629 -1.7922 -1.1896  0.2546
 5385SOL    HW227615   2.679   0.646   2.725  0.3071 -0.5101  0.7247
 5386SOL     OW27616   3.213   1.565   7.138 -0.0140 -0.2360 -0.5791
 5386SOL    HW127617   3.245   1.577   7.048  0.1815 -3.8346 -0.9733
 5386SOL    HW227618   3.242   1.637   7.193  1.4829 -1.6720  0.5061
 5387SOL     OW27619   0.014   1.994   8.338 -0.6096  0.2450  0.0561
 5387SOL    HW127620   4.676   1.920   8.331 -3.1442  2.4590 -1.2396
 5387SOL    HW227621   0.060   1.978   8.256 -0.2122 -3.9465  1.0816
 5388SOL     OW27622   1.892   2.075   2.372 -0.2015  0.2517 -0.0452
 5388SOL    HW127623   1.896   2.170   2.382  0.1938  0.2248  0.0758
 5388SOL    HW227624   1.974   2.071   2.322 -0.9831 -0.2475 -1.3019
 5389SOL     OW27625   2.747   3.859   5.407  0.1329  0.2599 -0.5240
 5389SOL    HW127626   2.698   3.803   5.347 -1.6854 -0.8442  2.0435
 5389SOL    HW227627   2.817   3.797   5.429 -0.4774 -0.2258  0.0148
 5390SOL     OW27628   3.307   3.289   0.756  0.2920  1.0034 -0.0551
 5390SOL    HW127629   3.373   3.277   0.688  0.0633  1.8888 -0.4333
 5390SOL    HW227630   3.342   3.370   0.794 -2.1515  1.8765  0.3234
 5391SOL     OW27631   4.386   3.112  11.099  0.0508 -0.2953  0.1058
 5391SOL    HW127632   4.401   3.109  11.004  3.3828  1.5499  0.5604
 5391SOL    HW227633   4.464   3.069  11.133 -0.1223  1.6980  3.0014
 5392SOL     OW27634   2.488   4.156   1.780  0.4452 -0.2957 -0.4293
 5392SOL    HW127635   2.452   4.073   1.813  0.3011 -0.2012 -0.3519
 5392SOL    HW227636   2.516   4.138   1.690 -0.6266  0.2428 -0.8730
 5393SOL     OW27637   0.404   2.846   9.567  0.2777  0.5490 -0.1836
 5393SOL    HW127638   0.444   2.855   9.480 -0.6461  1.1190 -0.5565
 5393SOL    HW227639   0.312   2.824   9.550  0.8671 -1.2872 -0.8847
 5394SOL     OW27640   4.308   3.011   6.261 -0.1082  0.4886  0.0687
 5394SOL    HW127641   4.280   2.923   6.286  0.8417  0.0037 -0.5789
 5394SOL    HW227642   4.361   3.033   6.337 -2.7234 -0.5755  2.1939
 5395SOL     OW27643   4.061   1.392   5.886  0.3681  0.3638  0.2415
 5395SOL    HW127644   4.001   1.384   5.812  1.2240  0.8687 -0.5000
 5395SOL    HW227645   4.027   1.327   5.947  0.0436  0.6448  0.3649
 5396SOL     OW27646   3.740   0.732   3.789 -0.4350  0.1721 -0.3214
 5396SOL    HW127647   3.828   0.751   3.759 -0.6261 -1.0092 -1.6399
 5396SOL    HW227648   3.691   0.749   3.708 -1.1198 -3.4151 -0.6796
 5397SOL     OW27649   0.684   3.084   5.028  0.0361 -0.3105  0.6505
 5397SOL    HW127650   0.632   3.087   4.947  0.3510 -1.0698  0.4235
 5397SOL    HW227651   0.701   2.990   5.034 -0.4970 -0.4663 -0.3029
 5398SOL     OW27652   0.608   4.202   4.058 -0.1831  0.0095 -0.0566
 5398SOL    HW127653   0.645   4.278   4.011 -2.2318  0.8611 -0.3027
 5398SOL    HW227654   0.674   4.134   4.042  1.7261  1.5143  1.3229
 5399SOL     OW27655   1.286   4.425   7.847 -0.1052  0.2460 -0.0111
 5399SOL    HW127656   1.216   4.484   7.875  0.4936 -0.3238  2.6527
 5399SOL    HW227657   1.327   4.417   7.933 -2.6716 -1.4801  1.0433
 5400SOL     OW27658   0.611   1.607   2.227 -0.1743 -0.1198  0.0526
 5400SOL    HW127659   0.589   1.528   2.276  2.6187 -1.6931 -1.2307
 5400SOL    HW227660   0.550   1.672   2.260 -1.9687 -2.0373  0.4819
 5401SOL     OW27661   3.714   2.486  14.576  0.0041  0.1726 -0.4710
 5401SOL    HW127662   3.685   2.519  14.661  0.8897  2.0084 -0.8723
 5401SOL    HW227663   3.795   2.537  14.577  1.1509 -1.5860 -3.6954
 5402SOL     OW27664   0.941   1.123   4.188  0.1283  0.4661 -0.1161
 5402SOL    HW127665   0.934   1.188   4.118 -0.3711 -0.0676 -0.5564
 5402SOL    HW227666   0.921   1.172   4.268  2.0192  1.3057 -0.1483
 5403SOL     OW27667   2.486   3.646  14.019  1.2387 -0.6175 -0.3380
 5403SOL    HW127668   2.581   3.653  14.028  1.3358 -0.2382 -1.6686
 5403SOL    HW227669   2.471   3.588  14.094 -3.1377 -0.1575 -0.8452
 5404SOL     OW27670   4.612   1.951   8.611 -0.5036  0.0236  0.0979
 5404SOL    HW127671   4.645   2.010   8.543  0.1164  0.0644  0.4339
 5404SOL    HW227672   4.574   2.006   8.679  0.7769 -0.9019  1.5634
 5405SOL     OW27673   0.047   0.184   4.486 -0.3964 -0.1086 -0.5650
 5405SOL    HW127674   4.711   0.258   4.505 -0.7464 -0.2836 -0.9607
 5405SOL    HW227675   0.041   0.196   4.391 -1.5522  0.2448 -0.4474
 5406SOL     OW27676   3.760   1.593  12.350 -0.4346  0.4885  0.4729
 5406SOL    HW127677   3.826   1.556  12.291  0.8103  1.0917  1.4878
 5406SOL    HW227678   3.681   1.582  12.297 -0.1808 -1.5707  0.5395
 5407SOL     OW27679   1.759   3.248   2.691 -0.1809 -0.2257 -0.1593
 5407SOL    HW127680   1.744   3.186   2.620 -0.0638 -0.2241 -0.1854
 5407SOL    HW227681   1.786   3.323   2.638  0.3368  1.4100  2.3797
 5408SOL     OW27682   3.669   1.861   0.102  0.4200  0.1089  0.8319
 5408SOL    HW127683   3.739   1.802   0.073  0.2130  0.3560 -0.1863
 5408SOL    HW227684   3.678   1.919   0.026  0.1768 -0.5499  0.2966
 5409SOL     OW27685   2.583   3.976  11.869 -0.3418  0.1695 -0.1747
 5409SOL    HW127686   2.525   3.965  11.945  1.2262  2.4614  1.3585
 5409SOL    HW227687   2.525   4.037  11.823 -0.5276  0.4029  0.3701
 5410SOL     OW27688   1.618   1.503   2.857 -0.8382 -0.4791  0.2594
 5410SOL    HW127689   1.534   1.459   2.870 -1.0344  0.6009  2.5294
 5410SOL    HW227690   1.587   1.571   2.797  1.4598  0.9062  0.6496
 5411SOL     OW27691   4.506   2.187   6.009 -0.1459 -0.4078  0.0477
 5411SOL    HW127692   4.443   2.254   6.033  0.3082  0.7515 -1.9530
 5411SOL    HW227693   4.582   2.206   6.063  1.1439 -1.7821 -1.2594
 5412SOL     OW27694   1.102   1.280  16.037  0.3031 -0.1380  0.5518
 5412SOL    HW127695   1.016   1.283  15.996  1.2769 -0.5947 -1.5452
 5412SOL    HW227696   1.080   1.339  16.108  0.3391  0.3852  0.1307
 5413SOL     OW27697   4.576   0.470   7.600  0.4959 -0.0353  0.2870
 5413SOL    HW127698   4.556   0.533   7.531  0.3047 -0.9397 -0.4688
 5413SOL    HW227699   4.600   0.386   7.562 -0.4380  0.2278 -0.8685
 5414SOL     OW27700   1.530   1.075  11.417  0.1302  0.3700  0.4350
 5414SOL    HW127701   1.592   1.005  11.397  1.3224  1.1143  1.5804
 5414SOL    HW227702   1.470   1.032  11.478 -1.3145  0.4797 -0.8995
 5415SOL     OW27703   3.295   0.011   4.694  0.0145 -0.3796  0.0141
 5415SOL    HW127704   3.294   0.039   4.785  1.6762  0.6490 -0.2899
 5415SOL    HW227705   3.331   4.645   4.694 -1.3302 -0.9228  0.8208
 5416SOL     OW27706   3.125   3.494   4.174  0.2240 -0.6435  0.4030
 5416SOL    HW127707   3.169   3.412   4.150  0.0352 -0.5356 -0.3271
 5416SOL    HW227708   3.205   3.539   4.199  0.3335 -0.2489 -0.6637
 5417SOL     OW27709   3.986   0.706  12.379 -0.5750 -0.3885  0.1503
 5417SOL    HW127710   4.054   0.703  12.311 -1.2738 -0.5676 -0.5459
 5417SOL    HW227711   4.009   0.795  12.406  0.0659 -0.5836  0.2401
 5418SOL     OW27712   2.846   2.629   4.480  0.1478  0.5144  0.0043
 5418SOL    HW127713   2.816   2.602   4.567  2.4035 -1.0322  0.3346
 5418SOL    HW227714   2.922   2.682   4.505 -2.1347  3.2440  1.1490
 5419SOL     OW27715   2.629   1.554   1.154  0.1222  0.2934  0.2066
 5419SOL    HW127716   2.577   1.557   1.074  1.1214  1.0882 -0.4243
 5419SOL    HW227717   2.610   1.644   1.181 -3.6782 -0.8277  1.1579
 5420SOL     OW27718   4.491   2.014   5.795 -0.1705  0.0480  0.1760
 5420SOL    HW127719   4.511   2.094   5.844 -2.9379 -0.1975  1.7153
 5420SOL    HW227720   4.401   2.028   5.767 -0.2562 -0.6906  0.0721
 5421SOL     OW27721   4.476   1.955   8.962 -0.3489  0.1577 -0.1741
 5421SOL    HW127722   4.512   1.874   8.926 -3.4474 -1.4843  0.3883
 5421SOL    HW227723   4.486   2.014   8.888  1.0156 -0.2336 -0.2956
 5422SOL     OW27724   4.367   2.218   3.984  0.5959  0.2819  0.5731
 5422SOL    HW127725   4.344   2.125   3.976 -1.2484  0.9272 -1.8131
 5422SOL    HW227726   4.279   2.252   4.000  1.2448  2.6923 -1.0214
 5423SOL     OW27727   2.901   2.269  10.600 -0.3328  0.5052  0.0063
 5423SOL    HW127728   2.974   2.216  10.632 -0.6587 -0.4529 -0.8392
 5423SOL    HW227729   2.920   2.272  10.506  0.0890 -1.7634  0.0245
 5424SOL     OW27730   1.321   2.044   7.419  0.0965 -0.2368 -0.7996
 5424SOL    HW127731   1.353   2.040   7.510  0.4312  2.9032 -0.7549
 5424SOL    HW227732   1.278   2.129   7.410  1.0028  0.2431 -0.6513
 5425SOL     OW27733   1.361   4.534   8.319 -0.2370  0.4534 -0.4237
 5425SOL    HW127734   1.336   4.593   8.390  1.3088  0.0370  0.4764
 5425SOL    HW227735   1.446   4.500   8.349  0.0728 -0.1553 -1.9825
 5426SOL     OW27736   4.086   1.693  15.708 -0.2294  0.3736  0.1864
 5426SOL    HW127737   4.156   1.681  15.645  0.4402  0.7264  0.8585
 5426SOL    HW227738   4.117   1.776  15.745  0.7973  1.1844 -2.5581
 5427SOL     OW27739   0.731   2.124   9.678  0.3220 -0.0176 -0.3172
 5427SOL    HW127740   0.732   2.082   9.593  1.5965  2.0529 -1.3362
 5427SOL    HW227741   0.658   2.185   9.673 -0.1742 -0.4987  1.0157
 5428SOL     OW27742   2.900   0.830  16.573 -0.3009 -0.4036  0.1906
 5428SOL    HW127743   2.926   0.922  16.566  1.4525 -1.0199 -1.4707
 5428SOL    HW227744   2.922   0.816  16.665 -0.7605  0.7886  0.4761
 5429SOL     OW27745   3.116   2.192   0.581  0.4408 -0.2901 -0.3974
 5429SOL    HW127746   3.203   2.231   0.571 -0.5378  2.2377  1.0629
 5429SOL    HW227747   3.100   2.191   0.675 -1.4373  1.4959 -0.6802
 5430SOL     OW27748   3.006   3.498   6.098  0.2774 -0.6087 -0.0430
 5430SOL    HW127749   2.983   3.569   6.158  2.0849  1.9831 -2.3801
 5430SOL    HW227750   3.101   3.511   6.105  0.3437  0.0515 -2.0644
 5431SOL     OW27751   0.320   0.157   7.928  0.1397 -0.0497  0.0741
 5431SOL    HW127752   0.390   0.091   7.919  1.5793  1.5887 -0.6904
 5431SOL    HW227753   0.242   0.105   7.907  0.8874 -1.0559 -0.2486
 5432SOL     OW27754   0.215   3.257  17.245 -0.3512  0.0026 -0.5895
 5432SOL    HW127755   0.128   3.278  17.209 -0.5986 -1.2617 -0.7149
 5432SOL    HW227756   0.261   3.336  17.218  0.9861 -1.4120 -2.4444
 5433SOL     OW27757   1.698   2.228   8.084  0.1827  0.1009  0.2056
 5433SOL    HW127758   1.766   2.161   8.076 -0.1763  0.1700 -3.2905
 5433SOL    HW227759   1.748   2.308   8.065  0.7791 -0.0159  1.2994
 5434SOL     OW27760   0.465   3.556  14.523  0.2322 -0.0903 -0.0890
 5434SOL    HW127761   0.371   3.573  14.527 -0.0867 -1.5894 -1.2197
 5434SOL    HW227762   0.494   3.646  14.507 -1.0383  0.2175 -0.6870
 5435SOL     OW27763   1.333   0.811   2.553 -0.0254 -0.0492  0.2844
 5435SOL    HW127764   1.290   0.891   2.524  0.7099  0.4246  0.5120
 5435SOL    HW227765   1.422   0.845   2.544 -0.4768  0.6635 -1.5676
 5436SOL     OW27766   3.264   3.701  13.367  0.3121  0.0224  0.0318
 5436SOL    HW127767   3.210   3.764  13.320 -0.3287 -0.0389  0.6941
 5436SOL    HW227768   3.346   3.746  13.347  1.5043 -2.5799 -1.0121
 5437SOL     OW27769   2.304   2.363   6.705  0.0240 -0.0069 -0.0535
 5437SOL    HW127770   2.251   2.439   6.731 -0.7730 -0.6807  0.3149
 5437SOL    HW227771   2.367   2.398   6.643 -0.4360  2.1759  0.7060
 5438SOL     OW27772   2.569   3.361   0.657  0.3996  0.4309 -0.5537
 5438SOL    HW127773   2.507   3.432   0.638  0.2346  0.0401 -1.4797
 5438SOL    HW227774   2.616   3.395   0.733 -0.8185 -0.6746  0.6780
 5439SOL     OW27775   0.142   4.559   7.714 -0.1547  0.0151 -0.0652
 5439SOL    HW127776   0.208   4.532   7.777  0.8552  0.4546 -0.9328
 5439SOL    HW227777   0.146   4.496   7.641  1.0917  0.5020 -0.4211
 5440SOL     OW27778   4.338   0.140   9.088 -0.3025  0.0606  0.0069
 5440SOL    HW127779   4.366   0.208   9.026 -2.0170  1.2195  0.4933
 5440SOL    HW227780   4.279   0.090   9.031  1.4925 -3.1315  0.9245
 5441SOL     OW27781   0.125   2.363   8.055  0.3095 -0.6639 -0.4664
 5441SOL    HW127782   0.062   2.401   8.116 -0.0184 -1.5502 -0.2420
 5441SOL    HW227783   0.177   2.325   8.125 -1.1641 -1.5926  0.1363
 5442SOL     OW27784   0.807   2.330   2.072 -0.0153  0.2700 -0.2744
 5442SOL    HW127785   0.764   2.387   2.009 -0.9589  0.0881  0.2072
 5442SOL    HW227786   0.768   2.361   2.154  0.0530  1.2250 -0.6033
 5443SOL     OW27787   4.712   0.043   9.461  0.1096  0.3915 -0.8888
 5443SOL    HW127788   4.654   4.690   9.473 -1.3798  1.7740  0.7287
 5443SOL    HW227789   0.023   0.057   9.549 -0.4595 -1.2458 -0.4117
 5444SOL     OW27790   2.488   0.046  10.317 -0.6557 -0.5332 -0.2054
 5444SOL    HW127791   2.582   0.058  10.307 -0.5461  0.2643  1.9296
 5444SOL    HW227792   2.465   0.118  10.375 -1.6939 -3.7926  3.4516
 5445SOL     OW27793   3.674   3.772   0.283 -0.1882  0.0827  0.4552
 5445SOL    HW127794   3.687   3.775   0.378 -2.2903  1.5671  0.7007
 5445SOL    HW227795   3.693   3.861   0.252  0.1225 -0.0821  0.1833
 5446SOL     OW27796   1.738   1.496   7.120  0.6859 -0.1818 -0.6187
 5446SOL    HW127797   1.764   1.409   7.152 -2.4613 -0.0489  2.2877
 5446SOL    HW227798   1.653   1.487   7.077 -0.5292 -0.0120  1.7734
 5447SOL     OW27799   0.706   1.342  16.400  0.6735 -0.2560 -0.2686
 5447SOL    HW127800   0.665   1.315  16.318 -2.2494  0.8381  0.8536
 5447SOL    HW227801   0.634   1.324  16.460 -1.7590  0.0020 -3.0932
 5448SOL     OW27802   3.060   1.861   4.120 -0.4388 -0.3445  0.1876
 5448SOL    HW127803   3.019   1.937   4.079  0.9098  0.2000 -0.1194
 5448SOL    HW227804   3.152   1.885   4.109 -1.2095  1.8723 -1.4598
 5449SOL     OW27805   3.402   3.570   4.263 -0.0388  0.6599 -0.2168
 5449SOL    HW127806   3.484   3.606   4.232  0.8152 -0.4449  0.7641
 5449SOL    HW227807   3.425   3.516   4.339 -0.7928  2.4727  1.3102
 5450SOL     OW27808   3.693   4.058   7.720 -0.7545  0.3478 -0.2247
 5450SOL    HW127809   3.686   4.101   7.805  1.0674 -0.2414  0.2281
 5450SOL    HW227810   3.747   4.122   7.674  1.3192 -2.0294 -1.1084
 5451SOL     OW27811   2.524   1.884   3.826  0.3717  0.3964  0.1761
 5451SOL    HW127812   2.548   1.970   3.861 -0.8447 -0.2426  2.5792
 5451SOL    HW227813   2.559   1.889   3.737  1.6968 -0.1053  0.6702
 5452SOL     OW27814   0.815   1.515   6.828 -0.0505  0.0587  0.1874
 5452SOL    HW127815   0.760   1.552   6.760 -0.9411 -0.5546  0.5721
 5452SOL    HW227816   0.841   1.588   6.883 -1.4946 -0.3817  1.4504
 5453SOL     OW27817   1.908   2.637   2.940 -0.1900  0.6311 -0.2679
 5453SOL    HW127818   1.836   2.577   2.922 -1.1127  1.3983  0.9412
 5453SOL    HW227819   1.983   2.579   2.923  0.3739  1.4516 -0.6012
 5454SOL     OW27820   0.086   4.067   8.064  0.2684  0.5708 -0.2275
 5454SOL    HW127821   0.139   3.988   8.067 -0.4671  0.0175 -1.6029
 5454SOL    HW227822   0.018   4.058   8.130 -0.8903 -0.7674 -1.6023
 5455SOL     OW27823   4.167   0.073  10.697 -0.8310 -0.1886 -0.1195
 5455SOL    HW127824   4.145   0.098  10.607 -2.3562  0.9167  0.5499
 5455SOL    HW227825   4.078   0.051  10.726 -0.2306 -0.7343  1.3228
 5456SOL     OW27826   3.490   2.550   6.353 -0.4735 -0.4442 -0.3148
 5456SOL    HW127827   3.441   2.507   6.284 -0.3613  0.5349 -1.0074
 5456SOL    HW227828   3.468   2.643   6.347  0.5963 -0.1006  1.1799
 5457SOL     OW27829   2.661   1.589   4.056  0.3205  0.1261  0.1243
 5457SOL    HW127830   2.754   1.604   4.075 -0.1249 -0.1660  2.4790
 5457SOL    HW227831   2.669   1.588   3.960  1.8012 -1.2843  0.2641
 5458SOL     OW27832   3.185   3.625   0.012 -0.2958 -0.1908  0.7098
 5458SOL    HW127833   3.149   3.662  17.623  0.7286 -3.0434 -1.0309
 5458SOL    HW227834   3.221   3.701   0.058 -1.7735  1.4528 -0.8250
 5459SOL     OW27835   2.228   2.756   1.283  0.2942 -0.2809  0.1805
 5459SOL    HW127836   2.242   2.675   1.332 -1.2276 -1.3058 -1.0783
 5459SOL    HW227837   2.213   2.803   1.365  1.1117 -0.6749  0.5609
 5460SOL     OW27838   2.040   2.651   4.819  0.0272  0.1764  0.2731
 5460SOL    HW127839   1.980   2.720   4.848  2.2522  1.3021  2.2074
 5460SOL    HW227840   2.025   2.592   4.894  0.4944 -1.0190 -0.5681
 5461SOL     OW27841   3.190   4.125   8.140  0.3971  0.0877  0.5471
 5461SOL    HW127842   3.130   4.074   8.194  1.0016  0.4584  1.5617
 5461SOL    HW227843   3.191   4.209   8.185  0.4822  0.1488  0.4304
 5462SOL     OW27844   0.352   1.055   9.262 -0.0892  0.0835 -1.2282
 5462SOL    HW127845   0.344   1.132   9.317 -0.2477 -0.4679 -0.4701
 5462SOL    HW227846   0.295   1.073   9.187 -1.5747 -0.3779 -0.2227
 5463SOL     OW27847   3.997   1.888   6.963 -0.2590  0.0379 -0.3676
 5463SOL    HW127848   4.082   1.848   6.947  0.0899 -0.5075  2.7879
 5463SOL    HW227849   4.007   1.922   7.052  1.5382  0.0232 -0.5781
 5464SOL     OW27850   1.754   3.411   5.059 -0.2317  0.2581  0.1776
 5464SOL    HW127851   1.827   3.370   5.106 -0.1699 -0.0970 -0.2241
 5464SOL    HW227852   1.738   3.480   5.124 -1.2984 -1.2980  1.5408
 5465SOL     OW27853   2.648   0.760   2.065 -0.6817 -0.0287  0.1442
 5465SOL    HW127854   2.718   0.706   2.101 -1.2829  0.2794  1.7994
 5465SOL    HW227855   2.658   0.848   2.101  0.7753 -0.5014  0.8666
 5466SOL     OW27856   3.643   2.366  11.377 -0.6532  0.2545  0.1255
 5466SOL    HW127857   3.655   2.322  11.461 -1.4988  1.4698  0.8804
 5466SOL    HW227858   3.590   2.306  11.323 -2.8340  0.1062  2.4439
 5467SOL     OW27859   1.092   2.943  12.457  0.2958 -0.3369  0.8043
 5467SOL    HW127860   1.133   3.024  12.489  0.0423  0.9785 -2.2290
 5467SOL    HW227861   1.086   2.895  12.539 -0.3653 -2.0621 -0.2664
 5468SOL     OW27862   0.430   3.137   0.873 -0.0505 -0.2646  0.0238
 5468SOL    HW127863   0.437   3.204   0.942 -3.0903 -1.0887  1.1111
 5468SOL    HW227864   0.525   3.126   0.862  0.3551  1.5719  1.4930
 5469SOL     OW27865   2.178   2.813   9.818  0.3359 -0.2016 -0.1651
 5469SOL    HW127866   2.097   2.853   9.849  0.1875 -1.1422  0.6747
 5469SOL    HW227867   2.200   2.773   9.902  1.5121 -1.9613 -1.3131
 5470SOL     OW27868   2.663   2.758  17.668  0.1922  0.1748 -0.5097
 5470SOL    HW127869   2.650   2.852  17.657  0.0533 -0.0442 -2.1593
 5470SOL    HW227870   2.746   2.754  17.621  0.6610 -0.7493  0.3999
 5471SOL     OW27871   4.443   3.263   1.884  0.2860  0.8222 -0.9457
 5471SOL    HW127872   4.423   3.239   1.793 -0.7341 -2.7448  0.2301
 5471SOL    HW227873   4.422   3.357   1.881  2.7009  1.4115  0.2321
 5472SOL     OW27874   1.118   1.554  10.095 -0.5309 -1.0579  0.0729
 5472SOL    HW127875   1.146   1.645  10.109  0.0091 -1.1745 -0.2911
 5472SOL    HW227876   1.163   1.513  10.169  0.7194  1.7809  0.8861
 5473SOL     OW27877   4.000   2.220   1.877  0.1160  0.7782 -0.7550
 5473SOL    HW127878   4.047   2.193   1.798 -0.0746 -0.1334 -0.5565
 5473SOL    HW227879   3.920   2.246   1.831 -1.1307 -0.4991  0.7317
 5474SOL     OW27880   1.500   3.865   9.990  0.2600  0.0984 -0.0192
 5474SOL    HW127881   1.562   3.920   9.943  0.9928 -1.3929 -0.8091
 5474SOL    HW227882   1.493   3.909  10.075 -1.3697  0.0499 -0.1406
 5475SOL     OW27883   0.622   4.036   3.276 -0.0590  0.4338  0.4748
 5475SOL    HW127884   0.567   4.038   3.354 -0.8652  1.9602 -0.1410
 5475SOL    HW227885   0.553   4.065   3.216 -0.9595 -0.6793  0.9698
 5476SOL     OW27886   4.721   1.976   2.129 -0.0420 -0.4144 -0.3985
 5476SOL    HW127887   4.682   1.936   2.207 -0.0695  2.4266  1.0535
 5476SOL    HW227888   4.643   1.971   2.074  0.6058  1.4406 -1.4745
 5477SOL     OW27889   4.395   3.763   7.084 -0.1320  0.1465  0.2956
 5477SOL    HW127890   4.335   3.832   7.056  1.1408  0.7504 -0.8895
 5477SOL    HW227891   4.405   3.727   6.996  3.5387  1.4758  0.1734
 5478SOL     OW27892   3.013   1.979   7.248  0.5482  0.4181 -0.0983
 5478SOL    HW127893   2.951   1.918   7.288  0.6585  1.4222  1.6184
 5478SOL    HW227894   3.011   1.967   7.153  0.3219  0.1389 -0.0585
 5479SOL     OW27895   3.482   1.193   4.260 -0.0312  0.0805 -0.1986
 5479SOL    HW127896   3.558   1.135   4.252 -0.2218 -0.4689  2.0247
 5479SOL    HW227897   3.437   1.162   4.182  0.9007 -0.3589 -0.5585
 5480SOL     OW27898   3.820   0.403   1.956  0.0656 -0.4033  0.2547
 5480SOL    HW127899   3.739   0.436   1.916  0.0395 -1.1896 -0.3545
 5480SOL    HW227900   3.784   0.396   2.045 -2.3681  4.0565 -0.4071
 5481SOL     OW27901   4.714   2.435   7.206  0.0264 -0.2144  0.3717
 5481SOL    HW127902   0.063   2.446   7.143 -1.0362 -0.5685 -0.8781
 5481SOL    HW227903   0.022   2.348   7.233  0.3807 -0.1429  0.2080
 5482SOL     OW27904   0.234   3.540   5.821  0.5584  0.5538 -0.2757
 5482SOL    HW127905   0.284   3.551   5.901 -0.2941  1.5615  0.1326
 5482SOL    HW227906   0.301   3.506   5.762  0.2400 -0.0428 -0.2922
 5483SOL     OW27907   1.280   2.061   3.893 -0.0543 -0.1592  0.1709
 5483SOL    HW127908   1.220   1.996   3.931 -0.2113  0.0241  0.2377
 5483SOL    HW227909   1.259   2.046   3.800 -2.0885  0.0453  0.5807
 5484SOL     OW27910   2.234   0.821   9.834 -0.2584 -0.2979  0.2843
 5484SOL    HW127911   2.177   0.874   9.780  1.1494  0.0030 -0.8946
 5484SOL    HW227912   2.205   0.843   9.923  1.4670  0.1933  0.7264
 5485SOL     OW27913   0.448   3.857   3.673 -0.7421  1.2115  0.6574
 5485SOL    HW127914   0.388   3.803   3.622  0.2121  0.2801  0.5326
 5485SOL    HW227915   0.397   3.902   3.740 -1.2288  1.0555  0.3931
 5486SOL     OW27916   4.125   1.338  13.652  0.3707  0.0452 -0.4498
 5486SOL    HW127917   4.030   1.342  13.646  0.3189  1.3519  1.0930
 5486SOL    HW227918   4.140   1.257  13.603 -1.3218  0.2014 -1.2019
 5487SOL     OW27919   1.377   2.601   5.621 -0.1901 -0.0356  0.5523
 5487SOL    HW127920   1.389   2.681   5.673  1.4324 -1.3719  2.2266
 5487SOL    HW227921   1.346   2.535   5.683  2.8165 -0.6682  1.3983
 5488SOL     OW27922   1.462   3.951   6.409 -0.5609 -0.1894  0.1930
 5488SOL    HW127923   1.503   3.876   6.452  2.2621  1.4352  0.3238
 5488SOL    HW227924   1.434   4.005   6.484  0.1565  0.1493  0.2208
 5489SOL     OW27925   2.968   2.681   2.557 -0.2548 -0.4580  0.0772
 5489SOL    HW127926   2.890   2.675   2.611 -0.4577 -0.3765 -0.2047
 5489SOL    HW227927   3.027   2.736   2.608  0.8871 -0.8918 -0.7562
 5490SOL     OW27928   3.297   3.035   1.556 -0.0616 -0.1634 -0.5200
 5490SOL    HW127929   3.214   2.996   1.530  0.4424 -1.0738 -0.7778
 5490SOL    HW227930   3.344   2.954   1.575 -1.5427 -0.5650  1.3652
 5491SOL     OW27931   2.471   1.165   4.703 -0.4080  0.0567  0.7692
 5491SOL    HW127932   2.503   1.078   4.725 -2.9368 -1.3191 -1.0279
 5491SOL    HW227933   2.504   1.172   4.613  0.4769 -2.0535  0.9376
 5492SOL     OW27934   2.162   1.623   6.384 -0.2627  0.4030  0.7574
 5492SOL    HW127935   2.213   1.698   6.352 -0.0561 -0.7771 -1.6495
 5492SOL    HW227936   2.076   1.663   6.375 -0.2336  0.0290 -1.2781
 5493SOL     OW27937   3.971   1.691   8.916  0.4570  0.0553  0.2798
 5493SOL    HW127938   3.921   1.697   8.834 -2.4178  1.8900  2.1790
 5493SOL    HW227939   3.928   1.617   8.958  0.9923 -0.7836 -0.6474
 5494SOL     OW27940   4.682   0.473   6.492  0.2629  0.5961  0.0920
 5494SOL    HW127941   4.686   0.441   6.401 -0.1884  1.2592 -0.1605
 5494SOL    HW227942   0.047   0.439   6.510  0.8254  3.1846  2.2349
 5495SOL     OW27943   4.447   3.569   8.858  0.1121 -0.8498 -0.1389
 5495SOL    HW127944   4.469   3.637   8.921 -0.5770  0.4890 -1.3678
 5495SOL    HW227945   4.377   3.611   8.809 -0.4434 -1.3225  0.2518
 5496SOL     OW27946   4.366   1.349  11.498  0.0809  0.1227 -0.2649
 5496SOL    HW127947   4.409   1.285  11.555 -0.7887 -0.6569 -0.4725
 5496SOL    HW227948   4.379   1.423  11.558  0.1235 -1.2242  1.4101
 5497SOL     OW27949   4.296   1.692   4.144 -0.3513 -0.5517 -0.4284
 5497SOL    HW127950   4.308   1.611   4.094  1.0390 -0.6221  0.0246
 5497SOL    HW227951   4.383   1.693   4.184 -0.0301  0.9208 -1.2027
 5498SOL     OW27952   4.151   3.960   8.656  0.2511 -0.0886  0.1064
 5498SOL    HW127953   4.175   3.974   8.747 -1.1796  1.1215  0.2921
 5498SOL    HW227954   4.071   4.013   8.651 -0.1855 -0.7516 -0.0145
 5499SOL     OW27955   0.708   3.609  14.115  0.0765  0.2346  0.0259
 5499SOL    HW127956   0.691   3.692  14.159 -0.6598  1.0454 -1.8319
 5499SOL    HW227957   0.803   3.609  14.109 -0.0239  0.1896 -1.4945
 5500SOL     OW27958   0.670   3.767   2.866 -0.0164  0.0608 -0.4280
 5500SOL    HW127959   0.590   3.747   2.819 -0.5087 -1.0632  0.8711
 5500SOL    HW227960   0.647   3.843   2.919 -0.0652  1.0922 -1.9576
 5501SOL     OW27961   0.706   1.804   6.054  0.6434 -0.4038  0.0476
 5501SOL    HW127962   0.668   1.733   6.002  1.4780 -1.4662  0.8963
 5501SOL    HW227963   0.635   1.857   6.092  0.0769 -0.1055 -1.4243
 5502SOL     OW27964   2.950   1.178   7.751  0.1306  0.0656 -0.6969
 5502SOL    HW127965   2.891   1.253   7.743  0.0104  0.2309  1.8747
 5502SOL    HW227966   2.888   1.110   7.728 -2.0469  1.0593  2.2319
 5503SOL     OW27967   2.742   3.491   1.724  0.0272  0.3216  0.7879
 5503SOL    HW127968   2.765   3.567   1.777 -0.8019 -0.2468  1.9640
 5503SOL    HW227969   2.684   3.520   1.653  1.1661 -4.5243 -2.1629
 5504SOL     OW27970   0.336   0.038   2.697 -0.2711  0.3154  0.1559
 5504SOL    HW127971   0.301   0.123   2.725 -1.8107 -0.2469 -0.0628
 5504SOL    HW227972   0.309   0.039   2.605  1.1490  0.1797 -0.2554
 5505SOL     OW27973   3.087   4.360   6.803 -0.9027 -0.1490  0.1031
 5505SOL    HW127974   2.992   4.368   6.812 -0.5944  1.3627  2.0393
 5505SOL    HW227975   3.092   4.279   6.853 -0.8734 -0.5297 -0.5248
 5506SOL     OW27976   3.056   4.490  17.642 -0.2067 -0.1474  0.5391
 5506SOL    HW127977   3.082   4.502   0.041  0.5505  0.6962  0.2136
 5506SOL    HW227978   3.020   4.578  17.631  0.7344  0.2424  0.5143
 5507SOL     OW27979   0.628   2.900   0.633  0.0656  0.3416 -0.5078
 5507SOL    HW127980   0.721   2.920   0.642 -0.1366  0.9565  0.2267
 5507SOL    HW227981   0.595   2.974   0.581  0.1971 -0.3487 -1.5756
 5508SOL     OW27982   0.682   1.562   0.569  0.2434 -0.2102  0.3539
 5508SOL    HW127983   0.689   1.658   0.573  0.2562 -0.2927  2.4397
 5508SOL    HW227984   0.765   1.553   0.616 -1.1805  0.9195  3.0647
 5509SOL     OW27985   0.219   1.914   1.217  0.6570 -0.3615  0.1785
 5509SOL    HW127986   0.210   1.820   1.236 -1.5257 -0.3903 -0.9842
 5509SOL    HW227987   0.151   1.923   1.150  0.4823  1.8166  0.6710
 5510SOL     OW27988   3.179   2.941   1.089  0.3375 -0.0079 -0.3640
 5510SOL    HW127989   3.222   2.882   1.027  0.1126 -1.9396  1.3021
 5510SOL    HW227990   3.209   3.029   1.068 -0.7399  0.8317  1.5394
 5511SOL     OW27991   0.759   3.517   3.904  0.4585 -0.0049 -0.4696
 5511SOL    HW127992   0.783   3.476   3.821 -2.5088  0.5703 -1.5904
 5511SOL    HW227993   0.775   3.446   3.966 -1.0413 -2.5673 -3.0005
 5512SOL     OW27994   4.514   4.568   4.125 -0.6189 -0.5306  0.0817
 5512SOL    HW127995   4.562   4.588   4.044  1.3680 -1.5890  0.9840
 5512SOL    HW227996   4.520   4.656   4.162  1.0673 -1.0922  1.1760
 5513SOL     OW27997   1.678   2.450  17.676  0.1648  0.7845 -0.0569
 5513SOL    HW127998   1.623   2.487   0.053 -0.2064 -0.6284  0.4072
 5513SOL    HW227999   1.761   2.465   0.030 -0.6471  1.0033  1.3400
 5514SOL     OW28000   3.291   3.327  13.746 -0.7794 -0.0677  0.4732
 5514SOL    HW128001   3.271   3.379  13.669 -4.5233 -1.5539  0.4270
 5514SOL    HW228002   3.347   3.260  13.707 -0.0819  0.6096  0.3242
 5515SOL     OW28003   3.658   0.785   8.284 -0.1039  0.2212 -0.5517
 5515SOL    HW128004   3.608   0.851   8.236  0.1405 -0.8625 -2.2718
 5515SOL    HW228005   3.678   0.825   8.369 -1.4791  0.4701 -0.3346
 5516SOL     OW28006   4.496   3.307   8.878  0.0000 -0.0447 -0.2696
 5516SOL    HW128007   4.458   3.394   8.890  0.2457 -0.1757  1.4788
 5516SOL    HW228008   4.508   3.317   8.784  3.4568  1.0462  0.2496
 5517SOL     OW28009   1.425   3.302   1.545 -0.1823  0.0533  0.1531
 5517SOL    HW128010   1.427   3.219   1.593  1.8171  0.9499  1.6276
 5517SOL    HW228011   1.460   3.267   1.463 -0.6133 -0.9258  0.3844
 5518SOL     OW28012   4.106   0.702  11.921 -0.2613 -0.1154  0.3194
 5518SOL    HW128013   4.116   0.622  11.871  0.9903 -0.6462  1.4286
 5518SOL    HW228014   4.035   0.743  11.871  0.5154 -0.0688 -0.7332
 5519SOL     OW28015   1.033   2.675   6.325  0.0441 -0.4227 -0.1569
 5519SOL    HW128016   1.093   2.730   6.375 -2.7406 -0.5505  3.2984
 5519SOL    HW228017   1.059   2.584   6.340  0.7260 -0.0888  0.6726
 5520SOL     OW28018   2.082   0.636   2.274  0.1515  0.5598 -0.2361
 5520SOL    HW128019   2.165   0.683   2.272  1.3119 -1.5458 -1.8703
 5520SOL    HW228020   2.113   0.551   2.306 -0.6174  0.4883  0.3235
 5521SOL     OW28021   3.798   3.822   8.621 -0.1516 -0.1925  0.5670
 5521SOL    HW128022   3.710   3.784   8.620  0.2616 -1.1339 -0.3875
 5521SOL    HW228023   3.849   3.743   8.598 -2.8908 -2.0336  0.8216
 5522SOL     OW28024   4.139   1.905   1.153 -0.0267 -0.0227  0.3938
 5522SOL    HW128025   4.132   2.001   1.156  0.0488 -0.0591  2.1795
 5522SOL    HW228026   4.233   1.899   1.138 -0.0433 -1.7868  1.0846
 5523SOL     OW28027   2.802   2.918   9.564 -0.1942  0.7829 -0.5406
 5523SOL    HW128028   2.881   2.955   9.604 -0.1679  1.6459 -1.3908
 5523SOL    HW228029   2.739   2.986   9.587  1.0802  0.5847  3.5474
 5524SOL     OW28030   4.615   4.711  14.294  1.0023 -0.0894  0.1427
 5524SOL    HW128031   4.657   4.679  14.374  1.0065 -2.0809 -0.6714
 5524SOL    HW228032   4.674   0.063  14.281  0.6208  0.0727 -0.6980
 5525SOL     OW28033   1.951   1.625   3.123 -0.3874  0.2578  0.1381
 5525SOL    HW128034   2.004   1.671   3.059 -0.4207  0.3684  0.1893
 5525SOL    HW228035   1.922   1.702   3.173  0.5357 -0.1690  1.3057
 5526SOL     OW28036   0.568   0.974   9.097  0.3083 -0.3360  0.1891
 5526SOL    HW128037   0.490   0.930   9.064  0.6333  2.5363 -4.3544
 5526SOL    HW228038   0.532   1.014   9.176 -0.3696 -2.5041  0.9931
 5527SOL     OW28039   4.550   1.769   4.256 -0.1747  0.4458 -0.2678
 5527SOL    HW128040   4.574   1.755   4.348  1.1250  0.5765 -0.5825
 5527SOL    HW228041   4.638   1.780   4.220 -0.9210 -1.9040 -2.8605
 5528SOL     OW28042   0.772   4.569  16.691 -0.0055  0.4855 -0.3979
 5528SOL    HW128043   0.825   4.510  16.745 -2.1880  1.1179  2.4684
 5528SOL    HW228044   0.839   4.633  16.667 -0.0898  1.2081  1.2742
 5529SOL     OW28045   2.452   3.433  10.158  0.3091 -0.0758  0.2064
 5529SOL    HW128046   2.462   3.350  10.112 -1.1055  0.5821 -1.3023
 5529SOL    HW228047   2.359   3.442  10.178  0.2028  1.0436 -0.7675
 5530SOL     OW28048   2.241   1.419   7.610  0.0533 -0.5545  0.4293
 5530SOL    HW128049   2.209   1.458   7.692  0.2145 -2.1963  1.2665
 5530SOL    HW228050   2.176   1.461   7.555  0.1547 -0.7627  0.1526
 5531SOL     OW28051   2.885   0.906   4.095  0.3571 -1.3872  0.7838
 5531SOL    HW128052   2.797   0.874   4.112 -1.1240  3.2849  1.7997
 5531SOL    HW228053   2.868   0.993   4.058  0.3391 -1.3936  0.7773
 5532SOL     OW28054   2.382   1.924   0.575  0.6084  0.0384  0.4061
 5532SOL    HW128055   2.371   1.942   0.481  2.1455  3.2713  0.8325
 5532SOL    HW228056   2.455   1.982   0.595  2.6935 -1.4082 -2.9350
 5533SOL     OW28057   2.229   4.559   0.148  0.0417  0.2480 -0.0467
 5533SOL    HW128058   2.177   4.628   0.107 -1.0450 -1.5036 -1.6179
 5533SOL    HW228059   2.156   4.500   0.161 -0.3979  0.9841  0.7776
 5534SOL     OW28060   2.609   0.167   3.883  0.1805 -0.3131 -0.5299
 5534SOL    HW128061   2.537   0.184   3.821  1.8804  0.7345 -2.2342
 5534SOL    HW228062   2.565   0.099   3.933 -0.6095 -1.6224 -2.9768
 5535SOL     OW28063   0.820   3.369  16.890 -0.6889 -0.3250 -0.3558
 5535SOL    HW128064   0.774   3.307  16.947  0.0421 -1.8040 -1.3729
 5535SOL    HW228065   0.884   3.316  16.842 -0.8715 -0.8572 -0.0122
 5536SOL     OW28066   1.809   4.178   2.130 -0.4812  0.9094  0.0211
 5536SOL    HW128067   1.763   4.133   2.059 -0.9590 -1.7689  2.0323
 5536SOL    HW228068   1.884   4.119   2.138 -0.6051  0.9120  1.3178
 5537SOL     OW28069   1.226   0.065   3.550  0.2133 -0.0258 -0.2371
 5537SOL    HW128070   1.311   0.054   3.594 -0.6502  0.8705  1.6428
 5537SOL    HW228071   1.236   0.026   3.464 -1.9688  0.7787 -0.8548
 5538SOL     OW28072   0.331   1.060   5.719 -0.0303 -0.1612  0.2052
 5538SOL    HW128073   0.317   1.139   5.770  2.8870  2.3365 -2.8644
 5538SOL    HW228074   0.384   1.085   5.643 -0.0118 -1.1355 -0.1094
 5539SOL     OW28075   0.636   2.730   4.854  0.3113  0.0444 -0.3209
 5539SOL    HW128076   0.554   2.759   4.814  1.0677  1.2973 -0.9611
 5539SOL    HW228077   0.621   2.644   4.891  1.0703 -0.3050 -0.8326
 5540SOL     OW28078   0.343   0.674   5.003  0.6612  0.9223 -0.0039
 5540SOL    HW128079   0.305   0.720   4.929  0.1729  2.6305  1.3185
 5540SOL    HW228080   0.395   0.609   4.956 -1.4827  0.1655 -1.3233
 5541SOL     OW28081   2.645   3.982   8.248  0.2356  0.7867 -0.3142
 5541SOL    HW128082   2.555   3.949   8.250  0.0697  1.1813 -2.1051
 5541SOL    HW228083   2.641   4.046   8.178  1.4177 -0.8333 -1.8855
 5542SOL     OW28084   2.178   0.115  15.258  0.1093  0.2378  0.5321
 5542SOL    HW128085   2.175   0.066  15.340 -0.5196  0.2496  0.5168
 5542SOL    HW228086   2.121   0.069  15.197  0.3072  0.2422  0.3432
 5543SOL     OW28087   1.320   2.423   3.688 -0.0780  0.2359 -0.3958
 5543SOL    HW128088   1.298   2.345   3.636 -1.4067  1.7281 -2.0558
 5543SOL    HW228089   1.352   2.384   3.770 -0.4298 -0.2779 -0.4947
 5544SOL     OW28090   1.809   4.622   8.341  0.2080  0.3027  0.7416
 5544SOL    HW128091   1.749   4.688   8.307  0.8263  0.3111 -0.3456
 5544SOL    HW228092   1.870   4.675   8.393  2.5774 -3.1821  1.5574
 5545SOL     OW28093   1.306   1.207  16.191  0.2600  0.1921 -0.0673
 5545SOL    HW128094   1.234   1.216  16.129 -1.0940 -1.7739  1.2321
 5545SOL    HW228095   1.357   1.289  16.193  1.5079 -0.5653 -1.0391
 5546SOL     OW28096   2.235   1.588   1.496 -0.5280 -0.3314  0.0331
 5546SOL    HW128097   2.201   1.650   1.431 -0.3831 -1.5104 -1.1516
 5546SOL    HW228098   2.255   1.509   1.446 -0.2573 -0.4828  0.3777
 5547SOL     OW28099   4.273   1.939  12.831 -0.3715 -0.4529  0.5584
 5547SOL    HW128100   4.298   1.978  12.915 -0.4915 -0.4845  0.6087
 5547SOL    HW228101   4.319   2.001  12.774 -1.6682 -1.9794 -2.1269
 5548SOL     OW28102   0.061   3.351   6.471  0.3438  0.0643 -0.5245
 5548SOL    HW128103   4.711   3.336   6.410  0.3833 -1.1456 -0.2821
 5548SOL    HW228104   0.025   3.355   6.560  0.7271  0.3713 -0.3894
 5549SOL     OW28105   2.136   0.682   3.261 -0.7113  0.3792  0.2709
 5549SOL    HW128106   2.108   0.771   3.283 -1.2351 -0.0302  1.3101
 5549SOL    HW228107   2.049   0.642   3.247 -0.5454 -0.3335  1.2593
 5550SOL     OW28108   1.173   3.097   8.900 -0.1791  0.3591 -0.0294
 5550SOL    HW128109   1.078   3.095   8.888 -0.6314  0.6326  3.4730
 5550SOL    HW228110   1.190   3.163   8.833  3.3645 -1.9532 -1.3927
 5551SOL     OW28111   4.535   0.312   0.664 -0.2003  0.3656  0.6965
 5551SOL    HW128112   4.555   0.322   0.757 -2.2983 -1.4607  1.3506
 5551SOL    HW228113   4.450   0.353   0.647  0.3208  1.6573  1.1434
 5552SOL     OW28114   3.200   3.239  16.872  0.0876 -0.5169 -0.8528
 5552SOL    HW128115   3.246   3.231  16.789 -1.3882  1.5060 -1.8882
 5552SOL    HW228116   3.223   3.163  16.925 -0.3817  0.4189  0.7030
 5553SOL     OW28117   4.309   4.040   0.923  0.1920 -0.4511  0.6008
 5553SOL    HW128118   4.240   3.974   0.910  0.6717 -0.6842 -0.7911
 5553SOL    HW228119   4.394   3.996   0.924  0.5990  0.3767  2.6463
 5554SOL     OW28120   0.799   0.916   9.518  0.5956  0.0013 -0.2513
 5554SOL    HW128121   0.822   0.866   9.440  0.2335  1.3731 -1.2340
 5554SOL    HW228122   0.720   0.865   9.538 -0.6166  1.1968 -1.9867
 5555SOL     OW28123   1.808   2.177  17.004  0.7480 -0.4952 -0.1471
 5555SOL    HW128124   1.786   2.230  17.080 -2.2279 -1.1508 -0.5672
 5555SOL    HW228125   1.857   2.112  17.055 -2.7458 -1.1756  2.3603
 5556SOL     OW28126   4.199   0.049   5.332  0.1359  0.3794  0.0842
 5556SOL    HW128127   4.181   0.143   5.325 -0.5295  0.2635  0.2646
 5556SOL    HW228128   4.112   0.015   5.312 -0.9298  3.7999 -1.0380
 5557SOL     OW28129   2.759   1.618   5.875 -0.1466  0.1586  0.1011
 5557SOL    HW128130   2.817   1.551   5.911 -1.5057 -1.3585 -0.5591
 5557SOL    HW228131   2.685   1.571   5.837  0.3664  0.1350 -0.8558
 5558SOL     OW28132   3.951   4.499  10.385 -0.3583  0.4650  0.1954
 5558SOL    HW128133   3.880   4.492  10.321  0.3558  3.2781 -0.8939
 5558SOL    HW228134   3.894   4.463  10.453 -0.0957 -0.4378 -0.0647
 5559SOL     OW28135   2.032   0.435   6.238 -0.0628  0.1791 -0.6092
 5559SOL    HW128136   2.017   0.407   6.329  2.0707 -1.2688 -0.7210
 5559SOL    HW228137   2.033   0.352   6.192  2.5085 -0.2537  0.2583
 5560SOL     OW28138   2.392   4.465  12.978  0.1150  0.3852  0.5586
 5560SOL    HW128139   2.302   4.463  13.009  0.1503  0.8706  0.6855
 5560SOL    HW228140   2.438   4.519  13.043  0.9392  0.3715 -0.0112
 5561SOL     OW28141   3.950   0.501   4.745  0.4156 -0.5928  0.6911
 5561SOL    HW128142   3.915   0.413   4.755  0.7121 -0.5245  2.3491
 5561SOL    HW228143   3.878   0.564   4.739  0.8248 -0.2179 -0.2310
 5562SOL     OW28144   3.874   3.364   9.721 -0.3527  0.1414  1.2900
 5562SOL    HW128145   3.906   3.294   9.777  1.4294 -1.9578 -2.3228
 5562SOL    HW228146   3.876   3.311   9.641 -1.7963  2.1324 -0.0687
 5563SOL     OW28147   3.722   3.937  15.563  0.0529 -0.3199  0.0124
 5563SOL    HW128148   3.700   3.988  15.641  0.2700  1.1323 -0.8792
 5563SOL    HW228149   3.672   3.855  15.572  1.2572 -1.1602 -0.9099
 5564SOL     OW28150   3.364   0.905   4.461  0.4355 -0.0579  0.4233
 5564SOL    HW128151   3.367   0.919   4.556  2.7580  1.2563  0.1429
 5564SOL    HW228152   3.332   0.990   4.432 -0.6748 -0.7851 -0.4420
 5565SOL     OW28153   3.098   1.017   8.388  0.3187  0.3869  0.0559
 5565SOL    HW128154   3.011   0.978   8.379  0.4028 -0.0719  1.2802
 5565SOL    HW228155   3.140   0.952   8.444 -1.4295 -1.4503 -0.7765
 5566SOL     OW28156   3.299   1.225   4.653  0.4398  0.3443 -0.1673
 5566SOL    HW128157   3.386   1.248   4.619  1.8126 -1.1968  2.3034
 5566SOL    HW228158   3.274   1.179   4.574  1.6255 -0.5202 -0.0345
 5567SOL     OW28159   4.176   3.199   8.159 -0.2842  0.3947  0.1961
 5567SOL    HW128160   4.172   3.232   8.069 -1.2761  2.5928  1.0371
 5567SOL    HW228161   4.191   3.106   8.144  0.3235  1.0268 -3.2780
 5568SOL     OW28162   3.940   1.893   2.231  0.1693  0.0691 -0.4974
 5568SOL    HW128163   3.997   1.816   2.220 -0.1493  0.1631 -2.8867
 5568SOL    HW228164   3.936   1.929   2.142  1.1077  0.6775 -0.2947
 5569SOL     OW28165   1.374   0.844  16.306  0.7167  0.4582 -0.0618
 5569SOL    HW128166   1.426   0.852  16.226  1.1722 -0.6289  0.1253
 5569SOL    HW228167   1.301   0.785  16.289 -0.5368  1.8893  0.3179
 5570SOL     OW28168   0.559   1.599   4.567 -0.2118  0.2663  0.2574
 5570SOL    HW128169   0.553   1.596   4.472  2.2365  0.1002  0.1159
 5570SOL    HW228170   0.544   1.505   4.577 -0.8740  0.2926 -0.5362
 5571SOL     OW28171   4.482   0.243  11.298  0.4002 -0.1460  0.7825
 5571SOL    HW128172   4.540   0.255  11.374 -0.0951 -1.1979  1.3395
 5571SOL    HW228173   4.392   0.246  11.332 -0.6928  0.8651 -2.2696
 5572SOL     OW28174   2.246   0.945   7.418 -0.2391 -0.2150  0.4495
 5572SOL    HW128175   2.323   0.994   7.387 -0.1803  0.6444  1.9646
 5572SOL    HW228176   2.194   0.912   7.345  0.3113 -1.2906  0.5325
 5573SOL     OW28177   0.870   0.227   4.301 -0.0951  0.1683 -0.1042
 5573SOL    HW128178   0.831   0.314   4.308 -0.6640  0.0551 -1.7815
 5573SOL    HW228179   0.829   0.184   4.226  0.1521 -2.0437  1.0332
 5574SOL     OW28180   0.156   3.472   7.738  0.1206 -0.5289  0.3128
 5574SOL    HW128181   0.226   3.414   7.765  1.9741  0.9317 -1.3568
 5574SOL    HW228182   0.125   3.501   7.824  1.4286  1.4233  0.1228
 5575SOL     OW28183   3.258   3.892   2.843 -0.4348 -0.5396  0.1840
 5575SOL    HW128184   3.211   3.810   2.853 -0.3144 -0.3729  1.9761
 5575SOL    HW228185   3.213   3.953   2.902 -0.7698 -0.5069 -0.1026
 5576SOL     OW28186   0.692   1.093   5.028 -0.4927 -0.1333 -0.2189
 5576SOL    HW128187   0.613   1.057   5.068  0.2148 -1.0068  0.4196
 5576SOL    HW228188   0.717   1.154   5.097 -1.0007  0.8054 -0.8702
 5577SOL     OW28189   0.289   4.319  11.261  0.2924 -0.5881  0.1858
 5577SOL    HW128190   0.226   4.366  11.316 -1.3645 -2.4501 -0.1393
 5577SOL    HW228191   0.370   4.357  11.295 -0.2193  0.6644  0.0213
 5578SOL     OW28192   1.210   4.313   2.495 -0.0306  0.1750 -0.1339
 5578SOL    HW128193   1.238   4.292   2.406  0.6961  1.9474 -0.3228
 5578SOL    HW228194   1.292   4.321   2.544  0.0011  0.2873 -0.2067
 5579SOL     OW28195   1.348   3.728   1.321  0.0122 -0.3232 -0.0721
 5579SOL    HW128196   1.348   3.696   1.411 -0.4352 -0.1566 -0.0141
 5579SOL    HW228197   1.254   3.725   1.302  0.2119 -0.4312 -1.0464
 5580SOL     OW28198   1.686   4.415   7.244 -0.2895 -0.3232  0.1646
 5580SOL    HW128199   1.719   4.366   7.319 -1.2610 -0.1827  0.6851
 5580SOL    HW228200   1.616   4.468   7.284  0.9676  1.7726 -0.3762
 5581SOL     OW28201   1.670   2.263   8.913  0.2947 -0.1822  0.3710
 5581SOL    HW128202   1.606   2.222   8.971 -0.5955 -1.7654 -1.7414
 5581SOL    HW228203   1.744   2.203   8.920  1.9543  1.9239  0.9294
 5582SOL     OW28204   4.128   2.846   4.979 -0.0242  0.5561  0.0306
 5582SOL    HW128205   4.177   2.792   5.041  1.7198  0.6357 -1.2882
 5582SOL    HW228206   4.166   2.925   5.018  0.9175  1.5443 -2.9565
 5583SOL     OW28207   0.266   3.961  11.817  0.2280  1.0095 -0.4235
 5583SOL    HW128208   0.339   3.922  11.866  0.6932  0.3286 -1.6614
 5583SOL    HW228209   0.305   4.049  11.817  1.2330  0.5781  1.0997
 5584SOL     OW28210   2.026   0.933  12.307  0.5241  0.5249  0.1090
 5584SOL    HW128211   2.100   0.877  12.331  1.4030  1.2666 -0.9045
 5584SOL    HW228212   2.040   1.016  12.353 -0.3125  0.9906 -0.4887
 5585SOL     OW28213   4.027   1.828   9.238 -0.5524 -0.4199 -0.1915
 5585SOL    HW128214   3.986   1.783   9.312  0.2892 -1.4760 -0.3775
 5585SOL    HW228215   4.026   1.762   9.169  0.1991 -1.9261  1.2311
 5586SOL     OW28216   1.529   1.914  15.104 -0.4456  0.1957 -0.3629
 5586SOL    HW128217   1.581   1.954  15.174  0.0986 -2.6427  0.8671
 5586SOL    HW228218   1.576   1.946  15.027  0.6535  0.3776  0.3912
 5587SOL     OW28219   0.989   2.369   3.296  0.0296 -0.3344  0.6684
 5587SOL    HW128220   1.003   2.281   3.262 -0.4514 -0.1930  0.0946
 5587SOL    HW228221   1.029   2.418   3.224  1.8429 -2.7595  0.0373
 5588SOL     OW28222   4.496   1.655   7.154 -0.2669  0.3477  0.1904
 5588SOL    HW128223   4.585   1.635   7.183 -0.1133  0.2879 -0.3254
 5588SOL    HW228224   4.451   1.598   7.217 -0.3064 -1.2208 -1.2595
 5589SOL     OW28225   4.341   4.272  13.385  1.3419 -0.0732 -0.1713
 5589SOL    HW128226   4.303   4.264  13.473  1.0328  0.1155 -0.2888
 5589SOL    HW228227   4.329   4.188  13.341  0.3545 -0.2345  0.3997
 5590SOL     OW28228   1.883   0.177   7.237 -0.0463  0.1913  0.5858
 5590SOL    HW128229   1.800   0.181   7.189  0.9196 -0.1723 -1.0838
 5590SOL    HW228230   1.923   0.261   7.216 -0.4310  0.3065  0.3199
 5591SOL     OW28231   1.369   0.731   0.666 -0.1958  0.0273  0.0323
 5591SOL    HW128232   1.350   0.766   0.579 -0.8515 -0.1483  0.1031
 5591SOL    HW228233   1.284   0.743   0.708  0.6493 -1.0226  2.0298
 5592SOL     OW28234   1.175   3.961   7.223 -0.4205 -0.2630 -0.6258
 5592SOL    HW128235   1.235   3.904   7.271 -0.3480  1.2924  1.1353
 5592SOL    HW228236   1.168   4.025   7.293  0.0347 -0.3493 -0.4963
 5593SOL     OW28237   0.386   1.207   8.268 -0.2796 -0.4915  0.1003
 5593SOL    HW128238   0.305   1.170   8.303 -0.8172  3.4570  3.1296
 5593SOL    HW228239   0.364   1.298   8.250 -0.7023 -0.4836  0.6664
 5594SOL     OW28240   2.847   1.807   7.663  0.0382  0.3014  0.4123
 5594SOL    HW128241   2.923   1.767   7.619 -0.8914  0.8391 -1.6937
 5594SOL    HW228242   2.852   1.897   7.631 -1.5857 -0.1364 -1.0466
 5595SOL     OW28243   3.562   2.889   5.693 -0.4699 -0.4239  0.0694
 5595SOL    HW128244   3.493   2.953   5.679  1.1493  1.0852 -0.9744
 5595SOL    HW228245   3.620   2.905   5.619 -0.8972 -0.1100 -0.1926
 5596SOL     OW28246   1.800   3.956   8.156  0.6624 -0.0011  1.0183
 5596SOL    HW128247   1.832   3.866   8.151  0.5917  0.0488 -0.3607
 5596SOL    HW228248   1.773   3.968   8.065 -0.1540 -0.2259  1.2263
 5597SOL     OW28249   2.312   1.294   7.093  0.1276 -0.2509 -0.2096
 5597SOL    HW128250   2.315   1.360   7.024  0.3904 -1.4316 -1.3480
 5597SOL    HW228251   2.245   1.234   7.060 -0.2938 -0.6942  1.5043
 5598SOL     OW28252   1.620   4.071  15.386 -0.4638  0.2173 -0.3736
 5598SOL    HW128253   1.670   4.056  15.306  1.2533  1.2167  0.5196
 5598SOL    HW228254   1.622   4.167  15.391  2.1720  0.0764  1.0692
 5599SOL     OW28255   3.080   2.765   6.566 -0.0369 -0.2104  0.0042
 5599SOL    HW128256   3.125   2.687   6.533  1.1926  1.0299 -1.2578
 5599SOL    HW228257   3.119   2.836   6.514 -2.0752  2.6990  2.4873
 5600SOL     OW28258   4.177   1.307   2.850  0.1795 -0.2635  0.8022
 5600SOL    HW128259   4.249   1.251   2.881  2.1497  2.0723  0.5018
 5600SOL    HW228260   4.149   1.269   2.767  1.1935  0.3141  0.1929
 5601SOL     OW28261   2.950   0.053   7.473 -0.7673  0.1249  0.5144
 5601SOL    HW128262   2.982   0.080   7.387  1.0217 -2.1703  0.4647
 5601SOL    HW228263   3.029   0.019   7.516 -2.1568 -0.8901  2.2481
 5602SOL     OW28264   4.544   1.029   5.469 -0.6758  0.1799  0.0443
 5602SOL    HW128265   4.624   0.978   5.461  1.2286  3.1822 -0.1727
 5602SOL    HW228266   4.524   1.017   5.562 -2.6023 -0.3199 -0.4306
 5603SOL     OW28267   2.195   1.922   6.450 -0.0496 -0.2934  0.0051
 5603SOL    HW128268   2.257   1.983   6.491 -0.2076 -0.1208 -0.0097
 5603SOL    HW228269   2.251   1.897   6.376  1.7723 -0.6772  1.5121
 5604SOL     OW28270   3.365   3.969  12.908  0.3543  0.0383  0.9694
 5604SOL    HW128271   3.422   3.912  12.960 -2.0042 -0.9902  2.4029
 5604SOL    HW228272   3.389   4.047  12.958  1.2927  0.9747 -0.9404
 5605SOL     OW28273   2.639   0.101  11.214 -0.3221 -0.4843 -0.6010
 5605SOL    HW128274   2.629   0.089  11.120  1.2068  0.8520 -0.9481
 5605SOL    HW228275   2.671   0.192  11.214 -0.4857 -0.4334  1.7927
 5606SOL     OW28276   3.908   2.136  13.228  0.0593  1.0800 -0.0186
 5606SOL    HW128277   3.900   2.126  13.323 -1.8817  0.7994 -0.2069
 5606SOL    HW228278   3.958   2.056  13.207 -0.1845  1.1630 -0.8988
 5607SOL     OW28279   0.097   3.082   6.415  0.2814  0.4295  0.0810
 5607SOL    HW128280   0.068   3.173   6.422  1.8067  0.9376 -0.2560
 5607SOL    HW228281   0.082   3.053   6.505  0.5991  0.3534  0.1099
 5608SOL     OW28282   2.736   4.406   8.471 -0.5622 -0.1761 -0.8590
 5608SOL    HW128283   2.789   4.455   8.408  2.4753 -1.6580  0.5341
 5608SOL    HW228284   2.806   4.356   8.513 -0.6102 -2.1056 -3.1276
 5609SOL     OW28285   0.119   3.802   5.987  0.0863  0.4224  0.4558
 5609SOL    HW128286   0.191   3.833   6.042  1.5144 -0.9591 -0.6630
 5609SOL    HW228287   0.169   3.747   5.928  0.6248  0.9553  0.4148
 5610SOL     OW28288   0.071   4.163  13.433 -0.5120 -0.9189 -0.0651
 5610SOL    HW128289   0.041   4.230  13.371  0.3313  0.4737  1.0326
 5610SOL    HW228290   0.102   4.095  13.374  2.0177  0.7988 -0.7130
 5611SOL     OW28291   1.723   1.934   6.455 -0.2688  0.6813  0.3910
 5611SOL    HW128292   1.672   1.999   6.503  1.7109  2.7327 -0.3165
 5611SOL    HW228293   1.815   1.947   6.476 -0.3957 -0.3328  1.6527
 5612SOL     OW28294   4.346   1.122   6.220 -0.9181 -0.7749 -0.4014
 5612SOL    HW128295   4.422   1.099   6.274  0.1131  0.1442 -1.4516
 5612SOL    HW228296   4.376   1.209   6.192  1.4133 -0.8685  1.7346
 5613SOL     OW28297   3.506   2.420   7.798  0.4260  0.4981  0.2671
 5613SOL    HW128298   3.587   2.408   7.847  0.4071 -0.9397 -0.0481
 5613SOL    HW228299   3.464   2.480   7.859  2.6523  0.8324  1.4591
 5614SOL     OW28300   3.562   0.947   2.286  0.0207 -0.9331  0.2023
 5614SOL    HW128301   3.644   0.973   2.244  0.3382 -2.1327  0.0531
 5614SOL    HW228302   3.567   1.006   2.360 -2.3531 -1.1021  0.4912
 5615SOL     OW28303   2.247   0.072   9.293  0.3055 -0.4894 -0.1860
 5615SOL    HW128304   2.208   0.119   9.367 -0.1819 -1.4303  0.1560
 5615SOL    HW228305   2.340   0.078   9.311  0.0104 -1.3323  1.6176
 5616SOL     OW28306   1.576   3.782   9.703  0.3952  0.1077 -0.2698
 5616SOL    HW128307   1.588   3.825   9.619 -2.7708  1.9313  0.2322
 5616SOL    HW228308   1.666   3.773   9.736  0.5682 -1.6224 -1.2528
 5617SOL     OW28309   1.960   2.000  17.135  0.1161 -0.1526 -0.4097
 5617SOL    HW128310   2.005   1.940  17.076  0.6960 -0.0352 -0.0870
 5617SOL    HW228311   2.028   2.022  17.199 -0.1936  0.9608 -0.4594
 5618SOL     OW28312   2.967   2.546   6.743 -0.0077 -0.5161  0.4886
 5618SOL    HW128313   2.981   2.639   6.729  1.0400 -0.5637  1.1689
 5618SOL    HW228314   3.027   2.508   6.678  0.8562  2.5169 -0.4621
 5619SOL     OW28315   4.640   1.247  11.570  0.5906 -0.1647  0.2788
 5619SOL    HW128316   4.714   1.199  11.607  2.1465  2.2610  0.3374
 5619SOL    HW228317   4.679   1.330  11.543 -1.6406  0.1833 -1.8777
 5620SOL     OW28318   0.637   3.464   6.312  0.4359 -0.0490  0.7372
 5620SOL    HW128319   0.675   3.407   6.245 -1.2723 -2.5084  1.8504
 5620SOL    HW228320   0.581   3.399   6.355  0.3479 -1.3715 -1.3742
 5621SOL     OW28321   1.051   4.713   9.390 -0.5286  0.3737 -0.5086
 5621SOL    HW128322   0.982   4.656   9.356 -0.5290  0.3140 -0.4099
 5621SOL    HW228323   1.105   4.650   9.438 -1.3507  1.3948  1.8033
 5622SOL     OW28324   2.899   0.590   6.707 -0.4150 -0.4175 -0.3729
 5622SOL    HW128325   2.879   0.639   6.627  4.0821 -0.3387 -1.4691
 5622SOL    HW228326   2.986   0.629   6.718 -1.1294  1.5579 -1.6128
 5623SOL     OW28327   0.463   0.888  11.740 -0.5801  0.2606  0.3332
 5623SOL    HW128328   0.383   0.869  11.790 -1.8603 -1.4293 -2.3616
 5623SOL    HW228329   0.460   0.984  11.736 -1.8205  0.1614 -0.8912
 5624SOL     OW28330   0.912   0.063   4.054  0.3043  0.0878  0.5185
 5624SOL    HW128331   0.906   4.717   4.120 -0.7969 -1.8736 -1.6097
 5624SOL    HW228332   0.876   0.024   3.973  0.7972  1.1753 -0.2197
 5625SOL     OW28333   4.111   3.335   2.181  0.2811  0.9782  0.2463
 5625SOL    HW128334   4.084   3.415   2.227  0.1483  1.4755 -0.6947
 5625SOL    HW228335   4.206   3.329   2.197  0.3166 -0.4492 -0.5131
 5626SOL     OW28336   0.677   1.058   7.587 -0.0765  0.5178 -0.1746
 5626SOL    HW128337   0.605   1.073   7.525  0.8690 -1.8954 -1.8653
 5626SOL    HW228338   0.683   0.963   7.596  1.2146  0.6375  0.2820
 5627SOL     OW28339   3.590   3.974   5.875  0.4833 -0.4727  0.2667
 5627SOL    HW128340   3.545   4.009   5.952 -2.0084 -0.4693 -1.2039
 5627SOL    HW228341   3.589   4.047   5.813 -1.1885 -0.2521  0.5470
 5628SOL     OW28342   2.243   1.606  12.378 -0.0019 -0.0779  0.0128
 5628SOL    HW128343   2.221   1.676  12.439 -0.1294  0.4271 -0.6098
 5628SOL    HW228344   2.265   1.658  12.301 -1.4876 -2.6361 -2.1180
 5629SOL     OW28345   2.622   4.136   6.059  0.7007 -0.0690  0.6703
 5629SOL    HW128346   2.591   4.208   6.004  0.2285 -1.1346 -0.4554
 5629SOL    HW228347   2.701   4.175   6.096  0.5791  3.0375 -2.3021
 5630SOL     OW28348   4.414   0.901   2.752 -0.2142  0.2690  0.6115
 5630SOL    HW128349   4.410   0.982   2.803 -0.0837  0.4085  0.3975
 5630SOL    HW228350   4.373   0.849   2.821  0.9292 -1.8990 -0.3594
 5631SOL     OW28351   0.142   0.383   1.440  0.3990 -0.9517 -0.3392
 5631SOL    HW128352   0.184   0.307   1.480 -0.4552 -0.2491  1.8510
 5631SOL    HW228353   0.051   0.353   1.436  0.2997 -0.5334 -1.3212
 5632SOL     OW28354   4.418   2.505  17.203  0.3497  0.0617 -0.5083
 5632SOL    HW128355   4.482   2.569  17.173  0.0381  0.2875 -0.6885
 5632SOL    HW228356   4.409   2.454  17.123 -0.2792 -0.7329  0.0657
 5633SOL     OW28357   4.309   0.476   0.849 -0.1873  0.1496  0.0784
 5633SOL    HW128358   4.398   0.478   0.885 -0.5304 -2.0044  1.0277
 5633SOL    HW228359   4.267   0.430   0.921  2.1778 -1.3722  0.4886
 5634SOL     OW28360   4.120   1.288   3.453 -0.0478  0.1409  0.4267
 5634SOL    HW128361   4.052   1.345   3.490 -0.5081 -1.3605  1.9227
 5634SOL    HW228362   4.174   1.277   3.531  1.1821  4.0112  0.1190
 5635SOL     OW28363   1.029   2.633  12.369  0.1928 -0.1621  0.1533
 5635SOL    HW128364   1.010   2.726  12.374  0.9198 -0.1501  2.7425
 5635SOL    HW228365   0.970   2.598  12.437  1.1609  0.3512  1.2503
 5636SOL     OW28366   0.830   4.489   3.067  0.2159 -0.2523 -0.1495
 5636SOL    HW128367   0.807   4.511   2.977  1.5049  0.4962 -0.2988
 5636SOL    HW228368   0.833   4.394   3.066 -0.1150 -0.2855  2.1353
 5637SOL     OW28369   3.992   0.894   3.520 -0.1944 -0.5515  0.3129
 5637SOL    HW128370   4.044   0.942   3.455  1.7147 -0.9780  1.5505
 5637SOL    HW228371   3.944   0.835   3.462  1.7004 -1.2611 -0.5489
 5638SOL     OW28372   3.761   0.975   7.547  0.7705 -0.2161 -0.5552
 5638SOL    HW128373   3.703   0.952   7.474  2.3487  0.4349 -1.9914
 5638SOL    HW228374   3.845   1.006   7.515  0.8463 -1.1649 -1.2636
 5639SOL     OW28375   1.143   1.926   8.293  0.0514  0.0238 -0.1049
 5639SOL    HW128376   1.142   2.003   8.236 -0.1263  0.8107  0.9696
 5639SOL    HW228377   1.224   1.937   8.342 -0.8604  0.5701  1.2595
 5640SOL     OW28378   0.752   2.171   6.800 -0.2538 -0.0777  0.0695
 5640SOL    HW128379   0.709   2.254   6.783  0.8513  0.5163  0.1635
 5640SOL    HW228380   0.755   2.144   6.708  1.4745  0.7639 -0.1185
 5641SOL     OW28381   3.798   4.158  16.511 -0.3823  0.4372 -0.4888
 5641SOL    HW128382   3.863   4.094  16.542 -1.8485 -0.6932  0.2381
 5641SOL    HW228383   3.718   4.107  16.519  1.2036 -1.9609  0.2294
 5642SOL     OW28384   2.931   0.569   8.567  0.3993  0.6331  0.3120
 5642SOL    HW128385   2.940   0.518   8.487  1.7759 -1.2511  1.6790
 5642SOL    HW228386   2.925   0.649   8.513 -0.8071  0.4178  0.1249
 5643SOL     OW28387   4.559   3.308  17.564 -0.0710  0.2951  0.5411
 5643SOL    HW128388   4.537   3.376  17.628  0.9460 -0.2281  1.4487
 5643SOL    HW228389   4.480   3.301  17.511 -0.9641  0.7693  1.8095
 5644SOL     OW28390   0.814   0.206   8.295 -0.4313  0.3643 -0.9098
 5644SOL    HW128391   0.820   0.159   8.212  1.1318 -1.9111  0.4853
 5644SOL    HW228392   0.725   0.239   8.282 -0.0416  2.4632  1.8104
 5645SOL     OW28393   3.276   2.545   5.853 -0.0729 -0.3446  0.4006
 5645SOL    HW128394   3.190   2.515   5.826 -0.8666  0.8198  1.6519
 5645SOL    HW228395   3.326   2.564   5.774  1.3066 -0.6770  1.1828
 5646SOL     OW28396   2.888   0.554  10.723  0.0487 -0.6300 -0.0292
 5646SOL    HW128397   2.880   0.620  10.655 -0.8900  0.2209  0.9283
 5646SOL    HW228398   2.816   0.497  10.696 -1.5834  1.1685  0.5666
 5647SOL     OW28399   1.770   0.362  16.100 -0.4790 -0.1369 -0.8461
 5647SOL    HW128400   1.675   0.371  16.095 -0.6767 -0.6663  2.5389
 5647SOL    HW228401   1.778   0.301  16.027 -0.9499  1.2017 -2.0360
 5648SOL     OW28402   4.476   2.904  14.888  0.1133  0.5216  0.2913
 5648SOL    HW128403   4.434   2.988  14.868  0.5336  0.8681  0.8742
 5648SOL    HW228404   4.515   2.887  14.802  0.7284 -0.2142  0.7200
 5649SOL     OW28405   1.254   1.170  15.846  0.0733  0.5301 -0.3283
 5649SOL    HW128406   1.199   1.230  15.896 -1.2766 -0.5070 -0.5808
 5649SOL    HW228407   1.306   1.121  15.910 -0.2054 -1.2884 -1.5073
 5650SOL     OW28408   2.893   1.626   2.110 -0.4752  0.2535  0.0121
 5650SOL    HW128409   2.842   1.694   2.066 -1.8236 -0.3988  0.5633
 5650SOL    HW228410   2.880   1.554   2.048 -2.4068  1.9871 -1.5854
 5651SOL     OW28411   0.875   0.331   6.695 -0.1996 -0.6839  0.5366
 5651SOL    HW128412   0.952   0.383   6.674  0.0212 -0.1388  2.6870
 5651SOL    HW228413   0.860   0.347   6.788  2.6564 -0.5075  0.9705
 5652SOL     OW28414   2.108   0.949   5.897 -0.4602  0.1735 -0.5890
 5652SOL    HW128415   2.053   0.871   5.906 -3.7568  2.6286  0.6241
 5652SOL    HW228416   2.081   0.984   5.812 -1.6076 -2.9067 -1.5089
 5653SOL     OW28417   2.776   0.443   5.631  0.5912  0.2019  0.7443
 5653SOL    HW128418   2.845   0.434   5.566  0.0608  1.8886 -0.0464
 5653SOL    HW228419   2.714   0.384   5.586 -2.1917  4.5139 -1.0625
 5654SOL     OW28420   2.804   2.334   7.593 -0.5066 -0.5535  0.1078
 5654SOL    HW128421   2.880   2.384   7.622 -0.4382  0.3281 -1.5742
 5654SOL    HW228422   2.761   2.400   7.539 -0.8631 -1.9423 -1.2981
 5655SOL     OW28423   1.149   4.170  13.083 -0.6724  0.5428  0.2263
 5655SOL    HW128424   1.154   4.075  13.097 -0.4986  0.6375  0.8230
 5655SOL    HW228425   1.241   4.193  13.072  0.0410 -2.3071  0.2963
 5656SOL     OW28426   3.594   3.308   7.448  0.1231 -0.3194 -0.7807
 5656SOL    HW128427   3.515   3.357   7.468  0.1655 -1.0917  1.2215
 5656SOL    HW228428   3.560   3.245   7.384  0.0113 -2.1307  1.0865
 5657SOL     OW28429   2.996   0.504   6.228  0.9286  0.2669 -0.5040
 5657SOL    HW128430   3.027   0.494   6.318  2.0541 -0.6700 -0.9824
 5657SOL    HW228431   2.911   0.546   6.238 -0.5350 -2.6728 -0.6285
 5658SOL     OW28432   2.273   4.235   5.377 -0.0555 -0.5523  0.7843
 5658SOL    HW128433   2.242   4.178   5.306  0.8594 -0.4883  0.3343
 5658SOL    HW228434   2.338   4.284   5.327  0.9052 -2.1195  0.5027
 5659SOL     OW28435   1.462   4.376   2.586  0.1625  0.0418  0.3805
 5659SOL    HW128436   1.489   4.416   2.669  0.7774 -1.0149  0.7025
 5659SOL    HW228437   1.543   4.329   2.567  0.1758 -0.8962  2.6733
 5660SOL     OW28438   1.847   1.649   0.649  0.4980 -0.3405 -0.4400
 5660SOL    HW128439   1.858   1.737   0.613  1.4086  0.5730  2.0206
 5660SOL    HW228440   1.845   1.594   0.571 -0.3903  0.6194 -1.0923
 5661SOL     OW28441   1.700   0.611   2.863  0.2078 -0.3316  0.0726
 5661SOL    HW128442   1.662   0.598   2.776  0.3942  0.8836 -0.1937
 5661SOL    HW228443   1.642   0.680   2.896  1.3314  0.2286  0.8702
 5662SOL     OW28444   4.615   0.695   1.103 -0.5565 -0.2090  0.3291
 5662SOL    HW128445   4.612   0.670   1.196 -0.9072  2.0138  0.9264
 5662SOL    HW228446   4.533   0.739   1.082  1.1576  2.0645 -1.5993
 5663SOL     OW28447   3.728   3.631   2.214  0.2166 -0.1188  0.0485
 5663SOL    HW128448   3.680   3.631   2.132 -0.9968 -1.8925  0.7616
 5663SOL    HW228449   3.652   3.634   2.272  0.5780  0.4161  0.5095
 5664SOL     OW28450   1.773   1.666   9.402 -0.0547  0.4510 -0.0230
 5664SOL    HW128451   1.844   1.606   9.379  0.2914  0.7944  0.1590
 5664SOL    HW228452   1.754   1.639   9.492  2.1371  0.1108  0.3300
 5665SOL     OW28453   4.244   0.778   1.324 -0.6259 -0.0760  0.0500
 5665SOL    HW128454   4.203   0.699   1.289 -0.0043 -0.6270  0.5496
 5665SOL    HW228455   4.278   0.737   1.404 -1.3101 -1.4178 -0.3414
 5666SOL     OW28456   1.955   0.727   5.983  0.2675 -0.3952 -0.4437
 5666SOL    HW128457   1.924   0.778   6.057  1.5388  0.2595 -0.3766
 5666SOL    HW228458   1.880   0.667   5.981 -1.3031  1.5169  1.1142
 5667SOL     OW28459   2.237   2.488   9.422  0.2205 -0.1731 -0.0159
 5667SOL    HW128460   2.177   2.508   9.494  0.4985 -1.8014  0.6868
 5667SOL    HW228461   2.182   2.507   9.347  1.1618 -1.0273 -0.9214
 5668SOL     OW28462   1.471   0.466  10.291 -0.2205  0.3407  0.5127
 5668SOL    HW128463   1.462   0.402  10.362  2.9833 -2.4447 -1.5968
 5668SOL    HW228464   1.381   0.459  10.261 -0.6327 -1.0096  2.0481
 5669SOL     OW28465   1.544   2.181  10.150  0.1303 -0.6254  0.9271
 5669SOL    HW128466   1.578   2.270  10.163  0.0447 -0.7721  2.1575
 5669SOL    HW228467   1.614   2.119  10.171  1.0879 -0.7611 -2.7000
 5670SOL     OW28468   3.347   2.299  10.259  0.0708  0.1123  0.1072
 5670SOL    HW128469   3.297   2.346  10.326 -1.5396 -0.0710 -0.9609
 5670SOL    HW228470   3.301   2.327  10.180  1.2665 -0.0319 -0.6356
 5671SOL     OW28471   0.821   2.700   6.162 -0.3524 -0.5550  0.2744
 5671SOL    HW128472   0.905   2.701   6.207  0.9013  1.4417 -2.1092
 5671SOL    HW228473   0.760   2.660   6.225 -0.1954 -0.3138  0.5808
 5672SOL     OW28474   4.379   1.400  17.168  0.1579  0.1362  0.0259
 5672SOL    HW128475   4.366   1.485  17.210  0.3555 -0.3991  1.1674
 5672SOL    HW228476   4.451   1.423  17.109  0.1896 -0.0133  0.0085
 5673SOL     OW28477   0.150   3.913   4.669 -0.3639 -0.0466 -0.2949
 5673SOL    HW128478   0.234   3.877   4.639 -0.5361 -2.9890  2.7088
 5673SOL    HW228479   0.176   4.001   4.696  2.0238  0.0809 -3.0058
 5674SOL     OW28480   0.843   0.028   5.432  0.2238 -0.6131 -0.3511
 5674SOL    HW128481   0.871   4.687   5.497 -0.9513 -0.8486 -0.0815
 5674SOL    HW228482   0.782   4.700   5.378 -2.3822  0.2451  1.8277
 5675SOL     OW28483   2.581   0.044   6.370 -0.1257 -0.1405 -0.0770
 5675SOL    HW128484   2.583   0.140   6.360  0.5571 -0.4500 -3.0584
 5675SOL    HW228485   2.543   0.022   6.285  0.0023 -0.3085 -0.0910
 5676SOL     OW28486   1.228   4.018  13.422  0.7602  0.0105  0.4260
 5676SOL    HW128487   1.190   4.037  13.336 -0.4086 -0.0839  0.9148
 5676SOL    HW228488   1.211   3.924  13.422 -2.9766  0.6921 -0.5165
 5677SOL     OW28489   3.047   1.916   5.239 -0.1132  0.6727 -1.0162
 5677SOL    HW128490   3.009   1.919   5.327  1.2866 -0.2194 -0.3613
 5677SOL    HW228491   2.979   1.961   5.190  0.5825  2.7665 -0.0897
 5678SOL     OW28492   3.122   2.577  15.780  0.4664 -0.4602 -0.2370
 5678SOL    HW128493   3.040   2.578  15.732  1.4535  1.7195 -1.8781
 5678SOL    HW228494   3.161   2.661  15.754 -2.4332  0.9496  0.0218
 5679SOL     OW28495   3.648   4.079   7.267  0.3016  0.0263 -0.4350
 5679SOL    HW128496   3.571   4.136   7.264  0.5638  0.4154  0.2201
 5679SOL    HW228497   3.700   4.101   7.191  1.1295 -1.1497 -0.2087
 5680SOL     OW28498   0.031   4.169   8.688  0.1843 -0.1080 -0.0984
 5680SOL    HW128499   0.118   4.136   8.709 -0.0350 -0.7806 -0.2583
 5680SOL    HW228500   4.714   4.082   8.680 -0.5052 -0.0251  2.3281
 5681SOL     OW28501   4.581   3.510   4.802  0.1169 -0.0755  0.2870
 5681SOL    HW128502   4.487   3.514   4.783 -0.2323 -0.6623  1.8122
 5681SOL    HW228503   4.601   3.596   4.839 -3.1873  0.6662  0.4104
 5682SOL     OW28504   1.721   2.967   1.072 -0.2842 -0.3079  0.3571
 5682SOL    HW128505   1.699   2.893   1.015 -0.8607  1.2166 -1.4261
 5682SOL    HW228506   1.705   3.035   1.006  2.4292  0.1319  0.1787
 5683SOL     OW28507   2.975   1.324   5.589  0.0030  0.0594  0.2154
 5683SOL    HW128508   2.979   1.353   5.680 -0.0753 -2.2207  0.9520
 5683SOL    HW228509   2.982   1.410   5.548 -2.0745 -0.1616 -0.6072
 5684SOL     OW28510   4.610   0.427   6.954 -0.9529 -0.6908  0.5838
 5684SOL    HW128511   4.589   0.338   6.926  1.6545 -0.9347 -0.6337
 5684SOL    HW228512   4.537   0.476   6.917  1.0027  1.4040 -0.5177
 5685SOL     OW28513   1.974   4.496   2.870  0.2035 -0.1111  0.8013
 5685SOL    HW128514   2.015   4.531   2.949  0.9468 -0.1986  0.4513
 5685SOL    HW228515   1.883   4.524   2.884  0.2839  0.7072 -0.2486
 5686SOL     OW28516   1.717   2.714   1.417  0.3630 -0.1164  0.5495
 5686SOL    HW128517   1.709   2.662   1.497 -1.7618  0.2381  0.5667
 5686SOL    HW228518   1.688   2.803   1.437 -0.2076  0.1191 -1.3183
 5687SOL     OW28519   4.577   2.556   6.317 -0.4546  0.3045 -0.3423
 5687SOL    HW128520   4.534   2.533   6.399 -1.0893  0.0046 -0.7665
 5687SOL    HW228521   4.570   2.651   6.323  0.1843  0.3312  0.0392
 5688SOL     OW28522   3.094   0.194   8.204 -0.3529  0.0457  0.4809
 5688SOL    HW128523   3.102   0.289   8.207 -3.4877  0.3099  0.7549
 5688SOL    HW228524   3.063   0.179   8.293  0.8100  0.4469  0.9575
 5689SOL     OW28525   4.059   3.336   7.567 -0.0814 -0.0976 -0.2228
 5689SOL    HW128526   3.983   3.315   7.514  1.2448 -3.8396 -0.6521
 5689SOL    HW228527   4.089   3.422   7.540  1.0564  0.0895  1.6088
 5690SOL     OW28528   1.762   1.304  16.496 -0.3686 -0.2061  0.3915
 5690SOL    HW128529   1.743   1.397  16.513  0.8959  0.1180  0.0711
 5690SOL    HW228530   1.680   1.286  16.450 -0.3113 -1.2747  0.7318
 5691SOL     OW28531   1.445   3.163   8.983 -0.4737  0.3743  0.8279
 5691SOL    HW128532   1.352   3.140   8.977 -0.5524  0.6222  1.0959
 5691SOL    HW228533   1.478   3.108   9.054  2.4055 -0.4393 -1.1137
 5692SOL     OW28534   3.224   2.558  11.640  0.0916  0.4611 -0.0186
 5692SOL    HW128535   3.171   2.495  11.690  3.7255 -1.5944  1.2056
 5692SOL    HW228536   3.191   2.567  11.550  0.6328 -1.6745 -0.4417
 5693SOL     OW28537   2.340   2.747   4.280  0.4051  0.2896 -0.4253
 5693SOL    HW128538   2.361   2.795   4.360 -1.8637 -1.0460  0.9915
 5693SOL    HW228539   2.429   2.722   4.256 -0.0750 -1.8962  0.0524
 5694SOL     OW28540   1.062   1.421  11.128 -0.2191 -0.2687  0.2513
 5694SOL    HW128541   1.041   1.370  11.207 -0.0113  0.4510  0.7698
 5694SOL    HW228542   1.111   1.492  11.170 -0.8779  0.7135 -0.6503
 5695SOL     OW28543   2.328   0.841  14.975  0.3996  0.4426 -0.2461
 5695SOL    HW128544   2.250   0.791  14.952  0.6424 -0.4232  0.7894
 5695SOL    HW228545   2.290   0.901  15.040 -0.3443  0.9465 -1.1512
 5696SOL     OW28546   4.124   0.761   6.281  0.0346 -0.1694  0.0389
 5696SOL    HW128547   4.038   0.721   6.268  0.7698 -1.0780 -2.0320
 5696SOL    HW228548   4.117   0.797   6.370 -1.5477  4.4256 -1.9620
 5697SOL     OW28549   3.213   0.559  11.869  0.3451 -0.1402 -0.2951
 5697SOL    HW128550   3.261   0.584  11.790 -0.0996  0.4936 -0.3715
 5697SOL    HW228551   3.177   0.477  11.836  0.4894  0.1382 -1.1650
 5698SOL     OW28552   3.548   2.749  17.410 -0.3185 -0.5914 -0.2545
 5698SOL    HW128553   3.489   2.815  17.448 -0.4467 -2.6447  3.1316
 5698SOL    HW228554   3.624   2.806  17.396 -0.5333 -0.8446 -2.4309
 5699SOL     OW28555   0.557   1.553   8.172  0.3421 -0.0963 -0.5735
 5699SOL    HW128556   0.563   1.589   8.084  0.7408  0.6058 -0.2548
 5699SOL    HW228557   0.576   1.461   8.151  2.0410 -0.1010  0.9875
 5700SOL     OW28558   4.219   3.941   7.007 -0.4540 -0.1220  0.5718
 5700SOL    HW128559   4.143   3.934   7.064 -1.5384  0.8347 -0.7318
 5700SOL    HW228560   4.173   3.953   6.923 -3.0334 -1.2534  1.8308
 5701SOL     OW28561   3.102   0.857  14.874 -0.1124  0.3255  0.3377
 5701SOL    HW128562   3.074   0.914  14.946 -0.2065 -2.4450  2.5246
 5701SOL    HW228563   3.188   0.822  14.900  0.1016 -1.4119 -2.7857
 5702SOL     OW28564   0.946   2.245   2.914 -0.3082  0.2626  0.3682
 5702SOL    HW128565   0.905   2.185   2.976 -1.3109  1.1945  0.6052
 5702SOL    HW228566   0.940   2.329   2.960  0.4968  0.2389  0.5158
 5703SOL     OW28567   0.397   3.880   9.587  0.0293  0.5503  0.5327
 5703SOL    HW128568   0.490   3.901   9.584  0.5057 -1.5031  1.3758
 5703SOL    HW228569   0.372   3.926   9.667  1.8655  1.8871  0.3318
 5704SOL     OW28570   3.549   2.142  14.861 -0.3630 -0.1060  0.3968
 5704SOL    HW128571   3.637   2.142  14.898 -1.0927 -1.1828  2.1407
 5704SOL    HW228572   3.496   2.110  14.934  1.2974  0.9427  2.0329
 5705SOL     OW28573   4.107   1.898   8.329 -0.6662 -0.3383  0.6923
 5705SOL    HW128574   4.029   1.851   8.361 -2.0540  2.0411  0.8294
 5705SOL    HW228575   4.120   1.959   8.401  1.5134 -0.6796  0.5891
 5706SOL     OW28576   2.539   0.229   6.693  0.2836  0.0330 -0.1096
 5706SOL    HW128577   2.502   0.143   6.674 -2.6058  1.1602  0.3612
 5706SOL    HW228578   2.497   0.282   6.625  0.3540  1.2955  0.8361
 5707SOL     OW28579   0.797   1.928   4.324  0.6445 -0.1735  0.2431
 5707SOL    HW128580   0.859   1.858   4.306  0.4812  0.1673 -1.6536
 5707SOL    HW228581   0.788   1.957   4.234  1.3554  2.2564  0.9539
 5708SOL     OW28582   0.257   1.117   3.014 -0.2056  0.1729  0.4166
 5708SOL    HW128583   0.186   1.055   2.998  0.7979 -0.1348 -2.7844
 5708SOL    HW228584   0.205   1.195   3.031  1.1902  0.6551  2.4547
 5709SOL     OW28585   1.838   4.588   7.083  0.3787 -0.3676 -0.0758
 5709SOL    HW128586   1.774   4.659   7.073  0.9078  0.1255  0.0426
 5709SOL    HW228587   1.780   4.518   7.115  3.1772 -1.8679  1.7277
 5710SOL     OW28588   4.373   3.352   6.346  0.3648 -0.0512  0.4312
 5710SOL    HW128589   4.460   3.337   6.309  0.6557 -0.9239  1.4699
 5710SOL    HW228590   4.348   3.262   6.367  0.8292 -0.1810  0.4187
 5711SOL     OW28591   4.672   2.397   5.828 -0.6972  0.7820  0.2269
 5711SOL    HW128592   4.604   2.423   5.890 -0.8406 -0.8431  0.7637
 5711SOL    HW228593   4.628   2.353   5.755 -1.0516  0.7298  0.4718
 5712SOL     OW28594   2.216   1.273   0.933  0.0145 -0.4691 -0.5635
 5712SOL    HW128595   2.210   1.255   0.839 -1.3190  0.7289 -0.7109
 5712SOL    HW228596   2.126   1.304   0.946  0.5048  0.6643  0.1684
 5713SOL     OW28597   1.516   1.956   1.155 -0.8236  0.1804 -0.2056
 5713SOL    HW128598   1.461   1.886   1.120  0.7032 -0.8036 -0.6478
 5713SOL    HW228599   1.478   1.973   1.241  1.2546  0.3953  0.6531
 5714SOL     OW28600   3.010   1.608   6.609  0.5992 -0.4917  0.0224
 5714SOL    HW128601   2.958   1.684   6.633 -0.1397 -1.1660  0.5787
 5714SOL    HW228602   2.968   1.539   6.661  0.2531 -0.5332 -0.3151
 5715SOL     OW28603   2.496   0.260   9.872 -0.4089  0.0496 -0.0050
 5715SOL    HW128604   2.406   0.292   9.877 -0.1957  0.5244  0.7845
 5715SOL    HW228605   2.481   0.170   9.844  1.2916  0.1075 -1.1485
 5716SOL     OW28606   1.064   1.622  16.635  0.5299 -0.2939 -0.1534
 5716SOL    HW128607   1.124   1.634  16.708 -2.7176  2.0480  2.1224
 5716SOL    HW228608   0.981   1.639  16.680 -0.1932 -1.2597 -1.1152
 5717SOL     OW28609   0.424   1.107   2.533 -0.5679  0.5533  0.2097
 5717SOL    HW128610   0.478   1.182   2.511 -0.8768  1.2443  1.8353
 5717SOL    HW228611   0.413   1.136   2.624  1.9159 -0.7846  0.9155
 5718SOL     OW28612   2.721   3.610  14.992 -0.4148 -0.3280  0.4421
 5718SOL    HW128613   2.761   3.655  14.917  1.1191  0.5208  1.7734
 5718SOL    HW228614   2.777   3.639  15.063  0.6857 -0.1606 -0.4903
 5719SOL     OW28615   0.026   3.825   9.705  0.0726  0.1225 -0.8259
 5719SOL    HW128616   0.082   3.749   9.725 -3.5469 -1.8216  1.8558
 5719SOL    HW228617   0.035   3.817   9.610 -1.3769  0.4235 -0.9833
 5720SOL     OW28618   3.496   2.160   4.039 -0.0251  0.2975  0.0457
 5720SOL    HW128619   3.542   2.138   4.120  1.8466 -1.6328 -1.5587
 5720SOL    HW228620   3.507   2.255   4.046 -2.0085  0.6861 -1.8080
 5721SOL     OW28621   3.296   3.479  12.050 -0.4911  0.3157 -0.1367
 5721SOL    HW128622   3.327   3.526  11.973  1.3292 -2.3469 -1.0297
 5721SOL    HW228623   3.289   3.555  12.107 -1.9113  0.9559 -1.1761
 5722SOL     OW28624   0.259   2.903  10.577 -0.3371  0.1442 -0.3638
 5722SOL    HW128625   0.232   2.846  10.649 -0.3912  2.6545  1.6171
 5722SOL    HW228626   0.173   2.935  10.552 -1.0301 -0.2466  1.5158
 5723SOL     OW28627   3.504   1.041   7.336  0.0573  0.1551  0.6871
 5723SOL    HW128628   3.546   1.126   7.338 -1.0321  0.7145  0.0328
 5723SOL    HW228629   3.434   1.048   7.271  1.2089 -0.6439 -0.6441
 5724SOL     OW28630   2.296   1.766   3.586 -0.4414  0.1166 -0.6247
 5724SOL    HW128631   2.281   1.715   3.506  0.1091  0.2977 -0.8469
 5724SOL    HW228632   2.203   1.773   3.603 -0.0649  1.7359  0.6957
 5725SOL     OW28633   2.810   2.910   6.203  0.0817  0.1353 -0.0574
 5725SOL    HW128634   2.838   2.819   6.210 -0.2812  0.2193  2.7935
 5725SOL    HW228635   2.761   2.906   6.121  1.8317  0.5493 -1.1208
 5726SOL     OW28636   4.597   0.456  10.609  0.1178 -0.1079 -0.0296
 5726SOL    HW128637   4.515   0.505  10.605  1.3787  2.0566  0.5704
 5726SOL    HW228638   4.589   0.404  10.529  1.6539 -2.2668  1.2124
 5727SOL     OW28639   1.183   0.129   4.794 -0.3521 -0.3460  0.2843
 5727SOL    HW128640   1.245   0.086   4.854 -0.0038  0.6955  0.6793
 5727SOL    HW228641   1.201   0.220   4.818 -0.8334  0.0858 -1.0006
 5728SOL     OW28642   1.044   1.336  13.241  0.2891 -0.0956 -0.0546
 5728SOL    HW128643   1.112   1.402  13.254 -1.3213  1.4710  0.3555
 5728SOL    HW228644   1.006   1.367  13.158  2.2268  3.2330  0.3198
 5729SOL     OW28645   3.938   0.192   4.727 -0.5101  0.0841 -0.1771
 5729SOL    HW128646   3.920   0.176   4.635  0.5779  0.8426 -0.5167
 5729SOL    HW228647   3.876   0.135   4.773  0.9418 -2.5944 -1.4845
 5730SOL     OW28648   0.754   0.036   9.089  0.1618  0.3300 -0.2619
 5730SOL    HW128649   0.683   0.054   9.029 -0.0789 -1.8637 -0.6486
 5730SOL    HW228650   0.712   4.716   9.164  0.0964  0.2955 -0.3195
 5731SOL     OW28651   0.745   3.635   4.854 -0.1808 -0.2151  0.4008
 5731SOL    HW128652   0.735   3.543   4.878  1.5249 -0.4294  0.3110
 5731SOL    HW228653   0.839   3.648   4.845 -0.5115  0.8787 -1.4537
 5732SOL     OW28654   2.920   1.352   6.069 -0.9155  0.1036  0.1277
 5732SOL    HW128655   2.989   1.361   6.134  0.5216  1.1658 -1.5396
 5732SOL    HW228656   2.943   1.281   6.009 -1.3806 -0.4277  0.5796
 5733SOL     OW28657   1.371   3.766   8.865  0.1398 -0.0522 -0.1081
 5733SOL    HW128658   1.346   3.702   8.798 -0.3161 -0.4209  0.4075
 5733SOL    HW228659   1.466   3.752   8.866  0.1521 -0.2690 -3.4452
 5734SOL     OW28660   1.297   4.438   4.107 -0.1944 -0.1778 -0.0082
 5734SOL    HW128661   1.263   4.356   4.072 -0.4281 -0.0615 -0.0507
 5734SOL    HW228662   1.254   4.435   4.193 -1.0306  0.5203 -0.4135
 5735SOL     OW28663   3.569   0.542   8.225  0.6514  0.1626 -0.1017
 5735SOL    HW128664   3.605   0.625   8.255  0.3883  0.8137 -1.5841
 5735SOL    HW228665   3.590   0.540   8.131  1.2920 -1.2822  0.0697
 5736SOL     OW28666   2.351   0.877  12.188 -0.0171 -0.7678 -0.1400
 5736SOL    HW128667   2.440   0.911  12.197 -0.8982  1.0166  1.7519
 5736SOL    HW228668   2.326   0.854  12.277  0.1212  0.9932  0.3505
 5737SOL     OW28669   0.903   3.471   6.678 -0.2306  0.3378  0.4033
 5737SOL    HW128670   0.897   3.487   6.773 -0.9412  1.1363  0.2155
 5737SOL    HW228671   0.957   3.543   6.644  0.5477 -0.4939 -0.1310
 5738SOL     OW28672   1.173   0.203   1.948  0.1898 -0.4510 -0.2352
 5738SOL    HW128673   1.128   0.185   1.866 -2.8291  2.1152  0.8878
 5738SOL    HW228674   1.260   0.235   1.923 -0.5840  1.1351 -0.8852
 5739SOL     OW28675   4.016   0.303   4.176 -0.3556  0.7423 -0.3900
 5739SOL    HW128676   4.070   0.300   4.096 -1.1378  0.4261 -0.9085
 5739SOL    HW228677   3.993   0.395   4.189 -0.1852  0.5804  1.0693
 5740SOL     OW28678   0.376   4.537  10.658  0.0329  0.2753 -0.4449
 5740SOL    HW128679   0.330   4.511  10.578  0.4948  2.5602 -1.4300
 5740SOL    HW228680   0.298   4.579  10.695  0.2431  1.5068 -1.4248
 5741SOL     OW28681   1.146   0.187   4.019  0.6423 -0.3456  0.2322
 5741SOL    HW128682   1.059   0.150   4.035  2.1389 -2.8662  2.4384
 5741SOL    HW228683   1.147   0.242   4.098  1.6050 -1.7701  1.2193
 5742SOL     OW28684   2.844   2.114   2.922  0.6196 -0.3041  0.5196
 5742SOL    HW128685   2.777   2.176   2.894 -0.8690 -2.3671 -0.5021
 5742SOL    HW228686   2.906   2.102   2.850  0.9722 -1.3039  0.9786
 5743SOL     OW28687   2.297   1.920   9.595  0.4441  0.1717 -0.1937
 5743SOL    HW128688   2.248   1.985   9.546 -1.5449 -1.4044 -0.2990
 5743SOL    HW228689   2.248   1.913   9.677 -1.6755  0.4436 -1.4441
 5744SOL     OW28690   1.491   3.865  16.907 -0.0578  0.3955  0.1035
 5744SOL    HW128691   1.490   3.806  16.982 -1.5231 -2.0684 -1.8594
 5744SOL    HW228692   1.576   3.848  16.866 -1.3478 -1.3192 -1.9003
 5745SOL     OW28693   2.402   4.459   2.535 -0.0447 -0.4420  0.4596
 5745SOL    HW128694   2.382   4.548   2.564 -0.4892 -1.2326  2.6300
 5745SOL    HW228695   2.385   4.481   2.444 -1.9044  1.6917  1.3086
 5746SOL     OW28696   2.371   3.540   0.357 -0.6355  0.5256  0.0894
 5746SOL    HW128697   2.358   3.553   0.263 -1.5378  0.1606  0.1694
 5746SOL    HW228698   2.466   3.528   0.365 -0.6278 -0.8665 -1.9382
 5747SOL     OW28699   2.030   1.938   1.605 -0.0225  0.7708  0.3254
 5747SOL    HW128700   1.946   1.894   1.616  0.0795  0.5726  0.3142
 5747SOL    HW228701   2.087   1.887   1.663 -1.1344 -1.6834 -0.7862
 5748SOL     OW28702   2.214   1.075  13.212 -0.2403 -0.0117 -0.4512
 5748SOL    HW128703   2.294   1.076  13.160 -0.1873 -1.3568 -0.3928
 5748SOL    HW228704   2.247   1.101  13.298  1.4332 -0.7039 -0.9011
 5749SOL     OW28705   0.938   0.847  15.365  0.2132  0.1939  0.2229
 5749SOL    HW128706   0.991   0.868  15.442 -1.7068  1.5609  1.1654
 5749SOL    HW228707   0.983   0.784  15.308 -2.3333 -1.4546  0.0420
 5750SOL     OW28708   2.346   3.594   8.310 -0.5344  0.2302 -0.2895
 5750SOL    HW128709   2.436   3.569   8.328 -1.4359 -3.4606 -0.7924
 5750SOL    HW228710   2.299   3.527   8.360 -0.3566 -0.5483 -1.1692
 5751SOL     OW28711   1.741   0.493   5.995  0.1718  0.1186 -0.2732
 5751SOL    HW128712   1.747   0.419   5.934 -0.6778  1.2888 -1.7802
 5751SOL    HW228713   1.693   0.453   6.068 -1.1121 -1.9181 -2.2256
 5752SOL     OW28714   3.291   2.514   3.799  0.0806  0.1646 -0.2080
 5752SOL    HW128715   3.215   2.512   3.858  1.5398 -2.2698  1.5825
 5752SOL    HW228716   3.360   2.509   3.865  1.9121 -1.6417 -2.2650
 5753SOL     OW28717   3.911   3.136   6.033 -0.1757  0.5666 -0.0376
 5753SOL    HW128718   3.887   3.219   5.991 -1.4759  0.2162  0.0119
 5753SOL    HW228719   4.004   3.146   6.055 -0.1495 -0.0272  0.1092
 5754SOL     OW28720   1.636   2.517  13.564 -0.4417 -0.2692  0.1171
 5754SOL    HW128721   1.576   2.571  13.616 -2.1512 -0.4884 -1.6241
 5754SOL    HW228722   1.622   2.429  13.597 -1.4256 -0.9661 -2.1522
 5755SOL     OW28723   3.582   0.415  17.609 -0.3890  0.1872 -0.1420
 5755SOL    HW128724   3.669   0.426  17.647 -0.9695 -0.7754  1.4789
 5755SOL    HW228725   3.546   0.344  17.662 -1.2131  0.4612 -0.3341
 5756SOL     OW28726   3.618   2.837   6.622  0.1245  0.3109  0.2851
 5756SOL    HW128727   3.708   2.842   6.591  0.0041  1.9463  0.2348
 5756SOL    HW228728   3.612   2.912   6.681 -2.5510 -1.0775  1.7764
 5757SOL     OW28729   0.919   0.219   1.361 -0.4763  0.2930 -0.8257
 5757SOL    HW128730   0.945   0.131   1.389 -0.9957  1.1672  2.3564
 5757SOL    HW228731   0.956   0.269   1.433 -0.8655  0.9290 -1.0711
 5758SOL     OW28732   0.311   4.304   7.180 -0.5111 -0.0576 -0.2628
 5758SOL    HW128733   0.376   4.242   7.148 -2.1866 -1.9823  0.0493
 5758SOL    HW228734   0.359   4.384   7.158  1.5898 -1.3181 -0.2197
 5759SOL     OW28735   4.613   0.119   5.594 -0.0397  0.3391  0.1193
 5759SOL    HW128736   4.674   0.190   5.578 -0.9775  1.1022 -0.0784
 5759SOL    HW228737   4.577   0.099   5.508  0.6163  2.9639 -0.7545
 5760SOL     OW28738   3.858   3.706  10.063 -0.2023  0.3523  0.4498
 5760SOL    HW128739   3.898   3.791  10.045  0.8523 -0.4776 -1.0746
 5760SOL    HW228740   3.852   3.678   9.972  2.3778 -2.3071  1.0839
 5761SOL     OW28741   3.369   2.945  12.235  0.1718  0.3818 -0.8218
 5761SOL    HW128742   3.336   2.901  12.314  0.4738  0.5116 -0.6222
 5761SOL    HW228743   3.458   2.911  12.221  1.3026  2.8543  0.3950
 5762SOL     OW28744   3.981   1.336  10.681 -0.6768 -0.0116  0.1446
 5762SOL    HW128745   3.898   1.332  10.632 -0.0721  0.1211 -0.9039
 5762SOL    HW228746   3.999   1.242  10.690 -0.0764  0.1531  0.5960
 5763SOL     OW28747   1.424   0.866   6.798  0.5798  0.4396  0.4525
 5763SOL    HW128748   1.391   0.861   6.708  1.3754 -0.4213  0.2021
 5763SOL    HW228749   1.513   0.832   6.783  0.7384  1.1237 -0.1723
 5764SOL     OW28750   1.617   4.244   4.675 -0.2236  0.9370  0.3946
 5764SOL    HW128751   1.548   4.209   4.618 -0.7799  0.4140  1.3953
 5764SOL    HW228752   1.590   4.198   4.754 -1.7284 -0.7818 -1.0962
 5765SOL     OW28753   2.945   1.700  15.486  0.8276  0.2813  0.6667
 5765SOL    HW128754   2.923   1.644  15.412 -1.7214 -1.1161  2.4894
 5765SOL    HW228755   2.947   1.787  15.445 -0.3145 -1.3152 -2.7589
 5766SOL     OW28756   0.093   2.628   5.776  0.2068 -0.1305 -0.6272
 5766SOL    HW128757   0.046   2.545   5.785  1.0295 -0.4772  0.3955
 5766SOL    HW228758   0.151   2.602   5.704 -0.8384 -0.0989 -1.4933
 5767SOL     OW28759   2.809   2.382   9.186  0.3650 -0.0609  0.0153
 5767SOL    HW128760   2.903   2.400   9.181  0.6050 -1.4457 -0.5678
 5767SOL    HW228761   2.777   2.435   9.258  1.3225  0.0104  0.3938
 5768SOL     OW28762   1.702   3.232   8.047  0.2949 -0.1187  0.3486
 5768SOL    HW128763   1.743   3.313   8.017  0.5272  0.0683  1.1613
 5768SOL    HW228764   1.652   3.199   7.972  0.5185  0.9208 -0.2505
 5769SOL     OW28765   0.761   2.365  12.078 -0.2688 -0.4440  0.4598
 5769SOL    HW128766   0.851   2.392  12.061 -0.2115 -1.1264 -0.3386
 5769SOL    HW228767   0.747   2.354  12.172  0.9610  1.3119  0.8459
 5770SOL     OW28768   4.537   3.391   8.588 -0.5186 -0.5523  0.3763
 5770SOL    HW128769   4.478   3.446   8.536  0.4763 -0.4844 -0.6824
 5770SOL    HW228770   4.577   3.335   8.522  0.0063  1.6884 -1.2026
 5771SOL     OW28771   3.907   2.855  14.914  0.9678  0.1589  0.1862
 5771SOL    HW128772   3.898   2.869  15.008  1.7480 -1.6757  0.5410
 5771SOL    HW228773   4.000   2.855  14.891  0.7379 -0.2432 -0.7653
 5772SOL     OW28774   0.758   0.970   5.316  0.3089 -0.1711  0.3762
 5772SOL    HW128775   0.788   0.970   5.225  0.0646 -3.6116  0.2757
 5772SOL    HW228776   0.836   0.993   5.366  0.1515 -0.5823  0.8109
 5773SOL     OW28777   0.497   0.807   4.062  0.3731  0.2070  0.0760
 5773SOL    HW128778   0.572   0.774   4.112 -0.6614 -1.3600  0.5787
 5773SOL    HW228779   0.445   0.730   4.036 -0.7165  0.5135  1.3769
 5774SOL     OW28780   0.121   3.427   2.771  0.4074 -0.0129  0.0664
 5774SOL    HW128781   0.199   3.374   2.782  1.3737  1.6565  1.4104
 5774SOL    HW228782   0.147   3.519   2.782 -2.1751  0.6197  1.1380
 5775SOL     OW28783   0.141   0.233   2.730 -0.4552 -0.6434 -0.0907
 5775SOL    HW128784   0.153   0.328   2.720 -0.8898 -0.5528  0.2499
 5775SOL    HW228785   0.085   0.224   2.654  0.4246 -0.7370 -0.7272
 5776SOL     OW28786   2.785   4.714   0.474 -0.1760  0.1280 -0.2729
 5776SOL    HW128787   2.692   4.719   0.494  0.6420  0.7169  3.4480
 5776SOL    HW228788   2.800   0.067   0.418 -0.6620 -0.1375 -0.7519
 5777SOL     OW28789   1.519   0.360  12.749 -0.0448  0.2031  0.3966
 5777SOL    HW128790   1.441   0.311  12.772  1.5373 -2.5811 -0.1542
 5777SOL    HW228791   1.517   0.443  12.796 -4.3782  1.1552 -1.5252
 5778SOL     OW28792   0.232   0.948  12.052 -0.9915  0.6913 -0.9493
 5778SOL    HW128793   0.263   0.963  12.141 -4.8017  2.1880  0.1206
 5778SOL    HW228794   0.259   0.858  12.037 -1.5967  0.2884  0.4280
 5779SOL     OW28795   1.791   2.015   9.719 -0.3453 -0.2811  0.4907
 5779SOL    HW128796   1.801   1.988   9.627 -3.2570  2.3946 -0.6171
 5779SOL    HW228797   1.726   2.085   9.709  0.2337  0.3100  0.8577
 5780SOL     OW28798   1.341   1.736   3.528  0.0517 -0.1599  0.4224
 5780SOL    HW128799   1.389   1.671   3.477  0.0216 -0.9542  1.4269
 5780SOL    HW228800   1.248   1.713   3.522 -0.0185 -0.5763  3.1817
 5781SOL     OW28801   1.304   4.028   8.774 -0.1090  0.4926  0.4831
 5781SOL    HW128802   1.383   4.069   8.740  0.4861 -0.7679  0.3572
 5781SOL    HW228803   1.348   3.950   8.806 -0.6550 -0.5673 -1.3792
 5782SOL     OW28804   2.618   0.966   3.717  0.2915  0.2412 -0.2501
 5782SOL    HW128805   2.598   1.009   3.634 -0.3948  0.1917 -0.1103
 5782SOL    HW228806   2.712   0.976   3.729  0.0961  0.8513  0.7486
 5783SOL     OW28807   3.625   2.215  17.062  0.5351 -0.2020  0.4578
 5783SOL    HW128808   3.677   2.145  17.102 -1.8194 -1.5379  1.1757
 5783SOL    HW228809   3.660   2.292  17.107  1.3706  0.8794 -2.0188
 5784SOL     OW28810   0.294   2.203   1.550  0.4868 -0.6399 -0.6906
 5784SOL    HW128811   0.374   2.198   1.499  1.4473  0.5406  0.6998
 5784SOL    HW228812   0.334   2.207   1.637  0.0309 -2.3837 -0.3909
 5785SOL     OW28813   3.861   0.200  11.440 -0.0720  0.0390 -0.5682
 5785SOL    HW128814   3.872   0.109  11.467 -0.4404  0.6720  1.7220
 5785SOL    HW228815   3.812   0.245  11.509  0.3384 -1.9412  1.0021
 5786SOL     OW28816   0.011   1.495   4.159  0.1519 -0.5581  0.5367
 5786SOL    HW128817   4.714   1.578   4.116  1.3467 -1.1166 -1.0760
 5786SOL    HW228818   4.668   1.434   4.124 -2.1393  1.7547  0.7518
 5787SOL     OW28819   1.246   3.497   4.735  0.4845 -0.1366  0.6452
 5787SOL    HW128820   1.338   3.521   4.743  0.1199  1.6071 -0.3118
 5787SOL    HW228821   1.240   3.421   4.793 -0.8452 -1.0269 -0.6446
 5788SOL     OW28822   1.097   1.219   2.280  0.3774  0.9218  0.2881
 5788SOL    HW128823   1.120   1.274   2.355  0.7057  1.3552 -0.1345
 5788SOL    HW228824   1.005   1.225   2.256  0.4445  1.3757  0.1519
 5789SOL     OW28825   1.280   1.367   5.957 -0.1458 -0.2710 -0.2795
 5789SOL    HW128826   1.215   1.376   6.027  0.4436  0.9778  0.0990
 5789SOL    HW228827   1.351   1.331   6.011  1.2854 -0.4604 -2.2870
 5790SOL     OW28828   1.778   0.675   5.508 -0.2695  0.2463  0.1812
 5790SOL    HW128829   1.815   0.649   5.593  0.7079 -1.8332 -0.8636
 5790SOL    HW228830   1.847   0.625   5.465 -0.5986 -1.0640  1.1586
 5791SOL     OW28831   1.362   3.457   8.455 -0.0593  0.8012  0.4719
 5791SOL    HW128832   1.382   3.364   8.457 -1.4973  0.4834 -0.0839
 5791SOL    HW228833   1.404   3.485   8.373  1.7480  1.9881  1.7906
 5792SOL     OW28834   2.445   2.554   9.198 -0.2951  0.7433 -0.6278
 5792SOL    HW128835   2.389   2.618   9.240  0.0741 -0.9966  2.5730
 5792SOL    HW228836   2.529   2.575   9.240  1.0864  0.9055 -3.4441
 5793SOL     OW28837   0.222   4.499   6.328 -0.1495  0.1132 -0.0103
 5793SOL    HW128838   0.316   4.484   6.327 -0.2446 -0.2741 -3.2327
 5793SOL    HW228839   0.204   4.455   6.412 -1.2051  0.3231 -0.1301
 5794SOL     OW28840   3.709   0.114   3.233  0.6253 -0.4178  0.0761
 5794SOL    HW128841   3.631   0.099   3.180 -0.0581  0.7092  0.7577
 5794SOL    HW228842   3.760   0.038   3.205 -0.6266 -0.8787 -0.9604
 5795SOL     OW28843   3.713   3.078  15.088 -0.2955 -0.0621 -0.0912
 5795SOL    HW128844   3.691   3.161  15.130 -3.6290 -0.5949 -0.7939
 5795SOL    HW228845   3.770   3.035  15.151 -0.7709 -1.6274 -0.7292
 5796SOL     OW28846   0.960   2.077   0.324 -0.1427  0.1995  0.2569
 5796SOL    HW128847   0.996   2.103   0.239 -2.8909  1.0826 -0.6343
 5796SOL    HW228848   1.035   2.028   0.357  0.5184  1.5722  0.7735
 5797SOL     OW28849   2.844   0.204  17.378 -0.2502 -0.6955 -0.0273
 5797SOL    HW128850   2.788   0.250  17.439  0.5896 -0.0580  0.2649
 5797SOL    HW228851   2.814   0.116  17.401 -0.3579 -1.4158 -2.8938
 5798SOL     OW28852   2.762   3.215  15.748  0.5163 -0.2480 -0.3795
 5798SOL    HW128853   2.719   3.146  15.698  0.7512  0.3730 -1.4537
 5798SOL    HW228854   2.754   3.284  15.682 -2.6426 -1.0991 -0.8687
 5799SOL     OW28855   1.242   4.395   3.114  0.4441  0.0699 -0.6290
 5799SOL    HW128856   1.165   4.398   3.171  1.8409  3.9695  1.0091
 5799SOL    HW228857   1.290   4.317   3.141 -1.1832 -0.6312  0.2381
 5800SOL     OW28858   0.567   0.876   2.472  0.0546 -0.3299  0.0752
 5800SOL    HW128859   0.568   0.871   2.376 -2.1396  0.1444  0.0345
 5800SOL    HW228860   0.538   0.967   2.474 -0.2669 -0.4960  2.3724
 5801SOL     OW28861   0.127   0.560   2.861 -0.5794  0.0505 -0.6582
 5801SOL    HW128862   0.069   0.624   2.903 -2.0471 -0.7156 -1.5252
 5801SOL    HW228863   0.193   0.540   2.927 -0.9152  2.7599  0.5045
 5802SOL     OW28864   1.851   3.114  14.374 -0.5760 -0.2695 -0.4829
 5802SOL    HW128865   1.814   3.034  14.411  0.0805 -1.2293 -1.9136
 5802SOL    HW228866   1.870   3.092  14.283  0.3984  1.0400 -0.6018
 5803SOL     OW28867   1.545   1.226   1.387  0.3777  0.1605 -0.1149
 5803SOL    HW128868   1.493   1.271   1.453 -0.9165 -1.5037  0.0015
 5803SOL    HW228869   1.635   1.244   1.414  0.7622 -2.2061  0.1486
 5804SOL     OW28870   3.685   2.047  17.524 -0.0806  0.3227  0.5063
 5804SOL    HW128871   3.753   2.082  17.467 -0.1417  1.5423  1.1849
 5804SOL    HW228872   3.618   2.112  17.504 -0.9599 -1.1269 -1.3159
 5805SOL     OW28873   1.089   0.329   2.201  0.8793 -0.2574 -0.3236
 5805SOL    HW128874   1.111   0.318   2.109  0.9058 -1.1739 -0.2130
 5805SOL    HW228875   1.010   0.276   2.208  0.8617 -0.0005  1.5101
 5806SOL     OW28876   4.525   2.810   4.403  0.0111  0.9127  0.4062
 5806SOL    HW128877   4.524   2.792   4.309  1.6243  1.0633  0.3556
 5806SOL    HW228878   4.455   2.875   4.400 -0.2536  0.5873 -0.5797
 5807SOL     OW28879   3.115   3.780   7.578  0.1858  0.5296  0.5719
 5807SOL    HW128880   3.175   3.767   7.651  2.1855  3.9562 -0.4571
 5807SOL    HW228881   3.148   3.710   7.522 -3.1976 -1.1697  0.6713
 5808SOL     OW28882   3.699   4.043  10.015 -0.4051 -0.0870 -0.0257
 5808SOL    HW128883   3.616   4.002  10.036 -1.4035  0.8649 -2.1662
 5808SOL    HW228884   3.676   4.075   9.928 -0.7069  1.5584  0.6614
 5809SOL     OW28885   2.826   1.888   9.805 -0.0799  0.2180  0.3564
 5809SOL    HW128886   2.837   1.800   9.771  3.4603 -0.0584  2.3164
 5809SOL    HW228887   2.865   1.876   9.892  1.6843  1.0488 -0.3219
 5810SOL     OW28888   1.086   0.212   6.319 -0.0994 -0.2217 -0.6451
 5810SOL    HW128889   1.126   0.260   6.246  3.2642 -3.7532 -1.1148
 5810SOL    HW228890   1.150   0.242   6.382 -1.2862  0.7524  0.0976
 5811SOL     OW28891   0.923   3.888   3.803 -0.4503  0.1199 -0.1221
 5811SOL    HW128892   0.982   3.937   3.746 -0.0790 -0.1709  0.0087
 5811SOL    HW228893   0.876   3.826   3.748  1.3725  0.3550 -1.9316
 5812SOL     OW28894   0.886   2.636   4.112 -0.0822  0.4606 -0.0782
 5812SOL    HW128895   0.930   2.595   4.037 -0.3723 -1.0679  0.5882
 5812SOL    HW228896   0.890   2.564   4.176 -2.2032  0.9794  0.6353
 5813SOL     OW28897   0.182   3.778  13.479  0.1544  0.4163 -0.0437
 5813SOL    HW128898   0.172   3.827  13.397 -0.8448 -0.7786 -0.6396
 5813SOL    HW228899   0.095   3.751  13.508  0.8426 -4.0842 -2.1744
 5814SOL     OW28900   2.475   0.894   7.166 -0.4883 -0.2163  0.1346
 5814SOL    HW128901   2.465   0.968   7.225 -0.5188  1.4880 -1.9877
 5814SOL    HW228902   2.569   0.879   7.166 -0.5651 -0.7205 -0.4980
 5815SOL     OW28903   2.818   1.577   9.811  0.0324 -0.3713 -0.3179
 5815SOL    HW128904   2.876   1.615   9.877 -1.4945  2.2754 -0.5077
 5815SOL    HW228905   2.747   1.559   9.873  1.4178 -3.0192  0.5377
 5816SOL     OW28906   0.700   3.773   5.079 -0.1554 -0.1407 -0.6260
 5816SOL    HW128907   0.711   3.719   5.001 -0.9941 -0.0844 -0.7750
 5816SOL    HW228908   0.606   3.766   5.094  0.4778 -1.6782  2.6661
 5817SOL     OW28909   1.337   3.097  15.879 -0.2639 -0.1747 -0.1857
 5817SOL    HW128910   1.325   3.083  15.973  3.9739  3.2594  0.8798
 5817SOL    HW228911   1.257   3.055  15.849 -0.2434 -0.9647  0.9034
 5818SOL     OW28912   2.250   2.942  14.952 -0.2384 -0.0035  0.9764
 5818SOL    HW128913   2.281   2.862  14.908 -1.1675 -0.1287  0.5556
 5818SOL    HW228914   2.314   2.949  15.022  0.8486 -1.2480  0.1333
 5819SOL     OW28915   1.548   2.429   2.554 -0.5326 -0.2189 -0.4377
 5819SOL    HW128916   1.495   2.352   2.577  1.0382 -1.9455 -2.5802
 5819SOL    HW228917   1.622   2.387   2.509 -0.4401 -0.9474  0.3989
 5820SOL     OW28918   4.715   3.252   2.014 -0.5676 -0.2729  0.4197
 5820SOL    HW128919   0.012   3.217   2.101 -2.5433  0.3861  1.1396
 5820SOL    HW228920   4.620   3.238   2.009 -0.4156 -1.2067  0.2283
 5821SOL     OW28921   0.454   3.295  17.462 -0.4537  0.2302  0.1816
 5821SOL    HW128922   0.372   3.249  17.446 -0.8207  0.7945  0.4264
 5821SOL    HW228923   0.495   3.236  17.525  0.7341  1.2706  0.3873
 5822SOL     OW28924   3.059   1.711   2.883  0.3652  0.3090 -0.5408
 5822SOL    HW128925   3.072   1.766   2.961  1.2202  1.3805 -1.4423
 5822SOL    HW228926   2.964   1.710   2.876  0.3435 -0.7046 -0.1780
 5823SOL     OW28927   3.561   0.086   3.602  0.1723 -0.0568  0.5705
 5823SOL    HW128928   3.583   0.120   3.689  1.1312  0.9540 -0.0511
 5823SOL    HW228929   3.503   0.015   3.626  0.7477 -1.4472 -2.1134
 5824SOL     OW28930   2.445   0.756   6.002  0.0479 -0.2625 -0.0212
 5824SOL    HW128931   2.437   0.839   5.954 -1.5881 -0.7469 -0.5720
 5824SOL    HW228932   2.358   0.753   6.041  0.1632 -1.8740  0.1174
 5825SOL     OW28933   0.335   0.862   3.782  0.0562 -0.1170 -0.3293
 5825SOL    HW128934   0.430   0.871   3.777  0.0075  1.4102  1.2561
 5825SOL    HW228935   0.297   0.923   3.845 -0.9290 -0.0920 -0.9335
 5826SOL     OW28936   1.198   1.328   3.361 -0.5425  0.4254 -0.4624
 5826SOL    HW128937   1.191   1.314   3.455  1.5689  1.5016 -0.1418
 5826SOL    HW228938   1.239   1.243   3.341 -0.0953 -0.0153  2.3026
 5827SOL     OW28939   4.183   1.003   1.531 -0.3307 -0.0087 -0.6506
 5827SOL    HW128940   4.203   0.933   1.470 -1.6909 -1.7038  0.8348
 5827SOL    HW228941   4.264   1.027   1.576 -1.4800  0.7485  1.0255
 5828SOL     OW28942   0.645   2.672  14.057  0.0172  0.3489 -0.2755
 5828SOL    HW128943   0.648   2.587  14.100 -2.1835 -0.0456 -0.8635
 5828SOL    HW228944   0.650   2.732  14.132 -3.8139  2.3016 -1.5571
 5829SOL     OW28945   3.613   4.219  14.063 -0.1810  0.1423  0.1857
 5829SOL    HW128946   3.685   4.175  14.108 -1.3808 -1.5609  0.4387
 5829SOL    HW228947   3.543   4.156  14.080  0.4223 -0.9018 -1.2717
 5830SOL     OW28948   1.737   1.778   5.355  0.2515  0.3064  0.6844
 5830SOL    HW128949   1.764   1.731   5.276 -1.5676 -2.3732  1.6396
 5830SOL    HW228950   1.644   1.789   5.338  0.6176 -0.3966 -1.7323
 5831SOL     OW28951   1.386   1.347   4.724 -0.7240  0.0747  0.3829
 5831SOL    HW128952   1.444   1.404   4.774 -0.6091  0.3472 -0.0671
 5831SOL    HW228953   1.378   1.272   4.784  0.7204 -0.5145 -0.1511
 5832SOL     OW28954   3.297   2.463   9.230  0.1378 -0.8198  0.3349
 5832SOL    HW128955   3.281   2.475   9.323 -0.3791 -1.7263  0.3603
 5832SOL    HW228956   3.387   2.431   9.227 -0.3747 -2.4140  2.1761
 5833SOL     OW28957   4.389   4.367  13.775 -0.1889  0.1328  0.8111
 5833SOL    HW128958   4.304   4.408  13.767 -0.7448 -1.2368 -0.4123
 5833SOL    HW228959   4.425   4.394  13.859  0.5410  1.3032  0.1184
 5834SOL     OW28960   3.541   3.011   7.075 -0.2244  0.5108 -0.4282
 5834SOL    HW128961   3.622   2.960   7.075 -0.0825  0.7301  0.3267
 5834SOL    HW228962   3.500   2.985   6.993  0.3919 -1.0946 -0.2312
 5835SOL     OW28963   2.339   2.632  17.475  0.2221 -0.2246 -0.0225
 5835SOL    HW128964   2.298   2.668  17.397 -0.6211 -0.8971  0.1165
 5835SOL    HW228965   2.309   2.704  17.530  0.6659 -1.6380  2.0968
 5836SOL     OW28966   2.713   4.324   7.313  0.3742 -0.2260 -0.0313
 5836SOL    HW128967   2.693   4.305   7.405  1.7980  1.0183  0.5513
 5836SOL    HW228968   2.784   4.389   7.314 -0.0570  0.2778 -2.1411
 5837SOL     OW28969   3.431   0.541   9.587  0.0494  0.0362 -0.6527
 5837SOL    HW128970   3.415   0.466   9.529  0.4184 -0.0305 -0.6665
 5837SOL    HW228971   3.344   0.546   9.627  0.0484  0.8739 -0.7479
 5838SOL     OW28972   4.108   3.501   7.210 -0.3182 -0.6792 -0.2591
 5838SOL    HW128973   4.177   3.542   7.262 -2.8958  1.7577  1.2400
 5838SOL    HW228974   4.032   3.546   7.248 -0.3033 -0.8369 -0.0410
 5839SOL     OW28975   1.262   2.461  17.362 -0.1820 -0.2285 -0.4175
 5839SOL    HW128976   1.314   2.491  17.436  1.7043 -3.3324 -0.4952
 5839SOL    HW228977   1.182   2.440  17.409 -1.0182  2.0814 -0.7825
 5840SOL     OW28978   0.758   4.372   6.560  0.6771 -0.0443 -0.5435
 5840SOL    HW128979   0.728   4.283   6.577  2.3522 -0.4542  0.2741
 5840SOL    HW228980   0.797   4.364   6.473 -1.4999 -0.6801 -1.4762
 5841SOL     OW28981   4.341   4.314  12.673 -0.1205  0.4722  0.1131
 5841SOL    HW128982   4.422   4.352  12.707  1.0338 -2.5123  0.7466
 5841SOL    HW228983   4.279   4.356  12.732  0.1778  0.4514  0.4455
 5842SOL     OW28984   3.927   3.754   6.460 -0.4690  0.5133 -0.0417
 5842SOL    HW128985   3.872   3.694   6.511  1.1323  0.1044  1.1628
 5842SOL    HW228986   3.944   3.700   6.382 -2.0018  1.1555 -0.8371
 5843SOL     OW28987   3.448   0.694   2.277 -0.0963 -0.8624 -0.0502
 5843SOL    HW128988   3.471   0.668   2.188  1.0306  2.4755 -0.7336
 5843SOL    HW228989   3.484   0.782   2.290  1.2987 -1.4117 -0.2133
 5844SOL     OW28990   2.358   1.842  14.080  0.2188  0.1639  0.2189
 5844SOL    HW128991   2.359   1.790  14.160 -2.5213 -3.7973 -2.3263
 5844SOL    HW228992   2.423   1.906  14.110  1.5341 -0.7011 -0.7573
 5845SOL     OW28993   4.162   2.426  13.423 -0.6811 -0.0039  0.6319
 5845SOL    HW128994   4.096   2.491  13.395 -1.0720 -1.9745 -2.9956
 5845SOL    HW228995   4.103   2.362  13.462 -0.4903 -0.2116  0.5773
 5846SOL     OW28996   1.175   2.654   8.321 -0.3868  0.0083  0.1702
 5846SOL    HW128997   1.136   2.655   8.408  0.5054 -0.6873  0.5794
 5846SOL    HW228998   1.158   2.565   8.290 -1.6644 -0.2814  1.7563
 5847SOL     OW28999   2.823   3.585   9.350 -0.3934  0.5421 -0.6358
 5847SOL    HW129000   2.896   3.537   9.389  0.2544  0.5584 -1.8216
 5847SOL    HW229001   2.745   3.550   9.392  0.5245 -0.9867 -0.2279
 5848SOL     OW29002   1.811   4.243   3.359 -0.6724 -0.3316  0.3564
 5848SOL    HW129003   1.894   4.196   3.347 -0.2740  0.7416 -1.1134
 5848SOL    HW229004   1.825   4.333   3.332 -2.6269 -0.4270 -0.9827
 5849SOL     OW29005   1.159   4.287   9.002 -0.7722  0.2019 -0.1248
 5849SOL    HW129006   1.094   4.306   8.934 -1.0976  1.7113  0.6078
 5849SOL    HW229007   1.208   4.369   9.006 -1.0809  0.3293  1.1236
 5850SOL     OW29008   0.899   1.929   7.829  0.0799 -0.6193  0.0599
 5850SOL    HW129009   0.855   2.001   7.876  2.1171  0.2653  0.6264
 5850SOL    HW229010   0.831   1.873   7.793 -0.4136  0.5970 -0.8839
 5851SOL     OW29011   4.523   1.594   8.603 -0.1208  0.9332  0.2697
 5851SOL    HW129012   4.443   1.590   8.551 -0.4119  1.2264  0.6951
 5851SOL    HW229013   4.510   1.517   8.659  0.5134  0.0237 -0.8399
 5852SOL     OW29014   3.268   1.775   2.668  0.1975 -0.1530  0.0064
 5852SOL    HW129015   3.294   1.833   2.739  1.1475  0.0678 -0.5154
 5852SOL    HW229016   3.220   1.707   2.715  0.2230  0.2473  0.5987
 5853SOL     OW29017   2.919   1.107  15.487  0.2617  0.0127  0.0124
 5853SOL    HW129018   2.896   1.095  15.579  1.2067  0.1086  0.2636
 5853SOL    HW229019   2.940   1.019  15.458  0.9682  0.0833  0.3245
 5854SOL     OW29020   2.110   4.037   7.020 -0.0452  0.2676 -0.2839
 5854SOL    HW129021   2.041   4.055   6.956 -1.5555  0.1486  1.2751
 5854SOL    HW229022   2.126   3.945   6.998  0.7719  0.1950  0.5908
 5855SOL     OW29023   4.074   1.308   7.316 -0.4659 -0.5690  0.0689
 5855SOL    HW129024   4.092   1.301   7.223  2.9569 -0.1246  0.6755
 5855SOL    HW229025   4.048   1.400   7.318 -1.3486 -0.8448  1.3513
 5856SOL     OW29026   0.090   0.864  16.117  0.3633 -0.2801  0.1872
 5856SOL    HW129027   0.016   0.804  16.126  1.6033 -1.6066  1.4745
 5856SOL    HW229028   0.068   0.908  16.034 -0.0011  1.5324  1.2410
 5857SOL     OW29029   0.833   4.221   3.101 -0.3176 -0.1253  0.2962
 5857SOL    HW129030   0.864   4.161   3.034  0.5943  0.4652  0.1863
 5857SOL    HW229031   0.785   4.156   3.152  0.1157 -0.6010  0.0880
 5858SOL     OW29032   0.815   4.422   8.494 -0.2642 -0.3332 -0.1304
 5858SOL    HW129033   0.851   4.365   8.562  1.2953  2.6992  1.5976
 5858SOL    HW229034   0.880   4.415   8.424 -2.4687  0.3674 -2.2132
 5859SOL     OW29035   3.711   0.582   2.537 -0.1850  0.2827 -0.0376
 5859SOL    HW129036   3.743   0.492   2.527 -1.7315  0.0622 -2.9319
 5859SOL    HW229037   3.791   0.633   2.550  2.1680 -3.3124 -0.4159
 5860SOL     OW29038   3.404   2.524   5.547  0.3235 -0.8161  0.7552
 5860SOL    HW129039   3.500   2.524   5.556  0.6451  0.1223 -2.5248
 5860SOL    HW229040   3.400   2.546   5.454  3.1323  2.3169  1.3795
 5861SOL     OW29041   3.313   3.494  10.396  0.2358 -0.1538 -0.1575
 5861SOL    HW129042   3.257   3.534  10.463 -0.6689 -1.6809 -0.0036
 5861SOL    HW229043   3.314   3.569  10.337 -2.1753 -0.0510 -0.0701
 5862SOL     OW29044   3.095   4.532  10.255 -0.3494 -0.3432  0.0740
 5862SOL    HW129045   3.021   4.539  10.315  0.4597  0.2323  0.9913
 5862SOL    HW229046   3.071   4.582  10.177  0.7393  0.4550  0.2580
 5863SOL     OW29047   4.695   1.861  13.713 -0.5938 -0.2852 -0.1635
 5863SOL    HW129048   4.624   1.867  13.776 -0.8297 -1.4832 -0.3061
 5863SOL    HW229049   4.719   1.951  13.690 -0.2992 -0.3244 -0.0173
 5864SOL     OW29050   2.735   2.753   8.248 -0.0351  0.1883 -0.0867
 5864SOL    HW129051   2.810   2.795   8.291  0.0708  0.3050 -0.3860
 5864SOL    HW229052   2.670   2.819   8.271 -0.6831 -0.6247  0.3875
 5865SOL     OW29053   3.697   0.088   6.955  0.0242  0.0946  0.8500
 5865SOL    HW129054   3.770   0.136   6.916 -0.3908 -0.0246 -0.0583
 5865SOL    HW229055   3.695   0.003   6.911  0.6889  0.6093 -0.1749
 5866SOL     OW29056   2.682   4.720  13.553  0.3561 -0.3323  0.2959
 5866SOL    HW129057   2.627   0.019  13.478 -1.6578 -3.9763  0.7833
 5866SOL    HW229058   2.713   4.631  13.541  1.0925  0.1012 -1.0686
 5867SOL     OW29059   4.300   1.275   5.728 -0.3377  0.3148  0.3383
 5867SOL    HW129060   4.269   1.313   5.810  0.0534 -0.2884  0.7630
 5867SOL    HW229061   4.226   1.219   5.704 -0.7646  1.0258 -0.0228
 5868SOL     OW29062   3.817   4.580  11.277  0.6771  0.0119  0.7611
 5868SOL    HW129063   3.853   4.494  11.299  0.7212 -0.3531 -0.7953
 5868SOL    HW229064   3.839   4.623  11.360  1.4554 -0.3249  0.7265
 5869SOL     OW29065   3.731   0.674   2.174 -0.0355  0.0499 -0.5096
 5869SOL    HW129066   3.794   0.744   2.157 -0.2234  0.2270 -0.4660
 5869SOL    HW229067   3.764   0.647   2.260  2.8321  0.9069 -1.3404
 5870SOL     OW29068   2.067   2.670   3.813 -0.0925 -0.1698 -0.0632
 5870SOL    HW129069   2.067   2.639   3.903 -0.1394  0.6079  0.2006
 5870SOL    HW229070   1.987   2.723   3.819 -0.7316 -0.9995 -1.1327
 5871SOL     OW29071   0.864   4.088   5.231 -0.4183 -0.1918 -0.6334
 5871SOL    HW129072   0.952   4.075   5.266  0.5450  0.9763 -2.6741
 5871SOL    HW229073   0.849   3.994   5.220 -1.6370 -0.1810  0.8233
 5872SOL     OW29074   1.257   4.662   3.290 -0.4915  0.1831  0.3459
 5872SOL    HW129075   1.340   4.693   3.254 -1.0310  1.1622 -0.0357
 5872SOL    HW229076   1.210   4.635   3.212  0.4322  2.3960 -0.9904
 5873SOL     OW29077   1.956   4.060   4.807 -0.1686 -0.8982  0.1451
 5873SOL    HW129078   1.975   3.979   4.854  0.2998 -0.9014 -0.0518
 5873SOL    HW229079   1.995   4.127   4.864  0.5175 -1.3244  0.1670
 5874SOL     OW29080   3.772   0.553   5.483 -0.0533 -0.0432 -0.0194
 5874SOL    HW129081   3.809   0.494   5.549  2.1080  1.1360 -0.1760
 5874SOL    HW229082   3.812   0.526   5.401  0.8531  2.0083 -0.2652
 5875SOL     OW29083   0.033   0.761  10.711  0.0881 -0.0773 -0.7839
 5875SOL    HW129084   4.685   0.780  10.773  0.7742  1.7286 -0.5431
 5875SOL    HW229085   0.002   0.796  10.627 -0.5428 -0.4226 -0.6962
 5876SOL     OW29086   0.744   0.697   8.623 -0.3911  0.0370 -0.3685
 5876SOL    HW129087   0.698   0.708   8.706  0.4646 -1.9430  0.3859
 5876SOL    HW229088   0.674   0.711   8.560  0.0382  0.8904 -0.6540
 5877SOL     OW29089   3.698   4.001   3.960 -0.1982 -0.0225 -0.8120
 5877SOL    HW129090   3.679   4.003   4.054  2.7933 -0.4620 -0.1988
 5877SOL    HW229091   3.673   3.913   3.933 -1.9516 -0.2171  1.4210
 5878SOL     OW29092   2.498   3.609   2.313  0.0515  0.6281 -0.0928
 5878SOL    HW129093   2.414   3.565   2.326  1.5594 -2.4218 -0.4989
 5878SOL    HW229094   2.481   3.630   2.221  2.4119  1.4584 -0.3431
 5879SOL     OW29095   2.199   0.850   3.937  0.0154 -0.4217 -1.0039
 5879SOL    HW129096   2.294   0.851   3.942 -0.0999 -0.2823  1.5253
 5879SOL    HW229097   2.177   0.826   3.847 -2.0733 -0.9712 -0.3505
 5880SOL     OW29098   3.366   4.192   4.312  0.1674 -0.4129  1.0802
 5880SOL    HW129099   3.453   4.175   4.276  0.5215 -0.3633  1.9203
 5880SOL    HW229100   3.346   4.130   4.383 -2.9628 -0.0097  0.5540
 5881SOL     OW29101   2.510   4.118   2.068  0.2868 -0.2875 -0.0417
 5881SOL    HW129102   2.546   4.148   1.984 -1.3642  1.2163 -0.2082
 5881SOL    HW229103   2.580   4.056   2.090 -0.0466 -0.1617  1.3496
 5882SOL     OW29104   2.710   0.552  10.174 -0.2241 -0.4548  0.0974
 5882SOL    HW129105   2.788   0.497  10.176  0.3078  0.2633 -1.3136
 5882SOL    HW229106   2.651   0.511  10.238 -1.1072 -0.6567 -0.8374
 5883SOL     OW29107   4.689   2.270  16.847 -0.0908  0.5175 -0.2650
 5883SOL    HW129108   0.040   2.288  16.789  1.0567 -1.2054  0.6522
 5883SOL    HW229109   4.712   2.181  16.875  2.0847  0.9805 -0.5709
 5884SOL     OW29110   3.070   3.107  12.376  0.5031  0.4821 -0.6773
 5884SOL    HW129111   3.154   3.080  12.412  1.5308  0.6558 -2.9899
 5884SOL    HW229112   3.059   3.189  12.423 -1.4677 -1.0373  1.5665
 5885SOL     OW29113   3.829   1.620   8.223  0.5577  0.3138  0.0814
 5885SOL    HW129114   3.775   1.592   8.297 -0.0131 -0.9309 -0.8104
 5885SOL    HW229115   3.780   1.696   8.193 -0.0437  0.0530  0.3937
 5886SOL     OW29116   3.051   3.716   8.975  0.3298 -0.6031 -0.5048
 5886SOL    HW129117   2.959   3.727   8.951 -0.2489  0.0190  2.0585
 5886SOL    HW229118   3.042   3.632   9.021  0.3484 -0.6980 -0.6737
 5887SOL     OW29119   0.374   1.338   6.107 -0.0195  0.1696  0.0367
 5887SOL    HW129120   0.458   1.368   6.072 -0.4821  2.3606  0.8274
 5887SOL    HW229121   0.366   1.399   6.179  4.3248 -0.1252  0.7706
 5888SOL     OW29122   3.374   1.187   3.637  0.2457  0.2321  0.2758
 5888SOL    HW129123   3.445   1.209   3.575 -1.2555 -1.1368 -1.9301
 5888SOL    HW229124   3.362   1.271   3.682 -0.8044  1.2171 -1.8350
 5889SOL     OW29125   3.799   0.531   6.076  0.7485 -0.2615  0.2632
 5889SOL    HW129126   3.844   0.593   6.018 -2.7816 -0.8226 -3.0622
 5889SOL    HW229127   3.718   0.500   6.034  0.8543 -0.8044  0.4622
 5890SOL     OW29128   3.489   0.074   3.090 -0.5081  0.1335  0.2008
 5890SOL    HW129129   3.453   4.710   3.113 -1.4186 -0.4387 -3.4678
 5890SOL    HW229130   3.485   0.092   2.996 -1.1474  3.2829  0.8560
 5891SOL     OW29131   1.278   3.471   3.518 -0.0406  0.0082 -0.3898
 5891SOL    HW129132   1.340   3.518   3.462  0.5160  0.0905  0.2959
 5891SOL    HW229133   1.249   3.536   3.581  0.8813 -1.1277  1.1912
 5892SOL     OW29134   1.618   4.341  15.321  0.3757  0.3270 -0.1655
 5892SOL    HW129135   1.626   4.372  15.230  1.5110  1.3091  0.2724
 5892SOL    HW229136   1.566   4.409  15.363 -1.1602  0.9578 -3.0540
 5893SOL     OW29137   1.658   1.358   1.698 -0.2834  0.0707  0.1537
 5893SOL    HW129138   1.688   1.330   1.612 -0.1122  1.4262 -0.2286
 5893SOL    HW229139   1.580   1.409   1.678  0.0386 -0.4700 -2.4719
 5894SOL     OW29140   0.658   1.924   9.063  0.0696 -0.4513  0.4871
 5894SOL    HW129141   0.595   1.900   9.132 -1.0556  1.5185  0.1279
 5894SOL    HW229142   0.697   1.837   9.051  2.2129  0.8283 -1.5563
 5895SOL     OW29143   2.976   0.937   4.582  0.3668 -0.2727 -0.1385
 5895SOL    HW129144   2.890   0.895   4.582  1.1060 -1.7830 -1.4495
 5895SOL    HW229145   2.987   0.953   4.489 -0.4240  0.3286 -0.1250
 5896SOL     OW29146   0.671   1.798   0.334 -0.7249  0.1514  0.0629
 5896SOL    HW129147   0.578   1.796   0.353 -0.5221  0.8691  1.1431
 5896SOL    HW229148   0.675   1.890   0.308  1.4397 -0.6604 -2.4646
 5897SOL     OW29149   4.614   2.100   1.762 -0.2505 -0.1336 -0.7053
 5897SOL    HW129150   4.576   2.171   1.815 -1.5168  0.1987 -2.0437
 5897SOL    HW229151   4.687   2.144   1.719 -0.1403 -0.8408 -1.2351
 5898SOL     OW29152   0.564   4.488   4.363  0.0203  0.0745  0.5091
 5898SOL    HW129153   0.482   4.454   4.400 -0.1733  0.8021  0.7478
 5898SOL    HW229154   0.534   4.576   4.341  0.2486  0.7771  2.9723
 5899SOL     OW29155   3.123   3.728   2.074 -0.6072  0.6882 -0.4412
 5899SOL    HW129156   3.099   3.654   2.018  1.6069 -0.0909 -0.3239
 5899SOL    HW229157   3.185   3.687   2.134  0.2328  2.0270 -0.3918
 5900SOL     OW29158   2.069   0.444   2.732  0.0408 -0.2136  0.2203
 5900SOL    HW129159   2.084   0.538   2.742 -0.6423 -0.3163  2.2164
 5900SOL    HW229160   1.993   0.433   2.788  1.1843 -1.4977  1.4883
 5901SOL     OW29161   0.853   1.266   5.208  0.0055  0.4216 -0.2037
 5901SOL    HW129162   0.824   1.327   5.276  1.0076 -2.0918  2.4947
 5901SOL    HW229163   0.947   1.287   5.206  0.3399 -1.0184  0.3393
 5902SOL     OW29164   1.830   1.032   4.263  0.1526 -0.6458  0.8743
 5902SOL    HW129165   1.763   0.977   4.303 -1.2500 -0.0870 -0.7113
 5902SOL    HW229166   1.869   0.985   4.189  1.2722  0.2548  0.8881
 5903SOL     OW29167   4.544   1.154   5.747  0.1826 -0.1776 -0.4544
 5903SOL    HW129168   4.457   1.192   5.745 -0.0406 -0.7233 -1.4229
 5903SOL    HW229169   4.584   1.183   5.829  1.0953 -0.7552 -0.6889
 5904SOL     OW29170   3.478   4.205   3.896  0.0315  0.0290 -0.4071
 5904SOL    HW129171   3.499   4.280   3.841  0.0816  0.8475  0.7146
 5904SOL    HW229172   3.569   4.178   3.911  0.3214  1.3238  0.2052
 5905SOL     OW29173   1.988   4.255   6.249 -0.1755 -0.5492  0.9968
 5905SOL    HW129174   1.930   4.244   6.173 -1.4447 -0.1569  1.9149
 5905SOL    HW229175   1.985   4.165   6.280  1.2493 -1.7496 -2.2970
 5906SOL     OW29176   1.414   0.959   7.762  0.1842  0.1469 -0.3689
 5906SOL    HW129177   1.319   0.953   7.777 -0.1527  0.5942 -2.3140
 5906SOL    HW229178   1.445   0.924   7.845 -0.8733  0.5167  0.1898
 5907SOL     OW29179   3.299   3.414   8.776 -0.0144 -0.3317  0.3351
 5907SOL    HW129180   3.205   3.402   8.785 -0.0855  0.7495  1.1196
 5907SOL    HW229181   3.309   3.502   8.814  1.3813 -0.1605 -0.4321
 5908SOL     OW29182   3.201   4.203  14.138  0.1801 -0.3952  0.1023
 5908SOL    HW129183   3.129   4.164  14.089  0.7635 -3.4947  1.7184
 5908SOL    HW229184   3.193   4.287  14.093  0.0021 -0.9839 -0.9686
 5909SOL     OW29185   2.113   3.521   7.881 -0.4118 -0.1103  0.1569
 5909SOL    HW129186   2.143   3.535   7.971  0.1831  1.9783 -0.3527
 5909SOL    HW229187   2.194   3.507   7.834 -1.3329 -0.6405 -1.2604
 5910SOL     OW29188   0.834   3.510   4.550  0.0493 -0.3711  0.1923
 5910SOL    HW129189   0.838   3.569   4.625  0.0136 -0.8465  0.5622
 5910SOL    HW229190   0.759   3.543   4.500 -1.4960 -2.0212  1.4752
 5911SOL     OW29191   0.061   1.862   7.408  0.1289  0.2043  0.3249
 5911SOL    HW129192   0.052   1.826   7.496 -0.9442 -0.2610  0.0279
 5911SOL    HW229193   0.152   1.891   7.407 -0.1222  1.0587  1.5683
 5912SOL     OW29194   1.543   0.405   8.884  0.2598  0.0100 -0.5727
 5912SOL    HW129195   1.524   0.440   8.971 -0.3189 -1.4005 -0.1413
 5912SOL    HW229196   1.527   0.487   8.837  0.5895  0.1076 -0.5170
 5913SOL     OW29197   1.431   1.661   5.622  0.0208 -0.2113 -0.4796
 5913SOL    HW129198   1.506   1.671   5.681 -2.2036  2.3669  1.8836
 5913SOL    HW229199   1.394   1.584   5.666 -0.3866  0.9311  1.1809
 5914SOL     OW29200   3.011   3.059   4.209  0.3698  0.3197  0.4588
 5914SOL    HW129201   3.056   3.098   4.133  2.1434  1.4314  2.0693
 5914SOL    HW229202   2.993   3.136   4.263 -0.4411  0.1074  0.4923
 5915SOL     OW29203   2.192   1.358   3.980 -0.3396  0.6528  0.2067
 5915SOL    HW129204   2.270   1.400   4.015  0.7675  1.0204 -2.7379
 5915SOL    HW229205   2.153   1.441   3.955 -2.9502 -0.6226 -0.0020
 5916SOL     OW29206   2.543   3.141   6.132 -0.9208  0.2209  0.0809
 5916SOL    HW129207   2.457   3.179   6.112 -0.0267  2.1148 -0.0696
 5916SOL    HW229208   2.603   3.208   6.163  1.3739 -0.8300 -2.0900
 5917SOL     OW29209   1.885   1.604   0.361  0.2583  0.5153 -0.0604
 5917SOL    HW129210   1.870   1.512   0.340  0.4195  0.5416 -0.2938
 5917SOL    HW229211   1.961   1.620   0.305  0.8056  0.5283  0.6796
 5918SOL     OW29212   0.329   0.991   6.066 -0.1215  0.5848 -0.1965
 5918SOL    HW129213   0.322   1.084   6.044  0.8453  0.9249  0.9769
 5918SOL    HW229214   0.362   0.992   6.156  2.1068  0.7464 -1.0216
 5919SOL     OW29215   0.091   0.830   3.688  0.4778  0.2648  0.1584
 5919SOL    HW129216   0.182   0.838   3.714  0.3819 -1.2757  0.9597
 5919SOL    HW229217   0.092   0.745   3.645  1.9316 -0.9188  2.5748
 5920SOL     OW29218   2.924   1.526   2.504  0.1267 -0.4801  0.1099
 5920SOL    HW129219   2.957   1.560   2.421 -0.8731  1.3362  0.4691
 5920SOL    HW229220   2.839   1.484   2.489  0.6700 -1.1320 -1.1449
 5921SOL     OW29221   1.443   4.439   9.019 -0.7243  0.3011  0.0196
 5921SOL    HW129222   1.456   4.355   8.976  1.4034  0.8579 -0.4386
 5921SOL    HW229223   1.463   4.417   9.109  2.8088 -1.6129 -1.2549
 5922SOL     OW29224   2.652   0.591   1.695 -0.3215 -0.0128  0.5949
 5922SOL    HW129225   2.641   0.498   1.712 -0.2679 -0.0861  0.2419
 5922SOL    HW229226   2.618   0.626   1.777 -0.5500  4.3492 -1.3588
 5923SOL     OW29227   1.534   3.854  16.306  0.0385 -0.1979 -0.1187
 5923SOL    HW129228   1.605   3.918  16.302 -0.0607 -0.1845 -1.7627
 5923SOL    HW229229   1.517   3.853  16.400  3.0922  0.5997  0.4417
 5924SOL     OW29230   2.057   4.028   8.549  0.0805  0.3664  0.0342
 5924SOL    HW129231   2.127   4.090   8.530 -0.0097  1.2049  2.4472
 5924SOL    HW229232   2.041   3.989   8.463  0.8394  1.5324 -0.6466
 5925SOL     OW29233   3.779   2.151  12.964  0.3598  0.2129 -0.2216
 5925SOL    HW129234   3.860   2.196  12.939 -0.3811  1.8926  0.4268
 5925SOL    HW229235   3.804   2.132  13.054  0.3508 -2.1155 -0.7165
 5926SOL     OW29236   4.392   2.990   3.266 -0.4066  0.3855  0.7687
 5926SOL    HW129237   4.398   2.951   3.353 -4.5592 -0.2606  0.7988
 5926SOL    HW229238   4.476   2.958   3.233  0.3433  1.4242  1.6585
 5927SOL     OW29239   2.964   4.617  17.326  0.3211  0.5459 -0.1671
 5927SOL    HW129240   2.879   4.641  17.364 -0.1769 -1.8792  0.2185
 5927SOL    HW229241   2.937   4.550  17.264  1.3489  1.9833 -2.1697
 5928SOL     OW29242   1.738   4.397   4.888  0.3070  0.2280  0.1305
 5928SOL    HW129243   1.644   4.382   4.894  0.7082 -1.8390  1.3236
 5928SOL    HW229244   1.760   4.374   4.798  1.0818  0.3833  0.2807
 5929SOL     OW29245   3.599   1.985  15.917 -0.3251  0.5811  0.5463
 5929SOL    HW129246   3.664   1.936  15.967 -1.8104  0.0085  1.9324
 5929SOL    HW229247   3.520   1.975  15.971  1.1134 -2.0902  2.1568
 5930SOL     OW29248   0.743   0.510   1.508 -0.2657  0.5014  0.3791
 5930SOL    HW129249   0.780   0.575   1.448  0.2355 -0.5335 -0.4317
 5930SOL    HW229250   0.706   0.565   1.577 -0.5792 -0.8514  1.2848
 5931SOL     OW29251   0.269   3.934   6.866 -0.1432 -0.2933  0.3426
 5931SOL    HW129252   0.187   3.954   6.912 -1.2699  0.1043 -1.8348
 5931SOL    HW229253   0.259   3.860   6.805 -2.8594 -0.3439  0.8592
 5932SOL     OW29254   0.869   2.960  13.848 -0.1481 -0.4837 -0.0888
 5932SOL    HW129255   0.811   3.005  13.909 -1.3877 -0.0626 -1.5684
 5932SOL    HW229256   0.826   2.878  13.820 -0.2114 -0.1300 -1.0287
 5933SOL     OW29257   4.022   2.215  17.121  0.4899 -0.2553 -0.5288
 5933SOL    HW129258   4.090   2.181  17.062  1.5397 -0.4893  0.8150
 5933SOL    HW229259   4.074   2.235  17.199  0.9698 -1.4202 -0.5390
 5934SOL     OW29260   2.754   1.799  13.918 -0.6772  0.3745 -0.7199
 5934SOL    HW129261   2.800   1.810  13.835 -0.4192 -2.2081 -0.9215
 5934SOL    HW229262   2.745   1.888  13.952 -0.7411  0.2538 -0.4189
 5935SOL     OW29263   0.457   2.119  12.309  0.0971 -0.7641 -0.0674
 5935SOL    HW129264   0.402   2.094  12.234  1.4434 -2.8611 -0.3471
 5935SOL    HW229265   0.392   2.118  12.379 -0.7552 -1.4120 -0.8660
 5936SOL     OW29266   0.006   4.506   8.946 -0.5908  0.4625 -0.3834
 5936SOL    HW129267   4.663   4.546   9.003  0.0225  0.4009  0.3706
 5936SOL    HW229268   4.673   4.456   8.887  1.3688 -0.8612 -1.1240
 5937SOL     OW29269   1.472   2.377   4.741  0.1509 -0.4571 -0.1090
 5937SOL    HW129270   1.493   2.451   4.684 -1.3356  0.3985  0.4626
 5937SOL    HW229271   1.393   2.350   4.694 -0.0596  0.5278 -0.3221
 5938SOL     OW29272   0.798   3.130  10.614  0.2813  0.0667  0.0146
 5938SOL    HW129273   0.738   3.077  10.562  0.7494 -1.4180  0.9788
 5938SOL    HW229274   0.760   3.141  10.701 -2.2660 -1.7312 -0.8491
 5939SOL     OW29275   4.443   2.452   0.919  0.8243  0.2676  0.9732
 5939SOL    HW129276   4.524   2.401   0.915  0.4098 -0.4600  1.7363
 5939SOL    HW229277   4.479   2.540   0.918  1.6363 -0.0795  0.0690
 5940SOL     OW29278   4.306   4.661   6.792  0.5491  0.6103 -0.1343
 5940SOL    HW129279   4.288   4.580   6.744  0.2069  2.7059 -3.5757
 5940SOL    HW229280   4.359   4.633   6.866  3.2436  2.6355 -1.3004
 5941SOL     OW29281   0.198   0.718   4.421 -0.1568  0.3244  0.0974
 5941SOL    HW129282   0.213   0.772   4.344  3.7394 -1.7557 -0.6181
 5941SOL    HW229283   0.117   0.671   4.401  0.6232  0.3554 -3.1754
 5942SOL     OW29284   1.850   1.814   2.555 -0.1633 -0.0250  0.0204
 5942SOL    HW129285   1.762   1.807   2.517 -0.4853  0.2593  0.7135
 5942SOL    HW229286   1.890   1.882   2.500  1.7493 -0.1258  1.2944
 5943SOL     OW29287   2.388   0.215   3.719 -0.6299  0.3877  0.3116
 5943SOL    HW129288   2.323   0.280   3.693  0.6413  0.8442 -1.7980
 5943SOL    HW229289   2.329   0.144   3.745  0.6880 -0.0817  2.0399
 5944SOL     OW29290   1.411   3.177   8.475  0.3277  0.2426  0.2618
 5944SOL    HW129291   1.442   3.086   8.467 -1.3040 -0.3001  0.0265
 5944SOL    HW229292   1.492   3.223   8.454  0.4853  0.7237  1.9185
 5945SOL     OW29293   0.883   2.671   2.898 -0.6127 -0.1900 -0.4441
 5945SOL    HW129294   0.891   2.750   2.844  1.0273 -1.3652 -1.9075
 5945SOL    HW229295   0.906   2.607   2.831 -2.1248 -0.6385 -0.5319
 5946SOL     OW29296   1.089   3.084   8.060 -0.2361  0.4159 -0.1717
 5946SOL    HW129297   1.176   3.073   8.099  0.3859 -0.6017 -1.8285
 5946SOL    HW229298   1.045   3.004   8.089 -2.7188  1.1374 -1.9271
 5947SOL     OW29299   2.819   2.774   5.242  0.1105 -0.0329 -0.6317
 5947SOL    HW129300   2.760   2.777   5.317  3.0355  1.3095  1.5818
 5947SOL    HW229301   2.797   2.692   5.197 -1.1494  0.1191 -0.3114
 5948SOL     OW29302   2.794   4.252   5.579  0.2906  0.1167 -0.4356
 5948SOL    HW129303   2.810   4.301   5.660  0.1449 -0.8470  0.1751
 5948SOL    HW229304   2.883   4.235   5.548 -0.2175 -2.3885 -0.4632
 5949SOL     OW29305   0.980   2.624   4.722  0.2452 -0.8763  0.2923
 5949SOL    HW129306   0.964   2.530   4.718  0.0864 -0.8586  0.5423
 5949SOL    HW229307   0.980   2.633   4.817 -0.1219 -0.5492  0.2592
 5950SOL     OW29308   3.781   3.832   5.530 -0.1186 -0.3232  0.2580
 5950SOL    HW129309   3.860   3.861   5.485 -0.8027  1.3975  0.1549
 5950SOL    HW229310   3.730   3.913   5.526 -0.8595 -0.7884  0.3083
 5951SOL     OW29311   3.031   1.712   8.747 -0.0406  0.4387  0.5137
 5951SOL    HW129312   2.937   1.726   8.754  0.0009  0.5090  0.9343
 5951SOL    HW229313   3.068   1.796   8.773  0.3386  0.1102  1.0338
 5952SOL     OW29314   0.651   4.389  17.379 -0.3568  0.6206 -0.1244
 5952SOL    HW129315   0.568   4.353  17.410  0.2907 -1.2347 -0.5749
 5952SOL    HW229316   0.705   4.316  17.407  0.7178 -0.0269 -3.8120
 5953SOL     OW29317   2.489   1.373  14.080  0.2761 -0.6416 -0.5230
 5953SOL    HW129318   2.582   1.383  14.060  0.3055  2.3003  1.0135
 5953SOL    HW229319   2.464   1.296  14.029 -3.2526 -1.0467  1.8069
 5954SOL     OW29320   0.030   4.033   4.254 -0.0181  0.0486 -0.1977
 5954SOL    HW129321   4.670   4.008   4.213 -2.3650  4.1477  2.1229
 5954SOL    HW229322   0.021   4.112   4.307 -1.4050 -0.1643 -0.1106
 5955SOL     OW29323   0.368   1.014   8.695 -0.5736  0.1621 -0.3994
 5955SOL    HW129324   0.449   1.063   8.684 -0.3024 -0.6839 -2.0731
 5955SOL    HW229325   0.372   0.950   8.624 -1.3638  1.4585 -1.6109
 5956SOL     OW29326   4.055   2.364   7.164 -0.1973 -0.3297 -0.2274
 5956SOL    HW129327   3.987   2.333   7.224  0.5708 -1.0381  0.2679
 5956SOL    HW229328   4.137   2.325   7.196  0.6758 -0.4404 -2.6055
 5957SOL     OW29329   4.448   2.820   7.883 -0.2878 -0.0404  0.3858
 5957SOL    HW129330   4.451   2.899   7.829  3.3519 -0.3089  0.2488
 5957SOL    HW229331   4.380   2.769   7.838  1.0888 -1.0097 -0.5744
 5958SOL     OW29332   4.237   0.007   8.840 -0.0256 -0.0368 -0.1422
 5958SOL    HW129333   4.162   0.061   8.814 -0.2692  0.4448  1.5526
 5958SOL    HW229334   4.243   4.676   8.762  1.8716  0.2801 -0.2013
 5959SOL     OW29335   2.529   4.351   5.920  0.6203  0.0065 -0.1491
 5959SOL    HW129336   2.508   4.364   5.827 -2.4186  0.6932  0.6271
 5959SOL    HW229337   2.581   4.430   5.933 -1.6732  1.8236 -1.8767
 5960SOL     OW29338   3.394   3.494   0.414 -0.0254  0.4888  0.2225
 5960SOL    HW129339   3.435   3.556   0.474  1.9621  0.0937 -0.6986
 5960SOL    HW229340   3.403   3.409   0.459 -1.5895 -0.3572 -1.0569
 5961SOL     OW29341   2.565   3.002   9.691  0.4211  0.1801  0.0139
 5961SOL    HW129342   2.557   2.906   9.692 -2.1116  0.4018  0.1359
 5961SOL    HW229343   2.483   3.031   9.731  0.8921  0.8870  0.4587
 5962SOL     OW29344   2.723   4.675  17.495 -0.3632 -0.0900 -0.9568
 5962SOL    HW129345   2.719   4.722  17.578 -0.1967 -0.7697 -0.5575
 5962SOL    HW229346   2.649   4.616  17.507  0.1984 -1.0423 -2.1765
 5963SOL     OW29347   0.599   1.443   3.664 -0.7800  0.6109  0.0473
 5963SOL    HW129348   0.556   1.402   3.588 -0.0584 -0.2233  0.0947
 5963SOL    HW229349   0.580   1.534   3.642  0.3937  1.1575  1.3328
 5964SOL     OW29350   2.426   1.562   0.970 -0.6726  0.6042  0.9947
 5964SOL    HW129351   2.464   1.532   0.887 -1.5537 -1.2250  1.2373
 5964SOL    HW229352   2.341   1.595   0.942 -1.3982 -0.5999  1.7316
 5965SOL     OW29353   1.156   3.130   5.435 -0.4592  0.2159 -1.1224
 5965SOL    HW129354   1.238   3.084   5.456 -0.3295  0.3161 -1.3995
 5965SOL    HW229355   1.137   3.075   5.359  1.8231 -2.6232  0.3724
 5966SOL     OW29356   0.223   1.471   2.065 -0.0028 -0.0916 -0.0770
 5966SOL    HW129357   0.317   1.460   2.047 -0.5994 -1.2585 -2.4634
 5966SOL    HW229358   0.217   1.454   2.159 -0.2134 -1.1124 -0.2804
 5967SOL     OW29359   4.405   3.138   5.586 -0.2994 -0.2269  0.1451
 5967SOL    HW129360   4.326   3.086   5.596 -0.6963  0.3615  0.0976
 5967SOL    HW229361   4.433   3.121   5.496  0.3767 -0.7673  0.4636
 5968SOL     OW29362   3.016   2.150   1.099 -0.3230 -0.0693 -0.4774
 5968SOL    HW129363   2.991   2.240   1.077 -0.0103  0.2468  0.4735
 5968SOL    HW229364   3.070   2.132   1.022 -0.0761  0.5856 -0.4574
 5969SOL     OW29365   1.443   1.862   1.495  0.1105 -1.0111 -0.2590
 5969SOL    HW129366   1.529   1.867   1.537 -1.0224  1.4933  1.7588
 5969SOL    HW229367   1.450   1.775   1.457  0.0055 -1.5873  1.0281
 5970SOL     OW29368   3.763   0.230   3.462 -0.4333 -0.5962  0.2455
 5970SOL    HW129369   3.686   0.183   3.493 -1.7642  0.3509 -1.6438
 5970SOL    HW229370   3.759   0.198   3.372  0.2270  0.6499 -0.2223
 5971SOL     OW29371   0.054   3.184  16.101 -0.4137 -0.1630 -0.0427
 5971SOL    HW129372   0.035   3.275  16.077  0.9779  0.7145  2.1018
 5971SOL    HW229373   4.716   3.150  16.036 -0.0364 -0.8998 -0.0094
 5972SOL     OW29374   1.723   0.242   8.107 -0.1038  0.8384 -0.7280
 5972SOL    HW129375   1.640   0.207   8.076 -0.1074 -0.9376  1.2798
 5972SOL    HW229376   1.694   0.321   8.153 -0.8599 -0.1560  0.5116
 5973SOL     OW29377   3.996   1.909  17.016 -0.1693  0.0497 -0.3341
 5973SOL    HW129378   3.948   1.870  16.944 -2.4179  0.7162  0.8108
 5973SOL    HW229379   4.050   1.978  16.978 -2.2553  1.5241 -0.6068
 5974SOL     OW29380   0.657   1.444   6.086 -0.0823  0.1326 -0.9536
 5974SOL    HW129381   0.651   1.376   6.020  1.0524 -1.5549  0.6883
 5974SOL    HW229382   0.747   1.468   6.066 -0.0929  0.9572 -0.0558
 5975SOL     OW29383   1.038   0.151  11.130 -0.4954 -0.0669 -0.2809
 5975SOL    HW129384   1.018   0.236  11.168 -1.0407 -0.8846  1.2628
 5975SOL    HW229385   0.961   0.098  11.147  0.1805 -0.9350  0.0986
 5976SOL     OW29386   1.758   1.802   4.725 -0.4008 -0.3222  0.2459
 5976SOL    HW129387   1.835   1.819   4.778 -0.3281  2.4409 -0.7456
 5976SOL    HW229388   1.694   1.820   4.794 -2.3755 -2.3817 -1.0240
 5977SOL     OW29389   3.932   3.945   7.942 -0.4941 -0.2647  0.1298
 5977SOL    HW129390   3.952   3.959   7.849  3.0675 -2.0270  0.6472
 5977SOL    HW229391   3.929   4.031   7.984  2.4555  0.2236 -0.6410
 5978SOL     OW29392   2.909   1.842   9.452 -0.3402  0.4020 -0.0558
 5978SOL    HW129393   2.974   1.773   9.460  0.2893  1.2039  1.8616
 5978SOL    HW229394   2.834   1.783   9.446 -0.9059  0.9860  1.1061
 5979SOL     OW29395   1.736   3.838   8.420 -0.0010 -0.6585 -0.4763
 5979SOL    HW129396   1.759   3.913   8.365  1.5254 -0.5720  0.2789
 5979SOL    HW229397   1.642   3.841   8.402 -0.3227 -2.4230  0.9591
 5980SOL     OW29398   2.029   4.460   7.184 -0.5634 -0.3806 -0.1093
 5980SOL    HW129399   1.998   4.482   7.272  1.6412  0.6192  0.4169
 5980SOL    HW229400   1.967   4.516   7.137 -0.6386 -0.5715 -0.2400
 5981SOL     OW29401   3.731   3.014  11.259 -0.3512  0.3338 -0.0859
 5981SOL    HW129402   3.763   3.084  11.201  0.7148  1.2491  1.5998
 5981SOL    HW229403   3.805   3.009  11.319 -0.4788 -0.5575 -0.0051
 5982SOL     OW29404   2.399   1.143  13.938  0.3962  0.0497  0.0542
 5982SOL    HW129405   2.349   1.067  13.967  2.8390 -0.5852  2.5045
 5982SOL    HW229406   2.406   1.121  13.845  0.1080 -0.4622  0.1520
 5983SOL     OW29407   0.409   1.797   5.937 -0.7509  1.2705  0.0608
 5983SOL    HW129408   0.339   1.830   5.880 -0.3045 -1.7295 -2.2741
 5983SOL    HW229409   0.451   1.729   5.884 -1.0114  0.9248  0.2954
 5984SOL     OW29410   0.866   1.265   5.605  0.0915  0.1150  0.1768
 5984SOL    HW129411   0.915   1.258   5.687  1.0986  1.1274 -0.3405
 5984SOL    HW229412   0.833   1.354   5.597 -0.1216  0.2231  2.1434
 5985SOL     OW29413   1.813   3.480   1.347 -0.4645  0.0599 -0.0366
 5985SOL    HW129414   1.755   3.552   1.372  0.0383  1.1017 -1.8793
 5985SOL    HW229415   1.796   3.475   1.253  2.9626 -1.2279 -0.5909
 5986SOL     OW29416   0.826   3.029   9.141 -0.2292 -0.7582 -0.4470
 5986SOL    HW129417   0.837   3.123   9.155  0.0158 -0.8991  0.3226
 5986SOL    HW229418   0.818   2.995   9.231 -0.6418 -0.6311 -0.4352
 5987SOL     OW29419   3.933   0.745   0.076 -0.4068  0.4607 -0.0122
 5987SOL    HW129420   3.847   0.733   0.116  0.5650  0.8715  2.2010
 5987SOL    HW229421   3.957   0.653   0.091  3.0409  1.1938 -1.0571
 5988SOL     OW29422   3.742   2.488   1.473 -0.2691  0.0536  0.4577
 5988SOL    HW129423   3.652   2.460   1.486 -0.1242 -0.2177  0.8894
 5988SOL    HW229424   3.760   2.460   1.383 -2.1832  0.4391 -0.0246
 5989SOL     OW29425   2.755   2.399  10.050  0.3055  0.1648 -0.1989
 5989SOL    HW129426   2.714   2.486  10.047  0.2080  0.0710 -1.6950
 5989SOL    HW229427   2.715   2.360  10.128  0.0882  0.7374 -0.0209
 5990SOL     OW29428   4.542   3.969  13.522 -0.5038  0.3998  0.1644
 5990SOL    HW129429   4.515   4.038  13.583 -1.4611  0.2218 -0.0490
 5990SOL    HW229430   4.626   4.008  13.500  0.6676 -0.4424  3.1616
 5991SOL     OW29431   2.608   1.252   9.305  0.5120  0.2546 -0.1587
 5991SOL    HW129432   2.629   1.163   9.332 -0.2902  0.5333  1.3838
 5991SOL    HW229433   2.666   1.260   9.229  1.2829 -0.4021  0.3698
 5992SOL     OW29434   2.065   3.696   5.396  0.7135 -0.1813  0.3686
 5992SOL    HW129435   2.019   3.753   5.459 -0.6225 -0.4397 -0.3644
 5992SOL    HW229436   2.000   3.626   5.397 -1.2846  1.6204 -0.6867
 5993SOL     OW29437   3.381   1.759   7.910 -0.0711 -0.4273 -0.3088
 5993SOL    HW129438   3.317   1.736   7.842 -1.4154 -2.5164  1.6600
 5993SOL    HW229439   3.335   1.833   7.951 -0.4811 -0.2579 -1.0775
 5994SOL     OW29440   2.991   1.553   5.418  0.6488  0.2399  0.4850
 5994SOL    HW129441   3.051   1.571   5.345 -1.5437  2.1434 -0.8777
 5994SOL    HW229442   2.922   1.620   5.412  0.1572 -0.3436 -0.5634
 5995SOL     OW29443   1.773   1.669   5.109  0.8820 -0.3375 -0.3062
 5995SOL    HW129444   1.720   1.590   5.119  1.7343 -0.7742  0.8269
 5995SOL    HW229445   1.835   1.637   5.043 -0.2619 -1.7672 -0.6849
 5996SOL     OW29446   1.596   0.969   3.882  0.2802 -0.3011 -0.0701
 5996SOL    HW129447   1.561   0.965   3.793  2.8019 -2.0245 -0.9877
 5996SOL    HW229448   1.600   1.062   3.902 -0.0863 -0.4971  0.9087
 5997SOL     OW29449   2.627   4.624   5.820  0.2097 -0.4687 -0.1587
 5997SOL    HW129450   2.589   4.656   5.738  1.8385  2.6636  0.3094
 5997SOL    HW229451   2.634   4.707   5.867 -1.9425  0.7227 -1.8914
 5998SOL     OW29452   1.655   3.115   4.644 -0.3831 -0.4480  0.2855
 5998SOL    HW129453   1.730   3.139   4.699 -0.3223  0.0804 -0.0278
 5998SOL    HW229454   1.574   3.129   4.694 -1.1815 -0.4584 -1.0259
 5999SOL     OW29455   4.486   0.769   3.167  0.2422  0.0163 -0.4500
 5999SOL    HW129456   4.538   0.776   3.247 -0.1143 -0.1659 -0.2019
 5999SOL    HW229457   4.524   0.694   3.120  0.8993  0.8807 -1.2968
 6000SOL     OW29458   1.908   2.060   0.920  0.0680  0.1745 -0.0656
 6000SOL    HW129459   1.838   1.995   0.926  2.0785 -2.0138 -0.3109
 6000SOL    HW229460   1.969   2.018   0.859 -1.4095 -0.1114 -1.3533
 6001SOL     OW29461   0.307   0.015  12.715 -0.3978 -0.4559 -0.0148
 6001SOL    HW129462   0.331   4.668  12.654  0.0999 -0.0257 -0.3073
 6001SOL    HW229463   0.211   0.015  12.714 -0.3957  0.0415 -0.1716
 6002SOL     OW29464   4.646   3.278   6.239 -0.9052  0.5369  0.2129
 6002SOL    HW129465   4.621   3.189   6.214  1.1131  0.7822 -2.7226
 6002SOL    HW229466   4.714   3.288   6.172 -1.4512 -1.0758 -0.5644
 6003SOL     OW29467   0.844   4.512   9.356 -0.2193 -0.0462  0.1116
 6003SOL    HW129468   0.812   4.453   9.288 -0.8041 -1.3179  1.4918
 6003SOL    HW229469   0.761   4.555   9.374  0.3965  1.6259 -1.1085
 6004SOL     OW29470   3.701   2.797   5.393  0.4324  0.6735  0.2438
 6004SOL    HW129471   3.655   2.866   5.344 -1.3920  0.5832  1.8233
 6004SOL    HW229472   3.785   2.804   5.347 -0.5375  2.0902 -1.3593
 6005SOL     OW29473   4.708   4.258   6.713  0.3529 -0.3094  0.2222
 6005SOL    HW129474   4.662   4.342   6.712  2.9719  1.1080  0.6655
 6005SOL    HW229475   0.056   4.274   6.775  0.3921  0.0130  0.0892
 6006SOL     OW29476   3.274   4.690  14.720 -0.4780  0.1364 -0.3755
 6006SOL    HW129477   3.343   0.001  14.663 -2.0122 -0.6314 -2.6883
 6006SOL    HW229478   3.234   0.051  14.743 -0.9530  0.2975 -1.7785
 6007SOL     OW29479   0.494   3.674   5.236  0.1739  0.8681  0.2101
 6007SOL    HW129480   0.472   3.710   5.322 -2.0270  0.3886 -0.1543
 6007SOL    HW229481   0.442   3.594   5.234  1.4721  0.0514 -1.0524
 6008SOL     OW29482   0.501   1.986   8.836  0.2501 -0.4511 -0.7338
 6008SOL    HW129483   0.559   2.008   8.909 -2.4196  2.5235  0.4649
 6008SOL    HW229484   0.475   1.897   8.862  1.1572 -0.5171 -0.0155
 6009SOL     OW29485   2.322   2.145   7.414 -0.0861 -0.0043 -0.3689
 6009SOL    HW129486   2.327   2.236   7.387  2.6122 -0.4122 -1.2727
 6009SOL    HW229487   2.380   2.094   7.357 -0.7988  0.1276 -1.2031
 6010SOL     OW29488   1.879   2.824  16.878 -0.8401  0.1387  0.0373
 6010SOL    HW129489   1.831   2.881  16.938 -0.2137  0.6349  0.0708
 6010SOL    HW229490   1.832   2.741  16.876  0.1577 -0.4385  0.7263
 6011SOL     OW29491   4.716   0.976   2.519 -0.4695  0.0552  0.9151
 6011SOL    HW129492   0.071   1.009   2.474 -0.9492  0.9165  0.7164
 6011SOL    HW229493   4.678   0.918   2.454  0.8239  1.4994 -1.1217
 6012SOL     OW29494   4.291   3.529   2.464 -0.1932 -0.0644  0.1828
 6012SOL    HW129495   4.279   3.624   2.461 -0.2878 -0.0065  2.4906
 6012SOL    HW229496   4.365   3.528   2.403 -0.8560  0.4086 -0.6280
 6013SOL     OW29497   2.107   2.666   6.212 -0.1102  0.5937 -0.2135
 6013SOL    HW129498   2.014   2.672   6.235  0.9101  0.7802  3.8845
 6013SOL    HW229499   2.108   2.701   6.123  1.8245 -0.8732 -0.7595
 6014SOL     OW29500   3.808   1.750  16.877  0.1106 -0.3902 -0.0219
 6014SOL    HW129501   3.886   1.695  16.879  0.8193  0.5934 -0.4278
 6014SOL    HW229502   3.763   1.715  16.800 -0.9029  2.8835 -0.9516
 6015SOL     OW29503   4.277   2.613  12.894 -0.0746  0.6787  0.3424
 6015SOL    HW129504   4.251   2.622  12.986 -0.1689  1.7858  0.2122
 6015SOL    HW229505   4.312   2.524  12.899 -2.3828 -0.1414  1.7658
 6016SOL     OW29506   1.859   1.210   0.853 -0.1383 -0.9229 -0.2377
 6016SOL    HW129507   1.936   1.240   0.805  0.7201 -1.0282  1.0843
 6016SOL    HW229508   1.817   1.163   0.781 -1.5439  0.9326 -0.6621
 6017SOL     OW29509   1.945   2.229   3.282 -0.4556  0.4817  0.0835
 6017SOL    HW129510   1.944   2.274   3.366  1.0036  0.2503  0.2251
 6017SOL    HW229511   2.009   2.280   3.233  0.7641  0.6147  1.8428
 6018SOL     OW29512   2.168   3.220  11.891  0.2313 -0.2042 -0.5095
 6018SOL    HW129513   2.133   3.249  11.807 -0.3768  0.2493 -0.0942
 6018SOL    HW229514   2.239   3.164  11.859 -1.5664 -1.3732 -2.5370
 6019SOL     OW29515   2.238   1.830   4.405  0.1971 -0.7552 -0.1212
 6019SOL    HW129516   2.311   1.801   4.460  0.3035  0.0980  0.1904
 6019SOL    HW229517   2.284   1.871   4.332  2.0633 -0.1435  1.3819
 6020SOL     OW29518   2.394   4.280   7.339 -0.2680  0.2756 -0.3523
 6020SOL    HW129519   2.331   4.249   7.274  0.4502  0.0417 -0.9410
 6020SOL    HW229520   2.421   4.363   7.300  0.1386  0.7218  0.8563
 6021SOL     OW29521   0.064   2.223   2.258  0.4074 -0.6717  0.8141
 6021SOL    HW129522   0.036   2.315   2.258  1.8409 -0.2322 -0.5196
 6021SOL    HW229523   0.044   2.194   2.169 -1.0962  0.5423  0.7449
 6022SOL     OW29524   0.958   4.568  12.254 -0.0677  0.8582 -0.9615
 6022SOL    HW129525   0.967   4.517  12.173 -0.0605 -1.0052  0.2324
 6022SOL    HW229526   0.863   4.582  12.252 -0.3278 -0.6613  0.6189
 6023SOL     OW29527   2.790   4.179  13.502  0.1339 -0.2671 -0.2118
 6023SOL    HW129528   2.732   4.180  13.578  1.5651  2.6110  0.8343
 6023SOL    HW229529   2.857   4.119  13.535 -0.5695 -0.0210  1.6575
 6024SOL     OW29530   4.074   4.441   6.679  0.0802 -0.3678 -0.1297
 6024SOL    HW129531   4.169   4.430   6.685 -0.1225 -2.7847 -1.1951
 6024SOL    HW229532   4.060   4.478   6.592 -0.1478  1.0497  0.5004
 6025SOL     OW29533   2.283   4.172   8.527 -0.1557 -0.2290  0.2887
 6025SOL    HW129534   2.301   4.180   8.621 -0.8663 -0.1857  0.4261
 6025SOL    HW229535   2.370   4.191   8.493 -0.1070  0.6577  0.9076
 6026SOL     OW29536   4.145   0.903   6.572  0.0398 -0.3647 -0.3105
 6026SOL    HW129537   4.181   0.972   6.627 -0.5795 -1.1798  1.1359
 6026SOL    HW229538   4.179   0.827   6.619 -0.4186 -0.7549 -0.6143
 6027SOL     OW29539   2.693   0.860   0.818 -0.1834  0.2138 -0.2502
 6027SOL    HW129540   2.721   0.778   0.858 -1.6432 -0.5076 -0.6828
 6027SOL    HW229541   2.599   0.855   0.800 -0.1840 -0.4230 -0.0872
 6028SOL     OW29542   1.452   3.165   2.475 -0.0265  0.1151  0.2699
 6028SOL    HW129543   1.362   3.142   2.451  0.3163 -1.1384  0.1714
 6028SOL    HW229544   1.504   3.094   2.438 -1.7808 -0.6217 -0.8294
 6029SOL     OW29545   3.148   0.983   3.895  0.1935  0.5449  0.6131
 6029SOL    HW129546   3.205   0.965   3.820  1.4709 -0.2369  1.7685
 6029SOL    HW229547   3.152   0.897   3.938 -0.0266  1.4385  2.3784
 6030SOL     OW29548   2.143   0.777   3.695 -0.2192 -0.2463  0.2931
 6030SOL    HW129549   2.089   0.721   3.639  1.3652 -1.6678  0.1735
 6030SOL    HW229550   2.231   0.746   3.670 -0.2783 -0.9892  1.0216
 6031SOL     OW29551   2.182   2.075   2.462 -0.6192 -0.2436 -0.0497
 6031SOL    HW129552   2.198   2.124   2.381 -0.8254  0.6821  0.4688
 6031SOL    HW229553   2.274   2.062   2.485  0.0296  0.1592 -2.3488
 6032SOL     OW29554   2.437   1.901   1.014 -0.6537 -0.1136  0.0160
 6032SOL    HW129555   2.390   1.982   0.994 -3.1631 -1.2077  1.6216
 6032SOL    HW229556   2.389   1.839   0.960  0.8347 -2.5345  1.4833
 6033SOL     OW29557   3.047   1.275   4.250  0.0665  0.0276 -0.7100
 6033SOL    HW129558   3.077   1.288   4.160  1.4778 -0.0123 -0.2409
 6033SOL    HW229559   3.046   1.369   4.271 -0.3464  0.3461 -2.2064
 6034SOL     OW29560   3.853   1.102   4.413  0.1568 -0.4556 -0.5221
 6034SOL    HW129561   3.895   1.187   4.418 -0.7852  0.0019 -0.3732
 6034SOL    HW229562   3.859   1.089   4.318  0.0721 -1.2444 -0.4269
 6035SOL     OW29563   1.367   3.582   7.404  0.8064 -0.2566  0.8262
 6035SOL    HW129564   1.325   3.586   7.490 -2.7413  1.0348 -0.9548
 6035SOL    HW229565   1.294   3.590   7.342  1.2567  0.8260  0.4287
 6036SOL     OW29566   1.283   3.608   2.252  0.3785  0.7158 -0.1798
 6036SOL    HW129567   1.236   3.549   2.193 -0.3498  1.0562  0.0632
 6036SOL    HW229568   1.317   3.553   2.322  0.3872 -1.1656 -1.6653
 6037SOL     OW29569   2.438   4.520  15.156  0.5010 -0.3451 -0.3870
 6037SOL    HW129570   2.447   4.614  15.169  1.5247 -0.8596  2.5561
 6037SOL    HW229571   2.453   4.482  15.243 -1.7285 -0.5361 -0.0836
 6038SOL     OW29572   3.289   1.150   7.179  0.2853 -0.5985  0.0492
 6038SOL    HW129573   3.339   1.231   7.165  0.2915 -0.3078  1.7898
 6038SOL    HW229574   3.234   1.183   7.250 -0.2541  0.1774 -0.7200
 6039SOL     OW29575   4.245   0.192   3.490 -0.0226 -0.4216 -0.3671
 6039SOL    HW129576   4.162   0.180   3.535 -0.7093  1.0591 -1.2380
 6039SOL    HW229577   4.249   0.099   3.467  0.8957 -0.2858 -0.7885
 6040SOL     OW29578   1.640   0.858   5.935  0.5772 -0.3897 -0.1541
 6040SOL    HW129579   1.704   0.928   5.953 -1.4427  1.1033  1.2079
 6040SOL    HW229580   1.556   0.904   5.936  0.6939 -0.1966  1.1080
 6041SOL     OW29581   3.282   1.215   5.837 -0.0047 -0.2721 -0.3777
 6041SOL    HW129582   3.341   1.202   5.910  0.5204 -0.4878 -0.8433
 6041SOL    HW229583   3.270   1.310   5.845  1.0712 -0.2225  0.5551
 6042SOL     OW29584   3.131   1.293   7.373 -0.0662 -0.3293  0.2155
 6042SOL    HW129585   3.082   1.338   7.442 -0.5817 -0.4101 -0.0956
 6042SOL    HW229586   3.207   1.349   7.362 -1.1522  1.2722  0.8448
 6043SOL     OW29587   3.141   0.577   3.217 -0.0308 -0.5530 -0.2246
 6043SOL    HW129588   3.224   0.549   3.178 -0.6748 -0.4392 -1.7068
 6043SOL    HW229589   3.149   0.525   3.297  2.3643  1.8315  1.0992
 6044SOL     OW29590   0.838   4.153   8.167 -0.0640  0.2851  0.3199
 6044SOL    HW129591   0.821   4.110   8.251 -2.0904 -0.6212 -0.5577
 6044SOL    HW229592   0.755   4.199   8.152  1.1524  2.4505  0.1713
 6045SOL     OW29593   1.901   4.690  13.531 -0.7614 -0.2542 -0.1492
 6045SOL    HW129594   1.811   4.688  13.565 -0.5749  1.7562  0.4726
 6045SOL    HW229595   1.886   0.014  13.449  0.8356  1.3075  0.4433
 6046SOL     OW29596   4.572   1.228   8.270 -0.7051 -0.3091 -0.2661
 6046SOL    HW129597   4.575   1.181   8.354  0.7210  1.0314  0.4240
 6046SOL    HW229598   4.479   1.249   8.263 -0.7518  0.5116  2.7426
 6047SOL     OW29599   4.133   4.290   1.354 -0.0439  0.4489  0.0911
 6047SOL    HW129600   4.038   4.288   1.363  0.0320  1.9946  1.3006
 6047SOL    HW229601   4.141   4.372   1.305  1.1540 -1.1817 -2.3949
 6048SOL     OW29602   1.304   2.067  13.453 -0.1875  0.2689 -0.2936
 6048SOL    HW129603   1.229   2.123  13.433 -0.9779 -0.1806  1.4073
 6048SOL    HW229604   1.376   2.124  13.428  0.2491 -0.4468 -0.6911
 6049SOL     OW29605   1.430   3.428  17.611 -0.8081  0.0808  0.1854
 6049SOL    HW129606   1.442   3.483  17.688  0.2747 -0.6273  0.5250
 6049SOL    HW229607   1.335   3.413  17.614 -1.0758  1.7718  0.0207
 6050SOL     OW29608   2.019   2.242  15.355  0.2835  0.0380 -0.0359
 6050SOL    HW129609   2.071   2.308  15.309  1.4478  0.6502  2.1711
 6050SOL    HW229610   2.086   2.173  15.362  0.4936  0.3688  1.2397
 6051SOL     OW29611   2.570   4.076   1.525 -0.1884  0.2054  0.4089
 6051SOL    HW129612   2.580   3.989   1.485 -0.3667 -0.0319  0.8780
 6051SOL    HW229613   2.521   4.125   1.459 -0.2477 -0.7531 -0.2674
 6052SOL     OW29614   3.208   1.486   2.960 -0.2366  0.2369  0.3238
 6052SOL    HW129615   3.167   1.448   2.883 -1.1775  1.0751  0.4063
 6052SOL    HW229616   3.171   1.574   2.952  0.6542  0.6387  0.6137
 6053SOL     OW29617   4.094   2.400   6.413  0.3529  0.4479 -0.2386
 6053SOL    HW129618   4.162   2.385   6.479 -0.5734  1.4249  0.9660
 6053SOL    HW229619   4.026   2.343   6.449  0.6052 -0.8193 -1.8202
 6054SOL     OW29620   0.836   3.662   5.855 -0.2279  0.8073 -0.3989
 6054SOL    HW129621   0.879   3.650   5.940  0.5822  0.2107 -0.8992
 6054SOL    HW229622   0.889   3.734   5.821 -1.2607  0.9474 -1.7041
 6055SOL     OW29623   2.572   1.417   5.908 -0.1640  0.1948  0.0873
 6055SOL    HW129624   2.614   1.333   5.889  1.2866  0.6050  1.4236
 6055SOL    HW229625   2.550   1.412   6.001 -0.6695 -1.3291 -0.1255
 6056SOL     OW29626   3.179   3.694  17.035  0.1353  0.1922 -0.0288
 6056SOL    HW129627   3.106   3.683  17.097 -0.2678 -0.9267 -0.7024
 6056SOL    HW229628   3.144   3.655  16.955  1.6402  1.9670 -1.5415
 6057SOL     OW29629   3.641   0.891  11.190 -0.0470  0.5586 -0.3353
 6057SOL    HW129630   3.736   0.883  11.187 -0.0752  1.0575 -2.1633
 6057SOL    HW229631   3.607   0.808  11.225  1.4553 -0.0666 -0.3859
 6058SOL     OW29632   4.387   2.912   8.819  0.4638  0.3725 -0.5004
 6058SOL    HW129633   4.469   2.953   8.790 -0.0452  3.0622  1.9168
 6058SOL    HW229634   4.318   2.895   8.755  0.7957 -2.4969 -0.1010
 6059SOL     OW29635   0.666   3.855   7.825 -0.2166  0.0616  0.4036
 6059SOL    HW129636   0.675   3.793   7.752  0.8336 -0.4818  0.9995
 6059SOL    HW229637   0.614   3.928   7.792  0.6217  1.5242  2.3391
 6060SOL     OW29638   3.007   3.310  17.243 -1.2769  0.0353 -0.7763
 6060SOL    HW129639   2.976   3.301  17.333 -0.6470  0.4530 -0.5106
 6060SOL    HW229640   2.971   3.225  17.218 -1.9129 -0.0174  0.3614
 6061SOL     OW29641   2.995   0.100   8.725  0.2784  0.2817 -0.2075
 6061SOL    HW129642   3.086   0.125   8.736  0.0441  0.2639  1.8838
 6061SOL    HW229643   2.962   0.109   8.815  2.5198 -0.0194  0.6265
 6062SOL     OW29644   2.785   1.282   3.253 -0.1235  0.1096  0.1362
 6062SOL    HW129645   2.698   1.243   3.252 -0.4404  0.8638 -1.3500
 6062SOL    HW229646   2.830   1.197   3.252  0.6844  0.5222  2.5115
 6063SOL     OW29647   4.260   1.556   3.413  0.4654 -0.3897 -0.0136
 6063SOL    HW129648   4.289   1.477   3.367 -2.5451  0.0925 -2.7726
 6063SOL    HW229649   4.181   1.526   3.458  0.4893  2.9450  2.2270
 6064SOL     OW29650   2.789   0.926   1.095  0.0369  0.1170 -0.2418
 6064SOL    HW129651   2.702   0.950   1.127  1.3408  3.7981  0.4890
 6064SOL    HW229652   2.775   0.946   1.002  0.2362  1.3372 -0.0080
 6065SOL     OW29653   1.354   0.942   5.924  0.0497 -0.2676 -0.4579
 6065SOL    HW129654   1.364   1.001   5.849 -1.6297 -0.3838 -0.7760
 6065SOL    HW229655   1.258   0.941   5.918 -0.1463 -0.2946  2.8469
 6066SOL     OW29656   1.966   1.267   7.515 -0.4293 -0.2531 -0.2253
 6066SOL    HW129657   1.876   1.297   7.520 -0.4205 -0.2103 -0.3248
 6066SOL    HW229658   2.018   1.343   7.488  0.3035 -0.5546  0.3418
 6067SOL     OW29659   2.136   2.431   9.951 -0.0834 -0.6897  0.7756
 6067SOL    HW129660   2.067   2.498   9.945 -0.7384 -1.4189  0.2301
 6067SOL    HW229661   2.135   2.406  10.044 -3.5551  3.0850  1.7660
 6068SOL     OW29662   0.448   1.599  12.108 -0.5545  0.0957 -0.1815
 6068SOL    HW129663   0.492   1.527  12.154  0.3978  0.9665  0.2550
 6068SOL    HW229664   0.473   1.674  12.162  1.5728 -0.3386 -0.5612
 6069SOL     OW29665   0.804   0.120   2.969  0.0159  0.4142  0.0314
 6069SOL    HW129666   0.740   0.093   3.035  0.7341 -0.2882  0.4303
 6069SOL    HW229667   0.820   0.214   2.977  0.4345  0.3457 -0.0318
 6070SOL     OW29668   2.536   2.090   9.723 -0.0447  0.8923 -0.2290
 6070SOL    HW129669   2.541   2.110   9.629  4.5084 -0.9737 -0.3715
 6070SOL    HW229670   2.553   1.996   9.720  1.1963  1.0993  0.1951
 6071SOL     OW29671   1.712   2.933   5.478 -0.5414  0.5683  0.2116
 6071SOL    HW129672   1.763   3.005   5.514 -0.0375  0.7424 -0.8402
 6071SOL    HW229673   1.656   2.987   5.422  0.2554  1.6354  0.4443
 6072SOL     OW29674   1.654   3.131  16.151  0.2382  0.4354  0.6398
 6072SOL    HW129675   1.642   3.187  16.074 -1.4864  0.3788  0.8662
 6072SOL    HW229676   1.670   3.043  16.118  1.8841  0.8195  0.4117
 6073SOL     OW29677   1.597   2.782   4.653  0.0134 -0.0919 -0.4088
 6073SOL    HW129678   1.562   2.870   4.636 -1.2564 -0.4240  0.5295
 6073SOL    HW229679   1.548   2.747   4.727 -1.5255  1.1321 -0.8418
 6074SOL     OW29680   2.412   3.508  16.313 -0.3412 -0.8186  0.2650
 6074SOL    HW129681   2.415   3.535  16.221  1.7439 -0.4621  0.4473
 6074SOL    HW229682   2.484   3.446  16.315 -0.3940 -0.9398 -1.6141
 6075SOL     OW29683   2.522   3.968   3.813 -0.4895  0.5071  0.3396
 6075SOL    HW129684   2.497   3.901   3.876  0.5445 -0.6463 -0.4821
 6075SOL    HW229685   2.610   3.933   3.801 -0.8291 -0.5554  0.9597
 6076SOL     OW29686   1.524   2.671   6.074 -0.5174 -0.2040 -0.1672
 6076SOL    HW129687   1.551   2.763   6.082  0.2142 -0.4880  0.5700
 6076SOL    HW229688   1.431   2.678   6.050 -0.2249 -0.4818 -1.3695
 6077SOL     OW29689   0.647   4.657   2.661 -0.0556 -0.0913 -0.3230
 6077SOL    HW129690   0.730   4.669   2.707 -0.6607 -1.6347  1.1451
 6077SOL    HW229691   0.612   0.022   2.644 -0.5220  0.3271  2.7809
 6078SOL     OW29692   1.177   1.281   4.309  0.1340  0.0046  0.2756
 6078SOL    HW129693   1.148   1.363   4.267 -0.3673  1.0026  2.5315
 6078SOL    HW229694   1.261   1.275   4.265  0.5279  2.0560  0.7273
 6079SOL     OW29695   4.479   1.248   6.627  0.4651 -0.9023 -0.3267
 6079SOL    HW129696   4.549   1.277   6.685  1.9766 -1.5145 -1.8224
 6079SOL    HW229697   4.415   1.319   6.624  0.7174 -0.7334 -1.6189
 6080SOL     OW29698   1.674   1.234   4.219  0.0149  0.3142  0.6126
 6080SOL    HW129699   1.743   1.168   4.228  1.1079  1.4657  0.6773
 6080SOL    HW229700   1.720   1.314   4.245  0.5279  0.6249 -1.2481
 6081SOL     OW29701   0.953   4.664   6.296  0.0714  0.1327  0.6314
 6081SOL    HW129702   0.991   0.029   6.302  1.4410 -0.3241 -1.1002
 6081SOL    HW229703   0.880   4.671   6.356  1.8060 -0.1270  2.7707
 6082SOL     OW29704   0.346   1.327   6.878  0.0275  0.0263  0.1830
 6082SOL    HW129705   0.347   1.406   6.824 -1.3255 -0.5218 -0.6399
 6082SOL    HW229706   0.251   1.315   6.886 -0.2163  1.9261 -0.0341
 6083SOL     OW29707   3.177   3.764  15.258  0.0821  0.0828  0.6231
 6083SOL    HW129708   3.251   3.817  15.287  0.4580 -1.6615  2.8417
 6083SOL    HW229709   3.101   3.790  15.310 -1.3011 -1.5728 -0.5553
 6084SOL     OW29710   3.244   1.831   1.283  0.3421 -0.6341  0.1798
 6084SOL    HW129711   3.320   1.800   1.333 -1.2796 -2.8278  1.2582
 6084SOL    HW229712   3.228   1.910   1.334  1.7801  0.4927 -1.0830
 6085SOL     OW29713   2.255   1.244   4.883 -0.1523 -0.1399  0.5929
 6085SOL    HW129714   2.201   1.167   4.894 -1.2466  0.5319 -0.0956
 6085SOL    HW229715   2.323   1.210   4.824 -0.3510 -0.0736  0.3262
 6086SOL     OW29716   1.699   1.562  11.616  0.3031  0.1158  0.2335
 6086SOL    HW129717   1.641   1.548  11.691 -4.2300 -0.3918 -3.3899
 6086SOL    HW229718   1.703   1.470  11.592 -1.5996 -0.4736  2.1949
 6087SOL     OW29719   0.990   0.870   8.614 -0.3800  0.0336 -0.5602
 6087SOL    HW129720   0.945   0.941   8.660 -1.2213 -2.4752  2.4584
 6087SOL    HW229721   0.916   0.811   8.598 -0.4035  0.1609 -0.9358
 6088SOL     OW29722   3.552   1.827   4.642  0.1840 -0.2091  0.5621
 6088SOL    HW129723   3.601   1.808   4.722  1.9358 -1.0160 -0.6875
 6088SOL    HW229724   3.494   1.751   4.641 -0.6818  0.4757 -0.5301
 6089SOL     OW29725   0.842   0.840   7.538 -0.0553  0.3219 -0.2908
 6089SOL    HW129726   0.786   0.764   7.552 -0.6539  0.5423 -1.5325
 6089SOL    HW229727   0.867   0.826   7.447  1.2364  0.0795  0.0963
 6090SOL     OW29728   0.568   1.144   0.365 -0.6210  0.5341  0.3992
 6090SOL    HW129729   0.495   1.130   0.304 -0.8190 -2.6104  1.4003
 6090SOL    HW229730   0.565   1.061   0.412  1.7877  0.2221 -0.0047
 6091SOL     OW29731   1.963   0.796   8.407 -0.2876 -0.1536  0.3860
 6091SOL    HW129732   2.010   0.725   8.451  0.6336  0.1160 -0.1664
 6091SOL    HW229733   1.963   0.770   8.315 -0.2211 -2.6106  1.0867
 6092SOL     OW29734   2.475   4.246  10.590  0.1962 -0.0803  0.1529
 6092SOL    HW129735   2.550   4.186  10.587 -0.9535 -1.5296  0.8423
 6092SOL    HW229736   2.512   4.313  10.532 -0.5466 -0.3109 -0.5878
 6093SOL     OW29737   2.121   3.951   3.666 -0.5273 -0.4288  0.0984
 6093SOL    HW129738   2.164   3.977   3.748 -2.7632  0.1985  1.0593
 6093SOL    HW229739   2.149   3.861   3.649  2.3752  0.3951  0.3611
 6094SOL     OW29740   2.429   2.294   1.002  0.2088 -0.2392  0.3117
 6094SOL    HW129741   2.516   2.296   1.040  0.0895  2.9142  0.4141
 6094SOL    HW229742   2.408   2.387   1.017 -0.9467 -0.0323 -2.4526
 6095SOL     OW29743   0.014   3.851   7.752 -0.3870 -0.3954  0.2959
 6095SOL    HW129744   4.690   3.796   7.816  0.1638 -1.7111 -0.4500
 6095SOL    HW229745   0.108   3.861   7.767 -0.3838  0.1906 -0.1096
 6096SOL     OW29746   3.439   0.161   2.150 -0.8061  0.8618  0.0655
 6096SOL    HW129747   3.411   0.178   2.060  1.1270  1.4472 -0.4404
 6096SOL    HW229748   3.510   0.223   2.169 -0.3491  0.1020  0.8421
 6097SOL     OW29749   0.538   0.597   1.233 -0.5522 -0.0947  0.5307
 6097SOL    HW129750   0.448   0.566   1.235 -1.0202  1.2497  0.3173
 6097SOL    HW229751   0.588   0.515   1.231  1.8555  1.4884 -4.4917
 6098SOL     OW29752   2.731   1.709   5.403  0.0834 -0.0218 -0.0160
 6098SOL    HW129753   2.699   1.738   5.489  0.1400 -1.0991  0.3716
 6098SOL    HW229754   2.657   1.655   5.375  0.4402  0.1075 -1.1802
 6099SOL     OW29755   4.323   3.402   2.951 -0.0906 -0.0975 -0.8280
 6099SOL    HW129756   4.323   3.397   2.855 -0.9008  1.1468 -0.8947
 6099SOL    HW229757   4.313   3.308   2.966  3.1711  0.0124  2.1148
 6100SOL     OW29758   2.477   2.796  16.310 -0.3735 -0.1879  0.4079
 6100SOL    HW129759   2.452   2.836  16.227  2.1765 -0.1999 -0.3642
 6100SOL    HW229760   2.545   2.736  16.279 -2.1630 -2.4005  0.7561
 6101SOL     OW29761   4.526   4.283   7.750  0.2790  0.3524 -0.3968
 6101SOL    HW129762   4.453   4.325   7.705 -1.4719  0.1440  2.2799
 6101SOL    HW229763   4.596   4.281   7.684 -1.5935 -2.5468 -2.3062
 6102SOL     OW29764   2.513   3.141   3.387  0.2618 -0.3816 -0.2258
 6102SOL    HW129765   2.446   3.192   3.433  0.3563 -0.8020  0.3758
 6102SOL    HW229766   2.589   3.198   3.402  2.5227 -2.5677 -3.3309
 6103SOL     OW29767   2.857   3.811   7.649  0.0008 -0.1913 -0.0277
 6103SOL    HW129768   2.877   3.888   7.702  1.0751 -1.1540  1.0000
 6103SOL    HW229769   2.938   3.794   7.601  1.0382 -0.2354  1.7452
 6104SOL     OW29770   0.646   0.708   5.396 -0.6009  0.3636  0.1384
 6104SOL    HW129771   0.625   0.650   5.322 -0.1549  0.8649 -0.3858
 6104SOL    HW229772   0.677   0.784   5.346  0.0831  0.6229  0.9626
 6105SOL     OW29773   3.743   1.663   8.752  0.3660  0.2672  0.5209
 6105SOL    HW129774   3.716   1.665   8.661  2.2283 -0.9685 -0.0494
 6105SOL    HW229775   3.690   1.589   8.782 -0.6229  0.8835  0.2817
 6106SOL     OW29776   3.115   2.009   0.817  0.0678  0.0080 -0.5227
 6106SOL    HW129777   3.166   1.953   0.876 -0.1417  3.5982  3.0439
 6106SOL    HW229778   3.176   2.003   0.744 -0.2694  3.5630 -1.1130
 6107SOL     OW29779   4.685   4.029   2.229 -0.4425  0.2189 -0.5548
 6107SOL    HW129780   4.690   4.114   2.185 -1.3900  0.1088 -0.8665
 6107SOL    HW229781   0.002   3.974   2.162 -0.1512 -0.6457  0.3193
 6108SOL     OW29782   2.992   3.902   3.954 -0.3423 -0.2200 -0.2383
 6108SOL    HW129783   3.071   3.956   3.961 -2.9730  3.5925  0.2017
 6108SOL    HW229784   3.030   3.819   3.928  0.5047  0.0564  0.1184
 6109SOL     OW29785   4.485   0.094  16.855  0.5809 -0.2891  0.1451
 6109SOL    HW129786   4.453   0.021  16.909  1.1970 -1.3312 -0.8944
 6109SOL    HW229787   4.577   0.075  16.836  0.6399  0.7511 -0.5739
 6110SOL     OW29788   2.759   4.400   5.310 -0.3008  0.3491 -0.4695
 6110SOL    HW129789   2.774   4.339   5.382 -0.4503  0.0111 -0.7242
 6110SOL    HW229790   2.773   4.344   5.234 -0.3052 -0.5923  0.2213
 6111SOL     OW29791   2.475   2.597  16.643 -0.4882 -0.0125 -0.0423
 6111SOL    HW129792   2.444   2.687  16.636 -0.7397  0.1543  3.0923
 6111SOL    HW229793   2.427   2.566  16.566  0.3956 -2.4149  0.3686
 6112SOL     OW29794   0.060   0.205  17.472  0.0312 -0.8218 -0.0123
 6112SOL    HW129795   0.152   0.179  17.479 -0.5913 -2.7539  1.1727
 6112SOL    HW229796   0.066   0.278  17.533 -1.1681 -2.4718  2.1125
 6113SOL     OW29797   4.393   3.099   2.279 -0.2090 -0.0128  0.3735
 6113SOL    HW129798   4.398   3.194   2.278  2.5413 -0.2029 -1.9311
 6113SOL    HW229799   4.318   3.085   2.337 -0.5598  0.2527 -0.0158
 6114SOL     OW29800   0.617   0.732   4.658 -0.1905  0.8410 -0.2319
 6114SOL    HW129801   0.615   0.825   4.682  1.6381  0.1244  2.6676
 6114SOL    HW229802   0.577   0.738   4.571 -2.4988 -3.1667  0.5616
 6115SOL     OW29803   3.468   2.508   3.589  0.2490 -0.0075  0.4201
 6115SOL    HW129804   3.407   2.512   3.663 -0.6985  0.2187 -0.3865
 6115SOL    HW229805   3.514   2.430   3.619 -0.5952 -1.0500 -1.0380
 6116SOL     OW29806   2.318   0.258   3.249 -0.1452 -0.4014  0.0345
 6116SOL    HW129807   2.379   0.331   3.243  2.1745 -2.3819 -0.8209
 6116SOL    HW229808   2.240   0.277   3.197 -1.2772  0.1219  1.9403
 6117SOL     OW29809   1.742   2.604  16.807  0.6618  0.2241  0.0035
 6117SOL    HW129810   1.722   2.526  16.756 -1.8836 -0.5615  2.2015
 6117SOL    HW229811   1.688   2.589  16.885 -0.4690 -1.3985 -1.1092
 6118SOL     OW29812   0.366   0.130   1.229  0.0291  0.2484 -0.6081
 6118SOL    HW129813   0.275   0.133   1.260  1.0687  2.3323  2.2514
 6118SOL    HW229814   0.363   0.090   1.142  0.7705  0.1244 -0.5775
 6119SOL     OW29815   3.861   2.662   6.827  1.3079 -0.2441 -0.0455
 6119SOL    HW129816   3.915   2.711   6.890 -0.8664  2.1115 -0.0191
 6119SOL    HW229817   3.884   2.712   6.748  1.0438 -0.2684 -0.1359
 6120SOL     OW29818   1.632   2.995   2.062 -0.3877 -0.5524  0.2932
 6120SOL    HW129819   1.569   2.945   2.010 -1.7755 -0.2055  1.6477
 6120SOL    HW229820   1.594   3.006   2.149 -0.3556 -2.0700  0.5032
 6121SOL     OW29821   4.386   4.540   3.185 -0.4787  0.2901 -0.3290
 6121SOL    HW129822   4.293   4.518   3.179  0.4231 -3.0565 -1.9457
 6121SOL    HW229823   4.425   4.513   3.102  0.5367  0.8506 -0.0397
 6122SOL     OW29824   4.719   4.543  14.536  0.1208 -0.3694 -0.3339
 6122SOL    HW129825   0.054   4.591  14.596 -2.2531 -0.2906  1.9081
 6122SOL    HW229826   4.644   4.513  14.588 -0.9311  0.0783 -1.6044
 6123SOL     OW29827   1.300   2.736   3.450  1.0804 -0.2224  0.6581
 6123SOL    HW129828   1.220   2.775   3.415  0.0018 -1.5508  1.6420
 6123SOL    HW229829   1.306   2.655   3.399 -1.6806  0.3412 -0.5588
 6124SOL     OW29830   1.162   2.572  11.679  0.7829 -0.3242 -0.2926
 6124SOL    HW129831   1.200   2.521  11.608  1.7998  1.1114 -0.7817
 6124SOL    HW229832   1.136   2.504  11.742  2.9373  0.1654  1.1106
 6125SOL     OW29833   3.735   3.597  15.344  0.2578 -0.6262 -0.7307
 6125SOL    HW129834   3.665   3.568  15.287 -3.2073  0.4462  2.9715
 6125SOL    HW229835   3.742   3.686  15.308  0.3241  0.8933  3.0289
 6126SOL     OW29836   2.944   3.062   6.475 -0.0320  0.0570  0.1603
 6126SOL    HW129837   2.897   3.000   6.419  1.1684  0.0569 -0.8362
 6126SOL    HW229838   2.927   3.146   6.431 -2.3986 -1.0035 -0.9828
 6127SOL     OW29839   2.136   1.814   6.039 -0.5215 -0.1030 -0.6007
 6127SOL    HW129840   2.096   1.846   6.120  2.7608 -3.2274  2.2278
 6127SOL    HW229841   2.156   1.899   6.000  0.3746  0.3824  0.9580
 6128SOL     OW29842   2.534   3.730   5.675  0.3045 -0.2759  0.2518
 6128SOL    HW129843   2.534   3.804   5.735 -0.4634  0.9831 -1.3119
 6128SOL    HW229844   2.582   3.657   5.715  0.8023  0.4128  0.8992
 6129SOL     OW29845   2.688   1.199   5.818 -0.4007 -0.5325  0.5000
 6129SOL    HW129846   2.734   1.126   5.859 -0.2488 -0.9455 -0.4202
 6129SOL    HW229847   2.694   1.171   5.727  1.4158  1.7959 -0.1036
 6130SOL     OW29848   4.032   4.358   2.940  0.0614 -0.7206  0.0245
 6130SOL    HW129849   3.979   4.278   2.942 -2.4434  0.8770 -1.1507
 6130SOL    HW229850   4.019   4.371   2.846 -1.5177 -3.2644 -0.1078
 6131SOL     OW29851   3.673   3.835   4.864 -0.3137 -0.2683 -0.1105
 6131SOL    HW129852   3.643   3.790   4.943 -0.3581 -0.9438 -0.5157
 6131SOL    HW229853   3.768   3.825   4.876 -0.1802 -2.5425 -3.0880
 6132SOL     OW29854   0.737   3.529   5.618 -0.1027  0.0049  0.0377
 6132SOL    HW129855   0.707   3.615   5.586  1.2944 -0.3772 -2.2818
 6132SOL    HW229856   0.803   3.549   5.685 -1.5094  1.2367  1.0574
 6133SOL     OW29857   1.536   4.504   7.598 -1.1719  0.3632 -0.6911
 6133SOL    HW129858   1.492   4.585   7.570  0.6126  1.9051  0.9471
 6133SOL    HW229859   1.496   4.438   7.542 -1.1126 -2.5053  2.6650
 6134SOL     OW29860   1.459   3.627  11.655 -0.4924 -0.2770  1.0604
 6134SOL    HW129861   1.367   3.647  11.642 -0.4440 -1.0374 -0.5030
 6134SOL    HW229862   1.494   3.693  11.715 -1.2601  1.4081 -0.3345
 6135SOL     OW29863   1.116   2.220   9.913  0.0254  0.4920  0.1627
 6135SOL    HW129864   1.135   2.278   9.987  0.0559 -0.6276  1.0411
 6135SOL    HW229865   1.056   2.160   9.958  1.0965  0.9852  2.2449
 6136SOL     OW29866   1.228   0.526   1.165  0.5840 -0.0971  0.6727
 6136SOL    HW129867   1.171   0.542   1.240 -0.0492  0.0228  0.1596
 6136SOL    HW229868   1.168   0.474   1.111  1.7965  0.0257 -0.7911
 6137SOL     OW29869   2.371   0.761   7.907 -0.3090 -0.8886 -0.4002
 6137SOL    HW129870   2.348   0.851   7.885  0.5068 -1.2371 -2.6644
 6137SOL    HW229871   2.463   0.751   7.882 -0.1539  1.4699 -0.7339
 6138SOL     OW29872   2.538   1.795   8.759 -1.0300  0.1305  0.2458
 6138SOL    HW129873   2.620   1.826   8.720 -0.3621  0.1382  1.6868
 6138SOL    HW229874   2.479   1.870   8.768  0.9168  1.9885 -2.3999
 6139SOL     OW29875   1.831   2.813   1.717  0.2112  0.2616 -0.6575
 6139SOL    HW129876   1.778   2.857   1.651  1.9270  0.9492 -1.5977
 6139SOL    HW229877   1.762   2.767   1.764  0.5292  0.0568 -0.3830
 6140SOL     OW29878   2.367   3.554   0.637 -0.0218  0.2151  0.1765
 6140SOL    HW129879   2.330   3.638   0.661  0.3562  0.1703  0.9151
 6140SOL    HW229880   2.353   3.548   0.543 -1.0498 -0.9128  0.3975
 6141SOL     OW29881   3.474   1.417   4.578  0.6804 -0.3244  0.0794
 6141SOL    HW129882   3.437   1.467   4.651  0.2358 -0.2690 -0.1833
 6141SOL    HW229883   3.537   1.475   4.536  0.8042  0.1206  0.8684
 6142SOL     OW29884   3.342   2.162   5.780 -0.4452 -0.4667  0.1987
 6142SOL    HW129885   3.282   2.109   5.832 -1.6568  0.5735 -0.1500
 6142SOL    HW229886   3.286   2.190   5.708 -0.6882 -1.5868 -0.0419
 6143SOL     OW29887   1.524   4.507   2.815 -0.0249 -0.2000 -0.0205
 6143SOL    HW129888   1.580   4.537   2.887  1.1846  3.1417 -2.3450
 6143SOL    HW229889   1.482   4.589   2.791  0.7068  0.0991 -0.2733
 6144SOL     OW29890   3.989   4.613   4.473  0.1571  0.1298  0.5288
 6144SOL    HW129891   3.929   4.678   4.436  0.4529  0.5077  0.7117
 6144SOL    HW229892   3.933   4.536   4.457 -0.2031  0.4032  0.4733
 6145SOL     OW29893   1.600   0.924  12.198 -0.1086  0.2476 -0.0196
 6145SOL    HW129894   1.660   0.999  12.201 -2.4464  2.1560 -0.8206
 6145SOL    HW229895   1.605   0.906  12.104  0.2732  1.7005 -0.2842
 6146SOL     OW29896   1.656   0.057  13.589  0.0741 -0.4918  0.0257
 6146SOL    HW129897   1.637   0.071  13.496 -0.5182 -0.8480  0.0959
 6146SOL    HW229898   1.576   0.012  13.617  0.2306 -2.0198 -1.9976
 6147SOL     OW29899   0.560   2.604   7.648 -0.0033  0.0868  0.0300
 6147SOL    HW129900   0.575   2.689   7.608  0.9927  1.0599  2.4197
 6147SOL    HW229901   0.570   2.628   7.741 -0.5682  0.3961  0.0120
 6148SOL     OW29902   3.660   3.594   6.260  0.4542  0.3184 -0.4026
 6148SOL    HW129903   3.634   3.601   6.352  1.1514 -0.1340 -0.1696
 6148SOL    HW229904   3.755   3.601   6.252  0.7515  0.2739  2.7988
 6149SOL     OW29905   2.009   0.858   1.776 -0.2986 -0.0710 -0.2919
 6149SOL    HW129906   1.922   0.871   1.813  0.4220  1.7733  0.7203
 6149SOL    HW229907   2.022   0.763   1.774 -0.4222 -0.0769 -0.7573
 6150SOL     OW29908   1.621   4.166   8.204 -0.1461 -0.7957 -0.2986
 6150SOL    HW129909   1.541   4.125   8.172  0.2985 -1.3822 -0.6866
 6150SOL    HW229910   1.688   4.098   8.191  0.2736 -0.0034 -2.2659
 6151SOL     OW29911   0.201   1.050   7.399  0.4230 -0.5475  0.2933
 6151SOL    HW129912   0.190   1.030   7.492 -0.0519  0.2494  0.4126
 6151SOL    HW229913   0.231   1.141   7.389 -0.4008  0.0451  3.2864
 6152SOL     OW29914   1.598   3.617   2.565 -0.1009  0.0107 -0.5017
 6152SOL    HW129915   1.594   3.657   2.652  1.5004 -1.5287  0.2811
 6152SOL    HW229916   1.584   3.697   2.514 -1.3271  0.7189  0.9451
 6153SOL     OW29917   2.214   0.176   6.448  0.1639 -0.3224 -0.2228
 6153SOL    HW129918   2.207   0.137   6.361 -0.1277 -0.3635 -0.1803
 6153SOL    HW229919   2.268   0.112   6.493  0.5942 -0.8313 -1.4445
 6154SOL     OW29920   3.043   4.219   5.857 -0.0170  0.0427 -0.5901
 6154SOL    HW129921   2.975   4.274   5.819  0.3700  0.1274 -1.1571
 6154SOL    HW229922   3.044   4.273   5.936 -2.2253 -2.7994  1.3547
 6155SOL     OW29923   2.753   3.825   6.418  0.2060  0.6712  0.1569
 6155SOL    HW129924   2.717   3.911   6.399  0.6919  1.0535  0.9759
 6155SOL    HW229925   2.674   3.772   6.431 -0.4614  1.2964 -1.4151
 6156SOL     OW29926   2.438   3.346   2.079 -0.4797  0.0946  0.0236
 6156SOL    HW129927   2.470   3.322   1.992  0.9064 -3.0427  1.4148
 6156SOL    HW229928   2.435   3.442   2.072 -1.7524 -0.0048 -0.7927
 6157SOL     OW29929   0.580   2.157   3.547 -0.3449 -0.0647  0.0424
 6157SOL    HW129930   0.525   2.221   3.591 -0.2148  0.0120  0.0935
 6157SOL    HW229931   0.660   2.210   3.546 -0.5257  0.2086  0.3479
 6158SOL     OW29932   3.206   4.034  12.718 -0.2487 -0.5371  0.4624
 6158SOL    HW129933   3.280   4.095  12.720  1.1587 -2.2331  0.3445
 6158SOL    HW229934   3.245   3.967  12.774 -1.4495 -2.4068 -0.9675
 6159SOL     OW29935   0.492   3.960   6.500  0.2456 -0.6729 -0.4979
 6159SOL    HW129936   0.414   3.929   6.454  1.3376 -1.7516 -1.6391
 6159SOL    HW229937   0.520   4.032   6.444  2.5875  0.7362  2.4785
 6160SOL     OW29938   4.115   1.200  12.777  0.1046 -0.0645  0.0687
 6160SOL    HW129939   4.083   1.287  12.801 -0.0637 -0.1578  0.1819
 6160SOL    HW229940   4.088   1.198  12.685  0.8792  2.5169 -0.2075
 6161SOL     OW29941   4.179   4.246   3.759  0.3368  0.6497  0.6522
 6161SOL    HW129942   4.259   4.241   3.707  1.3936  0.1877  2.3323
 6161SOL    HW229943   4.126   4.313   3.716  0.4675 -0.8452 -1.8859
 6162SOL     OW29944   1.062   2.157   0.080  0.6094  0.7853 -0.0770
 6162SOL    HW129945   1.108   2.241   0.082  2.4362 -0.2309  0.8752
 6162SOL    HW229946   1.138   2.103   0.057  1.9466  2.5354  0.2305
 6163SOL     OW29947   3.457   2.392  11.704 -0.4533 -0.5782 -0.6385
 6163SOL    HW129948   3.405   2.472  11.703  0.5648  0.1493  2.4130
 6163SOL    HW229949   3.394   2.326  11.674  0.0802 -1.3793  0.0119
 6164SOL     OW29950   2.498   2.518   2.345  0.7001 -0.1607 -0.1346
 6164SOL    HW129951   2.519   2.582   2.413 -1.2994  1.7480 -1.3425
 6164SOL    HW229952   2.559   2.550   2.278  0.0836 -0.9542 -1.0709
 6165SOL     OW29953   2.917   0.169   1.601 -0.4702  0.0274 -0.1350
 6165SOL    HW129954   2.930   0.077   1.580  1.7485  0.1180  0.8510
 6165SOL    HW229955   2.977   0.207   1.537  1.3958 -1.5616  0.6900
 6166SOL     OW29956   3.757   3.388   4.653  0.2127 -0.1639  0.6636
 6166SOL    HW129957   3.826   3.404   4.589 -0.7198 -3.5052 -1.1980
 6166SOL    HW229958   3.809   3.357   4.727  1.0490  0.1115  0.1894
 6167SOL     OW29959   4.105   2.783   3.743 -0.0279 -0.2459 -0.0522
 6167SOL    HW129960   4.140   2.694   3.747 -2.7740 -1.3286  0.2951
 6167SOL    HW229961   4.031   2.769   3.683  0.3528 -0.4475 -0.4808
 6168SOL     OW29962   1.334   2.818  17.450  0.7415  0.2449 -0.2321
 6168SOL    HW129963   1.270   2.889  17.454  0.2039 -0.2207 -0.6474
 6168SOL    HW229964   1.414   2.869  17.434  0.9663  0.0200  0.1797
 6169SOL     OW29965   4.721   3.767   4.872  0.0844  0.2088 -0.0647
 6169SOL    HW129966   4.639   3.798   4.909 -0.3386 -2.7958  1.4854
 6169SOL    HW229967   0.021   3.836   4.809 -2.0524  0.5890 -0.4217
 6170SOL     OW29968   1.891   4.455  10.254  0.3431 -0.0663 -0.3237
 6170SOL    HW129969   1.897   4.490  10.343  3.1294 -2.8131  0.5737
 6170SOL    HW229970   1.941   4.515  10.199  1.2878 -2.8145 -2.4923
 6171SOL     OW29971   2.717   1.523   7.143 -0.1512 -0.2145 -0.0378
 6171SOL    HW129972   2.780   1.557   7.079 -0.6174  1.0405  0.1712
 6171SOL    HW229973   2.672   1.468   7.079  0.3748 -0.1301 -0.4855
 6172SOL     OW29974   3.489   2.154   3.775 -0.1088 -0.2546 -0.0209
 6172SOL    HW129975   3.472   2.154   3.870  1.1009  0.2995  0.1943
 6172SOL    HW229976   3.582   2.131   3.771  0.2914  1.2335  0.7477
 6173SOL     OW29977   0.830   2.446   8.168 -0.0230 -0.4253 -0.2230
 6173SOL    HW129978   0.867   2.428   8.255 -2.4670 -0.5142  0.7998
 6173SOL    HW229979   0.904   2.415   8.116  0.2913 -0.6666  0.3675
 6174SOL     OW29980   3.002   1.532   1.259  0.2894  0.0772 -0.1273
 6174SOL    HW129981   3.044   1.568   1.181  1.4125  0.0733  0.4787
 6174SOL    HW229982   2.937   1.596   1.290  0.5531  0.0891  0.4025
 6175SOL     OW29983   2.529   1.142  14.717 -0.1224  0.4360 -0.3767
 6175SOL    HW129984   2.548   1.229  14.684  1.5861 -0.2877 -1.3083
 6175SOL    HW229985   2.515   1.099  14.633  0.4228 -2.9382  1.2258
 6176SOL     OW29986   2.718   1.958  17.118  0.4528 -0.1733  0.2000
 6176SOL    HW129987   2.758   1.928  17.200 -1.3341 -0.9379  0.7947
 6176SOL    HW229988   2.750   1.884  17.066 -0.0059 -0.0829 -0.2101
 6177SOL     OW29989   2.123   3.665   3.693 -0.4792  0.2185 -0.3178
 6177SOL    HW129990   2.125   3.599   3.624  0.4084 -2.6965  2.5490
 6177SOL    HW229991   2.173   3.626   3.765  0.7538 -0.1221 -1.3470
 6178SOL     OW29992   2.782   1.695  17.005 -0.5223 -0.3288  0.2537
 6178SOL    HW129993   2.784   1.628  17.074 -0.6194 -0.7333 -0.1349
 6178SOL    HW229994   2.816   1.649  16.928  0.4625  1.9740 -0.6805
 6179SOL     OW29995   1.751   1.518   7.666 -0.1743 -0.4803 -0.0376
 6179SOL    HW129996   1.819   1.505   7.732 -0.8230 -0.8983  0.5525
 6179SOL    HW229997   1.692   1.445   7.681  0.1769 -0.2220  2.4940
 6180SOL     OW29998   4.176   1.600  14.235 -0.0444 -0.7866 -0.2247
 6180SOL    HW129999   4.267   1.626  14.242 -0.1329 -0.3975 -0.5323
 6180SOL    HW230000   4.138   1.678  14.194  2.0391  0.5399  0.3684
 6181SOL     OW30001   3.905   2.661   8.866  0.4893 -0.8054  0.0625
 6181SOL    HW130002   3.819   2.686   8.899  1.1996  1.8629 -0.1027
 6181SOL    HW230003   3.962   2.659   8.942 -0.0166 -0.6725  0.4419
 6182SOL     OW30004   4.161   2.093   1.665  0.1105 -0.2432 -0.0696
 6182SOL    HW130005   4.254   2.090   1.645  0.3653 -0.4789  1.1536
 6182SOL    HW230006   4.147   2.008   1.707 -1.7219 -1.0151 -2.1714
 6183SOL     OW30007   0.798   3.153  17.686 -0.0965 -0.3736  0.6164
 6183SOL    HW130008   0.883   3.109  17.691 -1.8963 -3.9139  0.2468
 6183SOL    HW230009   0.813   3.232   0.045 -0.2374 -0.0992  0.2330
 6184SOL     OW30010   1.067   1.980  10.312 -0.2117  0.2998  0.2083
 6184SOL    HW130011   1.008   1.982  10.237  0.1021  0.7913 -0.0265
 6184SOL    HW230012   1.099   2.070  10.297 -1.4088  0.8154  0.7427
 6185SOL     OW30013   1.902   3.341   8.719  0.7002  0.0356 -0.2362
 6185SOL    HW130014   1.808   3.343   8.703  0.6397 -0.1071  0.1038
 6185SOL    HW230015   1.903   3.387   8.802 -0.1425 -1.4311  0.5945
 6186SOL     OW30016   0.205   1.504   4.342 -0.1831 -0.1634  0.1324
 6186SOL    HW130017   0.165   1.564   4.405 -3.7467 -1.1318 -1.1794
 6186SOL    HW230018   0.130   1.495   4.284 -0.8807 -1.4022  1.2303
 6187SOL     OW30019   0.416   3.826   0.286  0.1941  0.4921  0.1071
 6187SOL    HW130020   0.395   3.917   0.308 -1.6328  0.1351 -0.2469
 6187SOL    HW230021   0.468   3.845   0.207 -1.3313  0.2449 -0.9405
 6188SOL     OW30022   1.840   0.766  16.227  0.9731  0.1729 -0.4125
 6188SOL    HW130023   1.782   0.759  16.152  0.5154  0.3676 -0.0787
 6188SOL    HW230024   1.785   0.729  16.296  1.0677  0.6769 -0.0654
 6189SOL     OW30025   0.517   3.044   9.741 -0.1722 -0.2746  0.4857
 6189SOL    HW130026   0.471   2.967   9.708 -0.4506  0.4472 -0.7970
 6189SOL    HW230027   0.437   3.096   9.745  1.7036  2.5550  1.5203
 6190SOL     OW30028   3.925   3.455  10.418 -0.1984  0.6619  0.0485
 6190SOL    HW130029   3.999   3.399  10.393  1.0099  2.4876 -0.4821
 6190SOL    HW230030   3.874   3.388  10.464 -1.3754  2.5348  1.4797
 6191SOL     OW30031   1.222   0.081   4.483  0.1536 -0.5574  0.2727
 6191SOL    HW130032   1.185   0.101   4.569 -2.8592 -1.7011 -0.7513
 6191SOL    HW230033   1.172   0.004   4.457  0.7372 -0.6182 -0.6786
 6192SOL     OW30034   0.683   3.425   2.694 -0.7665 -0.1063  0.0301
 6192SOL    HW130035   0.701   3.509   2.734  0.5611  0.2131 -1.2172
 6192SOL    HW230036   0.592   3.433   2.668 -0.0315 -0.1701 -2.6008
 6193SOL     OW30037   1.884   1.645   4.508 -0.2941 -0.0194 -0.0827
 6193SOL    HW130038   1.859   1.714   4.570  1.3997  0.3910  0.1377
 6193SOL    HW230039   1.834   1.680   4.434  2.5179  0.6398 -1.6562
 6194SOL     OW30040   1.034   1.494  16.402 -0.8141  0.4472 -0.2882
 6194SOL    HW130041   1.065   1.406  16.423 -0.6330  0.8530  1.1328
 6194SOL    HW230042   1.046   1.541  16.485 -1.5339  0.1178 -0.0041
 6195SOL     OW30043   2.809   0.851   0.018 -0.2158  0.2267  0.1494
 6195SOL    HW130044   2.878   0.808  17.660 -1.7085 -0.6395 -1.1496
 6195SOL    HW230045   2.842   0.856   0.108 -2.3471 -1.4677  1.0367
 6196SOL     OW30046   2.315   0.250  11.112  0.8497 -0.6455  0.2190
 6196SOL    HW130047   2.259   0.195  11.167 -1.6290 -0.2084 -1.9134
 6196SOL    HW230048   2.343   0.187  11.045 -1.2729 -1.0275 -0.2901
 6197SOL     OW30049   3.459   2.038   8.345 -0.0394 -0.0909 -0.6686
 6197SOL    HW130050   3.474   2.041   8.439  1.1913  0.6698 -0.8933
 6197SOL    HW230051   3.476   2.129   8.323 -1.4527 -0.1345 -1.9697
 6198SOL     OW30052   2.379   2.543   1.097 -0.5750 -0.6859  0.0417
 6198SOL    HW130053   2.297   2.584   1.068  0.0413  0.8348  0.4805
 6198SOL    HW230054   2.438   2.617   1.086  0.3116 -1.2947  0.7216
 6199SOL     OW30055   3.823   1.172   3.281 -0.5550  0.2348  0.4796
 6199SOL    HW130056   3.765   1.173   3.206  0.3354 -0.8293 -0.2116
 6199SOL    HW230057   3.892   1.219   3.235 -0.8331 -0.1519 -0.3298
 6200SOL     OW30058   1.152   4.244  16.410  0.3672  0.2834  0.3344
 6200SOL    HW130059   1.105   4.306  16.354 -0.5413 -0.3642  0.3826
 6200SOL    HW230060   1.207   4.308  16.455  0.5140 -0.4408  1.1847
 6201SOL     OW30061   4.175   1.793   6.668 -0.3496  0.1149  0.6570
 6201SOL    HW130062   4.243   1.860   6.662 -0.1349 -0.0627  1.1334
 6201SOL    HW230063   4.161   1.761   6.579  0.4554  0.0466  0.5502
 6202SOL     OW30064   2.063   4.245   3.767  0.3091 -0.2642 -0.0039
 6202SOL    HW130065   2.144   4.198   3.747  0.0732 -0.7238  0.1278
 6202SOL    HW230066   1.996   4.216   3.704 -0.6161 -2.1453  1.8560
 6203SOL     OW30067   4.630   2.170   4.761 -0.3148  0.2870  0.3704
 6203SOL    HW130068   4.544   2.136   4.734  0.4177 -1.6176  0.4327
 6203SOL    HW230069   4.643   2.230   4.688 -0.4901  1.8919  1.6476
 6204SOL     OW30070   1.859   1.633  13.232  0.4188  0.4564 -0.4976
 6204SOL    HW130071   1.908   1.553  13.249 -1.0717 -0.1601  0.9237
 6204SOL    HW230072   1.769   1.613  13.257 -0.1458  0.9581 -2.1423
 6205SOL     OW30073   0.474   1.337   8.794 -0.2402 -0.1256  0.2978
 6205SOL    HW130074   0.532   1.372   8.861 -0.3339  2.7609 -1.1600
 6205SOL    HW230075   0.422   1.411   8.763  0.4573  0.1885 -0.1173
 6206SOL     OW30076   4.164   4.142   8.313  0.5311 -0.2190 -0.0741
 6206SOL    HW130077   4.197   4.084   8.244  0.6889 -2.7035  2.0873
 6206SOL    HW230078   4.082   4.169   8.271  1.0314  0.2164 -0.7855
 6207SOL     OW30079   4.471   0.020   2.606  0.1884  0.2986 -0.5488
 6207SOL    HW130080   4.485   0.023   2.700  1.5632 -0.1287 -0.7384
 6207SOL    HW230081   4.559   0.045   2.577  1.9836 -2.7471  2.3125
 6208SOL     OW30082   2.631   4.263  13.304  0.6577  0.8430  0.5572
 6208SOL    HW130083   2.577   4.184  13.299 -0.5944  1.8606 -2.4112
 6208SOL    HW230084   2.710   4.220  13.336 -0.7343 -0.5574  2.1099
 6209SOL     OW30085   2.318   2.823   2.726  0.3221 -0.0882 -0.1356
 6209SOL    HW130086   2.229   2.845   2.698  0.2915 -0.0399 -0.0004
 6209SOL    HW230087   2.361   2.783   2.651  2.9552  0.3003  1.1619
 6210SOL     OW30088   3.649   3.813   4.596  0.6513 -0.5033 -0.3316
 6210SOL    HW130089   3.730   3.777   4.559  0.6863 -2.5284  1.6922
 6210SOL    HW230090   3.674   3.818   4.688 -3.0888  2.6104  0.4681
 6211SOL     OW30091   3.121   0.561   5.172 -0.4522  0.5222  0.3628
 6211SOL    HW130092   3.086   0.633   5.120 -0.9397 -0.9373 -1.3327
 6211SOL    HW230093   3.215   0.567   5.154 -0.4944 -1.5202 -0.5505
 6212SOL     OW30094   1.211   4.078  13.866  0.3289  0.6658 -0.0225
 6212SOL    HW130095   1.222   4.170  13.890  0.5127 -0.0715  2.7162
 6212SOL    HW230096   1.270   4.079  13.790 -0.1811  1.9840 -0.3964
 6213SOL     OW30097   4.539   4.659   9.041  0.0091 -0.0966 -0.2452
 6213SOL    HW130098   4.590   0.015   9.022 -2.2969  1.8989  1.8972
 6213SOL    HW230099   4.449   4.690   9.046  0.3642  0.8007  0.5991
 6214SOL     OW30100   1.825   1.315  17.283  0.0561 -0.4229 -0.4951
 6214SOL    HW130101   1.770   1.237  17.294 -1.9098  0.6825 -2.5340
 6214SOL    HW230102   1.909   1.277  17.309  0.2325 -0.2949 -0.8836
 6215SOL     OW30103   2.396   3.046   9.018 -0.3024 -0.0640 -0.5916
 6215SOL    HW130104   2.324   3.024   8.960 -0.4753  0.4612 -0.5759
 6215SOL    HW230105   2.362   3.131   9.044  0.3525 -0.2903  1.0101
 6216SOL     OW30106   0.519   4.589   3.695  0.5671  0.1403 -0.0368
 6216SOL    HW130107   0.509   4.551   3.608 -1.3126 -0.1639  0.3153
 6216SOL    HW230108   0.473   4.537   3.761 -0.8607  1.6868  0.2017
 6217SOL     OW30109   3.921   3.630   5.915 -0.2382 -0.4861 -0.2740
 6217SOL    HW130110   4.002   3.677   5.895 -1.7304  2.5462  0.7590
 6217SOL    HW230111   3.851   3.677   5.870  2.3814  2.9255 -0.7795
 6218SOL     OW30112   2.006   4.010   2.208 -0.2183 -0.6342 -0.6766
 6218SOL    HW130113   2.014   3.972   2.120 -0.5551 -1.6848 -0.2588
 6218SOL    HW230114   2.098   4.026   2.228 -0.1015 -0.4304 -1.3768
 6219SOL     OW30115   1.439   4.510   6.857 -0.0259 -0.7332 -0.3685
 6219SOL    HW130116   1.469   4.424   6.827 -2.5622 -1.5101 -0.6703
 6219SOL    HW230117   1.495   4.562   6.798  0.3666  0.8694  1.4322
 6220SOL     OW30118   4.216   4.528  10.386  0.4781  0.2348  0.2368
 6220SOL    HW130119   4.230   4.500  10.476 -2.7755  0.8278  0.9147
 6220SOL    HW230120   4.121   4.520  10.381  0.5074 -0.4905  0.7940
 6221SOL     OW30121   3.924   3.113   3.207 -0.4681  0.1300  0.1841
 6221SOL    HW130122   3.876   3.058   3.145  2.7316 -2.3410 -0.0443
 6221SOL    HW230123   3.995   3.153   3.158  0.4574 -0.0609  1.3659
 6222SOL     OW30124   1.066   0.508   6.656  0.0640 -0.2592 -0.0087
 6222SOL    HW130125   1.079   0.548   6.742 -0.8062  0.5191 -0.2414
 6222SOL    HW230126   1.069   0.579   6.593  0.3200  0.1130  0.4267
 6223SOL     OW30127   2.963   0.583  13.792 -0.1568 -0.1012 -0.3058
 6223SOL    HW130128   2.899   0.640  13.835 -1.0910 -2.2363  1.1788
 6223SOL    HW230129   2.922   0.586  13.705  1.2191 -1.4500 -1.0010
 6224SOL     OW30130   0.237   2.394   5.160 -0.2597 -0.7275  0.4730
 6224SOL    HW130131   0.172   2.443   5.210 -0.0691 -0.5964  0.5892
 6224SOL    HW230132   0.254   2.452   5.085 -1.3250 -0.4510  0.4501
 6225SOL     OW30133   2.115   3.120   1.283 -0.3168 -0.3132  0.4976
 6225SOL    HW130134   2.197   3.132   1.331 -0.8991  1.0493  1.1787
 6225SOL    HW230135   2.065   3.197   1.312  0.1593  0.4808 -0.7780
 6226SOL     OW30136   3.470   3.283   0.202  0.3657 -0.0678 -0.1988
 6226SOL    HW130137   3.473   3.346   0.131 -2.1030  2.0664  1.6051
 6226SOL    HW230138   3.385   3.296   0.244 -0.7862  0.9836 -2.8603
 6227SOL     OW30139   0.344   1.130  12.298  0.3551 -0.3178  0.4029
 6227SOL    HW130140   0.439   1.126  12.308  0.2129  2.3512  2.9754
 6227SOL    HW230141   0.306   1.159  12.381 -1.4665 -0.7140 -0.2748
 6228SOL     OW30142   3.094   4.639   7.853  0.2154  0.1917  0.5484
 6228SOL    HW130143   3.163   4.576   7.870  1.3377  1.5582  1.0175
 6228SOL    HW230144   3.040   4.626   7.932 -0.0535 -1.1611  0.1395
 6229SOL     OW30145   1.874   0.714   6.988 -0.2688 -0.0443  0.9394
 6229SOL    HW130146   1.804   0.654   7.012 -0.5104  0.4340  1.4444
 6229SOL    HW230147   1.926   0.719   7.068  0.7325 -0.3391  0.3039
 6230SOL     OW30148   2.542   0.927   8.189 -0.1158  0.4092 -0.1131
 6230SOL    HW130149   2.530   1.011   8.145  0.6231  1.4945  1.7501
 6230SOL    HW230150   2.449   0.912   8.207 -0.1547 -3.1170 -3.3554
 6231SOL     OW30151   0.534   0.016  14.927 -0.0531 -0.2219  0.3240
 6231SOL    HW130152   0.573   0.103  14.935 -0.8234 -0.0523  2.1614
 6231SOL    HW230153   0.455   0.025  14.980 -1.0276  0.7142 -1.2797
 6232SOL     OW30154   3.431   1.241   0.007  0.5448 -0.0722  0.2524
 6232SOL    HW130155   3.502   1.199  17.650  1.3032  0.1163  1.1739
 6232SOL    HW230156   3.362   1.174   0.008  2.4523 -2.0583  0.4414
 6233SOL     OW30157   1.781   1.078   2.850  0.1296 -0.6847  0.6082
 6233SOL    HW130158   1.763   1.004   2.907  0.8626 -2.0475 -0.9085
 6233SOL    HW230159   1.865   1.048   2.814 -0.1607 -1.2601  0.4092
 6234SOL     OW30160   0.691   2.052  16.410 -0.1459  0.0552  0.6301
 6234SOL    HW130161   0.774   2.008  16.431 -0.1728  0.4703  1.6076
 6234SOL    HW230162   0.716   2.144  16.408  0.3900 -0.0787  1.1254
 6235SOL     OW30163   2.325   0.566   9.767 -0.5762  0.4303  0.0097
 6235SOL    HW130164   2.313   0.657   9.791  3.6202  1.1005 -0.4421
 6235SOL    HW230165   2.267   0.533   9.836 -2.1712  0.6120 -1.2698
 6236SOL     OW30166   3.862   1.656   0.038 -0.4732 -0.2657  0.1141
 6236SOL    HW130167   3.929   1.649  17.663 -0.3968 -1.1481  0.2893
 6236SOL    HW230168   3.829   1.568   0.055  0.7036 -0.3807  1.8033
 6237SOL     OW30169   2.658   0.345   7.330  0.9605 -0.2165  0.6579
 6237SOL    HW130170   2.741   0.392   7.335  0.7318  0.4203 -1.7571
 6237SOL    HW230171   2.684   0.269   7.278  0.4287  0.9471 -1.2944
 6238SOL     OW30172   2.288   1.067   0.652 -0.4630 -0.0211  0.2292
 6238SOL    HW130173   2.259   0.976   0.644 -1.5963  0.2407  1.2907
 6238SOL    HW230174   2.376   1.051   0.689 -0.9631  0.9973  1.8538
 6239SOL     OW30175   3.143   2.226   7.298  0.7604  0.2913  0.0548
 6239SOL    HW130176   3.078   2.277   7.250  0.3755 -0.6880 -0.4638
 6239SOL    HW230177   3.102   2.140   7.290 -0.9470  0.9658  1.2981
 6240SOL     OW30178   0.191   1.507  15.342 -0.3500 -0.0642 -1.0235
 6240SOL    HW130179   0.260   1.574  15.333  0.9926 -1.5193 -1.5233
 6240SOL    HW230180   0.141   1.547  15.271 -0.3953  0.5737 -0.6311
 6241SOL     OW30181   1.927   2.201   8.579  0.1747 -0.5051  0.2223
 6241SOL    HW130182   1.943   2.127   8.520  0.7810 -0.8210  0.7718
 6241SOL    HW230183   1.919   2.141   8.654  1.2578  0.4241  1.0834
 6242SOL     OW30184   1.883   1.860   9.130  0.1385 -0.2023 -0.1487
 6242SOL    HW130185   1.975   1.861   9.156 -0.2512  1.7946  1.2366
 6242SOL    HW230186   1.893   1.789   9.068 -0.1889  0.3971 -0.8940
 6243SOL     OW30187   3.556   1.804  12.748  0.5388 -0.2600  0.4761
 6243SOL    HW130188   3.461   1.810  12.751  0.6743  1.1701  2.1146
 6243SOL    HW230189   3.571   1.732  12.686 -1.5344  1.2260 -1.7583
 6244SOL     OW30190   2.341   2.777   5.634 -0.0726 -0.1601  0.3207
 6244SOL    HW130191   2.373   2.727   5.710 -0.2456  1.0825  1.2077
 6244SOL    HW230192   2.260   2.729   5.618  0.2609  0.1647 -2.2532
 6245SOL     OW30193   0.658   2.912   6.590 -0.1987  0.2149 -0.4448
 6245SOL    HW130194   0.636   3.003   6.573  1.0195  0.2777 -1.6145
 6245SOL    HW230195   0.655   2.898   6.685 -1.0934  0.7175 -0.4060
 6246SOL     OW30196   4.442   1.687   3.540 -0.3565 -0.0104 -0.0187
 6246SOL    HW130197   4.500   1.738   3.483 -0.1681  1.9245  1.9118
 6246SOL    HW230198   4.370   1.664   3.481  1.8246 -2.0179 -1.9506
 6247SOL     OW30199   2.553   4.300  15.324  0.4938  0.1972 -0.1066
 6247SOL    HW130200   2.596   4.222  15.359  0.2377  0.8263  1.6222
 6247SOL    HW230201   2.566   4.358  15.399 -0.8340  0.7346 -0.2816
 6248SOL     OW30202   3.020   1.389   7.033 -0.0698  0.3547 -0.3193
 6248SOL    HW130203   3.022   1.307   7.084 -1.6578 -0.4583 -1.5612
 6248SOL    HW230204   3.078   1.447   7.082 -1.6795  0.8484  1.0381
 6249SOL     OW30205   1.627   4.492   5.805 -0.3415 -0.0566 -0.2096
 6249SOL    HW130206   1.562   4.560   5.822 -1.4557 -1.3427  0.6728
 6249SOL    HW230207   1.700   4.535   5.848 -0.2132 -0.6977  0.2132
 6250SOL     OW30208   2.265   0.407   9.131 -0.4343  0.0165 -0.6118
 6250SOL    HW130209   2.343   0.379   9.084  0.1879  0.8888 -0.0952
 6250SOL    HW230210   2.225   0.473   9.074 -2.1895 -1.4652 -1.1099
 6251SOL     OW30211   0.540   1.881  11.966 -0.2361  0.6223 -0.5318
 6251SOL    HW130212   0.533   1.976  11.980  1.1888  0.4893  1.0963
 6251SOL    HW230213   0.498   1.840  12.042  0.5633 -0.2453 -0.5661
 6252SOL     OW30214   3.092   1.189   5.029 -0.3295 -0.1702 -0.5640
 6252SOL    HW130215   3.137   1.244   4.964  0.5133 -0.7315 -0.4597
 6252SOL    HW230216   3.156   1.198   5.099 -1.0968  0.7917  0.0037
 6253SOL     OW30217   2.931   2.370  11.693  0.0964 -0.5745  0.1502
 6253SOL    HW130218   2.960   2.349  11.605 -1.3468  1.9040 -0.9354
 6253SOL    HW230219   2.878   2.445  11.664  0.8074 -0.4148 -0.7059
 6254SOL     OW30220   1.011   0.574   3.578 -0.4438 -0.3392  0.5234
 6254SOL    HW130221   1.033   0.481   3.572 -1.4168 -0.6582  2.1981
 6254SOL    HW230222   1.024   0.589   3.671  1.9124 -0.1102  0.1617
 6255SOL     OW30223   4.564   2.207   5.012  0.7949  0.0247 -0.1064
 6255SOL    HW130224   4.588   2.214   4.920 -1.9115  0.5286 -0.7997
 6255SOL    HW230225   4.550   2.112   5.018 -1.1114  0.0909 -3.5115
 6256SOL     OW30226   1.377   2.202   5.789 -0.4350 -0.0195  0.1383
 6256SOL    HW130227   1.416   2.189   5.875 -0.7854 -1.5798  0.0567
 6256SOL    HW230228   1.350   2.294   5.791  0.9818  0.3990  0.1244
 6257SOL     OW30229   3.391   1.113   1.904  0.0242  0.1307  0.7215
 6257SOL    HW130230   3.449   1.189   1.906 -0.5305  0.5456  1.0425
 6257SOL    HW230231   3.337   1.131   1.982 -1.3038 -0.4187 -0.0759
 6258SOL     OW30232   3.974   3.344   8.446 -0.6473 -0.4495 -0.2715
 6258SOL    HW130233   4.049   3.322   8.501 -0.7438  0.4496  0.2259
 6258SOL    HW230234   3.953   3.264   8.397 -1.5066 -0.6306  0.3997
 6259SOL     OW30235   0.827   3.696   4.199  0.0718  0.0343  0.3923
 6259SOL    HW130236   0.839   3.781   4.241 -1.9184  0.0064  1.0368
 6259SOL    HW230237   0.894   3.692   4.131 -0.2681 -2.7879  0.2081
 6260SOL     OW30238   2.298   0.013   8.519  0.9297  0.6810 -0.2113
 6260SOL    HW130239   2.306   0.083   8.453  0.1378  1.0730  0.1091
 6260SOL    HW230240   2.349   4.660   8.491  1.5392  0.5918  1.1385
 6261SOL     OW30241   0.916   2.894   6.484 -0.3285  0.0898  0.1476
 6261SOL    HW130242   0.821   2.897   6.499 -0.8040  0.7211 -3.1273
 6261SOL    HW230243   0.936   2.828   6.550  1.1870  2.3293  1.9288
 6262SOL     OW30244   3.122   0.262   1.444  0.1115 -0.3285  0.3180
 6262SOL    HW130245   3.161   0.258   1.357  3.4208  1.4471  1.7670
 6262SOL    HW230246   3.196   0.303   1.488  0.2586  0.5082 -0.6984
 6263SOL     OW30247   2.369   3.848   2.553  0.0581  0.0269 -0.6910
 6263SOL    HW130248   2.318   3.928   2.537 -2.9159 -1.6915  0.1614
 6263SOL    HW230249   2.414   3.842   2.469 -0.0382 -0.7249 -0.6907
 6264SOL     OW30250   0.856   3.879   1.025 -0.2362  0.0880  0.1445
 6264SOL    HW130251   0.812   3.813   1.079  0.2885 -1.1245 -0.9044
 6264SOL    HW230252   0.884   3.930   1.100  0.8376  1.3556 -1.1205
 6265SOL     OW30253   4.220   0.305  11.370  0.4568 -0.0992 -0.1203
 6265SOL    HW130254   4.142   0.323  11.422 -0.8657  1.0045 -2.4456
 6265SOL    HW230255   4.268   0.387  11.359  0.7647 -0.2361  0.1825
 6266SOL     OW30256   1.617   0.207   7.684 -0.0968 -0.0747  0.0127
 6266SOL    HW130257   1.551   0.156   7.730  0.3631 -0.6293  0.0543
 6266SOL    HW230258   1.562   0.249   7.617  1.0540  0.2854 -0.7026
 6267SOL     OW30259   1.722   1.907  17.253  0.3148 -0.0849  0.8026
 6267SOL    HW130260   1.737   1.968  17.325  0.3465  2.3706 -1.2752
 6267SOL    HW230261   1.811   1.915  17.219 -0.1796 -0.9463 -0.6981
 6268SOL     OW30262   0.561   3.216   8.707  0.1031 -0.0725  0.6266
 6268SOL    HW130263   0.597   3.189   8.791 -0.6228 -2.0043  0.3193
 6268SOL    HW230264   0.555   3.128   8.669  1.5583  0.6575 -1.3460
 6269SOL     OW30265   1.649   2.860   6.918 -0.0154  0.2292 -0.1924
 6269SOL    HW130266   1.606   2.946   6.923 -0.2392  0.0422  1.0895
 6269SOL    HW230267   1.684   2.844   7.006  0.2267  0.0091 -0.3301
 6270SOL     OW30268   1.685   2.819   7.376 -0.6032  0.2053 -0.6648
 6270SOL    HW130269   1.705   2.726   7.383  0.0170  0.3670 -0.2820
 6270SOL    HW230270   1.739   2.856   7.446 -0.8818 -1.5017  0.4387
 6271SOL     OW30271   2.356   1.048   2.282  0.5559  0.6084 -0.3558
 6271SOL    HW130272   2.317   1.056   2.368 -0.6776  1.8610 -1.0263
 6271SOL    HW230273   2.306   1.118   2.239  0.4966  0.8192  0.0582
 6272SOL     OW30274   2.263   4.531   7.328  0.4996 -0.5927 -0.5280
 6272SOL    HW130275   2.208   4.489   7.262 -0.1453  0.9472 -0.9904
 6272SOL    HW230276   2.238   4.623   7.319  0.4704 -0.2823  2.6404
 6273SOL     OW30277   3.108   3.124   0.707  0.2350 -0.4013 -0.2331
 6273SOL    HW130278   3.190   3.171   0.722  0.5723 -1.2426  0.5312
 6273SOL    HW230279   3.060   3.205   0.688  0.4649  0.2752  2.1254
 6274SOL     OW30280   1.946   4.191   7.746  0.2265 -0.4720  0.1502
 6274SOL    HW130281   1.893   4.213   7.822 -0.3846 -0.3098 -0.3252
 6274SOL    HW230282   1.880   4.180   7.678  0.0658 -1.9792  0.5438
 6275SOL     OW30283   0.909   0.326  10.084 -0.3415 -0.2394 -0.2324
 6275SOL    HW130284   0.926   0.344   9.991 -1.6343  0.7287 -0.2804
 6275SOL    HW230285   0.983   0.268  10.103 -1.3265 -0.8605  1.6547
 6276SOL     OW30286   3.741   0.487  10.211 -0.2272 -0.3579 -0.2556
 6276SOL    HW130287   3.708   0.397  10.211 -0.9156 -0.1053 -0.9013
 6276SOL    HW230288   3.666   0.535  10.177 -1.2361 -0.7443  1.4322
 6277SOL     OW30289   3.302   4.086   4.678 -0.2154 -0.5241 -0.5942
 6277SOL    HW130290   3.235   4.126   4.622 -1.9562 -2.2752  0.2394
 6277SOL    HW230291   3.354   4.039   4.613 -0.9167 -0.9557 -0.8446
 6278SOL     OW30292   3.257   3.488   3.008 -0.0307  0.3162  0.0124
 6278SOL    HW130293   3.184   3.533   3.050 -0.5001 -0.3327 -0.1125
 6278SOL    HW230294   3.215   3.402   3.009  0.3911  0.1169  0.5057
 6279SOL     OW30295   1.840   3.820   5.780  0.0007 -0.1894 -0.0708
 6279SOL    HW130296   1.846   3.903   5.825  0.9151  0.0294 -0.5815
 6279SOL    HW230297   1.852   3.847   5.688  0.0968 -1.1074 -0.3333
 6280SOL     OW30298   4.093   0.921  11.069 -0.0142  0.3195 -0.4386
 6280SOL    HW130299   4.124   0.998  11.117 -0.6665 -0.3385  1.0357
 6280SOL    HW230300   4.000   0.920  11.093 -0.0092 -0.4719 -0.4540
 6281SOL     OW30301   2.070   2.527   5.229 -0.3861  0.9195 -0.2100
 6281SOL    HW130302   2.070   2.492   5.318 -2.9442  1.0745 -0.1638
 6281SOL    HW230303   2.161   2.557   5.224 -0.0040 -0.3665 -1.1828
 6282SOL     OW30304   1.837   1.566   2.437 -0.2699  0.8479 -0.1096
 6282SOL    HW130305   1.797   1.610   2.361  1.7654  0.0808 -1.6312
 6282SOL    HW230306   1.850   1.639   2.496 -2.1855  0.2233  1.1067
 6283SOL     OW30307   1.024   1.359   6.802  0.2686 -0.6756  0.7636
 6283SOL    HW130308   1.022   1.360   6.706  2.5821 -1.7677  0.7193
 6283SOL    HW230309   0.947   1.414   6.820  0.5150  0.7693 -2.5959
 6284SOL     OW30310   2.867   3.722   3.579 -0.5607  0.1223  0.5134
 6284SOL    HW130311   2.805   3.742   3.649 -2.2955  0.2845 -1.0605
 6284SOL    HW230312   2.809   3.753   3.509  3.4309  1.7652 -2.0303
 6285SOL     OW30313   3.844   4.298   1.813 -0.4678 -0.0835  0.0039
 6285SOL    HW130314   3.810   4.234   1.876  2.0456  0.0254  1.4705
 6285SOL    HW230315   3.936   4.309   1.837 -0.6746 -0.5217  1.0059
 6286SOL     OW30316   3.821   4.655   3.692  0.4041  0.4583 -0.5323
 6286SOL    HW130317   3.752   4.651   3.625 -0.8066 -2.5429  0.9041
 6286SOL    HW230318   3.811   0.025   3.716  0.4530 -0.6748  3.7830
 6287SOL     OW30319   1.681   1.875   9.939 -0.0902 -0.0444  0.5039
 6287SOL    HW130320   1.715   1.928   9.867  1.7286 -0.6502  0.9200
 6287SOL    HW230321   1.591   1.877   9.906 -0.0465  1.9143  0.5005
 6288SOL     OW30322   1.770   0.256  11.983 -0.0946 -0.0050  0.6237
 6288SOL    HW130323   1.774   0.320  12.054 -1.7469  1.1481 -0.3511
 6288SOL    HW230324   1.689   0.270  11.935  0.5522  2.9901  0.3862
 6289SOL     OW30325   1.994   1.970   3.215  0.4927  0.3390 -0.3608
 6289SOL    HW130326   1.983   2.057   3.252 -1.8125  0.8441 -2.2158
 6289SOL    HW230327   2.074   1.943   3.260 -1.1346 -1.3288  1.5414
 6290SOL     OW30328   0.834   3.270   3.792  0.1535  0.8558  0.2663
 6290SOL    HW130329   0.891   3.232   3.724  1.7412  1.1345  1.4391
 6290SOL    HW230330   0.866   3.220   3.867  0.6440  0.6576 -0.0777
 6291SOL     OW30331   4.228   0.969   4.162 -0.0032 -0.1277 -0.4861
 6291SOL    HW130332   4.143   1.001   4.132 -0.0332 -0.8459 -1.1807
 6291SOL    HW230333   4.217   0.877   4.185 -0.8286  0.1465  0.1917
 6292SOL     OW30334   1.182   1.630   7.185 -0.6612  0.5501 -0.7954
 6292SOL    HW130335   1.141   1.690   7.247 -0.7142 -0.7934  0.4462
 6292SOL    HW230336   1.167   1.544   7.225 -2.8328 -0.5438 -3.9077
 6293SOL     OW30337   2.008   2.003   8.411 -0.6262  0.0991 -0.3625
 6293SOL    HW130338   2.006   2.018   8.316 -0.1764 -0.0341 -0.3957
 6293SOL    HW230339   2.043   1.916   8.427 -0.9715  0.0296  0.0003
 6294SOL     OW30340   1.915   3.073   1.772  0.2338 -0.1523  0.7983
 6294SOL    HW130341   1.907   2.991   1.722  1.6694  0.9672 -1.2543
 6294SOL    HW230342   1.847   3.131   1.738  0.9270 -0.2205 -0.6992
 6295SOL     OW30343   4.262   3.610  12.958  0.1304  0.4015 -0.5941
 6295SOL    HW130344   4.172   3.643  12.967 -0.2461 -1.2795  1.6827
 6295SOL    HW230345   4.295   3.657  12.881  2.5831  1.7774  1.2749
 6296SOL     OW30346   1.850   0.649   6.245  0.2243 -0.4037 -0.3566
 6296SOL    HW130347   1.787   0.577   6.239 -1.5771  1.2576 -1.2630
 6296SOL    HW230348   1.932   0.603   6.233 -0.5195 -1.4382 -1.3857
 6297SOL     OW30349   3.545   1.713   4.060 -0.2044 -0.3153  0.0355
 6297SOL    HW130350   3.461   1.714   4.014  0.1121 -1.0058 -0.5526
 6297SOL    HW230351   3.512   1.690   4.147 -2.5387  2.1474 -0.2035
 6298SOL     OW30352   3.591   1.452  17.384 -0.0718  0.2223 -0.1211
 6298SOL    HW130353   3.598   1.537  17.427  1.2098 -0.2660  0.6196
 6298SOL    HW230354   3.658   1.395  17.419 -2.4192 -0.4339  3.2424
 6299SOL     OW30355   4.662   4.373   7.203 -0.5276 -0.2187 -0.1892
 6299SOL    HW130356   4.578   4.417   7.191 -1.2993 -1.6725 -0.1190
 6299SOL    HW230357   4.672   4.327   7.119  0.5805 -2.2222  1.0546
 6300SOL     OW30358   3.574   1.215   3.885 -0.1570  0.0830 -0.7792
 6300SOL    HW130359   3.519   1.293   3.886  0.9631  0.8981 -1.7086
 6300SOL    HW230360   3.498   1.157   3.882  0.4762 -0.8441  1.9323
 6301SOL     OW30361   3.697   2.575   8.500 -0.0681 -0.4149 -0.4019
 6301SOL    HW130362   3.683   2.486   8.467  0.0324  0.2752 -2.3506
 6301SOL    HW230363   3.680   2.560   8.593  0.6702  0.5077 -0.1158
 6302SOL     OW30364   2.954   1.971   5.520  0.6716 -0.2226 -0.3701
 6302SOL    HW130365   2.950   1.945   5.612  1.5715  1.4707  0.1434
 6302SOL    HW230366   2.868   2.011   5.510  0.7400  0.2034  0.7588
 6303SOL     OW30367   4.627   4.122   3.072 -0.4721 -0.6059  0.4655
 6303SOL    HW130368   4.586   4.205   3.098 -1.9705 -1.2662  0.1795
 6303SOL    HW230369   4.565   4.062   3.113 -2.7137  1.7177  0.4901
 6304SOL     OW30370   2.212   2.880   1.540 -0.2683  0.1175  0.4446
 6304SOL    HW130371   2.308   2.885   1.536 -0.4584  1.3851 -3.0501
 6304SOL    HW230372   2.193   2.865   1.632 -0.3901  1.2624  0.6050
 6305SOL     OW30373   4.533   1.901   7.332  0.4348  0.1718  0.6182
 6305SOL    HW130374   4.623   1.889   7.362  0.6549 -0.0114 -0.1044
 6305SOL    HW230375   4.521   1.996   7.336 -0.5692  0.0633  0.2443
 6306SOL     OW30376   2.347   3.585   4.566 -0.3043  0.2187  0.2184
 6306SOL    HW130377   2.327   3.497   4.597  1.0980 -0.4060 -0.6602
 6306SOL    HW230378   2.269   3.631   4.598 -4.3893 -5.2280 -1.9146
 6307SOL     OW30379   4.264   3.427   4.197 -0.1303 -0.0064  0.5036
 6307SOL    HW130380   4.329   3.424   4.267  0.3686 -1.4407 -0.0316
 6307SOL    HW230381   4.288   3.510   4.155 -0.1547 -0.5447 -0.5792
 6308SOL     OW30382   2.545   4.712   7.303  0.0362  0.3782 -0.1975
 6308SOL    HW130383   2.633   0.026   7.292 -0.0871  1.2890  1.7983
 6308SOL    HW230384   2.526   4.667   7.221  1.5765 -0.9578  0.1853
 6309SOL     OW30385   4.490   3.075   5.345 -0.1656 -0.0541  0.2664
 6309SOL    HW130386   4.551   3.003   5.329  0.6411  0.9321 -1.1041
 6309SOL    HW230387   4.434   3.065   5.268 -0.8432  0.1466  0.7249
 6310SOL     OW30388   2.222   4.397  11.753  0.0064  0.8162  0.0768
 6310SOL    HW130389   2.211   4.486  11.786 -1.0656  0.1888  1.3841
 6310SOL    HW230390   2.287   4.407  11.683  0.7972 -1.7874  0.4257
 6311SOL     OW30391   4.412   0.296   9.313 -0.6146 -0.7231 -0.5023
 6311SOL    HW130392   4.413   0.258   9.226  0.2191 -1.7629 -0.0441
 6311SOL    HW230393   4.388   0.387   9.295 -1.6638 -0.5331  1.7932
 6312SOL     OW30394   1.004   0.908  10.184  0.3075 -0.6372 -0.4945
 6312SOL    HW130395   1.063   0.842  10.148  2.8804 -0.0608  2.6967
 6312SOL    HW230396   0.960   0.848  10.244 -1.7061  0.5943 -0.7202
 6313SOL     OW30397   2.052   2.013   1.154  0.1200  0.4952  0.1849
 6313SOL    HW130398   1.986   2.000   1.223 -0.3189 -1.8658 -0.7140
 6313SOL    HW230399   2.006   2.050   1.079 -1.3567  1.1529  1.4019
 6314SOL     OW30400   1.196   0.436  15.763 -0.2044 -0.2700 -0.6530
 6314SOL    HW130401   1.157   0.356  15.798  1.2436 -0.4081  0.6760
 6314SOL    HW230402   1.126   0.470  15.708 -0.3247 -0.9374 -0.9008
 6315SOL     OW30403   0.395   0.339   4.915 -0.2644 -0.0016 -0.1632
 6315SOL    HW130404   0.407   0.398   4.841 -3.1470  0.8677  0.0804
 6315SOL    HW230405   0.302   0.322   4.905 -0.2973 -0.3404  0.7796
 6316SOL     OW30406   1.436   2.665   8.803 -0.2637  0.6062 -0.2163
 6316SOL    HW130407   1.429   2.598   8.872  0.3637  1.0842  0.3043
 6316SOL    HW230408   1.353   2.710   8.819 -0.5662  0.8401 -2.4585
 6317SOL     OW30409   0.971   3.157   9.351  0.0706  0.0020  0.2487
 6317SOL    HW130410   0.941   3.078   9.397  2.9067 -1.0303  0.3317
 6317SOL    HW230411   1.015   3.204   9.422 -1.0920 -0.1589  1.0777
 6318SOL     OW30412   0.536   0.959  16.267  0.3804  0.3121  0.7962
 6318SOL    HW130413   0.484   0.878  16.264 -1.7557  1.6980  0.3847
 6318SOL    HW230414   0.468   1.025  16.277 -0.4552 -0.5165  0.6697
 6319SOL     OW30415   2.074   0.573  15.332  0.6473 -0.1376  0.5673
 6319SOL    HW130416   2.131   0.497  15.330  0.5265 -0.3087  3.1757
 6319SOL    HW230417   2.121   0.639  15.281 -1.8083  0.7493 -0.5621
 6320SOL     OW30418   0.110   2.059   8.085 -0.4393  0.5649  0.3030
 6320SOL    HW130419   0.084   2.015   8.004 -2.1379 -0.4977  1.4172
 6320SOL    HW230420   0.089   2.150   8.063  0.4870  1.1783  1.9442
 6321SOL     OW30421   0.588   3.312  12.642  0.2447 -0.0258  0.2408
 6321SOL    HW130422   0.615   3.243  12.703 -0.2216  1.2978  1.9563
 6321SOL    HW230423   0.506   3.276  12.609  1.3393 -2.2021 -0.1063
 6322SOL     OW30424   1.872   4.258   1.427 -0.3550  0.3674  0.4375
 6322SOL    HW130425   1.883   4.206   1.507 -1.2886 -3.7378 -2.1113
 6322SOL    HW230426   1.884   4.196   1.355 -0.1649  0.5139  0.3430
 6323SOL     OW30427   0.437   4.434   7.462 -0.2517  0.5434 -0.1395
 6323SOL    HW130428   0.411   4.346   7.438 -2.9992  0.9891  1.1873
 6323SOL    HW230429   0.495   4.450   7.387 -1.6575  0.5327 -1.2144
 6324SOL     OW30430   2.319   0.557   4.657 -0.0623 -0.3877 -0.3280
 6324SOL    HW130431   2.409   0.537   4.684  0.0444 -0.2814 -0.6063
 6324SOL    HW230432   2.321   0.494   4.584 -0.4731 -0.9767  0.1674
 6325SOL     OW30433   2.592   4.637  12.732  0.3694 -0.8016 -0.2895
 6325SOL    HW130434   2.614   4.673  12.646 -0.7430  0.6529  0.0419
 6325SOL    HW230435   2.585   4.721  12.776  2.8869 -1.1726  0.8042
 6326SOL     OW30436   3.762   0.542  15.324  0.1252  0.0555 -0.4816
 6326SOL    HW130437   3.779   0.465  15.377 -1.0048 -0.2215 -0.5115
 6326SOL    HW230438   3.682   0.523  15.274 -0.2097 -0.3876  0.2311
 6327SOL     OW30439   2.913   2.099   0.030  0.1422 -0.6030 -0.1081
 6327SOL    HW130440   2.976   2.066  17.658  0.3161 -0.5785  0.0502
 6327SOL    HW230441   2.837   2.055  17.684  0.0509  0.5226 -1.2222
 6328SOL     OW30442   1.577   4.567  16.658  0.2359 -0.3215  0.6445
 6328SOL    HW130443   1.514   4.629  16.694  1.0899  0.3589  0.9437
 6328SOL    HW230444   1.663   4.606  16.672  0.0389 -0.0588  1.1148
 6329SOL     OW30445   2.231   1.532  10.813  0.1932  0.8921  0.0396
 6329SOL    HW130446   2.226   1.596  10.884  0.1595 -1.6533  2.3298
 6329SOL    HW230447   2.327   1.530  10.810  0.1327  0.1993 -1.2802
 6330SOL     OW30448   4.588   2.294   8.533  0.1810 -0.2517  0.1797
 6330SOL    HW130449   4.531   2.263   8.462 -0.0182  1.8324 -0.5908
 6330SOL    HW230450   4.673   2.258   8.505 -0.6429 -1.8634 -0.2077
 6331SOL     OW30451   1.409   1.277   4.168 -0.0673 -0.1395 -1.2572
 6331SOL    HW130452   1.488   1.233   4.199  0.0536  1.2120  0.3568
 6331SOL    HW230453   1.380   1.198   4.123 -1.2472 -0.6205  0.3532
 6332SOL     OW30454   4.182   3.010  12.480 -0.0160 -0.1548  0.3079
 6332SOL    HW130455   4.165   3.081  12.418 -1.6236  0.5532  1.5646
 6332SOL    HW230456   4.138   3.047  12.556 -0.6006  0.5831 -0.3874
 6333SOL     OW30457   3.145   0.039   3.498 -0.0557 -0.0259 -0.0190
 6333SOL    HW130458   3.087   4.688   3.483 -0.0219  0.0374 -0.4623
 6333SOL    HW230459   3.082   0.111   3.491  0.8322  0.9557  1.9091
 6334SOL     OW30460   1.310   4.297   7.615  0.0865  0.2136 -0.2993
 6334SOL    HW130461   1.295   4.350   7.693  0.0314 -1.5121  0.8665
 6334SOL    HW230462   1.371   4.232   7.649 -1.0055 -0.5634  0.1854
 6335SOL     OW30463   2.930   2.596   0.616  0.4085  0.1923 -0.1694
 6335SOL    HW130464   2.987   2.654   0.666  0.7241 -0.7385  0.5370
 6335SOL    HW230465   2.871   2.573   0.688  2.3353 -0.3511  1.2272
 6336SOL     OW30466   4.383   2.236   6.839 -0.0478  0.1912  0.3299
 6336SOL    HW130467   4.297   2.224   6.878 -1.0989  1.2282 -1.6462
 6336SOL    HW230468   4.387   2.153   6.791 -0.8836  1.1031 -1.3126
 6337SOL     OW30469   1.914   0.398  16.322 -0.0944  0.5559  0.5809
 6337SOL    HW130470   1.926   0.475  16.378 -1.2630 -0.5151  2.2688
 6337SOL    HW230471   1.864   0.423  16.244 -0.3221 -1.2509  0.1544
 6338SOL     OW30472   0.859   0.499   2.927 -0.4641 -0.2341  0.2458
 6338SOL    HW130473   0.821   0.428   2.875  1.3732  1.2052 -3.0442
 6338SOL    HW230474   0.802   0.573   2.907  0.0913 -0.1021 -0.8257
 6339SOL     OW30475   4.119   3.248  10.026  0.1079  0.2504  0.0748
 6339SOL    HW130476   4.054   3.311  10.057 -0.0172 -0.1032  0.5231
 6339SOL    HW230477   4.064   3.191   9.973 -0.1891  1.4357 -0.9118
 6340SOL     OW30478   0.418   3.959   4.989  0.5568 -0.3732 -0.1680
 6340SOL    HW130479   0.452   3.923   4.907  1.1858 -2.0642  0.8365
 6340SOL    HW230480   0.486   4.018   5.021  1.4041 -0.6111 -1.5341
 6341SOL     OW30481   3.571   1.090  14.386  0.0849  0.2288  0.1853
 6341SOL    HW130482   3.524   1.045  14.316 -2.0459  0.2183  1.6442
 6341SOL    HW230483   3.510   1.067  14.456  1.9389  0.6891  1.9429
 6342SOL     OW30484   4.261   3.906   8.189  0.3769  0.0871 -0.7173
 6342SOL    HW130485   4.231   3.846   8.121  0.6446  0.1879 -0.9292
 6342SOL    HW230486   4.347   3.904   8.146  1.5136  2.6464  1.4209
 6343SOL     OW30487   1.095   0.426   7.672 -0.3222 -0.4359 -0.2829
 6343SOL    HW130488   1.039   0.448   7.747 -1.7484 -1.2412 -1.1247
 6343SOL    HW230489   1.122   0.515   7.649  0.2574 -0.3360  0.7875
 6344SOL     OW30490   2.214   4.201  15.942  0.1314 -0.1472 -0.4661
 6344SOL    HW130491   2.181   4.112  15.953 -1.4187  0.9570  3.6457
 6344SOL    HW230492   2.176   4.234  16.023  0.9694  2.6977 -1.2227
 6345SOL     OW30493   1.625   0.577  16.897 -0.0838  0.0119 -0.2152
 6345SOL    HW130494   1.624   0.493  16.942  0.3973  1.6922  2.9433
 6345SOL    HW230495   1.715   0.600  16.919 -0.3905 -2.3352  3.4362
 6346SOL     OW30496   2.171   4.334   1.964 -0.8045 -0.1715 -0.6484
 6346SOL    HW130497   2.111   4.394   1.920 -0.8495  0.3462  0.1128
 6346SOL    HW230498   2.123   4.251   1.968 -1.9287  0.5495  0.9830
 6347SOL     OW30499   0.750   1.530   4.087 -0.0815  0.0421 -0.0588
 6347SOL    HW130500   0.680   1.480   4.129 -0.1002 -1.9773 -2.4902
 6347SOL    HW230501   0.753   1.498   3.997  1.7385  1.4464 -0.4947
 6348SOL     OW30502   2.735   0.431   5.929 -0.3852 -0.3123 -0.0516
 6348SOL    HW130503   2.690   0.490   5.990 -0.5375  0.2082 -0.6618
 6348SOL    HW230504   2.705   0.459   5.843  0.6771  1.2138  0.0655
 6349SOL     OW30505   4.671   2.272   0.858  0.0750  0.1209 -0.1668
 6349SOL    HW130506   0.001   2.203   0.819  1.7184 -0.5377  3.2648
 6349SOL    HW230507   0.012   2.343   0.852 -0.8178  0.8706 -0.7406
 6350SOL     OW30508   2.107   3.233  12.700  0.3942  0.1873 -0.1901
 6350SOL    HW130509   2.079   3.169  12.765 -0.1716  2.6588  1.9874
 6350SOL    HW230510   2.038   3.216  12.637  1.9846  0.3717 -1.9642
 6351SOL     OW30511   0.289   1.215   6.634  0.0074 -0.2919  0.4606
 6351SOL    HW130512   0.346   1.251   6.567 -2.3626 -1.5792 -2.2287
 6351SOL    HW230513   0.337   1.240   6.713 -0.2796 -1.4097  0.9960
 6352SOL     OW30514   3.217   1.650  10.884  0.3666 -0.9701  0.2962
 6352SOL    HW130515   3.220   1.744  10.871  0.9198 -0.8522  1.2489
 6352SOL    HW230516   3.195   1.624  10.795 -1.3895  0.0917  0.4334
 6353SOL     OW30517   2.793   4.082   8.690 -0.3263 -0.8136 -0.4826
 6353SOL    HW130518   2.701   4.062   8.706  0.0162 -0.4486  1.9775
 6353SOL    HW230519   2.812   4.015   8.624  0.3082 -1.8193  0.6986
 6354SOL     OW30520   3.399   2.107  10.655 -0.2991 -0.1152  0.0022
 6354SOL    HW130521   3.434   2.150  10.576  1.9464 -1.0449  0.4729
 6354SOL    HW230522   3.477   2.081  10.705 -0.3894 -0.2934  0.0476
 6355SOL     OW30523   3.793   1.005   6.580  0.8644 -0.0243 -0.1949
 6355SOL    HW130524   3.844   1.078   6.545 -0.2974  0.7155 -0.3249
 6355SOL    HW230525   3.710   1.019   6.535  1.0538  0.0650 -0.5124
 6356SOL     OW30526   3.251   0.410   3.439 -0.0349  0.1062 -0.0880
 6356SOL    HW130527   3.303   0.460   3.501  0.2932  0.5709 -0.7362
 6356SOL    HW230528   3.206   0.345   3.493 -0.2844 -0.0982 -0.5434
 6357SOL     OW30529   3.919   2.998   5.778 -0.4109  0.0864 -0.4153
 6357SOL    HW130530   3.931   3.082   5.735 -1.3365  0.1117 -0.6292
 6357SOL    HW230531   3.932   3.021   5.870  0.1975  1.9971 -0.9939
 6358SOL     OW30532   3.282   0.060   4.980 -0.0500 -0.4554  0.1693
 6358SOL    HW130533   3.262   0.154   4.975  0.5189 -0.3834 -0.6565
 6358SOL    HW230534   3.193   0.040   4.951  0.2823  0.2475 -1.3550
 6359SOL     OW30535   2.778   3.809  14.832 -0.3213 -0.0415 -1.0040
 6359SOL    HW130536   2.872   3.790  14.836 -0.3632  0.3246  1.2602
 6359SOL    HW230537   2.757   3.810  14.738 -1.3891  3.0203 -0.7312
 6360SOL     OW30538   0.848   3.411   1.889 -0.3247 -1.2600 -0.3522
 6360SOL    HW130539   0.767   3.461   1.880 -0.4841 -1.2590  1.0667
 6360SOL    HW230540   0.909   3.481   1.866 -1.1355  0.2271  2.0116
 6361SOL     OW30541   3.763   3.396  11.208  0.2834  0.0834  0.9248
 6361SOL    HW130542   3.831   3.333  11.183 -0.6067 -0.1485 -0.9352
 6361SOL    HW230543   3.799   3.481  11.183 -3.7947  1.5886  0.1063
 6362SOL     OW30544   4.616   3.065   8.753  0.5238  0.5014  0.5705
 6362SOL    HW130545   4.657   3.113   8.825  0.3436  1.1170  0.2711
 6362SOL    HW230546   4.602   3.132   8.685 -0.2976 -0.8548 -0.5912
 6363SOL     OW30547   2.406   0.499   1.039  0.4642  0.2543  0.2091
 6363SOL    HW130548   2.440   0.422   1.084 -1.1330 -0.3466  0.3824
 6363SOL    HW230549   2.326   0.492   1.090  0.7787 -1.1658  0.5035
 6364SOL     OW30550   2.081   3.168   3.665 -0.1670 -0.5672  0.5031
 6364SOL    HW130551   2.079   3.080   3.702  1.5512 -0.9235 -0.2328
 6364SOL    HW230552   2.049   3.220   3.739  0.1999  0.3959 -0.0067
 6365SOL     OW30553   0.378   2.550   8.707  0.3197 -0.3268 -0.0199
 6365SOL    HW130554   0.323   2.546   8.629 -0.5908 -2.6709  0.7432
 6365SOL    HW230555   0.424   2.467   8.700  3.3297  1.4837 -1.7579
 6366SOL     OW30556   0.853   1.793   0.553  0.2080 -0.1107 -0.2221
 6366SOL    HW130557   0.914   1.867   0.567 -1.4778  0.8892  1.8153
 6366SOL    HW230558   0.818   1.809   0.466  4.1751 -0.0249 -1.7953
 6367SOL     OW30559   3.063   3.518   3.547  0.2318 -0.5203  0.2507
 6367SOL    HW130560   3.019   3.483   3.469  1.6458  1.8539 -1.5996
 6367SOL    HW230561   2.998   3.587   3.560  0.4631  0.1193 -1.8497
 6368SOL     OW30562   3.084   0.734   1.969 -0.5708  0.5153 -0.1653
 6368SOL    HW130563   3.120   0.822   1.968 -1.2804  0.8036  0.4520
 6368SOL    HW230564   3.154   0.680   1.931  0.0577  1.1233  0.1191
 6369SOL     OW30565   1.346   3.517   2.976 -0.0467 -0.3325 -0.2832
 6369SOL    HW130566   1.405   3.593   2.979  1.4984 -1.5514  0.0104
 6369SOL    HW230567   1.310   3.537   2.890  2.8007  0.3845 -1.3236
 6370SOL     OW30568   3.371   2.309   4.675  0.7194 -0.2018  0.4458
 6370SOL    HW130569   3.452   2.301   4.724  0.7544  2.2243  0.8051
 6370SOL    HW230570   3.335   2.226   4.705 -1.2621  0.7528  0.7398
 6371SOL     OW30571   3.490   0.614   6.162 -0.3031  0.4000 -0.2657
 6371SOL    HW130572   3.428   0.549   6.130  0.1312 -0.0738 -0.1357
 6371SOL    HW230573   3.553   0.615   6.090 -1.4314  0.4427 -1.2413
 6372SOL     OW30574   3.882   1.343   4.233  0.6358  0.4225 -0.3021
 6372SOL    HW130575   3.972   1.371   4.219  0.8758 -0.9749 -1.4406
 6372SOL    HW230576   3.836   1.414   4.187  0.9208  0.9881  0.2749
 6373SOL     OW30577   3.654   2.161  11.570 -0.0057  0.5013 -0.0504
 6373SOL    HW130578   3.574   2.115  11.595 -0.1990  1.2834  0.7648
 6373SOL    HW230579   3.685   2.098  11.505 -0.8788 -0.5315  0.5407
 6374SOL     OW30580   3.888   1.428   7.899  0.2641 -0.6095  0.0858
 6374SOL    HW130581   3.883   1.348   7.847 -0.4956 -0.1588 -0.5543
 6374SOL    HW230582   3.822   1.412   7.966 -1.0842 -0.7756 -1.2595
 6375SOL     OW30583   0.511   3.836   8.341 -0.3428 -0.1596 -0.0333
 6375SOL    HW130584   0.420   3.818   8.316 -0.3499  0.9330 -0.7555
 6375SOL    HW230585   0.517   3.792   8.426  1.0931  1.9158  0.9240
 6376SOL     OW30586   2.449   2.828   1.130  0.6265 -0.2860 -0.3751
 6376SOL    HW130587   2.451   2.923   1.125  3.7825 -0.2917  0.5158
 6376SOL    HW230588   2.371   2.819   1.185  2.5054 -3.0108  1.8830
 6377SOL     OW30589   3.953   4.044  15.291 -0.1210 -0.0497 -0.3303
 6377SOL    HW130590   3.903   4.100  15.351 -2.8769 -1.9079 -0.9126
 6377SOL    HW230591   3.940   4.088  15.207 -1.0940 -0.8439 -0.6004
 6378SOL     OW30592   3.883   1.895   5.700  0.2492 -0.3496 -0.6857
 6378SOL    HW130593   3.852   1.855   5.781  3.4801  0.6984  1.0577
 6378SOL    HW230594   3.966   1.853   5.679  0.9369  0.8175 -0.2827
 6379SOL     OW30595   2.358   1.472   4.349 -0.5620 -0.3324 -0.5608
 6379SOL    HW130596   2.449   1.445   4.332 -0.8408 -1.1581 -0.7813
 6379SOL    HW230597   2.327   1.477   4.259 -0.7947 -0.0015 -0.4601
 6380SOL     OW30598   3.079   3.855  16.635 -0.0672  0.0087 -0.2803
 6380SOL    HW130599   3.168   3.821  16.627 -0.4872 -0.5760 -2.3238
 6380SOL    HW230600   3.022   3.780  16.619 -0.2192 -0.7779  3.8302
 6381SOL     OW30601   3.804   0.307   2.758  0.0001  0.4354 -0.2400
 6381SOL    HW130602   3.758   0.309   2.674  0.3198  1.1811 -0.4033
 6381SOL    HW230603   3.875   0.244   2.744 -1.7383 -1.0915 -2.1061
 6382SOL     OW30604   1.258   1.008  13.755  0.7323  0.5163  0.9610
 6382SOL    HW130605   1.170   1.022  13.722  0.8803 -2.6696 -0.7311
 6382SOL    HW230606   1.244   1.007  13.850 -0.2636  0.5425  0.8090
 6383SOL     OW30607   4.554   1.944   3.950 -0.3204  0.1939 -0.2268
 6383SOL    HW130608   4.634   1.995   3.963 -1.0706  1.5748 -0.9527
 6383SOL    HW230609   4.587   1.857   3.929 -0.8098  0.1918 -1.0189
 6384SOL     OW30610   3.189   0.395   2.329  0.8078 -0.6843 -0.2708
 6384SOL    HW130611   3.211   0.340   2.404 -0.4597 -0.3088  0.3861
 6384SOL    HW230612   3.108   0.357   2.295  0.2337 -0.2669  0.6318
 6385SOL     OW30613   3.312   3.732   7.757 -0.1498 -0.3308 -0.3232
 6385SOL    HW130614   3.330   3.682   7.836  0.9356 -0.0717 -0.3933
 6385SOL    HW230615   3.353   3.815   7.782 -0.1184 -0.6516  0.6612
 6386SOL     OW30616   4.636   3.870  10.457  0.3367  0.4337 -0.3258
 6386SOL    HW130617   4.720   3.915  10.450  0.5896 -0.0513 -0.4019
 6386SOL    HW230618   4.645   3.803  10.388  3.0618  0.3624  0.0891
 6387SOL     OW30619   3.892   2.676  14.676  0.1592 -0.0233  0.4074
 6387SOL    HW130620   3.940   2.746  14.633  0.5509  0.2508  1.2840
 6387SOL    HW230621   3.888   2.712  14.765  1.9009 -2.4910  1.5195
 6388SOL     OW30622   3.479   4.355   2.564  0.2866 -0.5596 -0.6250
 6388SOL    HW130623   3.433   4.399   2.635 -0.0165 -2.8355  0.5937
 6388SOL    HW230624   3.508   4.425   2.506  2.8955  0.1401  1.5662
 6389SOL     OW30625   2.871   4.265   8.923 -0.1034 -0.4094 -0.0755
 6389SOL    HW130626   2.836   4.202   8.860 -2.3793  1.7053 -0.8971
 6389SOL    HW230627   2.848   4.220   9.005  3.4111 -1.2749  0.4554
 6390SOL     OW30628   3.372   4.494  12.452 -0.0815  0.0761  0.2758
 6390SOL    HW130629   3.354   4.587  12.469 -0.6603  0.0727 -0.3357
 6390SOL    HW230630   3.298   4.472  12.397 -1.5168 -0.5625  2.4824
 6391SOL     OW30631   4.351   3.676   7.348 -0.5501 -0.2733  0.2558
 6391SOL    HW130632   4.352   3.723   7.265  0.1167 -0.3502  0.2226
 6391SOL    HW230633   4.424   3.714   7.395 -0.7236 -1.6058  1.5871
 6392SOL     OW30634   0.573   0.519   5.217 -0.9368 -0.5366 -0.6769
 6392SOL    HW130635   0.490   0.473   5.223 -1.6042  0.5604 -1.5483
 6392SOL    HW230636   0.627   0.453   5.174  2.9234 -0.4584  3.9536
 6393SOL     OW30637   3.750   3.524   7.759 -0.5683  0.2404 -0.4348
 6393SOL    HW130638   3.660   3.523   7.792 -0.6650  0.3382 -0.6942
 6393SOL    HW230639   3.754   3.616   7.731  0.4908  0.3613  0.1084
 6394SOL     OW30640   3.259   1.177   2.128  0.2085 -0.5110  0.1186
 6394SOL    HW130641   3.236   1.141   2.214 -0.9603  0.0008  0.0232
 6394SOL    HW230642   3.321   1.244   2.156 -0.1446 -0.8539  1.7386
 6395SOL     OW30643   3.313   1.289   4.913 -0.6258  0.0171  0.1044
 6395SOL    HW130644   3.342   1.230   4.844 -0.9700 -1.0955  0.9187
 6395SOL    HW230645   3.400   1.316   4.943 -0.9353  0.7098  0.3974
 6396SOL     OW30646   1.258   2.345  10.694 -0.9361 -0.0590 -0.4490
 6396SOL    HW130647   1.210   2.423  10.722 -0.6906 -0.0861  0.0395
 6396SOL    HW230648   1.231   2.276  10.754 -1.6767 -0.7408 -1.5587
 6397SOL     OW30649   1.935   1.629  12.434  0.0719  0.1907  0.1306
 6397SOL    HW130650   1.990   1.557  12.403 -0.6270 -0.1216 -0.3934
 6397SOL    HW230651   1.951   1.625  12.528  0.8853 -3.0366 -0.1165
 6398SOL     OW30652   3.055   0.784   5.022  0.3662  0.1582 -0.2071
 6398SOL    HW130653   2.966   0.784   5.059  0.9034  0.4154  1.0759
 6398SOL    HW230654   3.027   0.752   4.936 -0.5571  0.8172 -0.1578
 6399SOL     OW30655   0.266   4.207   2.087  0.3643 -0.6954  0.2353
 6399SOL    HW130656   0.221   4.254   2.016  0.0376 -2.0374 -0.4481
 6399SOL    HW230657   0.351   4.252   2.084  0.1644 -0.5320 -3.0879
 6400SOL     OW30658   3.846   1.917   4.649 -0.0336  0.2122  0.2369
 6400SOL    HW130659   3.786   1.963   4.707 -3.1005 -2.7350 -0.5439
 6400SOL    HW230660   3.805   1.830   4.645  0.3488  0.0894 -1.2269
 6401SOL     OW30661   3.032   2.745   5.595 -0.9467  0.1555  0.3498
 6401SOL    HW130662   3.021   2.797   5.675  1.4314 -1.7620  1.9169
 6401SOL    HW230663   2.937   2.746   5.581 -1.2732  1.6326  2.5413
 6402SOL     OW30664   4.015   3.753  12.544  0.5534 -0.4913  0.1507
 6402SOL    HW130665   4.067   3.821  12.585 -1.6833  1.9628 -1.0789
 6402SOL    HW230666   4.066   3.738  12.464 -1.4216  0.1232 -1.2426
 6403SOL     OW30667   3.616   1.242   3.517 -0.2994 -0.0548  0.1230
 6403SOL    HW130668   3.679   1.228   3.446 -0.7014  0.4937 -0.3418
 6403SOL    HW230669   3.666   1.213   3.593  0.9561  1.3029 -0.2022
 6404SOL     OW30670   2.302   2.468  12.772  0.5818  0.2969  0.5757
 6404SOL    HW130671   2.387   2.511  12.780  1.0076 -0.4119 -0.0672
 6404SOL    HW230672   2.253   2.538  12.727 -1.1815 -1.4879 -0.3054
 6405SOL     OW30673   4.347   0.369   0.398  1.0200 -0.2404 -0.1748
 6405SOL    HW130674   4.408   0.331   0.335  0.5501  1.6761 -1.7771
 6405SOL    HW230675   4.302   0.290   0.427  0.7856  0.8612  2.4711
 6406SOL     OW30676   0.729   0.692   8.294  0.2574  0.4696  0.2803
 6406SOL    HW130677   0.700   0.688   8.203 -2.5295  2.8611  1.0790
 6406SOL    HW230678   0.649   0.666   8.339 -1.2805 -0.8098 -3.1921
 6407SOL     OW30679   0.169   1.876   4.700  0.6580  0.0723  0.0406
 6407SOL    HW130680   0.210   1.859   4.785 -1.0547 -2.0752  0.4191
 6407SOL    HW230681   0.226   1.945   4.666  1.4087 -0.3717  0.4034
 6408SOL     OW30682   1.068   1.523   7.800  0.1888  0.2386 -0.3922
 6408SOL    HW130683   1.033   1.493   7.884 -1.4207  1.1191 -0.7574
 6408SOL    HW230684   1.135   1.588   7.821  1.6903 -2.0402  1.8986
 6409SOL     OW30685   3.803   4.324   4.055 -0.8215  0.0539  0.5491
 6409SOL    HW130686   3.811   4.419   4.042 -1.5073  0.0036 -0.3227
 6409SOL    HW230687   3.889   4.309   4.093  0.7617  3.5769 -1.6177
 6410SOL     OW30688   0.127   1.167  17.260  0.2989  0.1914  0.0490
 6410SOL    HW130689   0.046   1.217  17.266 -0.0422 -0.2991 -0.4057
 6410SOL    HW230690   0.110   1.131  17.172  0.7326  3.8487 -1.5327
 6411SOL     OW30691   4.498   1.526  11.686  0.8046 -0.7758 -0.3476
 6411SOL    HW130692   4.465   1.562  11.768  0.2953  2.1380 -1.8276
 6411SOL    HW230693   4.588   1.507  11.714  0.7831  1.0165  0.9384
 6412SOL     OW30694   2.893   3.832   7.357 -0.3393  0.0648 -0.2885
 6412SOL    HW130695   2.947   3.911   7.362 -1.8146  0.8958  2.6219
 6412SOL    HW230696   2.854   3.836   7.444  1.2386  0.2085  0.4096
 6413SOL     OW30697   2.941   4.614   5.588  0.4853  0.0773 -0.2840
 6413SOL    HW130698   3.028   4.628   5.551  0.2920 -3.2725 -2.0367
 6413SOL    HW230699   2.926   4.698   5.631 -1.6315 -0.6933  0.4854
 6414SOL     OW30700   1.990   3.689   7.435 -0.1318  0.5869  0.6838
 6414SOL    HW130701   2.083   3.667   7.439 -0.2853 -0.1573  0.2175
 6414SOL    HW230702   1.980   3.759   7.500  1.2255  1.8935 -0.5255
 6415SOL     OW30703   1.201   1.491   5.715 -0.5187 -0.2259 -0.3999
 6415SOL    HW130704   1.130   1.535   5.761 -0.4111 -1.5291  1.0588
 6415SOL    HW230705   1.238   1.431   5.781 -1.2097  0.7186  0.8424
 6416SOL     OW30706   0.507   2.968  17.479  0.6380  0.1757  0.3654
 6416SOL    HW130707   0.501   3.016  17.562  2.3464  2.3686 -0.7836
 6416SOL    HW230708   0.421   2.924  17.479  0.7556 -0.0488  1.4167
 6417SOL     OW30709   3.863   4.366   1.506  0.1877  0.6576 -0.2064
 6417SOL    HW130710   3.838   4.317   1.584 -1.5471 -2.2205 -2.5869
 6417SOL    HW230711   3.915   4.441   1.534  0.0508  1.8280 -3.0394
 6418SOL     OW30712   0.257   1.807   3.051  0.2350  0.2154 -0.6723
 6418SOL    HW130713   0.322   1.858   3.099  0.3983 -0.0266 -0.6342
 6418SOL    HW230714   0.319   1.761   2.994  0.2333  0.1160 -0.5947
 6419SOL     OW30715   4.655   4.570  15.910 -1.2789  0.0838  0.3358
 6419SOL    HW130716   0.007   4.628  15.893 -0.6109 -1.2049 -1.1414
 6419SOL    HW230717   4.643   4.591  16.003 -1.6167 -0.6999  0.4753
 6420SOL     OW30718   4.501   3.869   3.920  0.4329  0.1181 -0.2694
 6420SOL    HW130719   4.480   3.825   3.837 -1.4948  1.9432 -0.7705
 6420SOL    HW230720   4.492   3.964   3.906 -0.3280 -0.1687 -1.7836
 6421SOL     OW30721   2.232   4.007   5.540  0.1031  0.1030  0.5764
 6421SOL    HW130722   2.145   3.977   5.512  1.4035 -1.4514 -1.8030
 6421SOL    HW230723   2.246   4.088   5.491 -2.1831  0.6358  0.8052
 6422SOL     OW30724   4.136   1.921  13.200  0.0198  0.0637  0.0761
 6422SOL    HW130725   4.100   1.892  13.284  2.6247 -0.5791  0.9731
 6422SOL    HW230726   4.079   1.885  13.132  0.1969 -0.2677  0.1016
 6423SOL     OW30727   3.203   4.133   2.989 -0.6489  0.2671 -0.1148
 6423SOL    HW130728   3.154   4.095   3.062 -1.0514  2.3426  0.6914
 6423SOL    HW230729   3.208   4.226   3.010 -1.5327  0.6006 -1.3529
 6424SOL     OW30730   1.211   1.228  17.518 -0.0069  0.5628 -0.0742
 6424SOL    HW130731   1.261   1.242  17.598  0.5087  0.1517 -0.3300
 6424SOL    HW230732   1.157   1.155  17.548  1.6184 -0.3443  0.6288
 6425SOL     OW30733   3.202   0.901   0.963  0.9087  0.1321  0.7594
 6425SOL    HW130734   3.131   0.856   1.010  1.3911 -0.1773  1.1832
 6425SOL    HW230735   3.211   0.851   0.882 -0.4121  0.8170  0.1824
 6426SOL     OW30736   4.200   0.942   6.065  0.5030 -0.2573 -0.0843
 6426SOL    HW130737   4.262   0.998   6.112 -0.9480  0.5721  0.8380
 6426SOL    HW230738   4.168   0.892   6.139  1.8010 -1.3023 -0.2271
 6427SOL     OW30739   1.053   3.945   3.181 -0.3070  0.1936 -0.0764
 6427SOL    HW130740   1.130   3.888   3.174 -1.0083 -0.4975 -2.2685
 6427SOL    HW230741   1.039   3.960   3.087 -0.7248 -0.3780 -0.1038
 6428SOL     OW30742   1.788   4.321   3.624 -0.1516 -0.4085  0.0474
 6428SOL    HW130743   1.796   4.284   3.536  0.6618 -0.1158  0.0079
 6428SOL    HW230744   1.710   4.276   3.658 -0.0807 -0.7795 -0.2805
 6429SOL     OW30745   1.106   0.565   1.755  0.9401 -0.4247  0.5897
 6429SOL    HW130746   1.153   0.639   1.717  0.8198  1.0877  3.3269
 6429SOL    HW230747   1.178   0.532   1.809  0.6417 -0.3845  1.0169
 6430SOL     OW30748   3.153   1.749   4.763 -0.3159  0.7285  1.0003
 6430SOL    HW130749   3.151   1.824   4.823  1.9306  1.4093  0.2428
 6430SOL    HW230750   3.065   1.715   4.776 -0.2011 -0.3568 -1.0417
 6431SOL     OW30751   1.103   0.204   9.606  0.1959 -0.8286 -0.3179
 6431SOL    HW130752   1.015   0.171   9.619  0.2966 -0.8152  0.3903
 6431SOL    HW230753   1.083   0.297   9.591  0.8510 -0.4852  0.8695
 6432SOL     OW30754   2.646   3.593   6.726 -0.6271  0.5502 -0.3134
 6432SOL    HW130755   2.570   3.536   6.731 -0.5623  0.4171 -0.9124
 6432SOL    HW230756   2.612   3.674   6.765  0.8144  0.1122  1.8658
 6433SOL     OW30757   0.804   0.938  16.602 -0.3757  0.9034  0.3266
 6433SOL    HW130758   0.715   0.970  16.590  0.2163  2.3107 -0.3839
 6433SOL    HW230759   0.795   0.890  16.684 -1.2773  0.4118 -0.0640
 6434SOL     OW30760   0.776   0.736   2.827 -0.5191 -0.2808 -0.4086
 6434SOL    HW130761   0.728   0.819   2.829 -1.4710 -0.8492 -0.0781
 6434SOL    HW230762   0.753   0.707   2.739 -0.1093  0.1565 -0.6618
 6435SOL     OW30763   0.650   4.401  11.965  0.5675 -0.1951  0.6999
 6435SOL    HW130764   0.612   4.313  11.960  0.1559  0.0552 -0.7231
 6435SOL    HW230765   0.662   4.429  11.874 -0.5022  1.4669  1.0725
 6436SOL     OW30766   3.461   4.670   8.257  0.1658  0.2327  0.2656
 6436SOL    HW130767   3.462   0.041   8.240  0.6676 -0.3249 -2.7269
 6436SOL    HW230768   3.449   4.635   8.169  1.6205  0.7873 -0.1475
 6437SOL     OW30769   0.657   0.376   8.839 -0.0914 -0.2571  0.7374
 6437SOL    HW130770   0.610   0.346   8.761 -0.4066  1.9402  0.0894
 6437SOL    HW230771   0.584   0.382   8.899 -0.6590  1.7087 -0.1461
 6438SOL     OW30772   3.425   1.691   1.430  0.0271  0.9154  0.7053
 6438SOL    HW130773   3.484   1.660   1.499 -0.6183  1.6015  1.5632
 6438SOL    HW230774   3.473   1.660   1.354 -0.9799  0.6502  0.1763
 6439SOL     OW30775   2.779   2.919   4.543 -0.2292 -0.0054 -0.0940
 6439SOL    HW130776   2.719   2.988   4.572  1.5960  0.7969  1.7906
 6439SOL    HW230777   2.720   2.847   4.566  1.2932 -1.5694 -1.0932
 6440SOL     OW30778   2.783   1.243   6.278  0.4472  0.3229  0.4120
 6440SOL    HW130779   2.803   1.316   6.337 -0.0200 -0.5980  1.6889
 6440SOL    HW230780   2.810   1.292   6.200  0.1036  1.8023  1.2141
 6441SOL     OW30781   3.727   3.335   6.691 -0.1661 -0.3776  0.0445
 6441SOL    HW130782   3.638   3.370   6.694  0.9222  2.1299  2.5650
 6441SOL    HW230783   3.763   3.343   6.779  0.1175 -0.0897 -0.0990
 6442SOL     OW30784   0.566   0.220   2.602  0.1029  0.0591  0.1769
 6442SOL    HW130785   0.540   0.312   2.599 -0.5950 -0.1858 -1.2344
 6442SOL    HW230786   0.557   0.191   2.512  1.0058  1.4993 -0.3813
 6443SOL     OW30787   1.698   0.989   0.261  0.0574  0.2267  0.2304
 6443SOL    HW130788   1.730   0.941   0.337  0.7814  0.4585  0.0665
 6443SOL    HW230789   1.612   1.016   0.294  0.4298  0.9025  0.6558
 6444SOL     OW30790   3.094   4.499   8.728  0.3919 -0.3936  0.1319
 6444SOL    HW130791   3.021   4.559   8.735 -0.2063 -1.0869 -0.1688
 6444SOL    HW230792   3.098   4.466   8.817  0.3112  0.4621  0.4511
 6445SOL     OW30793   3.410   2.604  16.146 -0.2279 -0.6176  0.0822
 6445SOL    HW130794   3.421   2.673  16.081  1.2612  0.4872  1.5023
 6445SOL    HW230795   3.320   2.587  16.119 -0.0289 -1.2304 -0.1821
 6446SOL     OW30796   4.338   3.354   5.725 -0.2033 -0.3921 -0.0463
 6446SOL    HW130797   4.380   3.293   5.664 -0.5715  1.5798 -2.2242
 6446SOL    HW230798   4.257   3.364   5.675  0.1642  3.3128  0.1384
 6447SOL     OW30799   4.298   2.558  14.963 -0.1188  0.0819  0.7949
 6447SOL    HW130800   4.266   2.490  15.022 -0.0521 -1.0427 -0.4860
 6447SOL    HW230801   4.238   2.530  14.894 -0.4212 -0.3247  1.2242
 6448SOL     OW30802   3.374   1.135   6.130 -0.2082 -0.0691 -0.2155
 6448SOL    HW130803   3.466   1.152   6.152  0.1851 -2.0482 -0.3828
 6448SOL    HW230804   3.371   1.042   6.110  1.2300  0.2551 -1.9429
 6449SOL     OW30805   3.998   2.205  12.390 -0.2820 -0.3217  0.0275
 6449SOL    HW130806   3.992   2.230  12.482  0.7507  0.5741 -0.1565
 6449SOL    HW230807   3.968   2.285  12.347  1.1344 -0.2314 -0.7767
 6450SOL     OW30808   1.919   2.399  13.036  0.0335  0.2428 -0.5770
 6450SOL    HW130809   1.984   2.329  13.028 -0.0290  0.4341 -2.9497
 6450SOL    HW230810   1.972   2.477  13.024 -0.0947  0.5771  1.1288
 6451SOL     OW30811   0.898   0.438   9.392 -0.1420 -0.0944  0.1963
 6451SOL    HW130812   0.856   0.463   9.310 -1.2640  0.2127  0.8641
 6451SOL    HW230813   0.966   0.378   9.364 -1.3238 -1.7116  0.8284
 6452SOL     OW30814   1.210   1.366  14.767  0.6183  0.5044 -0.3867
 6452SOL    HW130815   1.289   1.349  14.819  0.4054  0.9025  0.0690
 6452SOL    HW230816   1.220   1.460  14.752 -1.0848  0.6840 -0.4269
 6453SOL     OW30817   3.794   0.258   8.610 -0.1398 -0.2888  0.7348
 6453SOL    HW130818   3.785   0.335   8.666 -3.5626 -0.2693  0.2164
 6453SOL    HW230819   3.734   0.281   8.538  0.7488 -3.1212 -0.9305
 6454SOL     OW30820   2.243   3.158  15.644 -0.2095  0.2618  0.0951
 6454SOL    HW130821   2.198   3.231  15.687 -0.3645  0.0824  0.2392
 6454SOL    HW230822   2.331   3.190  15.624 -0.2865  0.0851 -0.5240
 6455SOL     OW30823   1.553   0.708   4.500 -0.0543 -0.0890  0.2628
 6455SOL    HW130824   1.601   0.629   4.522 -1.8656 -1.3401 -0.3141
 6455SOL    HW230825   1.496   0.712   4.578  0.0592  2.5480  0.2325
 6456SOL     OW30826   1.129   4.020   5.111  0.0738 -0.0834 -0.6443
 6456SOL    HW130827   1.169   3.997   5.195 -1.1114  0.3852  0.0441
 6456SOL    HW230828   1.054   3.960   5.111 -1.6904  2.1156 -1.7901
 6457SOL     OW30829   1.248   3.177   7.209  0.0150  0.0432  0.1134
 6457SOL    HW130830   1.321   3.231   7.177  1.0331 -2.2044 -1.3700
 6457SOL    HW230831   1.181   3.220   7.157 -0.5253 -0.4086  0.4405
 6458SOL     OW30832   3.599   2.582   6.897  0.0308 -0.1381  0.4002
 6458SOL    HW130833   3.638   2.670   6.898  0.6220 -0.4321  2.6898
 6458SOL    HW230834   3.634   2.547   6.815 -1.1294  0.6051 -0.4136
 6459SOL     OW30835   3.779   0.715   7.647 -0.4316 -0.2765 -0.0370
 6459SOL    HW130836   3.748   0.709   7.737 -2.6127 -2.7531 -0.9491
 6459SOL    HW230837   3.761   0.807   7.630  1.8412  0.3012  0.7223
 6460SOL     OW30838   2.323   2.143   2.772 -0.4364  0.4231 -0.0359
 6460SOL    HW130839   2.332   2.226   2.725  1.2348  0.0992 -0.2862
 6460SOL    HW230840   2.229   2.132   2.782 -0.5409  0.5327 -0.9838
 6461SOL     OW30841   2.632   0.834   4.119  0.4971  0.3716  0.5912
 6461SOL    HW130842   2.556   0.868   4.070  0.0005 -0.1230  1.0213
 6461SOL    HW230843   2.665   0.767   4.059 -0.7068  2.7938 -2.7661
 6462SOL     OW30844   0.665   3.941   1.294  0.3421  0.4291 -0.3770
 6462SOL    HW130845   0.746   3.974   1.256  0.8675  2.2676  2.2745
 6462SOL    HW230846   0.592   3.979   1.246  0.5118  1.3036  0.0554
 6463SOL     OW30847   3.351   2.462   6.858  0.5529  0.2545 -0.4879
 6463SOL    HW130848   3.416   2.514   6.905  0.2390  0.6956 -0.5405
 6463SOL    HW230849   3.346   2.505   6.772  0.3967  1.0215 -0.0934
 6464SOL     OW30850   2.270   4.073   2.453  0.6107  0.2370  1.1730
 6464SOL    HW130851   2.353   4.110   2.483  0.7711  0.0058  1.0246
 6464SOL    HW230852   2.290   4.108   2.367  2.4300 -0.6334  1.2239
 6465SOL     OW30853   0.231   1.964   2.021  0.3243 -0.8297 -0.2587
 6465SOL    HW130854   0.202   1.922   1.940 -0.7278  0.8587 -0.7513
 6465SOL    HW230855   0.151   1.955   2.073  0.8403  0.1296  0.6805
 6466SOL     OW30856   2.479   1.744  13.848 -0.4614  0.2327 -0.0014
 6466SOL    HW130857   2.563   1.771  13.887 -0.4534 -0.5820  0.5382
 6466SOL    HW230858   2.414   1.788  13.903  2.1387  2.5089  1.2511
 6467SOL     OW30859   2.913   3.506   9.106  0.3660  0.7393  0.2637
 6467SOL    HW130860   2.868   3.529   9.188 -2.2827  0.8262 -1.1902
 6467SOL    HW230861   2.856   3.433   9.082 -2.1541  1.7127  3.1946
 6468SOL     OW30862   1.827   2.630  13.415 -0.0665 -0.1172  0.0521
 6468SOL    HW130863   1.856   2.654  13.503 -0.3246  0.5407 -0.0440
 6468SOL    HW230864   1.758   2.571  13.446 -0.9333 -0.1343 -1.9501
 6469SOL     OW30865   4.355   3.594   3.414  0.0057 -0.0979  0.1183
 6469SOL    HW130866   4.362   3.606   3.319  1.3922  1.1501  0.3792
 6469SOL    HW230867   4.372   3.500   3.419 -3.1676 -0.8233 -2.3165
 6470SOL     OW30868   3.725   3.753   5.790  0.2815 -0.1929 -0.8929
 6470SOL    HW130869   3.667   3.817   5.831  1.5996  0.0972  0.5352
 6470SOL    HW230870   3.752   3.801   5.712 -1.9348  1.1094 -0.8614
 6471SOL     OW30871   3.217   1.420   0.181 -0.0208  0.0333  0.2532
 6471SOL    HW130872   3.304   1.432   0.143  0.4941  2.4267  2.1372
 6471SOL    HW230873   3.241   1.356   0.247 -2.8895  0.4827  1.7700
 6472SOL     OW30874   2.296   3.325   7.248  0.2516  0.2847 -0.2577
 6472SOL    HW130875   2.251   3.241   7.258 -1.8407  1.6387  1.5943
 6472SOL    HW230876   2.322   3.352   7.335  0.3628  1.7782 -0.7502
 6473SOL     OW30877   2.545   0.305   9.246 -0.1688  0.3420  0.1315
 6473SOL    HW130878   2.547   0.283   9.153 -0.3020  1.2056 -0.0811
 6473SOL    HW230879   2.516   0.220   9.277  1.1972 -0.4586 -0.7981
 6474SOL     OW30880   2.556   2.712   2.558  0.3993  0.3476  0.1405
 6474SOL    HW130881   2.609   2.730   2.635 -0.2725 -2.1699  1.1891
 6474SOL    HW230882   2.545   2.801   2.525 -0.0176  0.3340  0.2455
 6475SOL     OW30883   3.984   3.446   3.450 -0.7525  0.1227  0.5052
 6475SOL    HW130884   4.015   3.412   3.534  0.8181  0.0911 -0.0845
 6475SOL    HW230885   3.909   3.391   3.428 -0.1979 -0.1973 -0.5741
 6476SOL     OW30886   0.292   1.307  14.362  0.2887 -0.0257  0.1294
 6476SOL    HW130887   0.280   1.304  14.267 -2.3603  1.1109  0.4346
 6476SOL    HW230888   0.221   1.367  14.383  1.0072  0.1381  2.0910
 6477SOL     OW30889   2.275   1.822   0.806  0.0799 -0.1017 -0.1980
 6477SOL    HW130890   2.320   1.856   0.728 -0.9447 -1.7055 -1.4949
 6477SOL    HW230891   2.189   1.858   0.787 -0.4676 -0.9947  0.6468
 6478SOL     OW30892   0.210   1.400   3.292 -0.7291 -0.1605  0.4564
 6478SOL    HW130893   0.298   1.433   3.269  0.2522 -0.5493  3.6253
 6478SOL    HW230894   0.172   1.482   3.324 -0.1427  0.9497 -1.6316
 6479SOL     OW30895   1.279   2.756   4.975  0.3821 -0.1770  0.2156
 6479SOL    HW130896   1.346   2.693   4.949 -0.8616 -0.6690 -1.7530
 6479SOL    HW230897   1.333   2.835   4.985  1.6941 -1.1620  0.8663
 6480SOL     OW30898   0.555   3.433   7.532 -0.0540 -0.2823 -0.6279
 6480SOL    HW130899   0.465   3.418   7.503 -0.3777 -1.9377  1.1464
 6480SOL    HW230900   0.598   3.423   7.447 -1.3222 -1.9773 -1.0829
 6481SOL     OW30901   1.910   4.716   2.258 -0.4587  0.4286 -0.1219
 6481SOL    HW130902   1.911   4.620   2.254  1.0885  0.4764 -0.6273
 6481SOL    HW230903   1.951   0.013   2.342 -0.8608 -0.6680  0.3306
 6482SOL     OW30904   0.564   1.611   7.896  0.1086 -0.0954 -0.0387
 6482SOL    HW130905   0.540   1.528   7.853  0.8612  0.0759 -0.8002
 6482SOL    HW230906   0.626   1.650   7.834 -0.7711  0.0336 -0.8546
 6483SOL     OW30907   3.845   0.948   5.642  0.2696  0.0127 -0.0506
 6483SOL    HW130908   3.805   0.890   5.577  1.4286  1.5346 -2.1085
 6483SOL    HW230909   3.777   1.016   5.646 -1.0550 -1.3693  0.8346
 6484SOL     OW30910   4.526   1.057   6.424 -0.2923  0.9411  0.7412
 6484SOL    HW130911   4.497   1.142   6.457  0.2154  0.8166  1.5100
 6484SOL    HW230912   4.600   1.039   6.482 -0.4578  1.6125  1.1609
 6485SOL     OW30913   1.457   4.428   6.172  0.0819 -0.3445  0.1636
 6485SOL    HW130914   1.417   4.400   6.090 -0.2354  0.9372 -0.1220
 6485SOL    HW230915   1.510   4.506   6.153  2.8539 -2.6126 -1.4225
 6486SOL     OW30916   4.010   3.584   8.304 -0.2843 -0.0135 -0.3884
 6486SOL    HW130917   3.994   3.511   8.364 -2.1266  1.2008  0.6133
 6486SOL    HW230918   3.932   3.578   8.248  0.3419  2.7324 -1.5557
 6487SOL     OW30919   1.793   1.997   4.546  0.4053  0.7661 -0.6402
 6487SOL    HW130920   1.702   1.994   4.517  0.1060 -1.9233  0.5478
 6487SOL    HW230921   1.788   1.932   4.616 -0.9236  0.6680 -0.8325
 6488SOL     OW30922   0.909   4.558   7.619  0.0270  0.1372  0.1403
 6488SOL    HW130923   0.816   4.571   7.637 -0.1307  1.1837 -1.3632
 6488SOL    HW230924   0.906   4.467   7.591  0.1816  0.3748 -0.6777
 6489SOL     OW30925   2.463   0.244   6.122 -0.3665 -0.9677  0.1994
 6489SOL    HW130926   2.393   0.309   6.122  0.1454 -0.4149 -0.7892
 6489SOL    HW230927   2.438   0.183   6.053  0.3030  0.4148 -1.2614
 6490SOL     OW30928   0.878   0.893  11.038 -0.0148 -0.1645  0.1403
 6490SOL    HW130929   0.914   0.948  10.968  1.3915  2.6453  3.0913
 6490SOL    HW230930   0.794   0.938  11.045  0.4280  0.5624  0.7757
 6491SOL     OW30931   2.267   2.241   1.748 -0.5357 -0.1128 -0.1112
 6491SOL    HW130932   2.362   2.237   1.756 -0.5193  1.2907  0.4670
 6491SOL    HW230933   2.262   2.232   1.653 -0.1267  1.6325 -0.3043
 6492SOL     OW30934   3.000   3.227   7.941  0.8090  0.7535 -0.2565
 6492SOL    HW130935   2.967   3.168   8.009  0.9265 -0.8347 -1.5708
 6492SOL    HW230936   2.925   3.286   7.930  0.8018  1.0389  1.3714
 6493SOL     OW30937   1.209   0.779   1.029 -0.2010  0.0294  0.0035
 6493SOL    HW130938   1.141   0.810   1.089  0.6118  1.8970 -0.0557
 6493SOL    HW230939   1.168   0.693   1.020  0.2346  0.0418 -2.1367
 6494SOL     OW30940   2.119   1.355   2.892 -0.6739 -0.6035  0.1808
 6494SOL    HW130941   2.056   1.318   2.954  1.0414  1.4667  3.1585
 6494SOL    HW230942   2.067   1.429   2.861 -0.1113  0.3408  1.4819
 6495SOL     OW30943   1.728   3.792   6.281  0.1970  0.0993 -0.0371
 6495SOL    HW130944   1.680   3.749   6.352  1.0954 -3.3125 -1.4863
 6495SOL    HW230945   1.738   3.880   6.317  1.9167  0.1710 -0.6737
 6496SOL     OW30946   1.466   0.322   3.740  0.7031 -0.7346 -0.0913
 6496SOL    HW130947   1.480   0.328   3.646 -0.2348 -0.9422 -0.2486
 6496SOL    HW230948   1.431   0.233   3.749 -0.6319 -0.0638  1.5157
 6497SOL     OW30949   0.144   3.971   0.577  0.0715 -0.4116 -0.7393
 6497SOL    HW130950   0.200   3.966   0.499  1.2121  1.4818 -0.0360
 6497SOL    HW230951   0.106   4.057   0.562 -0.7610 -0.7428 -0.5710
 6498SOL     OW30952   0.175   3.986   4.935  0.1965  0.6980 -0.5409
 6498SOL    HW130953   0.132   3.901   4.941  0.4560  0.6754  1.0285
 6498SOL    HW230954   0.269   3.971   4.938 -0.1478 -1.4622 -0.5571
 6499SOL     OW30955   0.427   1.086   4.331  0.2204 -0.0716 -0.3918
 6499SOL    HW130956   0.355   1.135   4.371  0.5616 -2.5216  3.2572
 6499SOL    HW230957   0.409   1.103   4.239  0.3734  2.9027  0.1266
 6500SOL     OW30958   0.523   3.147  11.120 -0.1332  0.2624  0.5023
 6500SOL    HW130959   0.484   3.065  11.088  0.3074  0.5256 -0.7207
 6500SOL    HW230960   0.585   3.113  11.185  0.7198  0.6054 -0.1418
 6501SOL     OW30961   1.258   4.401  11.480  0.3410  0.1489  0.5865
 6501SOL    HW130962   1.285   4.317  11.442 -0.0403  0.3094 -0.0286
 6501SOL    HW230963   1.316   4.455  11.427 -2.4567  0.5903 -1.9891
 6502SOL     OW30964   1.046   1.977   5.805  0.5695 -0.7210  0.2326
 6502SOL    HW130965   1.083   1.936   5.727  0.0984 -0.0584 -0.3408
 6502SOL    HW230966   1.003   2.053   5.766  0.3285 -0.0648  1.7655
 6503SOL     OW30967   1.353   3.291  12.313  0.1797  0.3458  0.0209
 6503SOL    HW130968   1.388   3.204  12.329  1.4855  1.0187  0.8394
 6503SOL    HW230969   1.390   3.303  12.225  1.3570  0.5760  0.5445
 6504SOL     OW30970   4.607   4.272   2.142  0.5447 -0.1666  0.7916
 6504SOL    HW130971   4.540   4.220   2.096  2.2147 -0.7905 -0.9238
 6504SOL    HW230972   4.566   4.287   2.227  2.3791  0.3657  1.5827
 6505SOL     OW30973   1.620   0.252   3.529 -0.5030 -0.5328 -0.0483
 6505SOL    HW130974   1.630   0.165   3.568  2.0555 -0.2901 -0.1901
 6505SOL    HW230975   1.701   0.287   3.565 -0.2675 -1.0939 -0.0307
 6506SOL     OW30976   4.379   4.658  17.048 -0.2262  0.4494 -0.1284
 6506SOL    HW130977   4.454   4.621  17.095 -1.4022 -1.3500  0.3197
 6506SOL    HW230978   4.335   4.577  17.022  0.8035 -0.1873  0.1125
 6507SOL     OW30979   0.473   1.596   4.314 -0.3462 -0.2739 -0.3438
 6507SOL    HW130980   0.510   1.517   4.275  2.2080  0.8691 -0.2240
 6507SOL    HW230981   0.383   1.577   4.339 -1.0068  2.2559 -0.7565
 6508SOL     OW30982   4.465   0.897  15.951 -0.3622  0.0822  0.1195
 6508SOL    HW130983   4.533   0.965  15.951 -0.0409 -0.2417  0.1303
 6508SOL    HW230984   4.494   0.845  16.025 -1.3663 -2.4437 -1.2894
 6509SOL     OW30985   0.599   0.994  10.155 -0.5951 -0.3762 -0.7045
 6509SOL    HW130986   0.548   1.040  10.088 -0.8057  3.0356  1.7984
 6509SOL    HW230987   0.581   0.911  10.111 -1.4628 -1.1571  1.1129
 6510SOL     OW30988   2.766   0.951   7.769  0.9287  0.2728  0.1942
 6510SOL    HW130989   2.676   0.939   7.799  1.4399 -1.0923  1.1420
 6510SOL    HW230990   2.743   0.967   7.677 -0.5328 -0.6525  0.4013
 6511SOL     OW30991   0.338   0.906   6.383  0.0795 -0.8505 -0.6867
 6511SOL    HW130992   0.363   0.826   6.336 -0.5407 -0.6035 -1.4283
 6511SOL    HW230993   0.309   0.875   6.469  0.9936 -2.2865 -0.8883
 6512SOL     OW30994   0.557   2.481   2.234 -0.4411  0.0097  0.3518
 6512SOL    HW130995   0.464   2.458   2.235 -0.7275  1.1335 -0.1067
 6512SOL    HW230996   0.549   2.574   2.212 -0.3765  0.6351  2.9015
 6513SOL     OW30997   2.151   0.463   1.128  0.4083  0.2707 -0.1295
 6513SOL    HW130998   2.110   0.382   1.159 -0.7149  0.6645 -0.5735
 6513SOL    HW230999   2.109   0.523   1.190  2.1012  0.1508  1.1359
 6514SOL     OW31000   3.373   3.691  10.224 -0.0170  0.5370 -0.1841
 6514SOL    HW131001   3.450   3.683  10.280  1.5820 -1.9996 -2.7151
 6514SOL    HW231002   3.406   3.650  10.144 -2.4867 -1.5440 -0.1325
 6515SOL     OW31003   4.490   3.452   1.494  0.4531  0.1837 -0.2473
 6515SOL    HW131004   4.443   3.370   1.511  1.6212  0.0753  2.5117
 6515SOL    HW231005   4.550   3.447   1.569 -2.0183 -2.1394  1.5590
 6516SOL     OW31006   4.486   4.063   2.013 -0.4202 -1.2609  0.0428
 6516SOL    HW131007   4.466   4.013   1.934 -1.5400 -0.6673 -0.0394
 6516SOL    HW231008   4.492   3.994   2.080  1.3954 -0.8009  0.3589
 6517SOL     OW31009   0.279   0.579   3.129  0.7630  0.2464  0.2274
 6517SOL    HW131010   0.373   0.567   3.115  0.5456  0.5482 -1.4951
 6517SOL    HW231011   0.273   0.675   3.127 -0.2821  0.1069 -2.3899
 6518SOL     OW31012   2.929   2.102   6.669  0.1457  0.3304 -0.3046
 6518SOL    HW131013   2.987   2.158   6.619  1.2219 -0.6898 -0.1859
 6518SOL    HW231014   2.906   2.164   6.739  1.4308  0.0678  0.3561
 6519SOL     OW31015   2.890   0.287   7.658  0.1936  0.1686 -0.0832
 6519SOL    HW131016   2.920   0.208   7.611  0.7351  0.8204 -0.8308
 6519SOL    HW231017   2.898   0.257   7.748 -3.4358 -0.6921 -0.0655
 6520SOL     OW31018   3.364   1.490   3.591  0.6301 -0.4787 -0.4435
 6520SOL    HW131019   3.459   1.501   3.577  0.6215 -0.5010 -0.5187
 6520SOL    HW231020   3.356   1.550   3.665  2.7035 -0.6903 -0.0286
 6521SOL     OW31021   1.409   2.437  14.868 -0.4994 -0.2245 -0.0113
 6521SOL    HW131022   1.481   2.494  14.839 -0.7692  1.5931  2.8970
 6521SOL    HW231023   1.449   2.374  14.928  0.3443 -0.9358 -1.3192
 6522SOL     OW31024   0.049   2.177  15.099 -0.2286 -0.4145  0.3565
 6522SOL    HW131025   4.693   2.187  15.153  0.3198  1.4017  0.8243
 6522SOL    HW231026   0.052   2.267  15.067 -0.0955 -0.4168  0.3630
 6523SOL     OW31027   0.501   1.907  17.434 -0.0281  0.2876  0.2712
 6523SOL    HW131028   0.492   2.002  17.435 -3.1106 -0.0138 -0.4954
 6523SOL    HW231029   0.437   1.882  17.500 -0.2918  0.6457  0.1512
 6524SOL     OW31030   3.076   0.471   2.705  0.1525  0.0695 -0.3096
 6524SOL    HW131031   3.032   0.438   2.783  2.4242 -0.2434  0.8371
 6524SOL    HW231032   3.051   0.563   2.702 -0.2183  0.0741  3.5628
 6525SOL     OW31033   2.580   0.933   4.782 -0.5280  0.3453  0.4007
 6525SOL    HW131034   2.648   0.910   4.720 -0.1551 -0.1951  1.0155
 6525SOL    HW231035   2.561   0.849   4.823 -0.5234  0.6050  0.9405
 6526SOL     OW31036   4.026   0.211   1.425 -0.0349  0.1770 -0.1527
 6526SOL    HW131037   3.965   0.178   1.359  1.9076 -2.0028 -0.8747
 6526SOL    HW231038   3.967   0.256   1.486 -3.5468 -1.5975 -2.2193
 6527SOL     OW31039   2.214   1.235   5.166 -0.1899 -0.1120  0.2356
 6527SOL    HW131040   2.214   1.222   5.071  2.7664  1.2538  0.0577
 6527SOL    HW231041   2.274   1.167   5.196 -0.3372  0.2555  1.3431
 6528SOL     OW31042   2.986   1.768   4.491 -0.1453 -0.3346 -0.2615
 6528SOL    HW131043   2.908   1.823   4.496 -0.2322 -0.5212  0.4469
 6528SOL    HW231044   3.057   1.829   4.514 -0.1662 -0.5724  0.4398
 6529SOL     OW31045   4.225   0.394   5.572 -0.3298  0.9822  0.1316
 6529SOL    HW131046   4.292   0.348   5.622 -2.2517  0.5763  2.3362
 6529SOL    HW231047   4.248   0.481   5.603 -3.1805  2.7524 -2.6158
 6530SOL     OW31048   0.449   1.251   1.324  0.4176 -0.3506 -0.1409
 6530SOL    HW131049   0.393   1.194   1.377 -1.9243  1.6144 -0.5005
 6530SOL    HW231050   0.537   1.232   1.359  1.3357  2.9377 -0.6473
 6531SOL     OW31051   0.783   1.363   1.279  0.2495 -0.1510 -0.4636
 6531SOL    HW131052   0.720   1.352   1.351 -1.2426  1.1901 -1.5661
 6531SOL    HW231053   0.807   1.454   1.294 -0.8474  0.0570  0.0764
 6532SOL     OW31054   4.492   4.581   7.681  0.4269 -0.2260 -0.1830
 6532SOL    HW131055   4.409   4.557   7.641  1.3405 -1.3952 -1.3854
 6532SOL    HW231056   4.553   4.541   7.619  2.4230 -0.3483  1.8443
 6533SOL     OW31057   0.397   3.091   1.431  0.1375  0.1359 -0.1395
 6533SOL    HW131058   0.446   3.069   1.353 -0.8153 -0.0217 -0.6975
 6533SOL    HW231059   0.470   3.075   1.490  0.3645  1.2184 -0.1196
 6534SOL     OW31060   1.063   2.757   5.457 -0.2648 -0.0530 -0.2745
 6534SOL    HW131061   1.097   2.689   5.515 -0.7614  0.2713  0.3956
 6534SOL    HW231062   1.026   2.818   5.521  0.6806 -1.6266  1.7599
 6535SOL     OW31063   2.807   1.034   5.979  0.4563  0.2370  0.0449
 6535SOL    HW131064   2.897   1.066   5.981  0.4642  0.2575 -0.9043
 6535SOL    HW231065   2.826   0.941   5.967  1.7737  0.6171 -0.8185
 6536SOL     OW31066   4.158   4.517  13.712  0.0981  0.1602  0.5868
 6536SOL    HW131067   4.135   4.572  13.787  0.4346  0.2468  0.6266
 6536SOL    HW231068   4.167   4.590  13.650 -1.9093  0.3422  0.5069
 6537SOL     OW31069   2.330   4.022   2.835 -0.0399 -0.0147  0.1744
 6537SOL    HW131070   2.265   3.997   2.901  0.7304 -3.8129 -0.4739
 6537SOL    HW231071   2.284   4.094   2.792  1.0392  0.5915  0.0220
 6538SOL     OW31072   2.286   0.057   5.632 -0.2527 -0.3819  0.2250
 6538SOL    HW131073   2.274   4.685   5.629 -1.9365 -0.2127  1.5404
 6538SOL    HW231074   2.284   0.077   5.538 -1.4599  0.6053  0.4649
 6539SOL     OW31075   3.473   0.022   1.301 -0.4631 -0.1424  0.1479
 6539SOL    HW131076   3.538   4.673   1.304 -2.6254 -2.1440 -0.9165
 6539SOL    HW231077   3.414   4.697   1.242 -2.2518  2.0446  0.1927
 6540SOL     OW31078   4.333   4.359   8.379  0.1772  0.3961  0.2953
 6540SOL    HW131079   4.302   4.398   8.297  0.7273 -1.7882 -0.9624
 6540SOL    HW231080   4.294   4.272   8.373  2.1259 -0.4833  0.2006
 6541SOL     OW31081   3.519   3.469   4.806 -0.1979 -0.1690  0.0292
 6541SOL    HW131082   3.592   3.441   4.750 -2.3056 -2.1818 -1.7065
 6541SOL    HW231083   3.561   3.475   4.892 -2.5862  2.1991  1.0260
 6542SOL     OW31084   1.303   2.599   2.442  0.0452  0.2003 -0.4255
 6542SOL    HW131085   1.314   2.519   2.391  0.6316 -0.0643  0.1172
 6542SOL    HW231086   1.310   2.557   2.528  1.8720  0.3931 -0.4725
 6543SOL     OW31087   3.865   0.963   9.082 -0.0279  0.0438 -0.1255
 6543SOL    HW131088   3.781   0.938   9.121 -0.5048  0.7331 -0.7294
 6543SOL    HW231089   3.931   0.945   9.149  0.9162  2.4488 -0.4101
 6544SOL     OW31090   2.237   3.470  11.001  0.1188  0.1478 -0.5116
 6544SOL    HW131091   2.331   3.476  11.017  0.3443  0.6410 -2.0433
 6544SOL    HW231092   2.229   3.380  10.968 -1.9392  0.0104  0.3544
 6545SOL     OW31093   3.706   2.324   1.874  0.3249  0.2348  0.1407
 6545SOL    HW131094   3.738   2.399   1.925 -0.4215  0.9689 -0.4567
 6545SOL    HW231095   3.668   2.366   1.796 -0.6621  1.2494  1.1806
 6546SOL     OW31096   4.473   0.290   6.193  0.5889  0.2832 -0.9506
 6546SOL    HW131097   4.477   0.217   6.132 -1.7013 -0.7949  0.2147
 6546SOL    HW231098   4.497   0.254   6.278 -0.9333  1.9792  0.1966
 6547SOL     OW31099   1.563   2.147   6.534  0.6258 -0.0153 -0.6428
 6547SOL    HW131100   1.552   2.087   6.608  1.3519  0.1412 -0.4003
 6547SOL    HW231101   1.495   2.214   6.535  0.1995 -0.5328  2.6955
 6548SOL     OW31102   0.573   4.590   9.371  0.0038 -0.1053 -0.1405
 6548SOL    HW131103   0.515   4.617   9.442 -0.5039 -3.5178  0.7084
 6548SOL    HW231104   0.528   4.512   9.341  2.8573 -1.3343 -1.2570
 6549SOL     OW31105   0.014   2.119  16.454  0.3749 -0.6865  0.2885
 6549SOL    HW131106   0.007   2.040  16.401 -0.6824 -0.9156  0.7568
 6549SOL    HW231107   0.105   2.114  16.482  0.3494  0.0311  0.5035
 6550SOL     OW31108   3.573   4.402   7.042 -0.1487 -0.5217 -0.3192
 6550SOL    HW131109   3.518   4.334   7.080  0.5897 -0.8779  0.1093
 6550SOL    HW231110   3.660   4.388   7.080 -0.4577 -1.0633  0.1815
 6551SOL     OW31111   4.453   1.206   8.592  0.0194 -0.0158  0.1516
 6551SOL    HW131112   4.417   1.278   8.644  2.2888  1.4006 -0.2520
 6551SOL    HW231113   4.543   1.231   8.569 -0.3325  1.6378  0.5573
 6552SOL     OW31114   0.223   3.588   4.797 -0.6980  0.4252  0.1399
 6552SOL    HW131115   0.317   3.582   4.817 -1.0787 -1.4442  1.3565
 6552SOL    HW231116   0.218   3.679   4.766  1.9212  1.4851  2.8359
 6553SOL     OW31117   2.666   0.771  13.144  0.0133 -0.0751  0.1576
 6553SOL    HW131118   2.629   0.792  13.059  2.0084  0.0425 -0.6829
 6553SOL    HW231119   2.759   0.760  13.125  0.2855 -1.8344  2.4760
 6554SOL     OW31120   2.453   2.006   2.498 -0.1681  0.2093  0.4950
 6554SOL    HW131121   2.455   2.061   2.419  2.1571 -1.0487 -0.3222
 6554SOL    HW231122   2.548   1.997   2.503 -0.0229  1.5400  0.3428
 6555SOL     OW31123   4.655   2.122   9.167 -0.7906  0.5638 -0.5028
 6555SOL    HW131124   4.642   2.215   9.146  1.4581  0.1423 -3.7676
 6555SOL    HW231125   4.710   2.108   9.090 -2.6035 -2.7970 -1.1728
 6556SOL     OW31126   3.313   1.962   4.115  0.1426 -0.5977  0.7801
 6556SOL    HW131127   3.283   1.999   4.198  1.9892 -0.4913  1.3813
 6556SOL    HW231128   3.388   2.018   4.096  2.2992 -3.2344  1.6088
 6557SOL     OW31129   0.042   1.486  11.548  0.0161 -0.4549  0.5077
 6557SOL    HW131130   0.063   1.497  11.640 -2.2658 -0.6110  1.0302
 6557SOL    HW231131   0.122   1.518  11.506 -1.7487  1.6088 -1.2538
 6558SOL     OW31132   3.112   0.396   1.019 -0.5224  0.0759  0.4619
 6558SOL    HW131133   3.165   0.469   1.052 -3.5705  2.3699  0.2646
 6558SOL    HW231134   3.177   0.327   1.029 -1.0544 -0.8447 -2.3942
 6559SOL     OW31135   0.913   4.141   1.791 -0.2737 -0.4854  0.0321
 6559SOL    HW131136   0.998   4.136   1.748  0.0140  0.6880  0.4649
 6559SOL    HW231137   0.910   4.223   1.839 -3.5193 -0.7181  0.2490
 6560SOL     OW31138   4.303   4.635   3.441  0.2555 -0.5348 -0.1077
 6560SOL    HW131139   4.254   4.553   3.451 -0.7351  0.0041 -0.5296
 6560SOL    HW231140   4.358   4.618   3.365  0.0638 -0.2642 -0.3071
 6561SOL     OW31141   2.594   4.034  17.496  0.2475 -0.5754  0.8454
 6561SOL    HW131142   2.554   4.118  17.516 -0.2999 -1.3339  2.9467
 6561SOL    HW231143   2.620   4.043  17.404 -2.0263 -0.3259  0.2126
 6562SOL     OW31144   0.124   3.002  11.103  0.0812 -0.2588  0.1693
 6562SOL    HW131145   0.137   3.079  11.048  2.2405 -0.1377  0.8675
 6562SOL    HW231146   0.215   2.991  11.130  0.0554  1.4922  0.9663
 6563SOL     OW31147   2.887   4.612  16.156  0.4657  0.3135  0.6088
 6563SOL    HW131148   2.932   4.541  16.110 -1.9027 -0.9061  0.1492
 6563SOL    HW231149   2.961   4.664  16.185  0.4047  1.4631 -1.3391
 6564SOL     OW31150   1.556   0.269   2.399 -0.0587 -0.2031  0.1204
 6564SOL    HW131151   1.563   0.222   2.316  0.9742  1.3876 -0.6945
 6564SOL    HW231152   1.622   0.220   2.448 -2.1694 -1.6894  1.4673
 6565SOL     OW31153   2.003   0.298   5.389 -0.2256  0.2714  0.9279
 6565SOL    HW131154   2.026   0.391   5.385 -0.7494  0.4090  1.2608
 6565SOL    HW231155   1.909   0.298   5.402 -0.3118 -0.5438  0.2671
 6566SOL     OW31156   0.943   0.700   8.884  0.7694  0.2048 -0.1011
 6566SOL    HW131157   0.867   0.691   8.826  1.1259  0.3553 -0.5884
 6566SOL    HW231158   0.930   0.609   8.910  1.8898 -0.0754 -0.5241
 6567SOL     OW31159   2.233   2.249   8.750 -0.1454 -0.1518 -0.0561
 6567SOL    HW131160   2.175   2.324   8.736 -1.1707 -1.4415 -2.8519
 6567SOL    HW231161   2.289   2.256   8.672 -0.3317 -2.1440 -0.3788
 6568SOL     OW31162   3.788   2.153   7.832  0.6199  0.3551 -0.6853
 6568SOL    HW131163   3.726   2.086   7.804 -0.3865  1.7718 -1.8818
 6568SOL    HW231164   3.872   2.108   7.825  0.0948 -0.5685 -0.9941
 6569SOL     OW31165   4.617   2.006  10.213 -0.6446 -0.2739 -0.5138
 6569SOL    HW131166   4.711   1.998  10.198 -0.6242  0.7323 -0.9147
 6569SOL    HW231167   4.603   2.101  10.208  2.5010  0.1742 -0.8224
 6570SOL     OW31168   0.693   1.233   2.471 -0.1089  0.0801 -0.0075
 6570SOL    HW131169   0.749   1.289   2.418  0.1312 -1.9130 -1.8153
 6570SOL    HW231170   0.617   1.291   2.471 -0.0353  0.1870  1.7980
 6571SOL     OW31171   3.384   0.593  15.801  0.3025  0.1743 -0.0291
 6571SOL    HW131172   3.418   0.680  15.781 -2.1200  1.6182  2.1875
 6571SOL    HW231173   3.290   0.609  15.808  0.0713 -0.2212 -2.0511
 6572SOL     OW31174   2.554   1.187   2.951  0.5832  0.1234  0.1871
 6572SOL    HW131175   2.520   1.173   3.039  0.1056 -0.2898 -0.0671
 6572SOL    HW231176   2.646   1.165   2.966  0.3057 -0.2578  1.2660
 6573SOL     OW31177   2.505   0.376  17.253  0.0012  0.0101  0.1614
 6573SOL    HW131178   2.423   0.423  17.237  0.3279  0.8153  0.8331
 6573SOL    HW231179   2.508   0.397  17.347  1.9846 -0.5678  0.2096
 6574SOL     OW31180   0.429   1.359   2.695 -0.1665  0.1011 -0.1623
 6574SOL    HW131181   0.448   1.322   2.782  1.9468 -0.5039 -0.8813
 6574SOL    HW231182   0.345   1.401   2.713  0.0806 -0.0500  1.3654
 6575SOL     OW31183   0.235   2.565   0.677  0.4645 -0.4351 -0.2560
 6575SOL    HW131184   0.189   2.530   0.753  0.5414  2.1077  0.9691
 6575SOL    HW231185   0.239   2.656   0.705  0.4664 -0.0907 -1.3966
 6576SOL     OW31186   0.396   2.235   7.413  0.3245  0.4582 -0.6771
 6576SOL    HW131187   0.483   2.248   7.374  0.0856  1.3895 -0.9078
 6576SOL    HW231188   0.393   2.286   7.494  2.5888  0.8859 -0.8586
 6577SOL     OW31189   0.405   4.152   7.479 -0.6163  0.5826  0.1276
 6577SOL    HW131190   0.318   4.177   7.510 -1.7343 -0.8889 -1.7617
 6577SOL    HW231191   0.369   4.103   7.405  0.6739 -0.6906  0.3455
 6578SOL     OW31192   0.117   3.974   3.235 -0.2898  0.0060  0.4954
 6578SOL    HW131193   0.175   4.042   3.268 -0.2421 -0.6766  1.8311
 6578SOL    HW231194   0.053   4.017   3.178  0.6133  1.8313  0.8578
 6579SOL     OW31195   4.302   2.498   4.315 -0.1551 -0.2022 -0.1049
 6579SOL    HW131196   4.295   2.536   4.227 -5.7316  0.7178  0.6968
 6579SOL    HW231197   4.313   2.404   4.302 -0.3108 -0.3278  0.7147
 6580SOL     OW31198   3.054   1.063  16.612  0.0522 -0.1268  0.0049
 6580SOL    HW131199   3.046   1.143  16.559 -3.7987 -1.4700 -1.4119
 6580SOL    HW231200   3.093   1.094  16.694  1.4241  2.3534 -1.5482
 6581SOL     OW31201   2.265   3.742   7.018  0.4304 -0.3855 -0.2901
 6581SOL    HW131202   2.317   3.764   7.095 -1.8502  1.7685  0.6339
 6581SOL    HW231203   2.212   3.672   7.058 -0.8385 -0.6106 -2.3498
 6582SOL     OW31204   4.383   4.628  14.197 -0.0851  0.1034 -0.4251
 6582SOL    HW131205   4.360   4.720  14.186 -1.5674 -0.1471  0.5704
 6582SOL    HW231206   4.477   4.631  14.217 -0.0005 -2.0721 -0.4708
 6583SOL     OW31207   2.922   0.817   5.498 -0.3334 -0.7306  0.0904
 6583SOL    HW131208   2.905   0.910   5.482  1.7842 -0.4802 -0.7551
 6583SOL    HW231209   3.010   0.812   5.535  0.1188  2.2370 -0.5428
 6584SOL     OW31210   3.492   4.338   0.545  0.1009  0.0765 -0.4457
 6584SOL    HW131211   3.472   4.315   0.454  2.1845 -1.2290 -0.5593
 6584SOL    HW231212   3.558   4.404   0.526  0.0186  0.5934  1.0915
 6585SOL     OW31213   2.622   2.446   6.651 -0.1406  0.1713 -0.2856
 6585SOL    HW131214   2.592   2.427   6.740  0.3847 -0.6267 -0.2777
 6585SOL    HW231215   2.670   2.528   6.646  3.0239 -1.6764  0.1028
 6586SOL     OW31216   2.182   1.118   6.097  0.4143 -0.5909 -0.1045
 6586SOL    HW131217   2.273   1.107   6.068  0.3197  0.7486 -0.8839
 6586SOL    HW231218   2.127   1.063   6.041 -0.8737 -0.8684  1.4339
 6587SOL     OW31219   1.144   2.165  14.085  0.6293  0.3221 -0.0770
 6587SOL    HW131220   1.117   2.245  14.040 -0.2499 -0.5903 -1.2146
 6587SOL    HW231221   1.195   2.192  14.161 -2.4285 -1.2824  2.5555
 6588SOL     OW31222   1.103   1.117   6.219 -0.9835 -0.3389 -0.3198
 6588SOL    HW131223   1.183   1.169   6.212  1.0879 -2.8937  4.6567
 6588SOL    HW231224   1.139   1.032   6.191 -0.0303 -0.4448  1.2271
 6589SOL     OW31225   3.316   0.482   4.115  0.4255 -0.0222  0.2725
 6589SOL    HW131226   3.293   0.418   4.048  1.2667 -0.7796  0.7082
 6589SOL    HW231227   3.271   0.446   4.192  0.0116 -1.6155 -0.7141
 6590SOL     OW31228   0.449   2.490   6.409 -0.1524  0.0417 -0.1404
 6590SOL    HW131229   0.447   2.477   6.504 -1.0953 -1.2453 -0.3349
 6590SOL    HW231230   0.482   2.579   6.404  1.0834 -0.4620 -0.8617
 6591SOL     OW31231   3.596   1.599   7.858 -0.2889  0.3404  0.0837
 6591SOL    HW131232   3.673   1.630   7.905  0.0058 -1.1264  0.5598
 6591SOL    HW231233   3.539   1.672   7.881 -3.1752 -1.6587 -0.6027
 6592SOL     OW31234   3.889   2.979   1.900  0.2244  0.6813  0.0014
 6592SOL    HW131235   3.969   2.932   1.876 -1.9325 -3.5306  1.2434
 6592SOL    HW231236   3.932   3.058   1.933 -1.1178  0.8101  1.4018
 6593SOL     OW31237   0.337   3.036   2.249  0.5292  0.2792 -0.0504
 6593SOL    HW131238   0.358   3.085   2.170 -0.2978 -1.0652 -1.1050
 6593SOL    HW231239   0.386   3.094   2.308 -1.7434  1.6564  0.4541
 6594SOL     OW31240   0.289   3.818   6.396  0.4200  0.4904  0.6612
 6594SOL    HW131241   0.307   3.828   6.302 -1.0919 -1.9297  0.1172
 6594SOL    HW231242   0.241   3.735   6.396  0.4378  0.4671 -3.1023
 6595SOL     OW31243   2.365   2.514   1.382  0.3645 -0.4207 -0.1674
 6595SOL    HW131244   2.328   2.427   1.395 -0.8256 -0.1818 -1.9286
 6595SOL    HW231245   2.377   2.519   1.287  1.7099  3.5611  0.2131
 6596SOL     OW31246   4.122   0.001  13.135  0.1625  0.0013  0.2589
 6596SOL    HW131247   4.137   0.044  13.050 -0.2191 -0.4912 -0.0583
 6596SOL    HW231248   4.184   0.035  13.199  0.4473 -0.4696  0.2358
 6597SOL     OW31249   1.815   3.388   9.968 -0.4848  0.1822  0.2480
 6597SOL    HW131250   1.828   3.478   9.938 -2.5630  1.0688  1.9668
 6597SOL    HW231251   1.903   3.364   9.996 -0.7373 -1.0894 -0.0357
 6598SOL     OW31252   3.358   1.036   3.105 -0.3949  0.2459  0.1171
 6598SOL    HW131253   3.313   1.120   3.114 -2.0296 -0.4946 -1.1789
 6598SOL    HW231254   3.353   0.996   3.192 -0.1968 -1.3648 -0.6258
 6599SOL     OW31255   2.438   3.956   6.182  0.0835 -0.4545 -0.0427
 6599SOL    HW131256   2.488   3.934   6.261  1.2565 -0.8901 -0.9030
 6599SOL    HW231257   2.499   4.017   6.142 -0.1289  0.5212  1.1098
 6600SOL     OW31258   1.147   0.742   7.197 -0.2242 -0.6553 -0.3623
 6600SOL    HW131259   1.165   0.792   7.118 -0.4274  2.2525  1.4169
 6600SOL    HW231260   1.218   0.770   7.254  0.6315 -0.2135 -1.6509
 6601SOL     OW31261   3.621   2.101   5.864 -0.2914 -0.0827 -0.1757
 6601SOL    HW131262   3.546   2.140   5.818 -1.3709 -1.3520  0.5050
 6601SOL    HW231263   3.693   2.157   5.836  1.0919 -2.3182 -1.0960
 6602SOL     OW31264   1.873   2.860  13.252 -0.0667  0.3742 -0.0289
 6602SOL    HW131265   1.853   2.782  13.304 -0.3056  0.9756  0.7946
 6602SOL    HW231266   1.879   2.926  13.322  2.0291 -2.8536  2.8000
 6603SOL     OW31267   3.053   2.896   4.815  0.0016 -0.0187 -0.3511
 6603SOL    HW131268   3.063   2.817   4.866  1.6976  0.5658  0.2206
 6603SOL    HW231269   2.988   2.946   4.865  1.0549  0.9468  0.0601
 6604SOL     OW31270   0.973   1.197   5.866 -0.0578  0.2290  0.0482
 6604SOL    HW131271   0.959   1.113   5.910  2.1048  0.4468  1.1397
 6604SOL    HW231272   1.031   1.231   5.934 -0.0901 -3.1758  1.7971
 6605SOL     OW31273   3.871   1.049   6.192  0.3052 -0.1444 -0.6354
 6605SOL    HW131274   3.930   1.068   6.266  0.2422  1.7321 -1.0793
 6605SOL    HW231275   3.789   1.089   6.223  0.7288  1.2061 -1.2690
 6606SOL     OW31276   4.432   1.980   2.273 -0.0750  0.2803  0.4526
 6606SOL    HW131277   4.385   1.964   2.191  1.4024 -0.2894 -0.2928
 6606SOL    HW231278   4.431   2.076   2.278 -1.0779  0.3603 -1.0780
 6607SOL     OW31279   0.353   4.064   0.410 -0.0479 -0.0297 -0.1658
 6607SOL    HW131280   0.322   4.134   0.352  0.7579 -0.6593 -1.3677
 6607SOL    HW231281   0.416   4.108   0.466 -2.9556  1.6029  1.8200
 6608SOL     OW31282   4.533   0.371   7.230  0.5271 -0.0325  0.4993
 6608SOL    HW131283   4.568   0.385   7.142  0.9776 -1.5126  0.4422
 6608SOL    HW231284   4.521   0.460   7.263 -0.0134 -0.0056  0.2157
 6609SOL     OW31285   3.282   1.959   6.587  0.2369 -0.1827 -0.1259
 6609SOL    HW131286   3.206   1.908   6.559  0.6766 -1.0477  0.2394
 6609SOL    HW231287   3.356   1.911   6.549 -0.5734  0.0546 -1.9836
 6610SOL     OW31288   1.506   0.663   7.135 -0.4834 -0.4822  0.4253
 6610SOL    HW131289   1.501   0.575   7.170 -1.3360 -1.4251 -2.0813
 6610SOL    HW231290   1.471   0.655   7.046 -0.5837  0.9775  0.3297
 6611SOL     OW31291   1.146   3.277   3.415 -0.1072 -0.2456  0.0154
 6611SOL    HW131292   1.200   3.295   3.338  1.1294 -1.9067  0.4974
 6611SOL    HW231293   1.183   3.346   3.470 -0.8409 -1.4481  2.0097
 6612SOL     OW31294   0.073   0.924   6.857  0.0983 -0.2852 -0.1323
 6612SOL    HW131295   0.058   0.840   6.901  0.7964  0.1864  1.0113
 6612SOL    HW231296   0.144   0.958   6.912  1.3228 -3.3918  0.2142
 6613SOL     OW31297   1.130   2.510   6.674  0.0711 -0.1364  0.1575
 6613SOL    HW131298   1.150   2.597   6.638 -0.8851 -0.2294 -0.5922
 6613SOL    HW231299   1.220   2.488   6.697  0.5594 -0.5443 -2.1120
 6614SOL     OW31300   2.006   1.556  13.972  0.1546 -0.3005 -0.6828
 6614SOL    HW131301   2.073   1.523  14.032 -0.0081 -0.1301 -0.4103
 6614SOL    HW231302   2.006   1.650  13.992  0.9357 -1.2053  3.6338
 6615SOL     OW31303   2.022   3.454   4.368 -0.0022  0.3111  0.4169
 6615SOL    HW131304   1.982   3.388   4.425  1.2577  0.7607  1.7810
 6615SOL    HW231305   1.945   3.484   4.318  0.0337 -2.7372 -1.4906
 6616SOL     OW31306   1.110   3.045   6.362 -0.0559  0.1493  0.6941
 6616SOL    HW131307   1.035   3.001   6.403 -0.8609  0.0999 -0.8226
 6616SOL    HW231308   1.111   3.120   6.421 -5.9749  1.0539 -0.2995
 6617SOL     OW31309   3.601   2.976  10.043  0.0947 -0.2946  0.3152
 6617SOL    HW131310   3.570   2.988   9.953  3.1896 -0.0431 -0.7354
 6617SOL    HW231311   3.696   2.963  10.042 -0.0798 -1.4583 -1.4166
 6618SOL     OW31312   2.814   1.288   9.127  0.1584  0.0545  0.2006
 6618SOL    HW131313   2.903   1.312   9.152 -0.1630  0.7086  0.7098
 6618SOL    HW231314   2.833   1.219   9.064  1.6630  0.7154 -0.0627
 6619SOL     OW31315   3.727   2.011   8.682  0.0926 -0.2518 -0.1276
 6619SOL    HW131316   3.697   1.938   8.629  0.4002 -1.4478  1.3797
 6619SOL    HW231317   3.656   2.071   8.661  1.1360  0.2281 -2.3302
 6620SOL     OW31318   3.477   1.442   2.993 -0.2517 -0.0545  0.3370
 6620SOL    HW131319   3.381   1.444   3.000 -0.3800 -0.5088 -1.2746
 6620SOL    HW231320   3.481   1.392   2.912 -0.6693  1.5302 -0.6418
 6621SOL     OW31321   3.454   3.712  15.477  0.1796 -0.8392 -0.6059
 6621SOL    HW131322   3.367   3.674  15.484 -1.0014  1.8456 -0.9916
 6621SOL    HW231323   3.471   3.710  15.383  2.5692 -0.8764 -0.1950
 6622SOL     OW31324   1.014   1.455   8.424  0.4338  0.3966 -0.3119
 6622SOL    HW131325   1.056   1.501   8.351 -1.1123  1.5615 -0.4738
 6622SOL    HW231326   0.939   1.428   8.371  0.2070 -0.0566  0.2364
 6623SOL     OW31327   4.494   1.022   6.944  0.2805 -0.2395 -0.1054
 6623SOL    HW131328   4.574   1.056   6.983 -0.0326  0.6200 -0.2214
 6623SOL    HW231329   4.436   1.011   7.020  0.7071 -0.0112  0.2515
 6624SOL     OW31330   1.288   3.834   8.086 -0.1720  0.3202 -0.0240
 6624SOL    HW131331   1.278   3.912   8.031 -1.6349 -0.0372 -0.2701
 6624SOL    HW231332   1.205   3.857   8.128  0.5642 -1.4684  2.4147
 6625SOL     OW31333   4.628   1.168  14.772 -0.2727 -0.2200  0.4527
 6625SOL    HW131334   4.693   1.190  14.838 -0.5028 -1.6081  1.1512
 6625SOL    HW231335   4.608   1.255  14.739 -0.8962 -0.1427  1.0272
 6626SOL     OW31336   4.105   1.716   3.755 -0.3621  0.3876  0.1468
 6626SOL    HW131337   4.188   1.763   3.744 -0.3845  0.6438  1.0235
 6626SOL    HW231338   4.102   1.705   3.850 -0.0293  0.5315  0.1736
 6627SOL     OW31339   0.271   0.415   7.980 -0.6197  0.4009  0.1580
 6627SOL    HW131340   0.176   0.416   7.995 -0.1535  1.6302  2.9408
 6627SOL    HW231341   0.285   0.321   7.970 -1.8164  0.4317 -1.8650
 6628SOL     OW31342   1.340   4.045   5.945  0.4589 -0.9176  0.6779
 6628SOL    HW131343   1.258   4.043   5.895  0.8766 -0.4603 -0.0362
 6628SOL    HW231344   1.341   4.137   5.971 -0.6413 -0.8013  0.3348
 6629SOL     OW31345   0.830   1.674  14.322  0.3290 -0.6493  0.1603
 6629SOL    HW131346   0.893   1.603  14.337  0.6513 -0.1560  1.1465
 6629SOL    HW231347   0.750   1.624  14.339 -0.5729  1.1507  1.1222
 6630SOL     OW31348   4.622   3.216   3.028 -0.1481  0.4785  0.5341
 6630SOL    HW131349   4.681   3.286   3.056  1.2878 -1.1770  1.6034
 6630SOL    HW231350   4.626   3.229   2.933  0.7264 -0.0679  0.4946
 6631SOL     OW31351   4.375   4.676   3.697 -0.1110  0.7150 -0.1938
 6631SOL    HW131352   4.330   4.648   3.617 -0.0344 -0.1394  0.0631
 6631SOL    HW231353   4.334   0.039   3.711  0.7473  0.8994  1.1670
 6632SOL     OW31354   1.514   3.998   9.548  0.0187  0.3458  0.1871
 6632SOL    HW131355   1.435   4.042   9.518  0.4555 -1.0091 -3.0319
 6632SOL    HW231356   1.538   3.971   9.459 -0.7601  0.5024 -0.0722
 6633SOL     OW31357   4.123   2.813   6.932  0.2315 -0.0762 -0.2549
 6633SOL    HW131358   4.158   2.880   6.991 -0.6633  0.9698 -0.9094
 6633SOL    HW231359   4.141   2.745   6.997  1.7815  1.1768  0.6470
 6634SOL     OW31360   1.668   0.372   3.919 -0.0171  0.3841 -0.5992
 6634SOL    HW131361   1.687   0.286   3.956  0.3505  0.4282 -0.6847
 6634SOL    HW231362   1.593   0.358   3.861 -1.7629 -1.8505  2.2416
 6635SOL     OW31363   3.628   0.354   8.397 -0.2946 -0.1501  0.3537
 6635SOL    HW131364   3.689   0.346   8.323  1.4035 -0.9741  1.8351
 6635SOL    HW231365   3.585   0.436   8.374  1.2373  0.5568 -0.0303
 6636SOL     OW31366   1.770   2.349   5.367 -0.2686 -1.0763  0.0635
 6636SOL    HW131367   1.680   2.338   5.338  0.5672  0.7998 -3.2093
 6636SOL    HW231368   1.762   2.391   5.453 -0.9848  1.5136 -1.2642
 6637SOL     OW31369   2.684   3.434  10.651  0.1933 -0.4984 -0.2388
 6637SOL    HW131370   2.633   3.502  10.696 -0.2107 -0.9616  0.0087
 6637SOL    HW231371   2.702   3.484  10.571 -0.9527  0.9470  0.4105
 6638SOL     OW31372   1.632   1.266   2.439  0.3313  0.3880 -0.1014
 6638SOL    HW131373   1.697   1.283   2.508  1.7977  0.3402 -1.4699
 6638SOL    HW231374   1.554   1.298   2.486  0.4576  0.5116  0.0257
 6639SOL     OW31375   3.070   2.874   8.059 -0.3724  0.1962  0.2483
 6639SOL    HW131376   3.126   2.915   8.124 -0.2629  0.0764  0.2300
 6639SOL    HW231377   3.029   2.802   8.108  1.1631 -1.1643 -0.4605
 6640SOL     OW31378   1.575   0.594   2.633 -0.1608 -0.1017  0.2347
 6640SOL    HW131379   1.587   0.687   2.612  1.2672 -0.5549 -0.9692
 6640SOL    HW231380   1.547   0.567   2.545  2.5779  1.6555 -1.1807
 6641SOL     OW31381   2.215   2.710  10.092 -0.9071  0.6191 -0.6562
 6641SOL    HW131382   2.278   2.757  10.145  1.0112 -0.6629 -1.7877
 6641SOL    HW231383   2.147   2.692  10.156  0.1233 -0.7745  0.0385
 6642SOL     OW31384   3.012   1.619   8.019  0.7884 -0.1635  0.2744
 6642SOL    HW131385   3.018   1.704   7.975  2.8369 -0.0810  0.7032
 6642SOL    HW231386   3.040   1.644   8.108  4.6441  0.6760 -1.1391
 6643SOL     OW31387   3.553   0.319  11.348 -0.2020  0.1867  0.1809
 6643SOL    HW131388   3.549   0.247  11.284 -2.9053  0.9199 -0.4502
 6643SOL    HW231389   3.614   0.281  11.412  0.1055 -0.5574 -0.5477
 6644SOL     OW31390   4.411   1.973   1.670 -0.0987  0.3833 -0.5388
 6644SOL    HW131391   4.462   1.921   1.608  2.0318  1.8867 -0.0186
 6644SOL    HW231392   4.486   2.015   1.713 -0.3664  1.6399 -1.3243
 6645SOL     OW31393   2.262   2.547   7.685 -0.1145 -0.2493  0.1107
 6645SOL    HW131394   2.351   2.520   7.706  0.1238 -0.7893 -1.5776
 6645SOL    HW231395   2.279   2.574   7.594 -0.2495 -1.5500 -0.2928
 6646SOL     OW31396   4.307   3.353   0.732 -0.1693  0.1013  0.5497
 6646SOL    HW131397   4.271   3.439   0.752  2.2606  0.8624  1.7075
 6646SOL    HW231398   4.398   3.366   0.759  0.0727 -1.2038  0.3499
 6647SOL     OW31399   0.389   3.757   4.578 -0.5971 -0.3345  0.3390
 6647SOL    HW131400   0.400   3.776   4.485  1.5338 -1.8218  0.2784
 6647SOL    HW231401   0.352   3.670   4.561 -3.0192  0.5022  1.2771
 6648SOL     OW31402   0.487   0.532   7.431 -0.1672 -0.6924  0.2187
 6648SOL    HW131403   0.405   0.581   7.427 -0.8612 -1.7213  1.6456
 6648SOL    HW231404   0.500   0.507   7.339  1.8650  1.5370 -0.1036
 6649SOL     OW31405   2.736   0.313   3.670 -0.5130 -0.5166  0.2068
 6649SOL    HW131406   2.704   0.248   3.732  0.6829 -0.9516  0.3721
 6649SOL    HW231407   2.685   0.393   3.686 -2.2087 -2.3734  4.2009
 6650SOL     OW31408   1.151   4.305   9.680 -0.3307  0.0580 -0.6929
 6650SOL    HW131409   1.176   4.381   9.627  2.6877  0.4208  1.2565
 6650SOL    HW231410   1.092   4.340   9.746  0.7392 -1.4129  1.0166
 6651SOL     OW31411   1.678   3.973   3.027  0.3822 -0.0309 -0.5088
 6651SOL    HW131412   1.688   3.910   3.098 -0.8152  0.3308 -0.0121
 6651SOL    HW231413   1.764   4.013   3.016  0.7145 -1.0938 -1.7521
 6652SOL     OW31414   0.437   4.255   2.496 -0.1303 -0.0816 -0.2004
 6652SOL    HW131415   0.485   4.198   2.557  0.3011  0.1527 -0.3210
 6652SOL    HW231416   0.502   4.324   2.506  2.4891 -2.5714  0.0057
 6653SOL     OW31417   4.402   2.606   2.501  0.3760  0.1830 -0.3957
 6653SOL    HW131418   4.354   2.553   2.438 -1.4822  1.7149 -0.2850
 6653SOL    HW231419   4.363   2.563   2.577 -1.6240  2.3014 -0.2140
 6654SOL     OW31420   2.193   1.041   4.556  0.6118  0.3258 -0.0697
 6654SOL    HW131421   2.132   1.089   4.499  0.5081  0.4475  0.1433
 6654SOL    HW231422   2.276   1.089   4.558  1.5625 -1.3912  1.4902
 6655SOL     OW31423   0.901   0.276  15.114  0.3247 -0.3196 -0.2289
 6655SOL    HW131424   0.981   0.297  15.066 -0.8505 -1.1861 -2.5951
 6655SOL    HW231425   0.916   0.201  15.173 -0.8505 -2.0645 -2.1492
 6656SOL     OW31426   2.748   0.080   7.155 -0.2432 -0.2907  0.0948
 6656SOL    HW131427   2.703   0.059   7.073 -1.3271 -0.2245  0.6705
 6656SOL    HW231428   2.838   0.056   7.133 -0.0382 -0.0223  0.6686
 6657SOL     OW31429   2.130   4.224  14.481 -0.0612 -0.7185  0.1741
 6657SOL    HW131430   2.141   4.288  14.550 -1.6713 -0.9168  0.6172
 6657SOL    HW231431   2.199   4.159  14.496 -0.3215 -1.2728 -0.9416
 6658SOL     OW31432   2.702   0.034  14.161  0.2218  0.5844 -0.3650
 6658SOL    HW131433   2.701   4.693  14.090 -0.2119 -1.3921  1.4080
 6658SOL    HW231434   2.724   4.706  14.240 -0.4738  1.7186  0.5610
 6659SOL     OW31435   4.009   0.884   8.635  0.4423 -0.3898 -0.2887
 6659SOL    HW131436   3.951   0.857   8.707 -0.8174 -0.8091 -1.4562
 6659SOL    HW231437   4.033   0.969   8.671  2.4669  0.2405 -3.2212
 6660SOL     OW31438   2.120   1.385   4.597 -0.0488 -0.0323  0.0194
 6660SOL    HW131439   2.173   1.408   4.520  0.3192  2.3116  0.9651
 6660SOL    HW231440   2.039   1.352   4.559 -0.1556  0.2804 -0.0309
 6661SOL     OW31441   0.465   4.501   7.095  0.6155  0.2480 -0.3578
 6661SOL    HW131442   0.543   4.447   7.077 -0.3910 -1.4423  0.3370
 6661SOL    HW231443   0.511   4.580   7.125 -0.4846  0.2769  1.2254
 6662SOL     OW31444   4.088   2.154   5.975  0.2616 -0.1408 -0.5288
 6662SOL    HW131445   4.144   2.228   5.948  0.9799 -0.5721 -0.2236
 6662SOL    HW231446   4.026   2.199   6.032  1.0475  1.3190 -0.8181
 6663SOL     OW31447   0.373   2.900   7.184  0.0205  0.1258  0.0749
 6663SOL    HW131448   0.393   2.991   7.206  1.5850 -0.0347 -0.6774
 6663SOL    HW231449   0.413   2.853   7.258  1.0413  0.4832 -0.2582
 6664SOL     OW31450   3.173   1.887  11.486 -0.3014  0.0574 -0.4149
 6664SOL    HW131451   3.150   1.799  11.457 -1.0560  0.6939 -1.7595
 6664SOL    HW231452   3.083   1.918  11.478 -0.8861 -1.6792 -0.4236
 6665SOL     OW31453   4.253   1.716   2.212 -0.9048 -0.2330 -0.5748
 6665SOL    HW131454   4.328   1.665   2.245  1.2983  2.1303 -1.8930
 6665SOL    HW231455   4.182   1.663   2.249 -0.8847 -0.1087 -0.3571
 6666SOL     OW31456   4.659   0.788   2.866  0.3468 -0.3675 -0.3769
 6666SOL    HW131457   4.577   0.810   2.822  1.4102  0.6413 -1.8468
 6666SOL    HW231458   4.714   0.859   2.832  1.6250 -1.1872 -0.0328
 6667SOL     OW31459   1.466   4.288  16.104  0.5699  0.0305  0.5511
 6667SOL    HW131460   1.453   4.197  16.131  0.5280  0.1347  0.8722
 6667SOL    HW231461   1.562   4.287  16.098  0.6112  2.9860  0.5748
 6668SOL     OW31462   4.062   3.892   7.272 -0.4529  0.3685 -0.5732
 6668SOL    HW131463   3.994   3.896   7.340  0.4890 -0.6768  0.4562
 6668SOL    HW231464   4.137   3.926   7.321 -0.5114 -2.3926  1.5193
 6669SOL     OW31465   4.129   0.994   4.770  0.7386 -0.0721  0.2282
 6669SOL    HW131466   4.120   0.919   4.828 -1.5215  0.6290  0.8130
 6669SOL    HW231467   4.177   0.950   4.700 -1.1120 -0.2647 -0.9259
 6670SOL     OW31468   0.865   0.945   4.416 -0.7113 -0.0971  0.1866
 6670SOL    HW131469   0.809   1.011   4.456 -1.5646 -0.5064 -0.3344
 6670SOL    HW231470   0.942   1.002   4.412  0.5745 -1.5069  3.9507
 6671SOL     OW31471   0.483   4.590  14.711 -0.5876 -0.5504 -0.3777
 6671SOL    HW131472   0.510   4.624  14.796 -0.0226  1.4785 -1.3623
 6671SOL    HW231473   0.522   4.502  14.714  0.2048 -0.2218 -1.0756
 6672SOL     OW31474   0.312   0.971   7.067  0.1829 -0.3622 -0.0188
 6672SOL    HW131475   0.231   1.005   7.106 -0.2240 -0.6191 -0.6445
 6672SOL    HW231476   0.376   1.016   7.122  1.0993 -1.4073 -0.2373
 6673SOL     OW31477   4.447   0.953   8.497 -0.2289  0.0066 -0.4282
 6673SOL    HW131478   4.434   1.045   8.521  0.8588  0.2415 -0.7653
 6673SOL    HW231479   4.386   0.901   8.550 -0.0657 -0.8865 -1.1100
 6674SOL     OW31480   3.475   0.546  12.412  0.7122 -0.0171  0.2623
 6674SOL    HW131481   3.471   0.624  12.357 -1.2546 -0.9109 -0.8695
 6674SOL    HW231482   3.444   0.565  12.500 -0.1058  0.4381 -0.1262
 6675SOL     OW31483   1.048   4.005   9.413  0.3691  0.2165  0.2384
 6675SOL    HW131484   0.954   3.995   9.398  0.3164  2.5254 -0.9476
 6675SOL    HW231485   1.079   4.091   9.385  0.8272 -0.0722 -0.1336
 6676SOL     OW31486   1.677   2.429   2.892 -0.0411 -0.2385 -0.5920
 6676SOL    HW131487   1.753   2.370   2.891 -0.4342 -0.7654  0.6688
 6676SOL    HW231488   1.616   2.389   2.953 -0.8139  1.4126 -0.3050
 6677SOL     OW31489   0.396   2.333  17.398 -0.3155  0.4532  0.2120
 6677SOL    HW131490   0.389   2.334  17.302  0.9677 -1.1180  0.1006
 6677SOL    HW231491   0.456   2.406  17.413 -0.8404  1.6399 -3.4003
 6678SOL     OW31492   3.806   1.604  17.146  0.1156 -0.2868 -0.5915
 6678SOL    HW131493   3.855   1.594  17.065  0.1669 -0.5057 -0.5331
 6678SOL    HW231494   3.714   1.614  17.121 -0.0183 -0.9357 -0.3383
 6679SOL     OW31495   1.865   4.085   1.217  0.0114  0.1939 -0.5296
 6679SOL    HW131496   1.887   4.061   1.127  0.5380 -0.0465 -0.3369
 6679SOL    HW231497   1.777   4.048   1.224  0.4615 -0.7691  0.0656
 6680SOL     OW31498   3.048   3.671   2.792 -0.8326 -0.2597  0.4620
 6680SOL    HW131499   3.084   3.588   2.761 -1.1318  0.4586 -1.7779
 6680SOL    HW231500   2.972   3.681   2.735 -1.1532  1.6723  1.2340
 6681SOL     OW31501   3.959   1.904   3.584  0.0352  0.1102 -0.4118
 6681SOL    HW131502   4.000   1.822   3.613  1.0112  0.3303 -1.1444
 6681SOL    HW231503   4.035   1.963   3.581  1.1558 -1.4468 -2.6915
 6682SOL     OW31504   3.102   0.070   7.192  0.1620  0.0408  0.0072
 6682SOL    HW131505   3.088   0.164   7.201 -2.0039 -0.1105 -1.8273
 6682SOL    HW231506   3.179   0.053   7.246 -0.4242 -1.9571  0.2292
 6683SOL     OW31507   2.194   2.454  13.383 -0.7828 -0.2511  0.5233
 6683SOL    HW131508   2.196   2.386  13.450 -0.5806 -1.5487 -0.8243
 6683SOL    HW231509   2.210   2.400  13.306  0.4692  0.0504  0.5745
 6684SOL     OW31510   0.095   2.352  12.365  0.1050  0.3772 -0.1770
 6684SOL    HW131511   0.028   2.290  12.339 -1.0955  1.0289  1.3595
 6684SOL    HW231512   0.075   2.425  12.306  2.2675  1.2656  0.1735
 6685SOL     OW31513   2.070   1.262  17.339  0.1371 -0.3922 -0.3171
 6685SOL    HW131514   2.119   1.184  17.365  0.0763 -0.2667  0.1705
 6685SOL    HW231515   2.108   1.328  17.398 -1.7594 -0.9981  1.5963
 6686SOL     OW31516   4.037   1.124   0.302 -0.0487 -0.0034 -0.6294
 6686SOL    HW131517   4.058   1.035   0.273  1.8745  0.4762 -0.7189
 6686SOL    HW231518   4.091   1.178   0.244 -0.3226  0.0013 -0.8817
 6687SOL     OW31519   1.335   0.367   2.898  0.1844  0.4646 -0.4762
 6687SOL    HW131520   1.269   0.432   2.920  0.9236  0.3297  2.1564
 6687SOL    HW231521   1.281   0.288   2.897  1.0275 -0.1259  0.5105
 6688SOL     OW31522   2.891   3.181   4.618  0.2179  0.2716  0.4230
 6688SOL    HW131523   2.878   3.094   4.580  0.3735 -0.0741  1.1741
 6688SOL    HW231524   2.987   3.177   4.627  0.2114 -0.3719  0.2161
 6689SOL     OW31525   2.567   3.716  13.740  0.3992 -0.2653 -0.3669
 6689SOL    HW131526   2.522   3.659  13.678  2.6094  1.0237 -3.1729
 6689SOL    HW231527   2.537   3.679  13.823  0.8775 -1.5834 -0.7823
 6690SOL     OW31528   2.088   3.835  17.484  0.0142  0.2548 -0.6206
 6690SOL    HW131529   2.107   3.864  17.573 -0.8469 -0.9928 -0.0366
 6690SOL    HW231530   2.170   3.842  17.435  0.4229  0.4928  0.1056
 6691SOL     OW31531   4.136   1.149  15.281  0.0465  0.1367 -0.2377
 6691SOL    HW131532   4.207   1.180  15.224  0.4459 -0.2011  0.0727
 6691SOL    HW231533   4.105   1.071  15.235  1.6067  0.3668 -1.6988
 6692SOL     OW31534   0.329   4.044   5.758  0.2622  0.3302 -0.2800
 6692SOL    HW131535   0.291   4.110   5.817 -0.2726  0.2093 -0.4915
 6692SOL    HW231536   0.265   4.031   5.689 -0.6037 -0.8904  0.7490
 6693SOL     OW31537   2.077   0.562   7.395  0.2730 -0.0263 -0.0725
 6693SOL    HW131538   2.166   0.579   7.427  0.4492  1.5082 -1.3720
 6693SOL    HW231539   2.038   0.512   7.466  1.4656 -1.5018 -0.4526
 6694SOL     OW31540   4.428   1.944   2.886 -0.1185 -0.3401  0.5188
 6694SOL    HW131541   4.457   2.021   2.934  1.0346 -1.0731  0.9954
 6694SOL    HW231542   4.350   1.925   2.937  0.1480  0.8630  1.3697
 6695SOL     OW31543   2.628   0.069  11.885 -0.3108 -0.8738  0.1001
 6695SOL    HW131544   2.635   4.701  11.856  1.4606 -0.9593  0.8537
 6695SOL    HW231545   2.663   0.117  11.809  0.7709 -0.6156  0.7658
 6696SOL     OW31546   4.045   0.391   2.593  0.1553 -0.3245 -0.0531
 6696SOL    HW131547   4.113   0.334   2.557 -0.6822 -0.7922 -0.9018
 6696SOL    HW231548   4.097   0.462   2.629  0.1774 -1.3484  1.9555
 6697SOL     OW31549   1.243   0.160   2.395 -0.3328  0.5430  0.6422
 6697SOL    HW131550   1.270   0.206   2.315  2.4379 -0.5672  0.9360
 6697SOL    HW231551   1.297   0.082   2.384  1.0152  1.5271  0.1619
 6698SOL     OW31552   1.377   1.115   3.643 -0.5061 -0.0543  0.5531
 6698SOL    HW131553   1.361   1.047   3.578  0.7206 -0.2435  0.4602
 6698SOL    HW231554   1.343   1.065   3.717 -0.7727  0.7771  0.9871
 6699SOL     OW31555   1.600   1.248   4.554 -0.1341  0.0894  0.1963
 6699SOL    HW131556   1.530   1.282   4.610  0.3646 -1.0242  1.5030
 6699SOL    HW231557   1.560   1.217   4.473 -1.5202 -0.5520  1.1319
 6700SOL     OW31558   0.282   0.509   1.214 -0.2099 -0.0106 -0.0896
 6700SOL    HW131559   0.209   0.528   1.156 -0.6926  1.9123  1.1543
 6700SOL    HW231560   0.243   0.440   1.269 -0.8376  0.0373 -0.4755
 6701SOL     OW31561   3.451   2.247   2.322 -0.1209 -0.2129  0.4848
 6701SOL    HW131562   3.511   2.301   2.271 -1.6430 -0.2501 -1.3231
 6701SOL    HW231563   3.364   2.265   2.288 -0.1271  1.1497  1.2322
 6702SOL     OW31564   0.376   0.421   8.552  0.1262 -0.3865 -0.7253
 6702SOL    HW131565   0.290   0.403   8.515 -0.6861  1.3668  0.3089
 6702SOL    HW231566   0.413   0.334   8.536 -0.1912 -0.6651  0.0269
 6703SOL     OW31567   4.281   2.866  15.636 -0.4828 -0.1557 -0.4350
 6703SOL    HW131568   4.193   2.901  15.623 -0.2487  0.4021 -0.5148
 6703SOL    HW231569   4.328   2.942  15.601 -0.1965  0.8179  2.0352
 6704SOL     OW31570   0.508   0.865   7.358  0.2325  0.3475 -0.4968
 6704SOL    HW131571   0.498   0.960   7.361  0.9047  0.3675  1.4598
 6704SOL    HW231572   0.536   0.860   7.267 -0.7517  0.7448 -0.8222
 6705SOL     OW31573   1.971   0.379  12.662  0.2393 -0.5837 -0.1334
 6705SOL    HW131574   1.896   0.354  12.715 -0.0873  0.8561  0.0862
 6705SOL    HW231575   1.968   0.474  12.674  2.6022 -0.1091 -3.2913
 6706SOL     OW31576   2.515   4.148   3.586 -0.8435  0.0930 -0.3612
 6706SOL    HW131577   2.552   4.220   3.637  0.5364 -1.6336  1.0655
 6706SOL    HW231578   2.511   4.082   3.656  3.3923  0.5918  0.3389
 6707SOL     OW31579   0.161   3.594   6.392 -0.2474  0.1343  0.8513
 6707SOL    HW131580   0.204   3.569   6.310 -2.3877  2.9735 -1.1183
 6707SOL    HW231581   0.121   3.509   6.410 -0.8814  0.4974  1.1700
 6708SOL     OW31582   1.882   4.625   3.454  0.3652  0.2557 -0.0821
 6708SOL    HW131583   1.928   4.701   3.420 -1.1335  1.2831  0.1940
 6708SOL    HW231584   1.949   4.556   3.452  1.0575  0.8883  1.3930
 6709SOL     OW31585   3.581   0.476   5.917  0.9109  0.3208 -0.1822
 6709SOL    HW131586   3.500   0.455   5.871  0.7335 -2.4226  1.3696
 6709SOL    HW231587   3.640   0.478   5.842  1.3454  0.7860  0.1704
 6710SOL     OW31588   2.172   1.188   9.865  0.2256 -0.2171  0.1653
 6710SOL    HW131589   2.120   1.253   9.912 -0.5729  0.1126 -1.1452
 6710SOL    HW231590   2.195   1.248   9.794  0.0850  2.3764  2.3460
 6711SOL     OW31591   4.335   1.172   3.632  0.3861 -0.9420  0.9256
 6711SOL    HW131592   4.381   1.126   3.561  0.6316  0.1255  0.3973
 6711SOL    HW231593   4.399   1.237   3.660 -0.7245  0.2294  0.7091
 6712SOL     OW31594   1.897   1.157   7.800  0.3361 -0.3653  0.6821
 6712SOL    HW131595   1.924   1.171   7.710 -1.1272  2.0131  0.6106
 6712SOL    HW231596   1.834   1.228   7.811  1.2482  0.1887  2.5539
 6713SOL     OW31597   2.547   4.297  17.436  0.0625  0.9081  0.2717
 6713SOL    HW131598   2.590   4.333  17.359 -0.2113  1.8165  0.5380
 6713SOL    HW231599   2.574   4.365  17.499  3.0514  1.1140 -1.2509
 6714SOL     OW31600   2.675   3.439   7.294 -0.3221 -0.4212  0.1381
 6714SOL    HW131601   2.685   3.399   7.208 -0.2918 -1.5526  0.6668
 6714SOL    HW231602   2.597   3.496   7.292  0.8587  1.2240  0.8706
 6715SOL     OW31603   3.207   2.920   5.518 -0.0244  0.6403 -0.0623
 6715SOL    HW131604   3.161   2.845   5.557 -0.2720  0.0105 -1.5863
 6715SOL    HW231605   3.141   2.988   5.506 -2.4463 -1.4337  1.5777
 6716SOL     OW31606   2.749   0.796   5.075 -0.1863  0.4186  0.0134
 6716SOL    HW131607   2.703   0.880   5.069 -1.0759 -0.1824 -1.6583
 6716SOL    HW231608   2.672   0.747   5.046  0.5278 -1.2671  0.9935
 6717SOL     OW31609   3.187   3.409   5.405  0.1934  0.7461 -0.1115
 6717SOL    HW131610   3.121   3.432   5.339 -0.6152  1.2521  0.8724
 6717SOL    HW231611   3.258   3.390   5.345  0.1569 -2.1369  0.7615
 6718SOL     OW31612   1.670   1.312  11.490 -0.0021 -0.2262  0.5201
 6718SOL    HW131613   1.612   1.237  11.479 -0.3633  0.1382 -0.0849
 6718SOL    HW231614   1.754   1.267  11.495  1.3675  2.2285 -0.2789
 6719SOL     OW31615   1.723   1.499  14.641  0.0752  0.0912  0.1507
 6719SOL    HW131616   1.753   1.504  14.732  0.4008 -1.4422  0.1245
 6719SOL    HW231617   1.666   1.422  14.648 -1.1795  1.1685  1.8334
 6720SOL     OW31618   3.960   4.512   7.676  0.0361 -0.3577  0.1810
 6720SOL    HW131619   3.940   4.566   7.600  0.9148 -0.4286 -0.1035
 6720SOL    HW231620   4.011   4.565   7.738 -0.1787 -1.6881  1.5082
 6721SOL     OW31621   3.717   0.432  10.541  0.4540  0.2587  0.0634
 6721SOL    HW131622   3.725   0.353  10.488  0.7267  1.3230 -1.5111
 6721SOL    HW231623   3.649   0.400  10.599 -0.4664  3.8528  0.9872
 6722SOL     OW31624   3.399   0.709   1.524  0.4295  0.6824 -0.3094
 6722SOL    HW131625   3.461   0.737   1.590  0.7689 -1.6544  0.3410
 6722SOL    HW231626   3.330   0.770   1.550  0.4041  0.9682 -1.0356
 6723SOL     OW31627   4.335   2.846   3.996 -0.1453 -0.1332 -0.1302
 6723SOL    HW131628   4.295   2.929   4.023  2.1253  0.6004  1.0020
 6723SOL    HW231629   4.336   2.856   3.901  0.5652 -3.9183 -0.5007
 6724SOL     OW31630   0.241   2.044  12.150  0.0617 -0.1597  0.2629
 6724SOL    HW131631   0.192   2.001  12.080 -1.7312 -1.0461  2.0585
 6724SOL    HW231632   0.211   2.134  12.131 -0.1817 -0.4101 -0.5232
 6725SOL     OW31633   2.293   4.523   3.592 -0.7149  0.0439  0.3634
 6725SOL    HW131634   2.361   4.458   3.610 -1.5109 -0.9934 -0.4467
 6725SOL    HW231635   2.280   4.560   3.680  1.0035  0.5627  0.4069
 6726SOL     OW31636   1.248   1.629   2.992  0.0905  0.4192  0.1499
 6726SOL    HW131637   1.224   1.622   3.085  1.3769  1.5894  0.5702
 6726SOL    HW231638   1.323   1.687   2.992  2.1226 -2.2261  0.4079
 6727SOL     OW31639   2.660   0.399   7.767  0.2420  0.3118  0.0499
 6727SOL    HW131640   2.744   0.360   7.744  0.1855  0.0345  0.3227
 6727SOL    HW231641   2.602   0.332   7.802  2.0102 -1.4373 -0.3803
 6728SOL     OW31642   2.299   0.771   1.024 -0.3898 -0.2105  0.0595
 6728SOL    HW131643   2.297   0.760   1.119  1.4555  2.3699  0.4114
 6728SOL    HW231644   2.336   0.686   1.000  1.3637  0.7550 -0.6763
 6729SOL     OW31645   3.498   3.575   2.913 -0.3106 -0.1958  0.4633
 6729SOL    HW131646   3.502   3.569   2.818 -1.7763  0.0938  0.3882
 6729SOL    HW231647   3.406   3.552   2.921 -0.5463  0.4107 -0.6462
 6730SOL     OW31648   2.257   0.213   8.314 -0.2479  0.6557 -0.5195
 6730SOL    HW131649   2.267   0.135   8.260  1.2135 -0.1823  0.9701
 6730SOL    HW231650   2.232   0.277   8.247 -1.1152  1.5058  0.6191
 6731SOL     OW31651   3.210   1.378   6.083 -0.0531  0.5205  0.2857
 6731SOL    HW131652   3.248   1.295   6.111 -1.0073  0.1241  0.4117
 6731SOL    HW231653   3.220   1.429   6.163 -2.2046  0.9537  0.2893
 6732SOL     OW31654   0.423   2.037   8.587 -0.0534  0.1705 -0.0750
 6732SOL    HW131655   0.415   2.018   8.681 -1.7500 -0.6318 -0.3989
 6732SOL    HW231656   0.465   1.954   8.564 -0.5708  0.0520 -0.5562
 6733SOL     OW31657   2.809   0.222   6.753 -0.5170 -0.3431 -0.6914
 6733SOL    HW131658   2.823   0.159   6.823  0.4080 -0.3370 -0.8686
 6733SOL    HW231659   2.714   0.221   6.737 -0.1468  0.1420 -2.8634
 6734SOL     OW31660   3.125   1.439   4.696  0.3533  0.0551  0.1820
 6734SOL    HW131661   3.188   1.490   4.747 -1.2955  0.2419  2.0590
 6734SOL    HW231662   3.176   1.358   4.687  0.2961  0.1159 -0.6981
 6735SOL     OW31663   1.265   3.898   2.230 -0.4356 -0.0922  0.1511
 6735SOL    HW131664   1.237   3.879   2.140 -2.3793  0.2005  0.7076
 6735SOL    HW231665   1.292   3.815   2.270 -2.4733 -1.2141 -0.7903
 6736SOL     OW31666   2.367   0.154   4.294 -0.0862 -0.2437 -0.2511
 6736SOL    HW131667   2.364   0.244   4.264 -1.3923  0.1828  1.2178
 6736SOL    HW231668   2.457   0.125   4.278  0.3944  1.6800 -0.9611
 6737SOL     OW31669   4.270   2.886   6.679  0.1014  0.0444  0.5241
 6737SOL    HW131670   4.303   2.933   6.756  1.2451  0.0181  0.0576
 6737SOL    HW231671   4.187   2.864   6.721  0.2755 -2.4256 -0.3836
 6738SOL     OW31672   2.086   1.554  16.917 -0.1648  0.5815  0.5168
 6738SOL    HW131673   2.110   1.523  17.004  2.4810  0.1532 -0.3564
 6738SOL    HW231674   2.063   1.470  16.878 -0.4395  1.0921 -0.4413
 6739SOL     OW31675   1.489   2.660   0.596  0.5887 -0.7197  0.0786
 6739SOL    HW131676   1.466   2.658   0.503 -0.7368  0.7879  0.3798
 6739SOL    HW231677   1.402   2.662   0.636  0.1965 -1.7819 -0.7452
 6740SOL     OW31678   2.945   0.893   6.858 -0.3008 -0.8571  0.2053
 6740SOL    HW131679   3.023   0.946   6.877  0.0543 -1.2957 -0.0216
 6740SOL    HW231680   2.984   0.807   6.875  1.2114 -0.3700 -0.7896
 6741SOL     OW31681   2.450   2.108   5.382 -0.6673 -0.3799  0.0079
 6741SOL    HW131682   2.444   2.014   5.369 -0.0494 -0.6244  1.4207
 6741SOL    HW231683   2.386   2.146   5.322 -1.4860  0.0339  1.1446
 6742SOL     OW31684   1.344   2.906  11.269 -0.0203  0.2733  0.4659
 6742SOL    HW131685   1.300   2.984  11.233 -0.5056 -1.4680 -2.6910
 6742SOL    HW231686   1.401   2.956  11.328 -0.1669  1.4842 -0.4165
 6743SOL     OW31687   0.627   3.273   6.846 -0.0159  0.1441 -0.0676
 6743SOL    HW131688   0.565   3.241   6.781 -1.0558  0.1769  0.8987
 6743SOL    HW231689   0.676   3.345   6.807 -2.4581  1.5752 -0.4991
 6744SOL     OW31690   2.147   0.291   3.039 -0.1010  0.2955 -0.5715
 6744SOL    HW131691   2.225   0.334   3.004  0.8414 -0.3878  0.7075
 6744SOL    HW231692   2.106   0.246   2.966 -1.0384 -0.0352  0.1673
 6745SOL     OW31693   4.417   2.207   8.336 -0.1082  0.1305  0.0132
 6745SOL    HW131694   4.323   2.209   8.356 -0.0455 -1.5732  0.5304
 6745SOL    HW231695   4.426   2.125   8.287 -0.8840 -0.4534  0.8478
 6746SOL     OW31696   2.886   1.081   3.730  0.2702  0.7397  0.2209
 6746SOL    HW131697   2.950   1.035   3.676 -1.4154  1.1560 -2.1395
 6746SOL    HW231698   2.905   1.173   3.710 -0.0549  0.6980 -0.2709
 6747SOL     OW31699   1.123   3.414   8.271 -0.5200 -0.7202 -0.3005
 6747SOL    HW131700   1.183   3.413   8.345 -1.9702  0.8740  0.8948
 6747SOL    HW231701   1.104   3.321   8.258  0.0325 -0.9599  0.6473
 6748SOL     OW31702   3.573   1.600  11.510 -0.1645 -0.1729  0.3954
 6748SOL    HW131703   3.624   1.561  11.440 -1.4187 -0.2350 -0.4829
 6748SOL    HW231704   3.541   1.523  11.556 -0.1756 -1.4876 -1.8088
 6749SOL     OW31705   3.903   0.210   6.870  0.5045  0.3577  0.0758
 6749SOL    HW131706   3.893   0.271   6.797  1.3138 -0.5933 -0.8353
 6749SOL    HW231707   3.940   0.263   6.940 -0.6814  0.3613  0.6833
 6750SOL     OW31708   3.614   1.142   5.578  0.7470 -0.0477 -0.5881
 6750SOL    HW131709   3.546   1.196   5.618 -1.7282 -2.6792 -1.2055
 6750SOL    HW231710   3.567   1.104   5.504 -1.2988  0.8322  0.2504
 6751SOL     OW31711   3.113   3.317  12.165  0.4251  0.2932  0.0095
 6751SOL    HW131712   3.079   3.243  12.115  1.3200  0.5767 -1.0354
 6751SOL    HW231713   3.164   3.372  12.105 -1.6446  0.3982 -1.6686
 6752SOL     OW31714   3.698   4.487  10.712 -0.2351  0.3648  0.1150
 6752SOL    HW131715   3.628   4.495  10.648  0.3639  0.8741 -0.4853
 6752SOL    HW231716   3.685   4.400  10.751 -2.0205  0.6920  0.2401
 6753SOL     OW31717   1.282   1.356   1.903  0.2150 -0.2196 -0.0494
 6753SOL    HW131718   1.293   1.287   1.969  3.3122 -0.5562 -0.9317
 6753SOL    HW231719   1.326   1.434   1.937 -1.2222  0.5236  0.1065
 6754SOL     OW31720   2.437   3.067  12.148 -0.1373  0.1177  0.8453
 6754SOL    HW131721   2.494   3.095  12.220 -0.4506 -2.3262  2.0505
 6754SOL    HW231722   2.483   3.098  12.070  1.4279  0.6404  1.9640
 6755SOL     OW31723   1.501   3.234  12.603 -0.1230  0.0478  1.0384
 6755SOL    HW131724   1.544   3.170  12.660 -0.8441 -0.1134  1.4005
 6755SOL    HW231725   1.409   3.212  12.617  0.1171  0.2044  2.8628
 6756SOL     OW31726   2.137   4.224   8.835  0.1119 -0.5684  0.4525
 6756SOL    HW131727   2.093   4.298   8.793  0.0332  0.4975  2.4268
 6756SOL    HW231728   2.226   4.260   8.843 -0.4943  0.7691  1.1172
 6757SOL     OW31729   3.644   0.295   6.499  0.2748  0.1353  0.4473
 6757SOL    HW131730   3.563   0.271   6.454  0.6274 -0.2669  0.0204
 6757SOL    HW231731   3.645   0.222   6.561  0.3033 -1.3045 -1.2410
 6758SOL     OW31732   2.074   2.436   2.137 -0.1195 -0.5149 -0.2767
 6758SOL    HW131733   2.163   2.459   2.165  0.5271 -2.2932 -0.8476
 6758SOL    HW231734   2.047   2.527   2.124  0.8836 -0.4487 -1.9845
 6759SOL     OW31735   1.299   2.096  10.164  0.2529  0.2251 -0.0782
 6759SOL    HW131736   1.259   2.183  10.168 -0.3610 -0.1124  1.1293
 6759SOL    HW231737   1.389   2.129  10.160  0.7800 -1.2180 -0.0351
 6760SOL     OW31738   2.186   0.732   6.121 -0.1614 -0.2476  0.0749
 6760SOL    HW131739   2.185   0.736   6.217 -0.4088  0.2328  0.0521
 6760SOL    HW231740   2.095   0.723   6.095 -0.6954  1.9496  1.2084
 6761SOL     OW31741   3.472   3.939  10.064  0.9716  0.1680 -0.4349
 6761SOL    HW131742   3.497   3.858  10.019 -0.3188 -0.9746  0.8838
 6761SOL    HW231743   3.386   3.919  10.102  0.2006 -0.5838 -2.5788
 6762SOL     OW31744   2.432   1.742   6.753 -0.0373  0.1378  0.1388
 6762SOL    HW131745   2.427   1.829   6.713  2.1687  0.8184  1.3740
 6762SOL    HW231746   2.417   1.682   6.679  2.2870  1.4733 -1.4271
 6763SOL     OW31747   4.087   1.305   8.918  0.3130  0.4892  0.1147
 6763SOL    HW131748   4.065   1.389   8.958 -4.2805 -0.1638 -1.0579
 6763SOL    HW231749   4.088   1.248   8.995  0.9794  1.1533  0.6023
 6764SOL     OW31750   3.500   4.569   5.588 -0.2896 -0.2934  0.0791
 6764SOL    HW131751   3.577   4.621   5.565 -0.2192 -0.5495 -0.2661
 6764SOL    HW231752   3.516   4.552   5.681  2.3580  0.9460 -0.1345
 6765SOL     OW31753   2.085   3.693  15.221  0.4167  0.2909  0.4543
 6765SOL    HW131754   2.012   3.633  15.207 -0.0023  1.0945 -0.8028
 6765SOL    HW231755   2.161   3.637  15.204 -0.1949 -0.2164 -0.5890
 6766SOL     OW31756   3.508   0.386  15.711 -0.0896 -0.3825  0.6264
 6766SOL    HW131757   3.458   0.468  15.717 -2.0034 -1.5127  0.2049
 6766SOL    HW231758   3.594   0.416  15.683 -0.9472 -0.0742 -1.6391
 6767SOL     OW31759   2.733   3.349   7.865 -0.4295  0.1287  0.2499
 6767SOL    HW131760   2.648   3.348   7.823 -0.8003 -0.9041  1.0214
 6767SOL    HW231761   2.770   3.435   7.847  2.6334 -1.3534 -0.5759
 6768SOL     OW31762   0.647   4.648  17.485 -0.4597 -0.4092 -0.1184
 6768SOL    HW131763   0.672   4.573  17.432  1.9633  0.3862 -0.1206
 6768SOL    HW231764   0.729   4.696  17.473 -0.1292 -1.3083 -1.4029
 6769SOL     OW31765   4.548   4.267   5.171  0.3188 -0.2852  0.3060
 6769SOL    HW131766   4.601   4.340   5.140  0.8927 -0.9711 -0.3179
 6769SOL    HW231767   4.522   4.224   5.090  2.1062 -0.5800 -0.1126
 6770SOL     OW31768   4.385   1.775  10.296 -0.1758  0.0084 -0.0101
 6770SOL    HW131769   4.434   1.821  10.363 -2.1966  5.2851 -2.1213
 6770SOL    HW231770   4.341   1.699  10.333 -0.8414  0.5490  0.3203
 6771SOL     OW31771   1.199   2.387   8.209  0.2372  0.6149  0.0267
 6771SOL    HW131772   1.191   2.308   8.156  1.0911  1.5884 -1.5595
 6771SOL    HW231773   1.232   2.355   8.293 -0.3371  0.6349  0.2627
 6772SOL     OW31774   0.066   2.300   1.691 -0.4935 -0.2558 -0.3236
 6772SOL    HW131775   0.060   2.331   1.781  0.4644  1.5489 -0.8931
 6772SOL    HW231776   0.160   2.290   1.675 -0.4941  1.5736 -1.4554
 6773SOL     OW31777   0.895   3.680   2.169  0.2877  0.1382 -0.3929
 6773SOL    HW131778   0.801   3.673   2.150 -0.0002  3.8035 -0.1783
 6773SOL    HW231779   0.903   3.774   2.178 -0.8431 -0.1431  3.4692
 6774SOL     OW31780   2.640   0.444   4.809 -0.0794 -0.3251 -0.0428
 6774SOL    HW131781   2.637   0.368   4.750 -1.4532  0.8005 -1.4233
 6774SOL    HW231782   2.714   0.408   4.858 -0.4479  0.3874  1.0253
 6775SOL     OW31783   2.575   0.519   3.446 -0.0200 -0.0901 -0.1663
 6775SOL    HW131784   2.496   0.546   3.400  0.5182 -1.1895 -1.7417
 6775SOL    HW231785   2.640   0.585   3.425  0.7729 -1.2021 -1.2275
 6776SOL     OW31786   3.257   0.488  13.109 -0.6528  0.2306 -0.0203
 6776SOL    HW131787   3.290   0.578  13.112  2.2279 -0.8225 -0.1914
 6776SOL    HW231788   3.332   0.439  13.143 -0.9822 -0.5109 -0.3656
 6777SOL     OW31789   1.822   1.524  15.203 -0.3293  0.1655  0.6931
 6777SOL    HW131790   1.902   1.499  15.156  0.9735  0.7184  2.6037
 6777SOL    HW231791   1.867   1.585  15.261  1.7033  0.9947 -1.7694
 6778SOL     OW31792   1.809   0.171   2.475 -0.3057 -0.6478  0.6379
 6778SOL    HW131793   1.893   0.132   2.451  0.4458  1.4941 -0.2521
 6778SOL    HW231794   1.834   0.258   2.444 -1.3185 -0.9907 -1.1107
 6779SOL     OW31795   1.984   1.814   7.308 -0.7209  0.0821 -0.1396
 6779SOL    HW131796   2.015   1.884   7.366  0.2702  0.3797 -1.0223
 6779SOL    HW231797   1.889   1.825   7.312 -0.9995 -2.1099 -0.6899
 6780SOL     OW31798   4.562   0.987   3.048 -0.4963 -0.1409  0.2968
 6780SOL    HW131799   4.531   0.920   3.109  0.1380 -1.2012 -0.5552
 6780SOL    HW231800   4.644   0.953   3.012 -1.2952 -1.5554 -0.1886
 6781SOL     OW31801   2.097   3.715   4.331 -0.3031  0.1799 -0.3744
 6781SOL    HW131802   2.009   3.752   4.342 -1.2926 -1.9979 -0.8202
 6781SOL    HW231803   2.085   3.627   4.366  1.1794  0.2128  0.2205
 6782SOL     OW31804   1.857   1.266   7.244  0.3706  0.4314 -1.0474
 6782SOL    HW131805   1.816   1.279   7.330  0.7640 -0.8698 -0.6647
 6782SOL    HW231806   1.950   1.262   7.266  0.6352  1.3608 -1.9772
 6783SOL     OW31807   3.067   0.644  10.124 -0.8675  0.3507  0.2015
 6783SOL    HW131808   3.139   0.671  10.066 -0.4994 -0.8777  0.0956
 6783SOL    HW231809   3.008   0.713  10.092 -0.8767  0.0000 -0.5352
 6784SOL     OW31810   2.999   1.714  15.743 -0.3699 -0.0503  0.0418
 6784SOL    HW131811   2.921   1.666  15.771 -0.8663  0.1814 -0.9372
 6784SOL    HW231812   2.981   1.732  15.651 -0.5585  0.6213  0.2095
 6785SOL     OW31813   1.817   1.776  10.698 -0.5814  0.4531 -0.4641
 6785SOL    HW131814   1.867   1.845  10.742  0.3107  1.2252 -2.7328
 6785SOL    HW231815   1.853   1.769  10.610 -0.8265  1.5804 -0.6533
 6786SOL     OW31816   2.549   1.444   8.706 -0.1825 -0.5926  0.4300
 6786SOL    HW131817   2.540   1.349   8.695  2.0468 -0.7873  0.1621
 6786SOL    HW231818   2.643   1.445   8.726 -0.3814 -0.5246  1.3606
 6787SOL     OW31819   3.507   1.395   6.636  0.5736 -0.0253 -0.2324
 6787SOL    HW131820   3.418   1.430   6.636  1.1167  1.3284 -2.3654
 6787SOL    HW231821   3.504   1.334   6.710  0.9323  1.0136  0.6393
 6788SOL     OW31822   3.510   4.223   3.252 -0.2485  0.1490 -0.2656
 6788SOL    HW131823   3.510   4.130   3.271  1.2153 -0.0562 -1.2883
 6788SOL    HW231824   3.486   4.266   3.335  0.3418  0.5023 -0.2767
 6789SOL     OW31825   2.909   4.601   6.297  0.2785 -0.2423 -0.4149
 6789SOL    HW131826   2.913   4.567   6.208  0.3585 -2.1218  0.3129
 6789SOL    HW231827   2.940   4.692   6.295  1.2032 -0.5381  0.1927
 6790SOL     OW31828   3.984   2.200  12.665 -0.7053 -0.2856 -0.0877
 6790SOL    HW131829   3.948   2.260  12.730 -0.3030 -1.5988  1.3500
 6790SOL    HW231830   4.067   2.172  12.703 -1.5040 -2.4122  0.0978
 6791SOL     OW31831   1.734   3.773  11.972 -0.2890 -0.5964 -0.1667
 6791SOL    HW131832   1.762   3.826  11.897  1.3137 -1.2538 -0.0434
 6791SOL    HW231833   1.819   3.737  11.999  0.5822  2.7271  1.5882
 6792SOL     OW31834   4.399   2.142  11.913 -0.3211 -0.2906  0.6401
 6792SOL    HW131835   4.455   2.208  11.872  0.7533 -0.5986  1.6251
 6792SOL    HW231836   4.353   2.121  11.832  1.0273  1.6903 -0.6590
 6793SOL     OW31837   2.893   2.526   2.356 -0.1687 -0.0830  0.0328
 6793SOL    HW131838   2.984   2.509   2.329 -0.1339  0.4962 -0.2205
 6793SOL    HW231839   2.906   2.582   2.432  0.3845 -2.5691  1.7848
 6794SOL     OW31840   4.238   1.946   9.430  0.1786 -0.1568 -0.0135
 6794SOL    HW131841   4.295   1.975   9.358  1.3066  0.1712  1.0187
 6794SOL    HW231842   4.153   1.933   9.388  0.7562 -2.1105 -0.5808
 6795SOL     OW31843   1.048   2.349   1.730  0.2522 -0.6851 -0.0152
 6795SOL    HW131844   1.138   2.382   1.729  0.7089 -2.0356 -2.4987
 6795SOL    HW231845   1.056   2.255   1.748 -0.2797 -0.8342 -0.5324
 6796SOL     OW31846   3.136   2.881   2.663 -0.1306 -0.6161 -0.3621
 6796SOL    HW131847   3.212   2.869   2.721  0.6923 -1.3610 -1.6163
 6796SOL    HW231848   3.104   2.964   2.699 -3.4660 -1.2181 -2.0147
 6797SOL     OW31849   3.057   0.010  10.466  0.2927 -0.1323  0.7007
 6797SOL    HW131850   3.080   0.098  10.437  0.2172  0.1698  1.5642
 6797SOL    HW231851   3.142   4.711  10.506 -0.4676 -1.3218  1.6788
 6798SOL     OW31852   4.126   1.124  11.234  0.6292 -0.1998  0.4062
 6798SOL    HW131853   4.042   1.170  11.231  0.8836  0.3318  1.4665
 6798SOL    HW231854   4.186   1.196  11.216  0.9490 -0.7358 -0.7169
 6799SOL     OW31855   0.281   3.912   3.892  0.3848 -0.3138 -0.5021
 6799SOL    HW131856   0.196   3.952   3.872  1.0106  0.4639 -1.5957
 6799SOL    HW231857   0.284   3.922   3.987 -0.2657 -0.0841 -0.5052
 6800SOL     OW31858   4.691   1.290   5.155 -0.4232  0.3013 -0.7797
 6800SOL    HW131859   4.697   1.355   5.225  0.9300 -0.4386 -0.2083
 6800SOL    HW231860   0.032   1.328   5.095  1.4345  0.1823  1.1141
 6801SOL     OW31861   2.440   2.278  17.451  0.4101  1.2360 -0.4529
 6801SOL    HW131862   2.500   2.288  17.377 -1.5583  0.3444 -2.1535
 6801SOL    HW231863   2.357   2.279  17.403 -1.6249  0.5191  3.0406
 6802SOL     OW31864   2.895   4.421   3.757 -0.1850 -0.5328 -0.0955
 6802SOL    HW131865   2.888   4.332   3.791  0.3079 -1.1158 -1.4780
 6802SOL    HW231866   2.943   4.458   3.830  1.7494  1.0889 -2.1726
 6803SOL     OW31867   0.322   0.780  17.397  0.4170  0.7414  0.0800
 6803SOL    HW131868   0.259   0.768  17.468 -0.1813 -1.1242 -0.7476
 6803SOL    HW231869   0.265   0.770  17.320 -0.4815 -0.7394  0.9288
 6804SOL     OW31870   4.719   4.338   5.873 -1.1328 -0.0232 -0.0813
 6804SOL    HW131871   4.712   4.333   5.778 -1.7677 -2.1238  0.0662
 6804SOL    HW231872   4.629   4.336   5.905 -1.1001  0.5438  0.0453
 6805SOL     OW31873   1.627   4.199   6.132  0.4764 -0.1013  0.4864
 6805SOL    HW131874   1.666   4.145   6.201  0.2882  1.6851  2.0016
 6805SOL    HW231875   1.562   4.245   6.185  1.0864 -0.0684  1.2114
 6806SOL     OW31876   1.476   2.575   4.939 -0.7389  0.5915 -0.5066
 6806SOL    HW131877   1.464   2.502   4.878 -2.1073  0.7592 -0.4295
 6806SOL    HW231878   1.557   2.546   4.980 -0.3799  0.4336 -1.3169
 6807SOL     OW31879   0.861   3.911   0.024  0.0811 -0.2382  0.3226
 6807SOL    HW131880   0.891   3.938   0.111  0.8028 -0.8685  0.2674
 6807SOL    HW231881   0.781   3.863   0.048  0.9156 -0.4318  2.7607
 6808SOL     OW31882   0.502   0.569   2.795  0.2832 -0.2138  0.2395
 6808SOL    HW131883   0.532   0.513   2.724 -1.1768  1.2770 -1.5735
 6808SOL    HW231884   0.438   0.624   2.750  1.1907  0.0676 -0.7065
 6809SOL     OW31885   3.507   4.422  14.778  0.4534 -0.0618  0.2181
 6809SOL    HW131886   3.509   4.333  14.814  0.3832 -0.1813 -0.0767
 6809SOL    HW231887   3.497   4.411  14.684 -3.6848  1.7991  0.4104
 6810SOL     OW31888   3.648   3.079   6.243  0.4503  0.4664  0.2119
 6810SOL    HW131889   3.617   3.166   6.267 -0.4448  0.0007  0.7726
 6810SOL    HW231890   3.649   3.082   6.148  1.3380  2.6768  0.2994
 6811SOL     OW31891   0.637   2.155  11.140  0.2255  0.3201 -0.8007
 6811SOL    HW131892   0.627   2.182  11.231  2.8190 -0.3504 -0.3053
 6811SOL    HW231893   0.549   2.172  11.108 -1.0694 -2.2824  1.3461
 6812SOL     OW31894   4.717   2.498   0.028 -0.0929 -0.4026  0.0171
 6812SOL    HW131895   4.643   2.476   0.085 -1.8460  1.3328 -1.5883
 6812SOL    HW231896   4.690   2.447  17.644 -1.5886  0.8553 -0.2785
 6813SOL     OW31897   1.541   3.563   4.794 -0.6671 -0.2980  0.3072
 6813SOL    HW131898   1.562   3.627   4.725 -0.1797  1.3220  1.9526
 6813SOL    HW231899   1.625   3.523   4.814 -0.1760  1.3314  1.4857
 6814SOL     OW31900   0.671   2.022   4.068  0.6991  0.6561 -0.3590
 6814SOL    HW131901   0.633   2.008   3.981 -0.3490 -1.5749  0.4623
 6814SOL    HW231902   0.700   2.112   4.052 -1.1516  1.3496  0.2627
 6815SOL     OW31903   1.929   3.301   5.307 -0.0612  0.0067  0.0473
 6815SOL    HW131904   1.892   3.384   5.339  0.7729  0.5014 -0.2789
 6815SOL    HW231905   1.899   3.235   5.370 -1.7759 -0.5626 -1.3758
 6816SOL     OW31906   2.626   3.085  11.942 -0.3008  0.2043  0.5332
 6816SOL    HW131907   2.686   3.011  11.951 -0.8127 -0.2479  0.2451
 6816SOL    HW231908   2.684   3.141  11.890  2.8628 -1.3733  2.3366
 6817SOL     OW31909   1.782   2.331   1.407  0.4115  0.0793 -0.1156
 6817SOL    HW131910   1.716   2.340   1.475 -0.8866  0.7645 -1.4811
 6817SOL    HW231911   1.860   2.344   1.463  0.6845 -0.4165 -0.3872
 6818SOL     OW31912   3.803   1.465   3.802 -0.1660 -0.3906 -0.2744
 6818SOL    HW131913   3.749   1.516   3.742  0.1417 -1.1983 -1.2593
 6818SOL    HW231914   3.742   1.393   3.815  0.8109 -1.6611 -2.5171
 6819SOL     OW31915   1.114   2.277   9.166 -0.3642 -0.0988 -0.0727
 6819SOL    HW131916   1.139   2.370   9.172 -1.8762  0.2402  1.1236
 6819SOL    HW231917   1.060   2.276   9.246  0.8738 -1.8174  0.7386
 6820SOL     OW31918   2.338   3.203   4.219  0.3390  0.0086  0.0920
 6820SOL    HW131919   2.419   3.165   4.251  1.2583  3.2225  1.5424
 6820SOL    HW231920   2.279   3.130   4.240 -0.0921  0.7374  1.3945
 6821SOL     OW31921   0.451   3.795   4.321 -0.3783  0.4075 -0.2528
 6821SOL    HW131922   0.382   3.827   4.262  0.5404  2.0596 -0.4366
 6821SOL    HW231923   0.509   3.761   4.253 -1.6823  0.5371 -1.4547
 6822SOL     OW31924   1.552   1.935   5.769  0.6867 -0.6970 -0.5382
 6822SOL    HW131925   1.484   1.932   5.837 -1.4520  1.0499 -2.6202
 6822SOL    HW231926   1.588   2.023   5.779  0.4146 -0.3339 -2.7172
 6823SOL     OW31927   1.383   0.357   3.172 -0.0171 -0.3888 -0.2677
 6823SOL    HW131928   1.385   0.362   3.077  0.1991 -0.6234 -0.2773
 6823SOL    HW231929   1.291   0.333   3.181  0.5461 -2.4916 -0.0696
 6824SOL     OW31930   4.356   4.379   7.516 -0.2814 -0.1477 -0.4426
 6824SOL    HW131931   4.302   4.301   7.531 -0.6686 -0.1923 -2.0155
 6824SOL    HW231932   4.285   4.443   7.518  1.0457  1.1942  1.9700
 6825SOL     OW31933   1.864   4.075   1.708  0.0865  0.1587  0.3529
 6825SOL    HW131934   1.851   3.997   1.653 -1.4626  0.8069 -0.1982
 6825SOL    HW231935   1.779   4.118   1.697 -0.3490 -1.1805 -1.6739
 6826SOL     OW31936   1.477   1.556   4.869  0.3333 -0.2674 -0.1613
 6826SOL    HW131937   1.422   1.628   4.900 -1.1730 -1.2164 -0.6704
 6826SOL    HW231938   1.508   1.518   4.951 -2.1630 -2.0090 -0.0474
 6827SOL     OW31939   2.101   0.848   2.547  0.0869  0.3973 -0.1969
 6827SOL    HW131940   2.161   0.918   2.520 -1.0603  1.6042  0.4030
 6827SOL    HW231941   2.035   0.849   2.478 -0.6954  0.3686  0.5518
 6828SOL     OW31942   2.167   3.522   3.477 -0.6213  0.3635  0.4618
 6828SOL    HW131943   2.143   3.474   3.398  1.5882 -1.0395  0.6595
 6828SOL    HW231944   2.231   3.587   3.448 -0.1494  0.5714  1.9555
 6829SOL     OW31945   0.041   4.146   9.020  0.1542  0.6286 -0.2666
 6829SOL    HW131946   4.677   4.177   9.046  0.1357  0.9458 -0.7096
 6829SOL    HW231947   0.085   4.156   9.104  1.9040 -0.4352 -1.0638
 6830SOL     OW31948   1.270   0.037   9.202  0.0947 -0.4969 -0.4444
 6830SOL    HW131949   1.220   4.678   9.211  3.6384 -2.4660  1.4689
 6830SOL    HW231950   1.275   0.034   9.106  1.1241 -0.1381 -0.4049
 6831SOL     OW31951   0.581   3.611   7.926  0.0347  0.2697 -0.4699
 6831SOL    HW131952   0.604   3.695   7.888 -0.0314  0.1966 -0.6745
 6831SOL    HW231953   0.614   3.547   7.863 -0.4214  1.2320 -1.6767
 6832SOL     OW31954   1.423   4.426   1.458 -0.0440 -0.3589 -0.1983
 6832SOL    HW131955   1.364   4.376   1.401 -0.7026  0.3222 -0.1164
 6832SOL    HW231956   1.506   4.427   1.411 -0.1579 -0.5740 -0.4071
 6833SOL     OW31957   2.484   3.239  10.720  0.1890 -0.2506  0.1514
 6833SOL    HW131958   2.466   3.179  10.647  1.3708  0.3792 -0.6687
 6833SOL    HW231959   2.558   3.287  10.683  0.0062  1.5285  2.1274
 6834SOL     OW31960   4.687   3.286  17.174 -0.0101 -0.8035  0.0972
 6834SOL    HW131961   4.658   3.360  17.120  0.9156 -0.3970  0.1594
 6834SOL    HW231962   4.616   3.224  17.159 -0.0823 -0.3776 -1.3076
 6835SOL     OW31963   1.479   2.412   2.107 -0.2731  0.3040  0.2344
 6835SOL    HW131964   1.449   2.466   2.034  1.7922 -0.0009 -0.8328
 6835SOL    HW231965   1.400   2.382   2.151 -0.1829 -1.3847 -0.7107
 6836SOL     OW31966   0.065   0.637  17.488 -0.3119 -0.3394  0.3370
 6836SOL    HW131967   4.709   0.692  17.480  0.3553  0.5268 -0.2558
 6836SOL    HW231968   0.054   0.560  17.431 -0.0215 -0.8751  1.0125
 6837SOL     OW31969   1.939   2.595   2.502 -0.0030  0.5811  0.3398
 6837SOL    HW131970   1.849   2.626   2.513 -0.6216 -0.4564 -1.7974
 6837SOL    HW231971   1.983   2.678   2.483 -1.5987  1.5929  1.0781
 6838SOL     OW31972   3.661   1.315   6.437 -0.3075 -0.1680  0.5118
 6838SOL    HW131973   3.733   1.274   6.486 -0.3687  0.8931  1.5109
 6838SOL    HW231974   3.618   1.372   6.502 -2.7653 -0.8224 -0.5388
 6839SOL     OW31975   2.134   3.014   6.739  0.2165 -0.9610 -0.3809
 6839SOL    HW131976   2.054   2.973   6.773 -0.1176  0.0068 -0.0006
 6839SOL    HW231977   2.120   2.997   6.646 -2.6647  1.1584 -0.3585
 6840SOL     OW31978   1.557   2.497   8.453 -0.1879  0.2109  0.3309
 6840SOL    HW131979   1.541   2.580   8.498 -1.1481  1.5919 -2.5511
 6840SOL    HW231980   1.603   2.443   8.517  0.1569  0.5980  0.4086
 6841SOL     OW31981   4.211   4.386   9.603  0.1254  0.3265  0.1782
 6841SOL    HW131982   4.169   4.417   9.522 -2.3738  1.8351  2.0376
 6841SOL    HW231983   4.130   4.361   9.647  0.3700  0.5332  0.7356
 6842SOL     OW31984   0.182   2.893   7.751  0.5417  0.4252 -0.3362
 6842SOL    HW131985   0.240   2.969   7.759 -0.4426  1.0635  0.7336
 6842SOL    HW231986   0.159   2.884   7.659 -2.1927 -1.4109  0.5287
 6843SOL     OW31987   4.101   1.077   6.356 -0.7679  0.0795 -0.0927
 6843SOL    HW131988   4.123   1.004   6.414 -1.8477  0.7184  1.1171
 6843SOL    HW231989   4.186   1.116   6.336 -1.5992  1.9419  0.0356
 6844SOL     OW31990   1.494   1.307  10.469 -0.6266  0.0929  0.3441
 6844SOL    HW131991   1.404   1.330  10.443 -0.2967 -0.8791 -1.6247
 6844SOL    HW231992   1.530   1.264  10.392  1.1343 -0.8288  1.6908
 6845SOL     OW31993   2.469   2.381   9.594  0.3222  0.0685 -0.0476
 6845SOL    HW131994   2.494   2.314   9.531  0.7384  2.2733 -2.2098
 6845SOL    HW231995   2.434   2.448   9.536 -0.5450  0.7016  1.1848
 6846SOL     OW31996   3.818   2.378   6.771 -0.0470 -0.0938 -0.1085
 6846SOL    HW131997   3.837   2.466   6.802  0.4783 -0.0918 -0.4440
 6846SOL    HW231998   3.895   2.357   6.718 -0.0739  1.1745 -0.6333
 6847SOL     OW31999   1.173   1.562  11.354  0.5313  0.2033 -0.4295
 6847SOL    HW132000   1.121   1.636  11.385 -1.9048 -1.9515  0.5760
 6847SOL    HW232001   1.246   1.622  11.337  0.5258 -0.0672 -1.3805
 6848SOL     OW32002   1.198   0.532   4.659  0.2794 -0.1271 -0.0845
 6848SOL    HW132003   1.274   0.588   4.675  1.1783 -1.2332 -0.5111
 6848SOL    HW232004   1.166   0.550   4.571  0.8238  0.2207 -0.2103
 6849SOL     OW32005   0.266   2.284   8.283 -1.3202  0.7685 -0.1289
 6849SOL    HW132006   0.354   2.247   8.286 -0.5804  2.2316 -3.0588
 6849SOL    HW232007   0.220   2.227   8.344  1.5085 -1.8803 -0.4306
 6850SOL     OW32008   0.277   3.593   5.449  0.2244 -0.0295 -0.6461
 6850SOL    HW132009   0.330   3.538   5.508 -1.3144 -1.3297 -0.4855
 6850SOL    HW232010   0.285   3.678   5.493  0.0088 -0.4274  0.1683
 6851SOL     OW32011   3.687   0.622  13.179 -0.1709  0.1095  1.0728
 6851SOL    HW132012   3.731   0.537  13.183  1.1671  0.7828  0.7158
 6851SOL    HW232013   3.756   0.674  13.138 -2.4353  2.6280  0.4481
 6852SOL     OW32014   4.356   0.490   6.898  0.2536 -0.2011  0.0972
 6852SOL    HW132015   4.332   0.535   6.979 -1.1750 -2.4098  0.8997
 6852SOL    HW232016   4.317   0.546   6.831 -0.3901 -1.0078 -0.2014
 6853SOL     OW32017   0.893   1.128   9.273  0.4188 -0.5017 -0.1201
 6853SOL    HW132018   0.863   1.083   9.352  0.1226 -0.4495 -0.2015
 6853SOL    HW232019   0.810   1.135   9.226 -0.7094  2.2148  2.2230
 6854SOL     OW32020   0.888   1.737   6.948  0.0834  0.2704  0.0463
 6854SOL    HW132021   0.811   1.792   6.935  0.7520  0.9067 -1.2349
 6854SOL    HW232022   0.926   1.786   7.021  2.6942 -1.9578  0.2018
 6855SOL     OW32023   2.584   2.765  13.498 -0.8335  0.2938  0.0320
 6855SOL    HW132024   2.678   2.755  13.511 -1.1607 -1.8226  0.7881
 6855SOL    HW232025   2.583   2.760  13.402  1.3427 -0.4729  0.0539
 6856SOL     OW32026   0.045   0.953   0.887  0.1302 -0.4492 -0.2093
 6856SOL    HW132027   0.055   0.862   0.914 -1.2082  0.7504  4.3261
 6856SOL    HW232028   0.029   0.999   0.969 -1.0409  0.5911 -1.0186
 6857SOL     OW32029   0.320   3.260   7.449  0.3566 -0.1464 -0.4763
 6857SOL    HW132030   0.378   3.245   7.374 -0.5634 -0.1674 -1.1815
 6857SOL    HW232031   0.238   3.276   7.404  0.0446  1.8194  0.7751
 6858SOL     OW32032   0.748   1.688  12.018  0.0559  0.0992  0.5980
 6858SOL    HW132033   0.772   1.685  11.926 -2.0099  0.4495  0.0473
 6858SOL    HW232034   0.699   1.771  12.016 -1.9975 -1.2188 -3.4236
 6859SOL     OW32035   2.317   2.364   7.205 -0.1039 -0.1985  0.0340
 6859SOL    HW132036   2.335   2.426   7.135  0.6229  1.3396  1.5754
 6859SOL    HW232037   2.243   2.315   7.170 -1.7448 -0.1533  3.4354
 6860SOL     OW32038   2.810   0.395   0.713  0.1046  0.0836  0.3455
 6860SOL    HW132039   2.719   0.418   0.731 -0.0818  0.4339 -1.0027
 6860SOL    HW232040   2.838   0.469   0.659 -1.1770  0.5662  0.3586
 6861SOL     OW32041   0.204   2.788   0.838  0.0853  0.1990  0.0093
 6861SOL    HW132042   0.285   2.830   0.870 -0.0880  1.0210 -0.6241
 6861SOL    HW232043   0.145   2.863   0.841 -1.0735 -0.7184 -0.2317
 6862SOL     OW32044   1.525   1.820  15.940 -0.6583 -0.2201 -0.4044
 6862SOL    HW132045   1.605   1.830  15.991 -1.2210  1.4169  0.1265
 6862SOL    HW232046   1.482   1.742  15.976  0.4072 -0.1552  0.9770
 6863SOL     OW32047   0.067   4.680   0.287 -0.2438  0.2582  0.2706
 6863SOL    HW132048   0.024   0.042   0.293 -1.6708 -0.5221  1.2236
 6863SOL    HW232049   0.073   4.653   0.379  0.9560  0.7817  0.3351
 6864SOL     OW32050   0.266   0.832   0.283 -0.2363 -0.1771 -0.4938
 6864SOL    HW132051   0.318   0.790   0.351 -0.9073 -1.1105 -0.5534
 6864SOL    HW232052   0.218   0.756   0.251 -1.6435 -1.1402  3.8990
 6865SOL     OW32053   0.483   2.913   3.510 -0.5068  0.6869 -0.1480
 6865SOL    HW132054   0.557   2.957   3.552  0.3000  1.2028 -2.0932
 6865SOL    HW232055   0.457   2.842   3.569  2.3574  0.2103  0.5656
 6866SOL     OW32056   1.273   2.681   3.724 -1.0132  0.0424  0.3254
 6866SOL    HW132057   1.304   2.590   3.717 -1.3062 -0.0679  0.4392
 6866SOL    HW232058   1.278   2.703   3.631 -0.1659  4.1247  1.3477
 6867SOL     OW32059   2.468   3.278  15.566 -0.3629 -0.1315  0.4258
 6867SOL    HW132060   2.461   3.256  15.473  0.5876 -0.5916  0.4604
 6867SOL    HW232061   2.522   3.203  15.591  2.9912  1.5035 -1.9062
 6868SOL     OW32062   3.607   2.930   0.399  0.3451  0.5050 -0.6336
 6868SOL    HW132063   3.637   3.021   0.397 -2.5053  1.4917  1.6622
 6868SOL    HW232064   3.537   2.930   0.333  1.4329 -1.0749 -1.7838
 6869SOL     OW32065   4.127   1.752  16.736 -0.6312  0.4627  0.1934
 6869SOL    HW132066   4.076   1.821  16.695  0.1264 -0.1068 -1.6740
 6869SOL    HW232067   4.093   1.674  16.692  2.7599 -0.5584 -0.6828
 6870SOL     OW32068   1.616   3.817   1.700  0.0888  0.6825 -0.0897
 6870SOL    HW132069   1.587   3.730   1.672 -0.4080  1.9649 -3.5759
 6870SOL    HW232070   1.598   3.811   1.794  0.5540  2.1486  0.0905
 6871SOL     OW32071   2.963   2.219   9.965  0.3477 -0.3855  0.4385
 6871SOL    HW132072   2.912   2.292  10.001 -1.3144 -0.9594 -0.7299
 6871SOL    HW232073   2.901   2.148   9.983  1.2687 -1.3763 -0.3144
 6872SOL     OW32074   0.411   1.773   0.456  0.2875 -0.0468  0.3986
 6872SOL    HW132075   0.342   1.835   0.435  1.4718  0.9487 -0.5305
 6872SOL    HW232076   0.362   1.696   0.486 -0.3425  0.1690 -0.0904
 6873SOL     OW32077   3.859   0.393   1.619  0.1784 -0.3726  0.3820
 6873SOL    HW132078   3.773   0.370   1.585 -1.0099  2.4611  1.4691
 6873SOL    HW232079   3.833   0.454   1.688  0.5475  1.3916 -1.0302
 6874SOL     OW32080   0.886   3.662   8.781 -0.1127 -0.4885 -0.2878
 6874SOL    HW132081   0.925   3.729   8.725 -0.4396 -1.2185 -1.3918
 6874SOL    HW232082   0.965   3.644   8.831 -1.4937  0.0017  2.0554
 6875SOL     OW32083   4.361   3.438   3.685  0.0578  0.3521  0.3792
 6875SOL    HW132084   4.373   3.416   3.777  0.9590  0.3406  0.2643
 6875SOL    HW232085   4.268   3.459   3.679 -0.2523 -1.6073 -1.4383
 6876SOL     OW32086   1.437   1.619  14.794  0.3243  0.3008  0.0310
 6876SOL    HW132087   1.495   1.617  14.870 -0.2148 -0.2371  0.4340
 6876SOL    HW232088   1.430   1.714  14.786 -2.1050  0.3279  2.3919
 6877SOL     OW32089   0.252   2.297   4.311 -0.3451  0.0666  0.1724
 6877SOL    HW132090   0.334   2.347   4.308 -0.2161 -0.2615 -1.5875
 6877SOL    HW232091   0.200   2.349   4.251  0.8236  0.3308 -0.6217
 6878SOL     OW32092   0.774   4.331   2.069  0.2808  0.3957 -0.8372
 6878SOL    HW132093   0.846   4.277   2.100  0.5766  0.7025 -0.9880
 6878SOL    HW232094   0.707   4.271   2.037  2.0788 -1.5913 -0.8206
 6879SOL     OW32095   4.684   3.466   4.536  0.5618 -0.0615  0.3927
 6879SOL    HW132096   0.053   3.493   4.539  0.1654  1.4669 -1.0116
 6879SOL    HW232097   4.665   3.456   4.629 -0.2633 -1.4492  0.0709
 6880SOL     OW32098   4.493   2.890   5.739  0.7134  0.7011 -0.2642
 6880SOL    HW132099   4.442   2.850   5.809  1.1093  1.0683  0.2344
 6880SOL    HW232100   4.433   2.948   5.691 -0.0263 -1.9393 -2.5254
 6881SOL     OW32101   1.590   3.541   4.355 -0.2706  0.2585  0.5012
 6881SOL    HW132102   1.500   3.545   4.321 -0.8744  2.2962  2.2990
 6881SOL    HW232103   1.590   3.457   4.401  0.8942  0.7101  1.3164
 6882SOL     OW32104   4.651   0.602  12.183 -0.1223 -0.0560 -0.3298
 6882SOL    HW132105   4.704   0.523  12.184  0.8367  0.5911 -0.1179
 6882SOL    HW232106   4.667   0.634  12.272 -0.0489 -0.1687 -0.3027
 6883SOL     OW32107   3.641   0.024   4.179  0.1150 -0.3895  0.1491
 6883SOL    HW132108   3.710   0.008   4.115  1.3383  0.9646  1.1273
 6883SOL    HW232109   3.575   0.030   4.110  0.8827  2.3519 -0.3686
 6884SOL     OW32110   3.337   2.329   9.611 -0.2785 -0.0850 -0.3264
 6884SOL    HW132111   3.253   2.298   9.644  0.5144 -1.6984  0.2176
 6884SOL    HW232112   3.324   2.416   9.575 -1.9631  0.5252  1.7761
 6885SOL     OW32113   2.522   1.674   0.513  0.1785 -0.2640  0.0734
 6885SOL    HW132114   2.482   1.761   0.513 -2.9215 -1.6814 -1.1345
 6885SOL    HW232115   2.471   1.636   0.441  1.7796 -0.4846 -0.9212
 6886SOL     OW32116   2.781   2.200   4.118  0.2103  0.6735 -0.8688
 6886SOL    HW132117   2.717   2.181   4.187  0.6713  1.0983 -0.3278
 6886SOL    HW232118   2.811   2.285   4.149  1.7726 -0.5064  0.7937
 6887SOL     OW32119   1.911   0.793   2.132  0.5310  0.2466 -0.2618
 6887SOL    HW132120   1.918   0.882   2.165  1.1373  0.3239 -0.5878
 6887SOL    HW232121   1.961   0.743   2.197  0.8714 -0.5801 -1.1519
 6888SOL     OW32122   3.716   0.333  16.874 -0.2079  0.0247  0.3034
 6888SOL    HW132123   3.750   0.246  16.894  1.1591  0.5690  0.3372
 6888SOL    HW232124   3.650   0.322  16.806  0.0410  2.7777 -0.4009
 6889SOL     OW32125   2.066   2.085   1.919  0.1737 -0.8865  0.1077
 6889SOL    HW132126   1.972   2.068   1.923  0.2210 -1.1559  0.0864
 6889SOL    HW232127   2.093   2.009   1.867  2.7076  0.6164 -0.8119
 6890SOL     OW32128   2.797   0.198  11.711 -0.1890  1.0703  0.9106
 6890SOL    HW132129   2.845   0.115  11.712 -0.7053  0.7511 -1.7913
 6890SOL    HW232130   2.803   0.227  11.620 -1.4226 -1.2808  0.0765
 6891SOL     OW32131   3.896   0.703   6.623 -0.3789 -0.0481  0.2977
 6891SOL    HW132132   3.876   0.791   6.655  0.5799  0.9825 -1.9540
 6891SOL    HW232133   3.981   0.707   6.579 -0.0621 -2.4771  0.7118
 6892SOL     OW32134   1.792   0.309  10.254 -0.1411  0.1847 -0.5184
 6892SOL    HW132135   1.876   0.275  10.284 -0.4640  1.7627  2.1686
 6892SOL    HW232136   1.748   0.305  10.339 -0.2091  2.2391 -0.4574
 6893SOL     OW32137   3.096   2.500   5.450 -0.2378  0.0115  0.1681
 6893SOL    HW132138   3.160   2.446   5.495  0.8939  1.4093  0.2348
 6893SOL    HW232139   3.078   2.574   5.508  0.4567 -1.0243  1.6863
 6894SOL     OW32140   4.070   2.668   8.252 -0.4580 -0.2125  0.6241
 6894SOL    HW132141   4.164   2.648   8.254  0.1536  3.1043  3.9014
 6894SOL    HW232142   4.045   2.582   8.216 -1.9753  0.0442  1.0923
 6895SOL     OW32143   0.289   1.721   9.400 -0.2222 -0.3696  0.1682
 6895SOL    HW132144   0.368   1.761   9.366 -0.6164  0.3407  0.0995
 6895SOL    HW232145   0.223   1.790   9.400 -1.1552 -1.2541 -0.6262
 6896SOL     OW32146   4.544   0.923   7.369 -0.1880  0.0105  0.2962
 6896SOL    HW132147   4.575   0.949   7.456  1.1302  0.8150 -0.4332
 6896SOL    HW232148   4.547   1.005   7.320  2.0446  0.2396  0.8320
 6897SOL     OW32149   1.132   3.375   2.518  0.0326  0.4045 -0.5634
 6897SOL    HW132150   1.221   3.400   2.491 -0.7009  2.2242 -1.2907
 6897SOL    HW232151   1.095   3.344   2.435 -0.0663  0.0870 -0.4002
 6898SOL     OW32152   3.675   3.240  11.529 -0.1315  0.0589  0.5175
 6898SOL    HW132153   3.659   3.277  11.616 -1.0041  0.1159  0.3305
 6898SOL    HW232154   3.744   3.178  11.553  0.0214  0.0637  0.0963
 6899SOL     OW32155   2.467   2.860  12.900  0.1893  0.3539  0.0855
 6899SOL    HW132156   2.425   2.831  12.980 -0.0342 -0.0751 -0.1842
 6899SOL    HW232157   2.492   2.780  12.853  2.0470  0.8859  0.1588
 6900SOL     OW32158   4.085   3.216   4.145 -0.0425 -0.2646 -0.2305
 6900SOL    HW132159   4.011   3.261   4.185 -0.2418  0.2082 -1.1224
 6900SOL    HW232160   4.152   3.284   4.153  0.0601 -0.3165 -0.6589
 6901SOL     OW32161   2.759   3.518   8.495 -0.5551 -0.2971 -0.6724
 6901SOL    HW132162   2.784   3.539   8.405 -1.5794 -0.2419 -0.9484
 6901SOL    HW232163   2.718   3.597   8.532  1.0092  1.2488 -2.2353
 6902SOL     OW32164   2.722   4.265  17.015 -0.4357 -0.0834 -0.2757
 6902SOL    HW132165   2.809   4.285  16.980 -0.1138 -1.3377 -0.1679
 6902SOL    HW232166   2.692   4.216  16.938  0.0198  0.9731 -1.1392
 6903SOL     OW32167   1.322   4.187   9.862 -0.1786 -0.5443 -0.1247
 6903SOL    HW132168   1.295   4.252   9.927 -1.0255  1.8260 -2.8383
 6903SOL    HW232169   1.245   4.194   9.806 -0.0820  0.8630 -0.0823
 6904SOL     OW32170   2.652   2.735   0.968  0.0950  0.0966  0.2274
 6904SOL    HW132171   2.567   2.759   1.006  0.3454  0.2135  0.7005
 6904SOL    HW232172   2.699   2.819   0.963  1.4500 -0.8541 -3.6369
 6905SOL     OW32173   2.618   1.055   2.135 -0.2225  0.5505  0.2477
 6905SOL    HW132174   2.633   1.107   2.056 -0.0456  1.5782  0.9731
 6905SOL    HW232175   2.523   1.042   2.142 -0.4452  1.8036 -0.4300
 6906SOL     OW32176   0.644   4.403   9.587  0.3207 -0.0967  0.2146
 6906SOL    HW132177   0.564   4.391   9.535  0.1089 -2.9263  1.1717
 6906SOL    HW232178   0.659   4.497   9.586  2.6302 -0.4554 -0.2672
 6907SOL     OW32179   1.660   2.865   0.507  0.0904  0.6696  0.6136
 6907SOL    HW132180   1.608   2.788   0.531 -0.1204  0.4729 -0.4850
 6907SOL    HW232181   1.628   2.929   0.571  1.5421 -0.0817  2.1051
 6908SOL     OW32182   0.337   1.215  14.625  0.1300 -0.0968 -0.1216
 6908SOL    HW132183   0.422   1.255  14.647 -1.1642  2.2390  0.5760
 6908SOL    HW232184   0.280   1.291  14.627 -2.7850 -2.2348 -2.2473
 6909SOL     OW32185   3.333   4.563   9.059  0.0016 -0.3117 -0.0926
 6909SOL    HW132186   3.250   4.516   9.069 -0.7162  0.7098 -1.2812
 6909SOL    HW232187   3.372   4.496   9.002 -1.0217 -2.6461  1.9281
 6910SOL     OW32188   2.352   3.153   8.269  0.2340  0.3404 -0.0465
 6910SOL    HW132189   2.436   3.145   8.226  0.0688 -0.9592 -0.1142
 6910SOL    HW232190   2.342   3.062   8.295  0.3794  0.5414  0.7355
 6911SOL     OW32191   3.077   3.650   7.309 -0.4388 -0.1975 -0.6736
 6911SOL    HW132192   3.005   3.696   7.353 -0.6125 -1.8108  0.7271
 6911SOL    HW232193   3.075   3.699   7.227  2.5298  1.3592  0.1794
 6912SOL     OW32194   0.432   0.265   5.171  0.3773  0.0540  0.1337
 6912SOL    HW132195   0.507   0.207   5.185 -1.4869 -2.7009 -1.4015
 6912SOL    HW232196   0.429   0.275   5.076  0.1898 -1.5289 -0.0349
 6913SOL     OW32197   3.469   2.266   0.913  0.1158  0.6696  0.0144
 6913SOL    HW132198   3.422   2.185   0.933  1.1084  0.1906  0.4272
 6913SOL    HW232199   3.554   2.240   0.878 -0.7594 -0.0589 -1.5838
 6914SOL     OW32200   3.132   1.461   2.698 -0.0259  0.5210  0.5805
 6914SOL    HW132201   3.191   1.437   2.627 -0.2701  0.9583  0.2344
 6914SOL    HW232202   3.071   1.518   2.651 -1.2525  1.3814  3.1778
 6915SOL     OW32203   4.600   2.756   0.750  0.7142 -0.4906 -0.3701
 6915SOL    HW132204   4.689   2.790   0.746  0.0768  1.2468  0.0092
 6915SOL    HW232205   4.589   2.743   0.844 -0.7518  0.5355 -0.3963
 6916SOL     OW32206   1.150   4.303   8.533  0.4296 -0.1058 -0.0938
 6916SOL    HW132207   1.106   4.332   8.453 -2.8362 -1.4753  1.2055
 6916SOL    HW232208   1.236   4.299   8.493  0.1370  2.9920 -0.9889
 6917SOL     OW32209   1.670   3.081   5.139 -0.2486  0.2641 -0.0885
 6917SOL    HW132210   1.603   3.044   5.081  1.3895 -1.9718 -0.5450
 6917SOL    HW232211   1.752   3.061   5.094 -1.0152 -1.3439 -0.7425
 6918SOL     OW32212   1.471   4.156   7.944 -0.2171 -0.6159  0.9649
 6918SOL    HW132213   1.480   4.240   7.988 -1.5724 -0.3809  0.7950
 6918SOL    HW232214   1.381   4.132   7.962 -0.3570 -0.2375  0.7713
 6919SOL     OW32215   0.645   4.500   7.604  0.0226 -0.0727 -0.3844
 6919SOL    HW132216   0.563   4.481   7.559  0.3720 -1.2127 -0.5365
 6919SOL    HW232217   0.621   4.569   7.665  1.4216 -0.4214  0.5606
 6920SOL     OW32218   0.276   3.831   8.137 -0.0877  0.2600  0.3475
 6920SOL    HW132219   0.307   3.741   8.146  1.7804  0.6891 -1.7908
 6920SOL    HW232220   0.353   3.885   8.118 -0.3775  0.1758 -1.0377
 6921SOL     OW32221   2.435   4.262   9.516 -0.1374  0.1651  0.2176
 6921SOL    HW132222   2.364   4.262   9.581 -0.8771  2.6067 -0.5867
 6921SOL    HW232223   2.466   4.174   9.539 -1.4213 -0.5832 -0.9236
 6922SOL     OW32224   2.296   3.894   4.393 -0.1943 -0.3593 -0.3883
 6922SOL    HW132225   2.232   3.929   4.455  2.2626  2.7357  0.3789
 6922SOL    HW232226   2.250   3.811   4.381 -0.6247  0.0140 -1.3280
 6923SOL     OW32227   0.771   1.127   8.978 -0.9839 -0.4808 -0.3770
 6923SOL    HW132228   0.831   1.053   8.985  0.0027  0.2866 -0.7121
 6923SOL    HW232229   0.691   1.081   9.004 -1.8447  1.0230 -0.3849
 6924SOL     OW32230   2.677   0.300   4.561 -0.0883 -0.3764  0.6092
 6924SOL    HW132231   2.636   0.349   4.490 -1.4417 -0.2456  1.4761
 6924SOL    HW232232   2.687   0.215   4.519 -0.5040  1.3874 -2.9797
 6925SOL     OW32233   0.112   2.109  13.650 -0.3075 -0.0356  0.6643
 6925SOL    HW132234   0.116   2.070  13.562  0.2081  1.1582  0.1631
 6925SOL    HW232235   0.206   2.112  13.671 -0.5232 -2.2234  1.9374
 6926SOL     OW32236   1.666   1.672   3.997 -0.5739 -0.1858 -0.1671
 6926SOL    HW132237   1.697   1.756   4.031  1.8005 -0.9326 -0.5211
 6926SOL    HW232238   1.660   1.687   3.903 -0.7329 -0.5815 -0.2205
 6927SOL     OW32239   0.015   3.067   7.301  0.0479 -0.2194 -0.0154
 6927SOL    HW132240   0.056   3.153   7.309 -1.4908  0.3335  1.7803
 6927SOL    HW232241   0.027   3.032   7.213 -1.4519  1.1826 -0.7742
 6928SOL     OW32242   4.244   2.460  13.656 -0.6246  0.6627  0.2681
 6928SOL    HW132243   4.224   2.367  13.665 -1.0161  0.6235 -1.0379
 6928SOL    HW232244   4.215   2.471  13.565  1.2164 -0.4176 -0.4560
 6929SOL     OW32245   0.306   3.778   7.826  0.7426  0.1172  0.1666
 6929SOL    HW132246   0.391   3.814   7.853  0.2034  0.4278  1.4114
 6929SOL    HW232247   0.278   3.749   7.913  1.2716  0.0854  0.3289
 6930SOL     OW32248   2.495   2.136   4.414 -0.3850  0.2702  0.0068
 6930SOL    HW132249   2.447   2.189   4.350  0.5148  0.5428 -0.4458
 6930SOL    HW232250   2.582   2.178   4.408 -0.3075 -0.2065 -2.0670
 6931SOL     OW32251   1.784   3.643   6.774  0.2268  0.9475  0.3014
 6931SOL    HW132252   1.849   3.619   6.839  0.7118 -1.2312 -1.0061
 6931SOL    HW232253   1.836   3.633   6.694  0.5233  0.4410  0.5605
 6932SOL     OW32254   1.728   3.339   2.266  0.4789  0.3394 -0.6221
 6932SOL    HW132255   1.792   3.303   2.206 -0.2145 -0.5413 -0.8261
 6932SOL    HW232256   1.692   3.416   2.222 -0.0150 -0.5243 -1.7265
 6933SOL     OW32257   0.356   4.614   6.089  0.0960 -0.4920 -0.5041
 6933SOL    HW132258   0.290   4.596   6.156  0.5553  0.5293  0.2264
 6933SOL    HW232259   0.367   4.708   6.102 -1.6904 -0.2744 -0.5390
 6934SOL     OW32260   3.965   2.180   5.010 -0.5501  0.1874  0.3769
 6934SOL    HW132261   4.002   2.164   5.097 -1.1767 -1.2708  0.3705
 6934SOL    HW232262   3.874   2.179   5.038 -0.4945 -0.1143  0.5501
 6935SOL     OW32263   1.426   4.658   1.912  0.0216  0.0912  0.0772
 6935SOL    HW132264   1.392   4.603   1.983  0.3746  1.1651  1.0935
 6935SOL    HW232265   1.350   4.654   1.854  0.4480 -0.8729 -0.4042
 6936SOL     OW32266   2.661   4.086   6.390  0.3368 -0.0577  0.1258
 6936SOL    HW132267   2.738   4.116   6.438 -0.3437 -0.5675  1.5395
 6936SOL    HW232268   2.604   4.162   6.381  0.7079  0.3272  1.0902
 6937SOL     OW32269   0.236   1.234   4.408  0.0063 -0.2707 -0.2235
 6937SOL    HW132270   0.238   1.329   4.398  4.5954 -0.4632 -1.3001
 6937SOL    HW232271   0.156   1.212   4.456 -0.7308  1.9159 -0.4446
 6938SOL     OW32272   0.218   3.016   9.941  0.0043  0.1691 -0.3388
 6938SOL    HW132273   0.153   2.948   9.922  1.1443 -0.8505 -0.6186
 6938SOL    HW232274   0.218   3.063   9.858  1.3061  0.7472 -0.0078
 6939SOL     OW32275   4.228   1.456  14.607  0.0413 -0.0309  0.0593
 6939SOL    HW132276   4.287   1.480  14.535 -1.0414 -1.0529 -1.1593
 6939SOL    HW232277   4.157   1.429  14.550 -0.9010  0.7824  0.8486
 6940SOL     OW32278   4.605   0.414   4.510  0.2451  0.6120 -0.5044
 6940SOL    HW132279   4.660   0.437   4.585  0.6048  2.4322 -1.3155
 6940SOL    HW232280   4.526   0.393   4.560 -0.5382  1.6188 -1.3144
 6941SOL     OW32281   3.702   2.307   8.464  0.0116  0.2039  1.1187
 6941SOL    HW132282   3.669   2.249   8.395 -0.1979  1.4348  0.1742
 6941SOL    HW232283   3.668   2.261   8.540 -0.2839 -1.9190 -0.3129
 6942SOL     OW32284   0.726   3.263  16.082  0.2463  0.1807 -0.1518
 6942SOL    HW132285   0.658   3.321  16.115 -0.2098  0.3651 -1.3889
 6942SOL    HW232286   0.706   3.181  16.127  2.1560 -0.6460 -0.7773
 6943SOL     OW32287   1.617   3.868   1.968  0.5035  0.1532  0.1487
 6943SOL    HW132288   1.620   3.963   1.980  0.6326  0.0973  0.5532
 6943SOL    HW232289   1.698   3.836   2.008 -0.6982 -1.4851  1.2771
 6944SOL     OW32290   0.207   4.582   1.277 -0.2789 -0.8403 -0.2291
 6944SOL    HW132291   0.285   4.599   1.330 -0.0555 -2.8257  0.0728
 6944SOL    HW232292   0.128   4.618   1.318 -0.4207 -1.2911 -0.1167
 6945SOL     OW32293   2.102   0.364   8.136 -0.2525 -0.1142  0.1303
 6945SOL    HW132294   2.035   0.306   8.099 -0.3083  0.6724 -0.9871
 6945SOL    HW232295   2.044   0.440   8.127 -0.9200 -0.4266  1.6822
 6946SOL     OW32296   1.847   1.363   4.491  0.3135 -0.2069  0.8796
 6946SOL    HW132297   1.854   1.459   4.488  1.6976 -0.3681 -1.1228
 6946SOL    HW232298   1.765   1.353   4.539  0.0679 -0.2555  0.4509
 6947SOL     OW32299   0.209   1.546   2.736 -0.0197 -0.0232 -0.1818
 6947SOL    HW132300   0.121   1.542   2.773  0.6139  1.7487  1.5323
 6947SOL    HW232301   0.193   1.602   2.660 -2.7170 -2.4306 -1.3783
 6948SOL     OW32302   1.475   3.506   9.354 -0.2734  0.5641  0.0907
 6948SOL    HW132303   1.388   3.540   9.372 -0.6687 -0.0044 -0.7824
 6948SOL    HW232304   1.454   3.448   9.281 -0.1757  1.1218 -0.3808
 6949SOL     OW32305   3.820   4.235   1.264 -0.2103  0.3580 -0.5213
 6949SOL    HW132306   3.840   4.270   1.351  0.5423  1.9373 -1.3392
 6949SOL    HW232307   3.729   4.266   1.267 -0.1543  0.7253 -3.4990
 6950SOL     OW32308   1.055   4.099   3.653  0.3316 -0.2209  0.4670
 6950SOL    HW132309   1.063   4.105   3.558  1.4553 -0.8133  0.5257
 6950SOL    HW232310   1.055   4.191   3.681  1.2301 -0.2432  0.5238
 6951SOL     OW32311   2.413   0.353   3.008  0.0051 -0.7379  0.0718
 6951SOL    HW132312   2.501   0.336   3.042  0.5626 -0.1205 -1.0708
 6951SOL    HW232313   2.433   0.364   2.915 -2.3301  2.2469 -0.0752
 6952SOL     OW32314   2.108   3.945   8.858 -0.0863  0.0283 -0.0052
 6952SOL    HW132315   2.122   3.936   8.764 -2.4376  0.7915 -0.4306
 6952SOL    HW232316   2.120   4.040   8.863 -0.0153  0.0935 -1.5206
 6953SOL     OW32317   2.342   0.170   7.362 -0.2663  0.1308 -0.0222
 6953SOL    HW132318   2.400   0.097   7.341  2.3204  2.4021 -0.8123
 6953SOL    HW232319   2.258   0.125   7.361  0.1552 -0.6588 -0.2467
 6954SOL     OW32320   0.126   4.464   5.206 -0.6182  0.2251 -0.4695
 6954SOL    HW132321   0.082   4.490   5.125  1.7827 -0.0186 -1.8755
 6954SOL    HW232322   0.093   4.529   5.267 -0.4198  0.0710 -0.1954
 6955SOL     OW32323   2.561   0.724  10.006  0.0465  0.2277 -0.5284
 6955SOL    HW132324   2.607   0.686   9.932  1.0579  3.4427 -1.5710
 6955SOL    HW232325   2.605   0.678  10.077 -0.7912  0.8898  0.4159
 6956SOL     OW32326   3.494   0.485  16.764  0.2249 -0.0101  0.0950
 6956SOL    HW132327   3.427   0.450  16.706 -0.4862 -0.1448  0.9975
 6956SOL    HW232328   3.561   0.501  16.697  0.1815  0.8909  0.2660
 6957SOL     OW32329   1.625   3.871   2.714 -0.0604 -0.0440 -0.0269
 6957SOL    HW132330   1.689   3.939   2.735  1.1950 -1.3816  0.4360
 6957SOL    HW232331   1.617   3.879   2.619  0.9407 -2.0048 -0.2801
 6958SOL     OW32332   0.415   1.238   5.309  0.3284 -0.0982 -0.0425
 6958SOL    HW132333   0.424   1.187   5.229 -1.8910  0.3721 -0.6003
 6958SOL    HW232334   0.332   1.199   5.338  0.4645 -0.1285  0.3007
 6959SOL     OW32335   2.628   1.587   0.747 -0.0451 -0.2393 -0.0956
 6959SOL    HW132336   2.711   1.634   0.745 -1.3533  2.0606  0.3703
 6959SOL    HW232337   2.583   1.627   0.672 -0.2609  1.8064  1.1296
 6960SOL     OW32338   2.184   2.299  12.959  0.2344  0.0639  0.0231
 6960SOL    HW132339   2.241   2.363  12.917  0.5526 -1.0664 -1.2531
 6960SOL    HW232340   2.229   2.293  13.043 -2.1140  2.3389  1.4339
 6961SOL     OW32341   1.622   2.485   6.253  0.0544 -0.7442  0.0997
 6961SOL    HW132342   1.690   2.537   6.296 -0.7113 -0.1027  0.5435
 6961SOL    HW232343   1.585   2.552   6.196 -2.4093 -2.4447 -0.3173
 6962SOL     OW32344   4.491   1.497   8.032 -0.3189  0.1747  0.7930
 6962SOL    HW132345   4.416   1.511   8.089 -2.6051 -1.1203 -1.9175
 6962SOL    HW232346   4.457   1.435   7.967  3.1686 -0.0800 -0.8085
 6963SOL     OW32347   1.052   0.003   2.081 -0.0909  0.5099 -0.1496
 6963SOL    HW132348   0.988   0.058   2.127  0.4604  0.3462  0.8332
 6963SOL    HW232349   1.117   0.066   2.049 -0.2824  0.3860 -0.7773
 6964SOL     OW32350   0.555   0.432   8.006 -0.0377 -0.3577 -0.1282
 6964SOL    HW132351   0.560   0.527   7.997  2.8914 -0.4837  0.1776
 6964SOL    HW232352   0.472   0.422   7.960  0.0293 -0.2611 -0.2693
 6965SOL     OW32353   1.194   0.548   2.301 -0.3147 -0.7515  0.5208
 6965SOL    HW132354   1.183   0.607   2.226 -0.3666 -1.5779 -0.1263
 6965SOL    HW232355   1.146   0.472   2.269  2.0223 -1.5821 -1.0670
 6966SOL     OW32356   2.427   2.772   3.699  0.4030 -0.6089 -1.3345
 6966SOL    HW132357   2.353   2.732   3.652 -0.8733 -0.0950  0.2526
 6966SOL    HW232358   2.444   2.710   3.769  1.3912  2.4379  1.1140
 6967SOL     OW32359   3.859   0.085   7.972 -0.0968  0.3046 -0.4781
 6967SOL    HW132360   3.822   0.085   7.884 -1.4130 -2.8691  0.0688
 6967SOL    HW232361   3.921   0.152   7.943  1.1606  0.0880  1.6602
 6968SOL     OW32362   1.264   2.444   2.756  0.0225 -0.5413 -0.4285
 6968SOL    HW132363   1.347   2.474   2.794 -1.8986  1.2526  2.3614
 6968SOL    HW232364   1.286   2.351   2.752  0.8230 -0.4556  1.9537
 6969SOL     OW32365   3.612   0.555  16.530 -0.2939  0.2375  0.2484
 6969SOL    HW132366   3.611   0.651  16.531  1.4051  0.2356  1.2272
 6969SOL    HW232367   3.574   0.535  16.444  1.2795 -1.4133 -0.0522
 6970SOL     OW32368   1.399   4.689  15.100 -0.3913 -0.1499 -0.3379
 6970SOL    HW132369   1.404   0.059  15.125  1.4759 -0.8514  1.8585
 6970SOL    HW232370   1.490   4.666  15.078 -0.2909  0.1193 -0.2027
 6971SOL     OW32371   1.321   1.739   5.032 -0.4050  0.1594 -0.4620
 6971SOL    HW132372   1.299   1.832   5.032  1.5954  0.6334 -1.3303
 6971SOL    HW232373   1.277   1.712   5.113 -0.3082  1.4620  0.0246
 6972SOL     OW32374   1.421   1.565  16.435 -0.1137  0.6940  0.1472
 6972SOL    HW132375   1.389   1.648  16.471  0.7932  0.8048  0.7073
 6972SOL    HW232376   1.401   1.500  16.502  0.7824 -0.4141 -0.6599
 6973SOL     OW32377   2.413   4.540   1.538 -0.1909 -0.0944 -0.1713
 6973SOL    HW132378   2.323   4.554   1.566 -0.1640  1.8181 -1.0263
 6973SOL    HW232379   2.449   4.510   1.621 -1.4506 -2.3235 -0.4112
 6974SOL     OW32380   4.010   3.098   3.463 -0.0659 -0.7109 -0.3241
 6974SOL    HW132381   3.975   3.117   3.376 -1.0445  1.3500  0.5204
 6974SOL    HW232382   4.001   3.003   3.450  0.5175 -0.6581 -1.0712
 6975SOL     OW32383   0.508   4.685   8.181  0.6227  0.3204  0.0797
 6975SOL    HW132384   0.591   0.003   8.208  0.4242  0.2501  0.7999
 6975SOL    HW232385   0.517   4.599   8.223 -1.1119  0.8346  1.5232
 6976SOL     OW32386   0.614   1.144   8.645 -0.0853 -0.2545 -0.1281
 6976SOL    HW132387   0.625   1.226   8.691 -1.5621 -0.0945 -0.0594
 6976SOL    HW232388   0.668   1.148   8.566 -2.5500  1.9559 -1.6901
 6977SOL     OW32389   0.274   2.794   1.861 -0.2937 -0.2323  0.1148
 6977SOL    HW132390   0.356   2.783   1.812  0.5362 -0.7179  1.5959
 6977SOL    HW232391   0.271   2.888   1.882 -1.2254 -0.3451  0.4874
 6978SOL     OW32392   1.868   1.865  15.082  0.4989 -0.1961 -0.1216
 6978SOL    HW132393   1.842   1.773  15.074 -2.4800  0.4185  2.3642
 6978SOL    HW232394   1.817   1.905  15.012 -0.8419  0.7519  1.4009
 6979SOL     OW32395   3.811   2.098   3.980 -0.4585 -0.5029  0.0839
 6979SOL    HW132396   3.778   2.186   3.966 -0.5050 -0.7957 -1.5988
 6979SOL    HW232397   3.786   2.049   3.901 -0.4262 -1.9468  0.9542
 6980SOL     OW32398   4.340   2.298  12.428  0.0807 -0.2395 -0.3885
 6980SOL    HW132399   4.312   2.265  12.343  0.0192 -2.3396  0.4672
 6980SOL    HW232400   4.383   2.376  12.391 -2.9809  1.1611 -0.9708
 6981SOL     OW32401   2.667   1.055   4.272 -0.5528 -0.0351 -0.0382
 6981SOL    HW132402   2.647   0.969   4.236  1.6027 -1.0856  1.2696
 6981SOL    HW232403   2.703   1.091   4.191 -2.2335  0.7304 -0.4403
 6982SOL     OW32404   3.884   1.207  11.239  0.0567  1.0927 -0.5041
 6982SOL    HW132405   3.867   1.301  11.232  0.6899  1.2465  0.1229
 6982SOL    HW232406   3.849   1.177  11.154  1.8858  2.0516 -1.5920
 6983SOL     OW32407   2.074   0.172   4.844 -0.4398 -0.1441  0.0144
 6983SOL    HW132408   2.054   0.145   4.754  1.7848  0.8320 -0.7827
 6983SOL    HW232409   2.122   0.102   4.888  1.6563  0.0429 -1.9626
 6984SOL     OW32410   3.659   1.573   1.521 -0.1626 -0.2852  0.2608
 6984SOL    HW132411   3.670   1.490   1.476  2.4576  0.0071  0.3560
 6984SOL    HW232412   3.629   1.550   1.609  0.3512  1.4952  0.9077
 6985SOL     OW32413   2.666   3.989   5.044  0.0420  0.1342 -0.0503
 6985SOL    HW132414   2.582   3.945   5.035 -0.5423  1.2713 -0.1463
 6985SOL    HW232415   2.703   3.982   4.955 -0.2458  2.4859 -0.3684
 6986SOL     OW32416   1.018   4.623  16.564 -0.2568 -0.2936  0.5053
 6986SOL    HW132417   1.035   4.645  16.473 -2.8142  0.5947  0.2194
 6986SOL    HW232418   1.097   4.573  16.585 -1.6568 -2.2596  1.1163
 6987SOL     OW32419   1.391   1.340  10.788 -0.7174 -0.1015  0.1076
 6987SOL    HW132420   1.347   1.420  10.815 -2.2285 -0.9282  0.0654
 6987SOL    HW232421   1.323   1.274  10.800  1.1459 -1.7160  1.9064
 6988SOL     OW32422   2.109   1.839   6.832 -0.2919  0.1578 -0.4726
 6988SOL    HW132423   2.099   1.755   6.876  1.4708  0.9050  1.3481
 6988SOL    HW232424   2.180   1.812   6.775 -0.8696 -1.9488 -0.1903
 6989SOL     OW32425   2.029   1.638  15.366 -0.7646  0.2951  0.2384
 6989SOL    HW132426   2.024   1.662  15.459 -2.7247 -1.5011  0.5975
 6989SOL    HW232427   2.097   1.572  15.359  0.0049  0.7525  3.3292
 6990SOL     OW32428   4.512   1.572   5.599 -0.1241 -0.1627  0.0002
 6990SOL    HW132429   4.527   1.508   5.531  0.8154  0.7046 -0.6087
 6990SOL    HW232430   4.569   1.536   5.667  0.7996  0.1661 -0.5977
 6991SOL     OW32431   3.548   4.644  17.117  0.5047  0.6355 -0.2946
 6991SOL    HW132432   3.510   4.668  17.202 -2.6243 -2.1793 -0.8717
 6991SOL    HW232433   3.471   4.602  17.079  0.6861  0.5664 -0.5867
 6992SOL     OW32434   0.664   3.555   3.036  0.5564  0.2760 -0.8196
 6992SOL    HW132435   0.689   3.583   3.125  0.6074  2.4399 -1.5052
 6992SOL    HW232436   0.703   3.630   2.991  1.1852  1.1417  1.1244
 6993SOL     OW32437   0.655   3.960   9.007  0.1812  0.4679  0.2231
 6993SOL    HW132438   0.750   3.953   9.001  0.0545 -1.2255  0.1317
 6993SOL    HW232439   0.630   3.920   8.923  2.4341  1.8794 -1.1040
 6994SOL     OW32440   0.813   0.012  11.249  0.1560  0.0966 -0.4119
 6994SOL    HW132441   0.823   4.640  11.262  0.3889  0.0662 -0.8118
 6994SOL    HW232442   0.797   0.047  11.337 -0.0131  0.7009 -0.6870
 6995SOL     OW32443   2.235   4.615   4.583  0.3091 -0.0958 -0.0547
 6995SOL    HW132444   2.310   4.568   4.620  0.0535  1.3029  2.2569
 6995SOL    HW232445   2.193   4.654   4.659  1.3205  0.9712 -0.0466
 6996SOL     OW32446   0.333   3.789   9.176  0.3856  0.3667  0.0225
 6996SOL    HW132447   0.399   3.858   9.187 -1.3549  1.8807  0.8798
 6996SOL    HW232448   0.328   3.751   9.264  1.1944 -0.0904 -0.1305
 6997SOL     OW32449   2.423   3.117  10.472  0.7959 -0.3633 -0.0344
 6997SOL    HW132450   2.339   3.071  10.475  0.3844  0.3060 -1.4070
 6997SOL    HW232451   2.473   3.090  10.395 -3.1091 -1.2273 -2.2805
 6998SOL     OW32452   3.078   1.123   0.742  0.0305 -0.2833  0.1318
 6998SOL    HW132453   3.113   1.135   0.830  2.1614 -1.0135 -0.6121
 6998SOL    HW232454   3.113   1.036   0.722  0.6113  0.6448 -2.8023
 6999SOL     OW32455   1.733   1.993   7.457  0.4164 -0.0724  0.5099
 6999SOL    HW132456   1.803   2.036   7.407 -0.9332 -0.1018 -1.4219
 6999SOL    HW232457   1.683   1.947   7.390 -0.7135 -0.7603  1.8544
 7000SOL     OW32458   1.756   0.536  13.055 -0.8378  0.1318  0.5067
 7000SOL    HW132459   1.792   0.541  12.966  0.6641 -1.8269  1.0275
 7000SOL    HW232460   1.718   0.623  13.069 -1.8920 -0.5515  1.8916
 7001SOL     OW32461   3.066   4.215   5.570  0.4878 -0.2883  0.0403
 7001SOL    HW132462   3.062   4.159   5.647  1.1121 -0.2765  0.0851
 7001SOL    HW232463   3.144   4.268   5.587  0.4330 -0.6817  1.5148
 7002SOL     OW32464   1.433   1.718   2.717 -1.2272  0.3027 -0.0155
 7002SOL    HW132465   1.350   1.731   2.670 -1.4536 -0.5419  0.1557
 7002SOL    HW232466   1.423   1.756   2.804 -1.0933  1.6861 -0.5977
 7003SOL     OW32467   0.599   4.092   8.310 -0.0804  0.1733  0.6700
 7003SOL    HW132468   0.514   4.119   8.343  0.3571  3.0180 -0.5698
 7003SOL    HW232469   0.592   3.999   8.333  1.9165 -0.2255 -0.3265
 7004SOL     OW32470   1.055   2.066   1.745  0.1560  0.1568  0.0170
 7004SOL    HW132471   1.017   2.057   1.658  2.6317  1.2087 -1.1594
 7004SOL    HW232472   1.055   1.971   1.756  1.0613  0.1950  0.3720
 7005SOL     OW32473   4.317   1.158   7.355 -0.5885  0.0808 -0.2603
 7005SOL    HW132474   4.243   1.184   7.301 -0.5917  0.2367 -0.1815
 7005SOL    HW232475   4.298   1.196   7.441  2.7117  1.1977 -0.0216
 7006SOL     OW32476   4.272   2.334   5.433 -0.0965  0.3827  0.2581
 7006SOL    HW132477   4.328   2.268   5.392 -1.2728 -0.0113 -0.7328
 7006SOL    HW232478   4.307   2.416   5.400  0.7133 -0.2262 -0.3907
 7007SOL     OW32479   3.631   1.437  14.709  0.1115  0.3826 -0.5266
 7007SOL    HW132480   3.552   1.386  14.692  0.0962  0.7372 -1.4954
 7007SOL    HW232481   3.656   1.399  14.794  3.0449 -2.1678 -2.5211
 7008SOL     OW32482   0.656   3.714   2.033  0.1894  0.0848 -0.2521
 7008SOL    HW132483   0.655   3.645   1.967  0.2008  0.7865 -0.9749
 7008SOL    HW232484   0.677   3.779   1.966  0.1752  0.6509  0.2926
 7009SOL     OW32485   4.192   0.544  11.703  0.1287 -0.0585  0.6653
 7009SOL    HW132486   4.219   0.453  11.709  2.5248  0.7043  1.2574
 7009SOL    HW232487   4.272   0.588  11.675  0.4058 -1.4528 -0.7173
 7010SOL     OW32488   1.833   3.179   5.907  0.0184  0.4912 -0.0629
 7010SOL    HW132489   1.773   3.241   5.950 -0.8847  0.3878 -1.1737
 7010SOL    HW232490   1.918   3.222   5.898  0.1487 -0.0094 -1.2488
 7011SOL     OW32491   4.506   1.964   7.069  0.1907  0.3227 -0.4688
 7011SOL    HW132492   4.422   2.009   7.076  1.9966  3.7032 -0.6144
 7011SOL    HW232493   4.519   1.924   7.155 -1.8318  0.2842 -0.1912
 7012SOL     OW32494   1.927   1.615  12.092 -0.1031  0.8167  0.0992
 7012SOL    HW132495   1.993   1.629  12.025 -0.0265 -2.1030 -0.4115
 7012SOL    HW232496   1.876   1.541  12.059  2.1542  0.1307 -1.8421
 7013SOL     OW32497   4.404   0.977   0.343 -0.7393 -0.5719 -0.4669
 7013SOL    HW132498   4.475   0.915   0.357 -0.9539 -1.5870 -3.8600
 7013SOL    HW232499   4.370   0.937   0.263 -0.2082 -0.6634 -0.6472
 7014SOL     OW32500   2.250   3.913  16.235 -0.6001 -0.1273  0.2495
 7014SOL    HW132501   2.196   3.904  16.313  0.2549 -0.3455  0.8103
 7014SOL    HW232502   2.185   3.940  16.170 -0.7217 -1.7336 -0.2970
 7015SOL     OW32503   2.316   3.679  12.368 -0.5079 -0.4306  0.2833
 7015SOL    HW132504   2.223   3.664  12.384 -0.7483  0.7143 -0.0310
 7015SOL    HW232505   2.326   3.652  12.277  0.5006  0.4194  0.1362
 7016SOL     OW32506   0.904   1.294   3.966  0.6545  0.0413  0.3450
 7016SOL    HW132507   0.808   1.293   3.968  0.6728  0.5083  1.1173
 7016SOL    HW232508   0.918   1.306   3.872 -2.0626 -0.8178 -0.1756
 7017SOL     OW32509   3.959   1.899  16.590  0.1950  0.1494  0.4561
 7017SOL    HW132510   3.981   1.992  16.595 -0.0823  0.2597 -0.5199
 7017SOL    HW232511   3.864   1.907  16.589  0.2728  0.9681  0.0197
 7018SOL     OW32512   3.712   2.331   3.609  0.3596 -0.5624 -0.2828
 7018SOL    HW132513   3.669   2.257   3.566  0.2494 -1.3056  1.0938
 7018SOL    HW232514   3.778   2.356   3.544 -0.3910  0.6029 -0.5907
 7019SOL     OW32515   1.765   4.468   4.590  0.4046 -0.2941 -0.1897
 7019SOL    HW132516   1.679   4.427   4.590  0.7656 -1.0489  0.0544
 7019SOL    HW232517   1.785   4.456   4.497  0.6970  0.9803 -0.2865
 7020SOL     OW32518   0.121   1.049   6.368  0.0345 -0.1326  0.3489
 7020SOL    HW132519   0.083   0.997   6.438 -0.1288 -2.2250 -1.3082
 7020SOL    HW232520   0.213   1.028   6.380 -0.0963 -0.1940  1.2424
 7021SOL     OW32521   3.500   0.587   0.846 -0.0179 -0.2343  0.0557
 7021SOL    HW132522   3.428   0.597   0.908 -0.7775 -1.4957 -0.6117
 7021SOL    HW232523   3.498   0.493   0.825 -0.6636 -0.1017 -0.4904
 7022SOL     OW32524   3.848   0.757   2.918  0.4042 -0.2131 -0.0031
 7022SOL    HW132525   3.891   0.806   2.988 -2.0209  0.3105  1.1228
 7022SOL    HW232526   3.899   0.677   2.906  0.2183 -0.2435 -0.5482
 7023SOL     OW32527   4.469   1.144   5.228  0.5144 -0.2077  0.4779
 7023SOL    HW132528   4.543   1.189   5.187 -2.1800  4.2063  0.3888
 7023SOL    HW232529   4.503   1.114   5.312  0.4398  0.4039  0.7272
 7024SOL     OW32530   1.563   4.461  16.391  0.0243 -0.8729  0.2200
 7024SOL    HW132531   1.629   4.490  16.328  0.4199  0.8408  1.4289
 7024SOL    HW232532   1.588   4.500  16.474  0.3167  1.0393 -0.7666
 7025SOL     OW32533   3.309   1.526   1.910  0.1634 -0.1130 -0.2197
 7025SOL    HW132534   3.326   1.579   1.988 -0.9646  1.2681 -0.9043
 7025SOL    HW232535   3.382   1.465   1.908 -0.5853 -0.9726 -1.0038
 7026SOL     OW32536   2.548   3.097  10.246  0.2758  0.0790  0.5290
 7026SOL    HW132537   2.530   3.149  10.168  0.3501 -0.4546  0.1574
 7026SOL    HW232538   2.643   3.104  10.252  0.3007 -1.2504  1.5459
 7027SOL     OW32539   1.393   0.349  13.116  0.3476  0.2759  0.3181
 7027SOL    HW132540   1.393   0.444  13.102 -1.3894  0.2835  0.3228
 7027SOL    HW232541   1.375   0.319  13.027 -2.4615  0.8652  0.6635
 7028SOL     OW32542   3.992   4.574  10.901 -0.1696  0.1715  0.3821
 7028SOL    HW132543   3.988   4.637  10.973 -0.4173 -0.3179  0.8023
 7028SOL    HW232544   4.087   4.571  10.901 -0.1677  0.2658  0.6268
 7029SOL     OW32545   0.843   0.356  14.303 -0.3577 -0.4488  0.5741
 7029SOL    HW132546   0.803   0.436  14.268 -1.8798 -1.0449  0.9162
 7029SOL    HW232547   0.779   0.317  14.363  0.3832 -2.1243  0.2636
 7030SOL     OW32548   2.734   2.415   1.319  0.1053  0.6694 -0.0350
 7030SOL    HW132549   2.763   2.504   1.298 -2.1147  1.3918  0.0217
 7030SOL    HW232550   2.811   2.396   1.372 -0.3754  0.2455  0.5009
 7031SOL     OW32551   2.501   0.764  11.256  0.4503  0.3768 -0.6620
 7031SOL    HW132552   2.515   0.857  11.237  0.3328  0.4118 -0.5806
 7031SOL    HW232553   2.410   0.768  11.227  0.6696 -1.0905 -1.5571
 7032SOL     OW32554   3.728   4.338   8.372 -0.9332 -0.6836  0.5999
 7032SOL    HW132555   3.751   4.245   8.370  1.4040 -0.0538 -1.8923
 7032SOL    HW232556   3.798   4.369   8.429 -1.1515 -0.5387  0.7877
 7033SOL     OW32557   2.336   1.294   9.171  0.3239 -0.2009  0.2993
 7033SOL    HW132558   2.407   1.297   9.236 -0.6483 -1.9687  1.4361
 7033SOL    HW232559   2.256   1.313   9.219  0.8055 -1.3190  1.5540
 7034SOL     OW32560   4.470   1.748   5.885  0.5701  0.1268  0.1195
 7034SOL    HW132561   4.474   1.828   5.832  1.5388 -0.5012 -0.7584
 7034SOL    HW232562   4.550   1.708   5.852  0.3265 -0.3028  0.0513
 7035SOL     OW32563   4.088   4.255   4.606  0.1072  0.2392  0.1695
 7035SOL    HW132564   4.103   4.205   4.686 -0.1219  0.1859  0.1809
 7035SOL    HW232565   4.179   4.265   4.578  0.5765  1.5648  2.1895
 7036SOL     OW32566   3.270   1.403   2.460 -0.2590 -0.5055 -0.3838
 7036SOL    HW132567   3.325   1.337   2.418 -0.4379 -1.2921  0.6091
 7036SOL    HW232568   3.218   1.428   2.384  0.0489 -0.3339 -0.5380
 7037SOL     OW32569   3.811   2.720   3.755  0.0362  0.0806  0.2302
 7037SOL    HW132570   3.778   2.797   3.708  0.6839 -0.2345 -0.7543
 7037SOL    HW232571   3.740   2.712   3.818 -1.8140 -0.1302 -1.8865
 7038SOL     OW32572   4.361   0.547  11.355  0.4476  0.4231  0.1319
 7038SOL    HW132573   4.344   0.619  11.296 -1.5900 -0.3250 -0.1838
 7038SOL    HW232574   4.390   0.592  11.434  0.7845  2.4054 -1.1463
 7039SOL     OW32575   1.432   4.091   5.283  0.3682 -0.0755  0.3678
 7039SOL    HW132576   1.513   4.142   5.277  2.0013 -2.5866  0.8334
 7039SOL    HW232577   1.372   4.154   5.323 -1.4122 -0.8476 -1.1198
 7040SOL     OW32578   2.392   2.777  12.222 -0.4986 -0.2428 -0.4440
 7040SOL    HW132579   2.448   2.849  12.193  0.6015 -0.1515  1.8810
 7040SOL    HW232580   2.351   2.756  12.138 -2.6825  1.2549  0.2560
 7041SOL     OW32581   0.391   1.836   3.780 -0.5068  0.3493  0.1575
 7041SOL    HW132582   0.338   1.908   3.743 -1.8660 -1.0987 -0.7023
 7041SOL    HW232583   0.344   1.832   3.864 -0.1091  0.6093  0.3964
 7042SOL     OW32584   4.682   1.366   7.231  0.2008  0.3289  0.4160
 7042SOL    HW132585   0.032   1.320   7.273  0.2146 -0.5041 -0.5102
 7042SOL    HW232586   4.721   1.452   7.215  1.0174 -0.2154 -0.5015
 7043SOL     OW32587   0.446   3.636  13.441 -0.3029 -0.6223 -0.1668
 7043SOL    HW132588   0.499   3.713  13.418  0.4912 -0.5538  1.8905
 7043SOL    HW232589   0.358   3.668  13.460  1.4832  2.5187  2.7383
 7044SOL     OW32590   1.388   3.585  13.731 -0.1294  0.5391  0.1013
 7044SOL    HW132591   1.381   3.681  13.740  1.1939  0.7122 -0.8701
 7044SOL    HW232592   1.481   3.574  13.749 -0.2317  0.1588  0.3900
 7045SOL     OW32593   1.518   0.868   4.140  0.5537 -0.0517 -0.3118
 7045SOL    HW132594   1.574   0.869   4.062 -0.9553  1.8265 -1.3710
 7045SOL    HW232595   1.461   0.942   4.121 -0.7496 -1.9866 -3.7838
 7046SOL     OW32596   2.816   1.309   8.762  0.5699  0.4265 -0.4926
 7046SOL    HW132597   2.786   1.257   8.687  1.0162  1.7158 -1.5552
 7046SOL    HW232598   2.905   1.276   8.775  1.2300  1.8169 -1.5252
 7047SOL     OW32599   1.153   4.121   1.653  0.3448 -0.2875 -0.3544
 7047SOL    HW132600   1.173   4.073   1.573  1.1059 -1.0597  0.2970
 7047SOL    HW232601   1.214   4.195   1.652  1.2765 -0.9998  3.1249
 7048SOL     OW32602   3.776   2.087   5.552  0.0372  0.1499  0.4529
 7048SOL    HW132603   3.771   2.151   5.623  0.4970  0.1794  0.4576
 7048SOL    HW232604   3.833   2.017   5.583  0.1651 -0.0850 -0.3023
 7049SOL     OW32605   0.785   4.262  15.307 -0.3965 -0.2372  1.1351
 7049SOL    HW132606   0.880   4.254  15.304 -0.4058  0.2689 -0.7086
 7049SOL    HW232607   0.758   4.176  15.273  1.7497 -0.3097 -0.3734
 7050SOL     OW32608   1.414   1.013  10.989  0.1745 -0.1858  0.0303
 7050SOL    HW132609   1.500   1.049  11.008  0.6403 -0.9581 -0.6576
 7050SOL    HW232610   1.374   1.092  10.953 -0.2479 -0.7920 -0.8481
 7051SOL     OW32611   1.328   1.511   4.084  0.5242 -0.6684 -0.4648
 7051SOL    HW132612   1.232   1.512   4.089  0.4829  0.8901 -1.8752
 7051SOL    HW232613   1.357   1.431   4.128  0.9601 -0.2068  0.0848
 7052SOL     OW32614   1.665   1.093  15.732 -0.2245 -0.4420  0.6109
 7052SOL    HW132615   1.721   1.131  15.665  0.0188 -0.5612  0.7483
 7052SOL    HW232616   1.588   1.068  15.681 -0.6287  0.6573  0.6825
 7053SOL     OW32617   0.294   3.245   6.136 -0.4174 -0.2278  0.5558
 7053SOL    HW132618   0.349   3.169   6.115 -1.1359 -0.2277 -1.3822
 7053SOL    HW232619   0.217   3.219   6.085 -0.0999 -3.0541  1.4879
 7054SOL     OW32620   1.501   2.152   3.561  0.3434  0.3110  0.1526
 7054SOL    HW132621   1.527   2.242   3.579  2.4589  0.1767 -2.4034
 7054SOL    HW232622   1.414   2.178   3.529 -1.2737 -2.8217  2.0059
 7055SOL     OW32623   3.811   1.755   6.126 -0.1097 -0.2583 -0.0820
 7055SOL    HW132624   3.835   1.806   6.203 -0.3823  0.8845 -0.7475
 7055SOL    HW232625   3.866   1.678   6.136 -0.8494 -0.3407  3.0893
 7056SOL     OW32626   3.945   3.124   9.854 -0.3914  0.4317  0.1168
 7056SOL    HW132627   4.005   3.057   9.823 -0.9821  0.0485 -0.1949
 7056SOL    HW232628   3.875   3.108   9.790 -0.8758  0.0187  0.7624
 7057SOL     OW32629   1.487   0.252   1.904 -0.1437  0.0362  0.4447
 7057SOL    HW132630   1.524   0.165   1.922  0.2435 -0.1225 -1.0935
 7057SOL    HW232631   1.501   0.263   1.810  0.2785 -0.9959  0.3862
 7058SOL     OW32632   1.306   3.947   1.934  0.2441  0.2233  0.0650
 7058SOL    HW132633   1.400   3.931   1.941  0.2155 -0.6312 -1.6260
 7058SOL    HW232634   1.294   4.041   1.946  2.0851  0.5360 -0.6017
 7059SOL     OW32635   3.903   4.242   4.351 -0.0414 -0.4805 -0.1152
 7059SOL    HW132636   3.991   4.270   4.326 -1.4233  4.0329  0.0404
 7059SOL    HW232637   3.845   4.311   4.319  1.6377  1.4921  1.0677
 7060SOL     OW32638   4.461   1.916   5.306  0.0107  0.3368  0.1954
 7060SOL    HW132639   4.530   1.944   5.366  0.4763 -0.3273 -0.0291
 7060SOL    HW232640   4.440   2.003   5.274  1.6380  0.2501 -1.1318
 7061SOL     OW32641   2.083   3.810   6.836 -0.3562  0.2318  0.6276
 7061SOL    HW132642   2.072   3.726   6.792 -1.1965  0.0644  1.1566
 7061SOL    HW232643   2.164   3.797   6.885  0.7169  0.0373 -1.1970
 7062SOL     OW32644   1.020   0.641   6.878  0.6890  0.4412 -0.0973
 7062SOL    HW132645   0.961   0.713   6.857  0.8181  0.3628 -0.7281
 7062SOL    HW232646   1.096   0.692   6.905  0.2764  1.6391 -1.2061
 7063SOL     OW32647   0.014   1.667   4.868 -0.3516  0.3151  0.5124
 7063SOL    HW132648   4.688   1.679   4.950 -0.5808  0.1699  0.3952
 7063SOL    HW232649   0.037   1.756   4.840 -0.9043  0.2246 -0.2109
 7064SOL     OW32650   0.228   2.892   3.940 -0.1669 -0.3929 -0.3184
 7064SOL    HW132651   0.137   2.904   3.913 -0.2413 -0.3265 -0.0435
 7064SOL    HW232652   0.260   2.978   3.915  1.7260 -0.6622  1.1808
 7065SOL     OW32653   2.540   0.810  14.822 -0.3340 -0.4104 -0.3542
 7065SOL    HW132654   2.533   0.717  14.798  0.9755 -0.8066  0.7908
 7065SOL    HW232655   2.464   0.815  14.879  0.6498  2.1366  0.7255
 7066SOL     OW32656   2.988   1.266   1.831  0.0855  0.4161 -0.4837
 7066SOL    HW132657   2.924   1.248   1.763 -1.2360  0.6517  0.7100
 7066SOL    HW232658   3.032   1.342   1.793  0.4666 -0.3778 -1.6471
 7067SOL     OW32659   2.054   3.973   8.292  0.4187  0.4944 -0.2617
 7067SOL    HW132660   1.996   3.932   8.228  1.1195 -1.9140  0.6762
 7067SOL    HW232661   2.108   4.023   8.231  0.7539 -1.2280 -1.3841
 7068SOL     OW32662   3.375   1.355   1.625  0.1413  0.0141 -0.3755
 7068SOL    HW132663   3.300   1.321   1.675 -0.0385 -1.3370 -1.5638
 7068SOL    HW232664   3.419   1.394   1.700  0.3764  0.6375 -0.8336
 7069SOL     OW32665   0.402   3.592   6.892 -0.3534  0.3362  0.3468
 7069SOL    HW132666   0.390   3.596   6.798  0.0375 -0.1375  0.2834
 7069SOL    HW232667   0.308   3.589   6.912 -0.6125  0.6364 -0.8746
 7070SOL     OW32668   1.582   0.636   5.750 -0.4566 -0.2137  0.3204
 7070SOL    HW132669   1.632   0.695   5.807  1.1096 -0.2558 -1.0024
 7070SOL    HW232670   1.580   0.702   5.680 -2.6716 -1.9819 -1.2498
 7071SOL     OW32671   4.416   0.344  16.815  0.4171  0.0090  0.3295
 7071SOL    HW132672   4.418   0.254  16.847 -1.5403 -0.3556 -0.5957
 7071SOL    HW232673   4.331   0.380  16.839  0.0672  0.2249 -1.2712
 7072SOL     OW32674   3.655   1.333   6.933 -0.0601 -0.4482 -0.1570
 7072SOL    HW132675   3.683   1.242   6.925 -1.0110 -0.7294 -0.3649
 7072SOL    HW232676   3.714   1.375   6.870 -1.2792 -0.0047 -1.0139
 7073SOL     OW32677   0.573   3.754   4.074 -0.0530 -0.6232  0.2275
 7073SOL    HW132678   0.659   3.713   4.061  1.1095  0.8914  2.9835
 7073SOL    HW232679   0.602   3.840   4.045 -1.0778 -0.4689 -0.3415
 7074SOL     OW32680   1.893   4.536  16.312  0.1499 -0.2640 -0.5811
 7074SOL    HW132681   1.970   4.513  16.260  0.7396  0.3396  0.0387
 7074SOL    HW232682   1.877   4.624  16.279  0.6812 -0.1127 -0.4263
 7075SOL     OW32683   1.129   3.150  13.120 -0.0393 -0.2612  0.0859
 7075SOL    HW132684   1.066   3.162  13.191 -3.0933  1.0568 -2.8324
 7075SOL    HW232685   1.207   3.185  13.163 -0.3741 -0.0856  0.5483
 7076SOL     OW32686   3.789   3.693   2.826 -0.3585 -0.2788  0.3443
 7076SOL    HW132687   3.853   3.630   2.859  0.1791  0.6613  1.0859
 7076SOL    HW232688   3.707   3.661   2.866  0.5690 -2.8345  0.2408
 7077SOL     OW32689   1.522   3.771   6.767 -0.0147  0.0902 -0.2334
 7077SOL    HW132690   1.542   3.796   6.857  0.0942  2.6931 -0.9731
 7077SOL    HW232691   1.613   3.746   6.750  0.3073  1.4985 -0.6520
 7078SOL     OW32692   1.783   4.144   5.065 -0.4576 -0.6720 -0.1024
 7078SOL    HW132693   1.726   4.145   4.987 -0.2724  1.3159 -0.2168
 7078SOL    HW232694   1.862   4.187   5.033 -1.2894 -0.3034 -1.6657
 7079SOL     OW32695   2.869   1.443   6.830  0.2990  0.2381 -0.6342
 7079SOL    HW132696   2.915   1.423   6.912 -0.9447  2.0169  0.4790
 7079SOL    HW232697   2.830   1.529   6.845 -0.1211 -0.7283  3.9088
 7080SOL     OW32698   3.938   4.450   6.393  0.1929 -0.6387 -0.1509
 7080SOL    HW132699   3.881   4.515   6.351 -3.8995 -2.0222  3.2363
 7080SOL    HW232700   3.862   4.413   6.439  0.3642  0.1539  0.7832
 7081SOL     OW32701   4.443   0.162   6.430 -0.1967 -0.0656 -0.2563
 7081SOL    HW132702   4.411   0.190   6.516 -0.9727 -1.8978  0.0563
 7081SOL    HW232703   4.375   0.102   6.398  0.2789 -0.8173  0.1267
 7082SOL     OW32704   1.195   3.891  10.905 -0.4380 -0.0722 -0.2936
 7082SOL    HW132705   1.127   3.878  10.839  3.2241 -0.6784 -3.9442
 7082SOL    HW232706   1.135   3.911  10.977 -0.0129 -0.7951  0.2727
 7083SOL     OW32707   4.384   1.110  12.091 -0.3516 -0.0037 -0.0266
 7083SOL    HW132708   4.425   1.187  12.129 -1.2355  0.9597 -1.0315
 7083SOL    HW232709   4.453   1.074  12.036  1.6411  3.7085  0.0480
 7084SOL     OW32710   0.693   0.799  11.620  0.5043  0.4102 -0.0371
 7084SOL    HW132711   0.609   0.827  11.655  0.4578  0.3537 -0.1053
 7084SOL    HW232712   0.760   0.858  11.656  0.3863  0.5054  0.0253
 7085SOL     OW32713   2.193   4.115   7.783 -0.1421  1.1252 -0.5844
 7085SOL    HW132714   2.241   4.174   7.725 -1.1659  0.3694 -2.2412
 7085SOL    HW232715   2.106   4.152   7.771 -0.0325  1.3131 -0.8043
 7086SOL     OW32716   3.518   3.568  14.413  0.0044 -0.3667 -0.0619
 7086SOL    HW132717   3.443   3.509  14.426 -1.4891  1.5949  0.1143
 7086SOL    HW232718   3.488   3.606  14.331 -0.2714 -1.7403 -0.6073
 7087SOL     OW32719   1.275   3.614   8.655  0.1764 -0.1572  0.2464
 7087SOL    HW132720   1.219   3.672   8.604  1.1389  2.3230  2.0112
 7087SOL    HW232721   1.312   3.560   8.586 -2.6386 -0.2711 -1.1669
 7088SOL     OW32722   4.548   2.383   5.275  0.3464 -0.0026  0.2837
 7088SOL    HW132723   4.569   2.440   5.201 -0.6705 -1.9277 -1.4890
 7088SOL    HW232724   4.615   2.317   5.261  0.0753 -0.2055 -0.0649
 7089SOL     OW32725   2.069   4.711   5.085 -0.1017 -0.3577 -0.4240
 7089SOL    HW132726   2.031   4.709   5.173  1.4727  0.8781  0.3027
 7089SOL    HW232727   1.992   4.691   5.032 -0.7311  0.3214  0.2360
 7090SOL     OW32728   0.729   1.103   2.923 -0.2292  0.0971 -0.7599
 7090SOL    HW132729   0.769   1.152   2.851 -1.6952 -0.8453 -2.2362
 7090SOL    HW232730   0.675   1.045   2.869 -0.4056 -1.0340  0.6259
 7091SOL     OW32731   2.281   2.242   5.170 -0.0204 -0.6104 -0.1810
 7091SOL    HW132732   2.243   2.196   5.095 -1.3337  2.5171 -1.4357
 7091SOL    HW232733   2.306   2.324   5.127  0.8608 -0.1118  1.2783
 7092SOL     OW32734   2.833   0.162   5.103  0.5211  0.1644 -0.0087
 7092SOL    HW132735   2.745   0.144   5.135  0.7864  0.6198  0.9840
 7092SOL    HW232736   2.822   0.247   5.059  1.1501  0.0085 -0.4756
 7093SOL     OW32737   0.330   1.447   7.958 -0.1537 -0.1182 -0.1543
 7093SOL    HW132738   0.341   1.490   8.042  0.4017 -0.2212 -0.1759
 7093SOL    HW232739   0.235   1.441   7.955 -0.1482 -0.7010  1.2667
 7094SOL     OW32740   3.218   4.503   7.304 -0.2956 -0.3940 -0.6445
 7094SOL    HW132741   3.250   4.593   7.313  1.4465 -1.0658  0.0336
 7094SOL    HW232742   3.282   4.459   7.359  2.0553  3.3624 -0.3424
 7095SOL     OW32743   2.068   3.589  11.714  0.4981 -0.0079  0.0257
 7095SOL    HW132744   2.066   3.496  11.690  1.0856 -0.1426  0.4949
 7095SOL    HW232745   2.049   3.622  11.627 -0.4724 -1.3716 -0.2792
 7096SOL     OW32746   3.382   1.450  11.216  0.4325  0.8313 -0.5135
 7096SOL    HW132747   3.456   1.402  11.178  0.9854  0.4896  0.9826
 7096SOL    HW232748   3.384   1.404  11.299 -0.7358  1.1886 -0.2923
 7097SOL     OW32749   1.562   1.100  10.733  0.4286  0.1879 -0.2420
 7097SOL    HW132750   1.621   1.025  10.731 -0.9034 -0.8669 -0.0505
 7097SOL    HW232751   1.479   1.055  10.716 -0.6104  1.7902  0.5588
 7098SOL     OW32752   0.881   0.746   7.259 -0.5910 -0.4106  0.0817
 7098SOL    HW132753   0.886   0.840   7.242  1.7644 -0.2122  1.8458
 7098SOL    HW232754   0.965   0.723   7.220 -0.6712  2.2814 -1.7305
 7099SOL     OW32755   2.750   3.202   5.829 -0.6472  0.1020 -0.2929
 7099SOL    HW132756   2.710   3.288   5.845  0.0910  0.2619  0.6304
 7099SOL    HW232757   2.840   3.214   5.859  0.7398 -0.9807 -3.9792
 7100SOL     OW32758   1.704   0.048   5.273 -0.0075  0.3317  0.3943
 7100SOL    HW132759   1.687   0.134   5.312 -1.6846  0.6112 -0.9364
 7100SOL    HW232760   1.704   0.065   5.179  1.1006 -2.8846 -0.1740
 7101SOL     OW32761   0.680   2.760   1.157  0.3779  0.1846 -0.1631
 7101SOL    HW132762   0.620   2.687   1.143  1.1332 -0.5942  0.6629
 7101SOL    HW232763   0.757   2.712   1.187 -0.8455 -1.7151 -0.1245
 7102SOL     OW32764   4.627   0.790   2.337 -0.4221  0.4298  0.2183
 7102SOL    HW132765   4.562   0.754   2.397  0.7566 -1.6299  0.2649
 7102SOL    HW232766   4.677   0.713   2.311 -3.3216 -1.8543  1.4489
 7103SOL     OW32767   3.287   2.919   6.854  0.3814  0.5401 -0.1216
 7103SOL    HW132768   3.238   2.870   6.788  0.7294 -0.0612  0.0628
 7103SOL    HW232769   3.210   2.961   6.891  1.3382  1.9909  0.2225
 7104SOL     OW32770   4.053   3.299  12.031  0.1730 -0.0572  0.2463
 7104SOL    HW132771   4.000   3.376  12.011 -1.0988 -0.7463  0.9054
 7104SOL    HW232772   3.994   3.228  12.005 -0.5769  1.3377 -1.7948
 7105SOL     OW32773   0.421   4.148   4.273 -0.2544 -0.0224 -0.6662
 7105SOL    HW132774   0.470   4.168   4.193  0.8094  0.7637  0.1768
 7105SOL    HW232775   0.350   4.210   4.256  0.6676  1.4643  0.9293
 7106SOL     OW32776   0.904   3.688  16.289  0.0164 -0.6912 -0.3230
 7106SOL    HW132777   0.889   3.776  16.326 -0.9274 -1.0079  0.0673
 7106SOL    HW232778   0.906   3.633  16.367  3.0327 -1.5854 -1.0645
 7107SOL     OW32779   0.910   3.531   0.328  0.0497  0.1037 -0.0373
 7107SOL    HW132780   1.001   3.513   0.305  0.0150 -1.6381  1.2122
 7107SOL    HW232781   0.927   3.593   0.399  1.4588 -1.2921  0.8345
 7108SOL     OW32782   3.052   1.374  10.459  0.1576  0.3223  0.4659
 7108SOL    HW132783   2.972   1.421  10.434  1.3988  1.8934 -0.5494
 7108SOL    HW232784   3.108   1.403  10.387  1.3267 -0.6100  0.9963
 7109SOL     OW32785   3.486   4.385   7.731  0.3258  0.2405  0.5889
 7109SOL    HW132786   3.537   4.466   7.738  3.2404 -1.4806 -0.5676
 7109SOL    HW232787   3.520   4.320   7.793 -0.1886  0.0777  0.6949
 7110SOL     OW32788   1.832   1.178   0.544  0.0924  0.2828 -0.0036
 7110SOL    HW132789   1.890   1.102   0.550 -0.7996 -0.5665 -1.9760
 7110SOL    HW232790   1.884   1.235   0.601 -1.2650 -0.8318  2.3463
 7111SOL     OW32791   2.810   4.018   3.242  0.1976  0.6632  0.5163
 7111SOL    HW132792   2.752   4.004   3.317 -1.9730  2.5168 -0.8182
 7111SOL    HW232793   2.826   4.111   3.258 -0.3522  0.5305  1.8021
 7112SOL     OW32794   2.934   0.622   4.823  0.1283 -0.0012  0.3756
 7112SOL    HW132795   2.950   0.549   4.763  1.8863 -0.1637  1.0478
 7112SOL    HW232796   2.885   0.678   4.763  1.9393  0.7541 -0.3868
 7113SOL     OW32797   1.946   1.740   9.774 -0.2300  0.0664  0.1944
 7113SOL    HW132798   1.898   1.816   9.741  0.4674  0.9258  1.1795
 7113SOL    HW232799   1.881   1.676   9.803 -0.2800  0.8075  1.6764
 7114SOL     OW32800   3.441   0.234   6.767  0.8248 -0.0695  0.0572
 7114SOL    HW132801   3.423   0.313   6.716  1.3875  0.7839  1.1870
 7114SOL    HW232802   3.453   0.266   6.856 -0.4295 -0.5981  0.4129
 7115SOL     OW32803   3.733   4.154   9.014 -0.1112 -0.1131  0.7507
 7115SOL    HW132804   3.791   4.133   9.087  2.0715  0.2890 -0.8634
 7115SOL    HW232805   3.759   4.079   8.960 -0.7527  1.5849 -1.9346
 7116SOL     OW32806   2.523   2.283   9.890 -0.8388  0.1009  0.2823
 7116SOL    HW132807   2.609   2.326   9.896 -0.5257 -0.3109 -1.2009
 7116SOL    HW232808   2.546   2.220   9.822  0.3070  1.4939 -0.6289
 7117SOL     OW32809   3.274   2.040  10.211  0.4337  0.1559  0.7164
 7117SOL    HW132810   3.340   2.020  10.143 -0.9871  3.4722 -1.6262
 7117SOL    HW232811   3.309   2.123  10.243 -1.3599  1.4947 -0.8202
 7118SOL     OW32812   2.618   0.653   7.915 -0.4155  0.1170  0.3921
 7118SOL    HW132813   2.698   0.693   7.948 -0.3513  0.6532 -0.4188
 7118SOL    HW232814   2.657   0.566   7.903  0.8581  0.6752  0.5299
 7119SOL     OW32815   4.336   4.096   5.998  0.3871  0.0891 -0.3718
 7119SOL    HW132816   4.405   4.031   5.987  0.6269  0.0926  1.1093
 7119SOL    HW232817   4.375   4.172   5.956 -0.3394  1.5880  1.6393
 7120SOL     OW32818   2.684   3.802   1.394  0.1654 -0.4983  0.3244
 7120SOL    HW132819   2.680   3.710   1.419 -0.2607  0.1137  2.4654
 7120SOL    HW232820   2.777   3.827   1.390  0.1531 -1.1298 -3.7440
 7121SOL     OW32821   3.723   2.257   6.230 -0.3265  0.7338 -0.1559
 7121SOL    HW132822   3.633   2.255   6.200  0.2492 -1.7608 -1.7207
 7121SOL    HW232823   3.725   2.193   6.300 -0.3145 -0.1559 -0.9653
 7122SOL     OW32824   2.498   3.422   2.633 -0.1482 -0.0408 -0.1408
 7122SOL    HW132825   2.456   3.352   2.682  0.0999  2.6422  3.8767
 7122SOL    HW232826   2.425   3.477   2.607  0.4066 -0.0586 -1.7296
 7123SOL     OW32827   0.019   3.290   9.000 -0.1823 -0.5802  0.1397
 7123SOL    HW132828   0.030   3.347   8.924 -0.3688 -0.8205 -0.0657
 7123SOL    HW232829   4.651   3.263   8.985  0.0973 -0.3881 -1.8874
 7124SOL     OW32830   4.572   0.704   5.277 -0.0030  0.2594  0.3544
 7124SOL    HW132831   4.476   0.701   5.279  0.0240 -3.1535 -2.7864
 7124SOL    HW232832   4.575   0.609   5.286 -1.1360  0.3572  1.9439
 7125SOL     OW32833   0.527   4.488   7.910 -0.3969 -0.2950  0.1086
 7125SOL    HW132834   0.549   4.576   7.880  2.0875 -0.7336  0.6738
 7125SOL    HW232835   0.442   4.499   7.953  0.0654 -2.3567  1.5400
 7126SOL     OW32836   3.407   3.140   8.440  0.3636  0.8059  0.4529
 7126SOL    HW132837   3.415   3.058   8.490 -1.5069 -0.8002 -1.8761
 7126SOL    HW232838   3.486   3.125   8.388 -0.8707 -1.7528 -0.6713
 7127SOL     OW32839   3.794   2.136  15.427  0.2048 -0.3929 -0.7615
 7127SOL    HW132840   3.753   2.055  15.394 -1.7690  0.3677 -0.1625
 7127SOL    HW232841   3.864   2.096  15.478  0.2097 -4.0499 -3.6355
 7128SOL     OW32842   0.936   1.915   9.237  0.5984 -0.1685 -0.0327
 7128SOL    HW132843   0.918   1.836   9.186 -0.5228  1.2532 -1.8329
 7128SOL    HW232844   1.019   1.950   9.204  1.7830 -0.1703  2.9610
 7129SOL     OW32845   4.324   1.740   5.497 -0.2697  0.7059  0.2845
 7129SOL    HW132846   4.380   1.683   5.550 -0.0141  1.0226  0.3550
 7129SOL    HW232847   4.388   1.785   5.442 -0.2506  2.3897  1.6848
 7130SOL     OW32848   0.941   4.524   9.605  0.0798  0.1530 -0.4212
 7130SOL    HW132849   0.913   4.524   9.514 -2.2807 -2.1051  0.3144
 7130SOL    HW232850   1.036   4.520   9.597  0.1713  0.6234  0.4058
 7131SOL     OW32851   3.691   3.570   5.501  0.1692 -0.6908  0.3226
 7131SOL    HW132852   3.623   3.546   5.564  0.2532  1.3861  1.2187
 7131SOL    HW232853   3.716   3.660   5.519 -0.0433 -0.4425 -0.5930
 7132SOL     OW32854   4.236   2.929  16.590 -0.7805  0.1517 -0.1214
 7132SOL    HW132855   4.256   2.973  16.507 -0.6961  0.6500  0.1614
 7132SOL    HW232856   4.322   2.915  16.630 -1.0580 -0.6946  0.1730
 7133SOL     OW32857   3.434   3.955   4.496 -0.2986 -0.0253 -0.5514
 7133SOL    HW132858   3.509   3.897   4.502 -0.6029 -0.4781 -1.0931
 7133SOL    HW232859   3.362   3.893   4.486 -1.6892  1.9453 -2.7321
 7134SOL     OW32860   0.547   1.723   5.610 -0.0269 -0.7300  0.3273
 7134SOL    HW132861   0.608   1.724   5.536 -0.3460  1.0243  0.0946
 7134SOL    HW232862   0.560   1.811   5.645 -0.1846 -0.7958  0.5536
 7135SOL     OW32863   2.991   4.554   4.776 -0.9727  0.2598  0.2323
 7135SOL    HW132864   3.009   4.493   4.848  2.3426 -0.7259 -1.4558
 7135SOL    HW232865   2.996   4.639   4.819 -2.8876  0.2040  0.5560
 7136SOL     OW32866   0.661   1.948  13.388  0.3131 -0.1426  0.2622
 7136SOL    HW132867   0.730   1.944  13.454  1.2746  0.4217 -0.7138
 7136SOL    HW232868   0.707   1.991  13.316 -0.6647 -0.3537 -0.5004
 7137SOL     OW32869   1.614   4.638   6.151  0.0524  0.5761  0.7413
 7137SOL    HW132870   1.660   4.645   6.067 -0.4284  0.6802  0.4894
 7137SOL    HW232871   1.680   4.598   6.209 -0.1411  1.0781  1.3046
 7138SOL     OW32872   1.483   4.551   4.335 -0.8859 -0.2222 -0.5647
 7138SOL    HW132873   1.420   4.478   4.337  1.1262 -1.8983  0.9447
 7138SOL    HW232874   1.557   4.491   4.343 -0.6601 -0.0649 -1.5108
 7139SOL     OW32875   2.144   0.526   3.504 -0.3141 -0.7306 -0.3650
 7139SOL    HW132876   2.131   0.457   3.439 -0.3454 -1.0482 -0.0198
 7139SOL    HW232877   2.186   0.590   3.446  3.0033 -1.7421  0.9355
 7140SOL     OW32878   1.583   3.090   3.822 -0.0852 -0.2569  0.5006
 7140SOL    HW132879   1.600   3.086   3.728  1.9199 -0.0334  0.8492
 7140SOL    HW232880   1.584   2.995   3.837  2.9947 -0.4653 -0.8865
 7141SOL     OW32881   2.530   3.885   2.318  0.2980 -0.8624 -0.2435
 7141SOL    HW132882   2.538   3.789   2.319  1.4467 -0.7395  1.0795
 7141SOL    HW232883   2.612   3.902   2.272  0.8232 -0.3615  0.9055
 7142SOL     OW32884   4.009   1.165   0.605  0.3428 -0.0259 -0.0160
 7142SOL    HW132885   3.974   1.200   0.687  0.3340 -0.6627  0.2497
 7142SOL    HW232886   4.085   1.222   0.595  1.3236 -1.3497 -0.0757
 7143SOL     OW32887   4.477   4.149   0.650 -0.2430  0.3092  0.0286
 7143SOL    HW132888   4.405   4.207   0.673 -1.9941 -0.9643 -2.1690
 7143SOL    HW232889   4.452   4.065   0.687 -0.0392  0.1829 -0.1185
 7144SOL     OW32890   1.467   1.805   6.416  0.2362 -0.4747  0.0307
 7144SOL    HW132891   1.555   1.835   6.440  0.6821 -1.7512 -0.0288
 7144SOL    HW232892   1.480   1.752   6.338  1.1632  1.3735 -1.0645
 7145SOL     OW32893   1.519   0.224   8.345  0.1135  0.3285  0.3242
 7145SOL    HW132894   1.578   0.294   8.317 -0.5500  1.8779  2.7396
 7145SOL    HW232895   1.434   0.240   8.304 -0.6299 -0.2357  1.6299
 7146SOL     OW32896   0.453   3.272   4.024 -0.3906 -0.2011  0.0294
 7146SOL    HW132897   0.418   3.355   4.057 -0.6100 -1.1280  2.0539
 7146SOL    HW232898   0.403   3.209   4.075  2.5165 -0.1038  2.9718
 7147SOL     OW32899   3.827   1.024  11.474 -0.1128 -0.5452 -0.2200
 7147SOL    HW132900   3.802   1.077  11.549  0.2058  1.2000 -1.3611
 7147SOL    HW232901   3.885   1.086  11.432 -0.2924  0.3855  0.8991
 7148SOL     OW32902   0.533   3.449   9.030  0.3845 -0.6242  0.6332
 7148SOL    HW132903   0.594   3.425   8.960 -0.9381 -2.8227  0.2251
 7148SOL    HW232904   0.596   3.491   9.089  0.0338  1.6455 -0.6406
 7149SOL     OW32905   2.468   1.658  16.527  0.2762  0.3980 -0.0729
 7149SOL    HW132906   2.452   1.748  16.555 -0.9507 -0.0410  0.6473
 7149SOL    HW232907   2.422   1.648  16.444 -0.0850 -2.4981  0.4708
 7150SOL     OW32908   0.445   1.673   8.435 -0.8906  0.4191 -0.0246
 7150SOL    HW132909   0.501   1.638   8.365  1.4967  0.9471  1.5938
 7150SOL    HW232910   0.500   1.727   8.491  1.2349  1.5515 -3.1638
 7151SOL     OW32911   2.717   3.327   3.453 -0.0356  0.5271  0.3068
 7151SOL    HW132912   2.686   3.388   3.520  0.0377 -1.1860  1.8952
 7151SOL    HW232913   2.766   3.388   3.398 -0.8047  0.5780 -0.3023
 7152SOL     OW32914   3.370   0.561   4.861  0.7646 -0.0710 -0.2264
 7152SOL    HW132915   3.363   0.557   4.957 -1.2334  0.3341 -0.3505
 7152SOL    HW232916   3.383   0.655   4.849  0.9137 -0.0876 -0.1837
 7153SOL     OW32917   1.278   1.493   8.959 -0.3922 -0.2905 -0.4184
 7153SOL    HW132918   1.232   1.422   8.914  0.3528  0.4398 -2.3344
 7153SOL    HW232919   1.200   1.515   9.010 -0.3374 -1.1531  0.0455
 7154SOL     OW32920   0.895   3.986   8.712 -0.5411 -0.4971 -0.2487
 7154SOL    HW132921   0.818   3.929   8.719  0.5142 -1.8756  0.0470
 7154SOL    HW232922   0.944   3.976   8.793 -0.3131  1.4510 -0.1653
 7155SOL     OW32923   3.001   2.432  10.828 -0.2207 -0.5348  0.4859
 7155SOL    HW132924   2.923   2.408  10.778 -0.7059  2.8536 -0.4043
 7155SOL    HW232925   3.039   2.492  10.764  0.5194 -3.6498 -2.0094
 7156SOL     OW32926   1.655   3.206   2.945 -0.2046  0.4487  0.1775
 7156SOL    HW132927   1.676   3.211   2.852  2.5187 -0.4945  0.7524
 7156SOL    HW232928   1.689   3.290   2.978  0.5620 -0.0583  0.6796
 7157SOL     OW32929   3.011   3.572   3.096 -0.0553 -0.4125  0.3823
 7157SOL    HW132930   2.964   3.606   3.020  0.3102  0.9981  0.7977
 7157SOL    HW232931   3.013   3.653   3.147 -0.8508  1.2827 -2.2910
 7158SOL     OW32932   3.987   0.573  11.525 -0.5265  0.3162 -0.2218
 7158SOL    HW132933   4.052   0.562  11.594 -0.3672  1.1514 -0.2387
 7158SOL    HW232934   3.929   0.633  11.572  0.7859  2.1999 -0.9984
 7159SOL     OW32935   3.789   3.270  16.568  0.1820 -0.4459 -0.2147
 7159SOL    HW132936   3.715   3.300  16.621  0.8444  0.1617  0.3758
 7159SOL    HW232937   3.802   3.187  16.613 -0.3359  0.4978  1.6922
 7160SOL     OW32938   0.580   3.143   0.494 -0.2981 -0.1051  0.0053
 7160SOL    HW132939   0.670   3.150   0.463  0.3146  1.3642  2.0852
 7160SOL    HW232940   0.550   3.234   0.492 -1.5867 -0.4657  2.8318
 7161SOL     OW32941   3.405   0.118  16.141 -0.5102  0.3795 -0.2568
 7161SOL    HW132942   3.375   0.045  16.087  0.5770  0.8274 -1.4595
 7161SOL    HW232943   3.444   0.187  16.087  1.2502 -0.4331 -0.0443
 7162SOL     OW32944   2.022   4.492   8.193 -0.2093 -0.3633 -0.0881
 7162SOL    HW132945   1.940   4.518   8.236  0.4956  2.2540 -0.3310
 7162SOL    HW232946   1.994   4.471   8.104  1.1099 -1.4803 -0.2395
 7163SOL     OW32947   3.280   1.133   4.403 -0.3507  0.6618  0.5320
 7163SOL    HW132948   3.203   1.119   4.349  0.2589  1.5374 -0.5590
 7163SOL    HW232949   3.337   1.171   4.336 -0.9855 -1.7200 -1.3390
 7164SOL     OW32950   1.016   4.377   3.261 -0.4191 -0.1330  0.8023
 7164SOL    HW132951   0.972   4.304   3.304  0.7990 -2.2135 -1.4950
 7164SOL    HW232952   0.950   4.399   3.196 -1.1338 -1.3897  1.1045
 7165SOL     OW32953   0.092   1.432   4.934  0.0673 -0.1985  0.7514
 7165SOL    HW132954   0.176   1.409   4.894  1.4442  4.5259  0.9041
 7165SOL    HW232955   0.073   1.522   4.909  0.6782 -0.7796 -1.8410
 7166SOL     OW32956   4.700   2.626   7.423  0.8174  0.2041  0.0042
 7166SOL    HW132957   0.066   2.599   7.448  0.4795 -1.0132 -0.0937
 7166SOL    HW232958   4.680   2.568   7.349 -0.2401 -0.0525  0.4803
 7167SOL     OW32959   1.781   2.492   0.311 -0.0597  0.0140 -0.3619
 7167SOL    HW132960   1.694   2.522   0.286 -0.9304 -1.9077  0.4066
 7167SOL    HW232961   1.832   2.503   0.231  1.1087  0.3010  0.4257
 7168SOL     OW32962   2.637   2.308   0.332 -0.3789 -0.4583  0.0258
 7168SOL    HW132963   2.656   2.294   0.425  0.6049 -0.6290 -0.1983
 7168SOL    HW232964   2.600   2.396   0.343 -0.7665 -0.8600  2.0278
 7169SOL     OW32965   3.467   3.668  14.168  0.1055  0.3297 -0.2501
 7169SOL    HW132966   3.535   3.728  14.135  0.6601 -1.4586 -2.3447
 7169SOL    HW232967   3.424   3.652  14.084  3.0422  1.0259 -1.9210
 7170SOL     OW32968   1.091   1.908   3.993  0.3810 -0.0488  0.1804
 7170SOL    HW132969   1.013   1.906   3.938  0.0771  0.6911  0.5881
 7170SOL    HW232970   1.062   1.846   4.060  0.9737 -2.2584 -1.6191
 7171SOL     OW32971   2.720   4.004  17.128 -0.3537  0.3429  0.2284
 7171SOL    HW132972   2.795   3.992  17.070 -0.4883 -2.3502  0.5792
 7171SOL    HW232973   2.723   4.099  17.125 -0.2051  0.4278  2.9400
 7172SOL     OW32974   1.946   2.206   5.522  0.2545  0.0719 -0.3530
 7172SOL    HW132975   1.901   2.253   5.451  0.0472 -0.0430 -0.2983
 7172SOL    HW232976   1.903   2.121   5.522 -0.2723  0.3360  0.2460
 7173SOL     OW32977   0.442   2.563   6.950 -0.1528  0.4307  0.4326
 7173SOL    HW132978   0.428   2.573   6.856  1.3773  0.0454  0.1652
 7173SOL    HW232979   0.537   2.553   6.946 -0.0927  1.2449 -0.3843
 7174SOL     OW32980   3.553   2.528   1.228 -0.0780 -0.3837 -0.0008
 7174SOL    HW132981   3.647   2.537   1.214  0.0684 -1.5458  0.2691
 7174SOL    HW232982   3.521   2.530   1.138 -2.4668 -0.5169  0.8519
 7175SOL     OW32983   3.027   3.139   2.751  0.0139 -0.1382  0.1292
 7175SOL    HW132984   2.994   3.162   2.664 -2.1910  0.9059  1.2324
 7175SOL    HW232985   2.951   3.087   2.777  0.5452 -0.2285  1.4496
 7176SOL     OW32986   0.257   3.400   9.572  0.7050  0.2414  0.6704
 7176SOL    HW132987   0.277   3.481   9.527 -2.1959  1.1147  0.9696
 7176SOL    HW232988   0.305   3.337   9.518  1.8467  0.8055  1.0246
 7177SOL     OW32989   0.074   0.995   7.885  0.1445 -0.0948  0.0132
 7177SOL    HW132990   0.004   1.049   7.923  1.1162  1.6770 -0.6967
 7177SOL    HW232991   0.098   0.939   7.959 -0.0985 -1.1274 -0.6858
 7178SOL     OW32992   0.794   0.733   0.850  0.1581 -0.1981 -0.8853
 7178SOL    HW132993   0.830   0.819   0.827 -3.2187  1.0034 -1.7836
 7178SOL    HW232994   0.711   0.732   0.802 -1.1417  1.5458  1.3253
 7179SOL     OW32995   0.950   1.819   3.151  0.0438  0.3904  0.1893
 7179SOL    HW132996   0.966   1.731   3.186 -0.4227 -0.1216 -0.8984
 7179SOL    HW232997   1.037   1.859   3.156  0.1487  0.2362 -0.3745
 7180SOL     OW32998   0.054   3.724  17.319 -0.1223 -0.3762 -0.5666
 7180SOL    HW132999   0.056   3.757  17.409 -2.0732 -2.2877  0.1764
 7180SOL    HW233000   0.041   3.630  17.329  0.8847 -0.4586 -0.0229
 7181SOL     OW33001   0.409   2.367   7.662  0.1001 -0.0503  0.5980
 7181SOL    HW133002   0.385   2.366   7.755  0.6943  1.5638  0.7608
 7181SOL    HW233003   0.465   2.445   7.658  0.9360 -0.6039  1.4744
 7182SOL     OW33004   0.611   4.634   5.348  0.0994 -0.1172 -0.1961
 7182SOL    HW133005   0.523   4.666   5.371  1.0301  1.6413  1.0141
 7182SOL    HW233006   0.600   4.551   5.395 -2.8885  1.5681  2.0989
 7183SOL     OW33007   3.478   2.064   6.336 -0.0066 -0.2880 -0.5095
 7183SOL    HW133008   3.489   1.986   6.282  4.3003  0.4146 -0.6689
 7183SOL    HW233009   3.386   2.086   6.326  0.0879  0.6993  0.8210
 7184SOL     OW33010   1.244   3.060  10.793  0.2891  0.1624  0.6856
 7184SOL    HW133011   1.185   2.996  10.833 -0.6342  1.7367  1.8676
 7184SOL    HW233012   1.326   3.011  10.796 -0.4228 -1.1449 -1.3375
 7185SOL     OW33013   0.687   3.285   9.235 -0.1047  0.6793  0.4540
 7185SOL    HW133014   0.630   3.209   9.225 -2.1355  2.1810  0.6215
 7185SOL    HW233015   0.680   3.307   9.328  2.2020 -2.1947  1.3030
 7186SOL     OW33016   0.334   3.969   2.667 -0.4451 -0.5812  0.1811
 7186SOL    HW133017   0.314   4.025   2.742 -2.8112 -0.3450 -0.6221
 7186SOL    HW233018   0.396   4.020   2.615  2.3361 -1.1930  2.8963
 7187SOL     OW33019   0.852   4.372   5.128  0.2872  0.4614  0.4159
 7187SOL    HW133020   0.882   4.364   5.037  0.3790  1.8604  0.3269
 7187SOL    HW233021   0.853   4.280   5.155  2.0612  0.0274 -1.1126
 7188SOL     OW33022   0.667   4.395   7.294 -0.3030 -0.2823  0.2425
 7188SOL    HW133023   0.719   4.358   7.365 -1.5828 -0.5764  1.0189
 7188SOL    HW233024   0.686   4.328   7.229 -1.8150  0.1573 -0.6549
 7189SOL     OW33025   2.759   2.920   3.207  0.1213  0.2114  0.1166
 7189SOL    HW133026   2.795   2.991   3.260  0.3153 -0.5733  1.0412
 7189SOL    HW233027   2.842   2.904   3.162  0.2190  0.5498  0.1785
 7190SOL     OW33028   3.154   2.484   6.563 -0.1740 -0.3508 -0.6325
 7190SOL    HW133029   3.198   2.401   6.582  1.5341  0.1650 -2.2988
 7190SOL    HW233030   3.187   2.503   6.475  0.8290  0.5522 -0.0567
 7191SOL     OW33031   1.804   3.889   1.534  0.0953 -0.0292  0.4330
 7191SOL    HW133032   1.743   3.841   1.591 -2.4868  2.0416 -0.5912
 7191SOL    HW233033   1.791   3.864   1.442  0.3687  2.1620 -0.2002
 7192SOL     OW33034   1.294   1.929  10.442  0.7823 -0.0168  0.1149
 7192SOL    HW133035   1.226   1.940  10.375 -1.0780  0.3466  2.0655
 7192SOL    HW233036   1.342   2.012  10.444  1.0893 -0.2562  2.4940
 7193SOL     OW33037   2.156   2.581   5.591 -0.0403  0.0332  0.2203
 7193SOL    HW133038   2.102   2.541   5.659  0.5969 -0.0187  0.6932
 7193SOL    HW233039   2.182   2.502   5.544 -1.2367  0.2212 -0.7597
 7194SOL     OW33040   2.912   3.436   3.322 -0.3317  0.2479 -0.4911
 7194SOL    HW133041   2.920   3.346   3.290  1.4329  0.7748 -1.5464
 7194SOL    HW233042   2.940   3.486   3.245  2.3502 -0.0949  0.2834
 7195SOL     OW33043   3.226   3.723   6.641 -0.1648  0.0157 -0.1021
 7195SOL    HW133044   3.268   3.763   6.565 -2.5974 -0.9003 -1.9296
 7195SOL    HW233045   3.140   3.763   6.628 -0.6057 -0.8814  0.0594
 7196SOL     OW33046   3.382   1.826   8.609  0.2548 -0.0735  0.3812
 7196SOL    HW133047   3.415   1.915   8.614 -1.0741  0.4552 -0.2375
 7196SOL    HW233048   3.295   1.834   8.649  0.7596 -0.7672  1.6055
 7197SOL     OW33049   1.352   3.276   3.736 -0.0998  0.0392 -0.4243
 7197SOL    HW133050   1.428   3.224   3.764 -0.2807 -0.6738 -1.2825
 7197SOL    HW233051   1.390   3.311   3.656  0.1998  0.4970 -0.0862
 7198SOL     OW33052   4.388   2.656  12.627 -0.4683  0.3348 -0.1961
 7198SOL    HW133053   4.363   2.627  12.715  1.5670 -2.5330 -0.5546
 7198SOL    HW233054   4.456   2.593  12.604  1.3245  2.0328  0.4808
 7199SOL     OW33055   2.729   2.551   7.421 -0.0787 -0.4169 -0.1555
 7199SOL    HW133056   2.638   2.527   7.407 -0.3395  0.1554  0.5961
 7199SOL    HW233057   2.726   2.621   7.486 -0.7162  1.5903 -2.3482
 7200SOL     OW33058   1.591   2.119  16.019  0.1588  0.3092  0.5556
 7200SOL    HW133059   1.517   2.059  16.031  1.1700 -1.4330 -1.9657
 7200SOL    HW233060   1.609   2.128  15.925 -0.5917 -0.4820  0.3362
 7201SOL     OW33061   2.599   2.066   5.831  0.8026 -0.2336 -0.2115
 7201SOL    HW133062   2.547   2.070   5.911 -0.2297  1.2309 -0.9397
 7201SOL    HW233063   2.526   2.058   5.770 -1.7891  3.1775  2.4150
 7202SOL     OW33064   4.219   1.097  13.531  0.1140  0.2166  0.3957
 7202SOL    HW133065   4.211   1.004  13.553 -0.5447  0.3476  0.7107
 7202SOL    HW233066   4.281   1.121  13.600 -1.8092 -1.7789  2.8186
 7203SOL     OW33067   3.402   0.510   2.799  0.1091  0.6233  0.5245
 7203SOL    HW133068   3.339   0.578   2.824  0.8432  1.8326 -0.9099
 7203SOL    HW233069   3.433   0.544   2.715  0.7264  1.5898  1.1308
 7204SOL     OW33070   4.717   2.524   8.760 -0.4107  0.3359  0.0878
 7204SOL    HW133071   0.027   2.477   8.683 -0.4378 -0.1332  0.3588
 7204SOL    HW233072   4.630   2.543   8.727 -1.0142  0.2641  1.6256
 7205SOL     OW33073   0.344   3.446   3.646  0.1023 -0.6542 -0.1525
 7205SOL    HW133074   0.375   3.447   3.737 -3.0421  2.4292  0.8471
 7205SOL    HW233075   0.308   3.357   3.653 -1.5605 -0.0206 -0.7957
 7206SOL     OW33076   1.089   2.924   4.817  0.0727  0.5056  0.3181
 7206SOL    HW133077   1.154   2.869   4.774  0.9396  1.3438  0.5457
 7206SOL    HW233078   1.067   2.871   4.893  0.1413  0.3422  0.2232
 7207SOL     OW33079   1.453   2.980   5.000  0.2119  0.3353 -0.4957
 7207SOL    HW133080   1.456   3.037   4.923 -0.8723  0.0840 -0.7260
 7207SOL    HW233081   1.384   3.012   5.058  1.0362 -2.5570  2.0694
 7208SOL     OW33082   0.288   4.595   4.958 -0.1109 -0.3600 -0.0057
 7208SOL    HW133083   0.376   4.574   4.927  0.4685 -0.7518  1.9065
 7208SOL    HW233084   0.300   4.582   5.052 -2.0348 -2.9988 -0.1481
 7209SOL     OW33085   2.830   0.615  13.566  0.2572 -0.3432  0.6536
 7209SOL    HW133086   2.825   0.520  13.563 -0.3023 -0.2944 -0.0072
 7209SOL    HW233087   2.771   0.635  13.493 -0.7584  1.0737  1.8586
 7210SOL     OW33088   2.989   1.573  13.994  0.5620 -0.1717  0.3351
 7210SOL    HW133089   3.040   1.640  14.040 -0.4703  0.4893  0.5329
 7210SOL    HW233090   3.030   1.491  14.021 -1.8172 -0.6369  2.5990
 7211SOL     OW33091   2.251   3.083   7.610  0.2364  0.0482 -0.1008
 7211SOL    HW133092   2.184   3.130   7.661  1.8702  0.4819  1.6422
 7211SOL    HW233093   2.241   3.128   7.527  0.3904  1.2094  0.5099
 7212SOL     OW33094   1.472   1.859   5.369 -0.0115  0.4394  0.0314
 7212SOL    HW133095   1.390   1.815   5.350  0.8792 -0.8050 -0.9340
 7212SOL    HW233096   1.447   1.936   5.422  2.4625  0.8572  0.6197
 7213SOL     OW33097   3.713   1.184  15.218 -0.3464  0.1721  0.2565
 7213SOL    HW133098   3.769   1.108  15.232  0.4679  0.4047 -1.6836
 7213SOL    HW233099   3.758   1.245  15.276  0.7767  0.2658 -0.7317
 7214SOL     OW33100   1.458   1.357   0.956 -0.8385  0.0808 -0.4452
 7214SOL    HW133101   1.521   1.389   0.891 -2.1482  2.8004 -0.3400
 7214SOL    HW233102   1.376   1.393   0.923 -0.4966  0.1418 -1.2267
 7215SOL     OW33103   0.537   3.961  17.672  0.0686  0.2982 -0.1754
 7215SOL    HW133104   0.448   3.928  17.662 -0.2867  0.8328  1.1493
 7215SOL    HW233105   0.589   3.889   0.016  1.1831  1.5637  0.7693
 7216SOL     OW33106   3.642   1.809   5.875  0.0629  0.1034  0.2346
 7216SOL    HW133107   3.714   1.799   5.937  0.0552  0.2164  0.2617
 7216SOL    HW233108   3.635   1.905   5.876  0.2333  0.1255 -0.5274
 7217SOL     OW33109   1.688   2.910   5.902  0.2451 -0.1273 -0.1742
 7217SOL    HW133110   1.679   2.922   5.996  0.5793  1.2593 -0.3204
 7217SOL    HW233111   1.757   2.976   5.897  0.3087 -0.2268 -0.6346
 7218SOL     OW33112   0.721   4.078   5.509  0.3467 -0.3002  0.2994
 7218SOL    HW133113   0.772   4.016   5.562 -0.1477 -0.2075  0.8961
 7218SOL    HW233114   0.794   4.124   5.468 -1.0631  2.0930  0.5191
 7219SOL     OW33115   4.610   3.692   7.967  0.2480 -0.2968  0.1756
 7219SOL    HW133116   4.525   3.665   7.930 -0.0410  0.8595 -0.0196
 7219SOL    HW233117   4.587   3.768   8.021  1.0744 -0.7223  1.1101
 7220SOL     OW33118   3.078   3.198   7.657 -0.7614  0.0872  0.4983
 7220SOL    HW133119   3.069   3.199   7.752 -1.3535  0.4326  0.4334
 7220SOL    HW233120   3.092   3.290   7.636 -3.6492  0.7289  1.4707
 7221SOL     OW33121   2.601   2.979   6.371 -0.0508 -0.1083 -0.3764
 7221SOL    HW133122   2.555   3.039   6.313 -0.7036 -0.7045 -0.4688
 7221SOL    HW233123   2.685   2.959   6.329  1.6588  2.7498  1.6193
 7222SOL     OW33124   3.918   0.636   4.401  0.1446 -0.3039  0.2619
 7222SOL    HW133125   3.854   0.707   4.393  3.0368  2.3131  0.1294
 7222SOL    HW233126   3.980   0.677   4.461 -0.3567  1.0172 -0.1136
 7223SOL     OW33127   0.590   1.758   3.325  0.7400  0.1839  0.4950
 7223SOL    HW133128   0.517   1.774   3.266  0.5845  0.3776  0.7394
 7223SOL    HW233129   0.622   1.670   3.305  1.1644  0.7415 -1.2547
 7224SOL     OW33130   3.714   3.630   6.821 -0.2484  0.0295 -0.4071
 7224SOL    HW133131   3.785   3.607   6.881  0.2800  1.2678 -0.5505
 7224SOL    HW233132   3.668   3.694   6.874  1.4415  3.2224 -2.7480
 7225SOL     OW33133   4.182   1.259   4.874  0.4414 -0.3135 -0.4054
 7225SOL    HW133134   4.189   1.319   4.800  2.5767  1.4329  1.2302
 7225SOL    HW233135   4.168   1.174   4.831 -0.0974 -0.4342  0.0150
 7226SOL     OW33136   2.083   2.599  12.955  0.2537  0.1958  0.3526
 7226SOL    HW133137   2.016   2.667  12.969  1.6623  1.2955  1.7975
 7226SOL    HW233138   2.083   2.610  12.860  2.6650 -1.0374  0.2292
 7227SOL     OW33139   2.992   0.572   0.198  0.1949  0.6562 -0.4454
 7227SOL    HW133140   2.995   0.571   0.102  1.2452  1.0043 -0.4080
 7227SOL    HW233141   2.994   0.664   0.227  0.1213  0.2367  0.8937
 7228SOL     OW33142   4.140   1.784   5.681 -0.1220 -0.1976  0.4579
 7228SOL    HW133143   4.192   1.760   5.605  1.2572  0.2745  1.2388
 7228SOL    HW233144   4.196   1.852   5.718 -1.0828  1.1353 -0.5367
 7229SOL     OW33145   2.614   0.652  13.380  0.1061 -0.4922 -0.0911
 7229SOL    HW133146   2.652   0.677  13.296  2.5234 -1.4005  0.7441
 7229SOL    HW233147   2.555   0.728  13.384 -1.2282 -1.5873  0.7188
 7230SOL     OW33148   0.519   0.028   4.303 -0.8629 -0.6669  0.5251
 7230SOL    HW133149   0.448   0.046   4.364  0.9139  2.9587  1.5148
 7230SOL    HW233150   0.502   0.091   4.233 -0.0221  0.1552  1.0651
 7231SOL     OW33151   2.897   3.650  15.199 -0.4074 -0.0055 -0.0266
 7231SOL    HW133152   2.964   3.610  15.254 -2.9192 -2.4535  1.2733
 7231SOL    HW233153   2.869   3.725  15.251 -2.0875  0.8189 -2.1172
 7232SOL     OW33154   2.822   1.152   1.656  0.6978  0.4057 -0.2332
 7232SOL    HW133155   2.805   1.186   1.569 -0.2015  2.8089  0.8858
 7232SOL    HW233156   2.864   1.075   1.617  0.6989  0.7218 -0.8507
 7233SOL     OW33157   2.965   0.955   2.238  0.3985  0.5116 -0.2961
 7233SOL    HW133158   3.022   0.884   2.268 -1.5124 -1.0977 -0.4682
 7233SOL    HW233159   2.987   0.973   2.147  1.5289 -0.6126 -0.2383
 7234SOL     OW33160   1.010   4.589   4.512  0.3130  0.0683  1.0021
 7234SOL    HW133161   0.973   4.674   4.535 -1.0713 -0.1301 -0.4820
 7234SOL    HW233162   1.013   4.535   4.591 -1.7820 -1.6833 -0.1141
 7235SOL     OW33163   3.425   1.939   4.394  0.6298 -0.5042 -0.7067
 7235SOL    HW133164   3.470   1.939   4.478  1.4636  0.1298 -1.1489
 7235SOL    HW233165   3.403   1.846   4.384 -1.5606 -0.2522  1.7357
 7236SOL     OW33166   1.061   0.603   5.966  0.3938  0.5461  0.6928
 7236SOL    HW133167   1.004   0.616   5.890  1.2952  1.3053  0.1376
 7236SOL    HW233168   1.140   0.638   5.924  1.4508  0.7405  2.8315
 7237SOL     OW33169   3.704   0.340   4.086  0.0344  0.1739  0.0938
 7237SOL    HW133170   3.693   0.432   4.063 -0.3657  0.0685 -0.1372
 7237SOL    HW233171   3.736   0.348   4.176 -0.6628 -1.1107  0.4558
 7238SOL     OW33172   4.519   3.298   6.996 -0.1950  0.3751  0.4112
 7238SOL    HW133173   4.427   3.274   6.997  0.0091 -0.4354 -0.5549
 7238SOL    HW233174   4.516   3.369   7.061  3.1773  0.5673  0.3707
 7239SOL     OW33175   1.012   3.603  15.366 -0.6964 -0.4511 -0.4311
 7239SOL    HW133176   1.023   3.696  15.344  0.3572 -0.9052 -1.7986
 7239SOL    HW233177   1.056   3.600  15.450 -0.6917  0.9815 -0.3706
 7240SOL     OW33178   4.091   2.567   7.885 -0.1743  0.7260 -0.1251
 7240SOL    HW133179   4.121   2.507   7.817  0.0637 -0.8165  1.3434
 7240SOL    HW233180   4.108   2.521   7.968 -1.1800  0.0878 -0.2715
 7241SOL     OW33181   1.883   3.523   5.478  0.2230  0.0143 -0.2513
 7241SOL    HW133182   1.793   3.553   5.461  0.2201  0.7485  1.0595
 7241SOL    HW233183   1.856   3.476   5.557  1.7034 -1.5072 -0.6779
 7242SOL     OW33184   0.274   0.736   1.389 -0.5801  0.1262  0.5963
 7242SOL    HW133185   0.314   0.668   1.335  0.3391  1.6734 -0.6793
 7242SOL    HW233186   0.340   0.731   1.458  1.4658  1.7655 -1.2377
 7243SOL     OW33187   1.696   1.314   7.463 -0.4002  0.0084  0.0636
 7243SOL    HW133188   1.635   1.381   7.434 -0.2437  0.7377  1.4046
 7243SOL    HW233189   1.635   1.262   7.516 -0.9676  1.4198  0.7794
 7244SOL     OW33190   1.804   2.434   4.453 -0.2958 -0.2298  0.0099
 7244SOL    HW133191   1.830   2.399   4.538 -1.4217 -3.0241 -0.8087
 7244SOL    HW233192   1.765   2.360   4.407  0.1263  0.8540 -2.0850
 7245SOL     OW33193   2.478   0.197   7.802  0.2194  0.1245 -0.2944
 7245SOL    HW133194   2.521   0.131   7.748  0.2508  0.6094 -0.8684
 7245SOL    HW233195   2.412   0.145   7.848  1.8082 -0.1319  1.6812
 7246SOL     OW33196   1.175   2.097   8.088  0.6278  0.7494 -0.1986
 7246SOL    HW133197   1.264   2.131   8.078  1.4427 -0.4742  2.7971
 7246SOL    HW233198   1.178   2.020   8.032 -1.5420  1.1252 -0.8189
 7247SOL     OW33199   2.146   1.587   2.100 -0.3448  0.2820  0.0495
 7247SOL    HW133200   2.213   1.606   2.166  1.6185  1.8792 -2.4124
 7247SOL    HW233201   2.202   1.541   2.037  2.8721  1.8354  1.7822
 7248SOL     OW33202   2.588   2.883   4.150 -0.2646  0.0425  0.4150
 7248SOL    HW133203   2.610   2.957   4.206  1.5049  0.3786 -0.7253
 7248SOL    HW233204   2.523   2.922   4.091 -0.8491 -0.9541  0.3996
 7249SOL     OW33205   2.276   4.129   2.175 -0.7769 -0.1746  1.0988
 7249SOL    HW133206   2.246   4.213   2.141 -0.4022 -0.4632  0.0658
 7249SOL    HW233207   2.368   4.127   2.147 -1.2381  1.0991 -0.4891
 7250SOL     OW33208   0.603   2.051   6.416  0.4460 -0.0632 -0.3628
 7250SOL    HW133209   0.524   2.029   6.366 -0.9280 -2.1258  2.7354
 7250SOL    HW233210   0.606   2.147   6.418 -2.5317  0.0383 -0.5814
 7251SOL     OW33211   4.591   1.750   2.357  0.0289 -0.2061  0.3432
 7251SOL    HW133212   4.555   1.673   2.400  1.8824 -0.4028  1.5358
 7251SOL    HW233213   4.524   1.794   2.305  1.4569  0.9096 -0.5527
 7252SOL     OW33214   2.536   1.078  14.444 -0.1694 -0.1415  0.1675
 7252SOL    HW133215   2.466   1.135  14.413  0.0177 -0.3661 -0.6551
 7252SOL    HW233216   2.543   1.003  14.386  1.3280 -0.4107  0.6843
 7253SOL     OW33217   2.451   0.224   0.215  0.6931  0.7637  0.3141
 7253SOL    HW133218   2.484   0.298   0.164  0.0707  0.3166 -0.7552
 7253SOL    HW233219   2.532   0.173   0.223  0.6061  0.5631 -0.0510
 7254SOL     OW33220   0.727   3.149   5.298 -0.7399  0.4194 -0.5168
 7254SOL    HW133221   0.792   3.217   5.280 -1.3240  0.2883 -3.0483
 7254SOL    HW233222   0.737   3.118   5.208 -2.0403 -0.2184 -0.4316
 7255SOL     OW33223   2.244   1.075   2.512 -0.0879 -0.2097 -0.0202
 7255SOL    HW133224   2.272   1.095   2.601  0.7725  0.8931 -0.5308
 7255SOL    HW233225   2.211   1.158   2.478 -0.0919  0.8539  2.6000
 7256SOL     OW33226   1.623   4.408   8.377  0.1324 -0.1945  0.2329
 7256SOL    HW133227   1.708   4.451   8.384 -0.3977  1.0778 -0.9488
 7256SOL    HW233228   1.649   4.329   8.329  0.1919  0.1985 -0.3914
 7257SOL     OW33229   3.238   0.825  10.250 -0.5670 -0.1618 -0.0598
 7257SOL    HW133230   3.160   0.776  10.223 -0.7083  0.9970 -1.7833
 7257SOL    HW233231   3.291   0.818  10.171 -0.7923  2.5112 -0.4642
 7258SOL     OW33232   4.627   2.232  12.199 -0.3040  0.8391 -0.9169
 7258SOL    HW133233   4.534   2.214  12.210  0.5028 -2.4038  0.6020
 7258SOL    HW233234   4.622   2.291  12.123  1.0440  0.5002 -1.2630
 7259SOL     OW33235   3.991   4.258   6.115  0.3905 -0.2510  0.2381
 7259SOL    HW133236   3.914   4.316   6.119  0.9846  0.5052  0.6381
 7259SOL    HW233237   4.004   4.256   6.020  0.6487  0.9945  0.2520
 7260SOL     OW33238   2.440   2.294   0.719 -0.4627  0.2084  0.5598
 7260SOL    HW133239   2.373   2.362   0.731  1.4936  1.9200  1.8515
 7260SOL    HW233240   2.440   2.256   0.807 -0.5816  1.4308  1.0794
 7261SOL     OW33241   3.381   0.293  12.529 -0.2799 -0.1906  0.3243
 7261SOL    HW133242   3.339   0.310  12.613  0.8551  0.3711  0.7860
 7261SOL    HW233243   3.398   0.381  12.496  1.8563 -0.6862  0.0933
 7262SOL     OW33244   3.427   1.319   8.439 -0.1535  0.7140  0.2634
 7262SOL    HW133245   3.392   1.401   8.476 -2.1734 -0.0901  0.1262
 7262SOL    HW233246   3.356   1.301   8.378  1.0469 -0.0686 -0.9091
 7263SOL     OW33247   1.224   4.693  13.871  0.1988  0.6878  0.5870
 7263SOL    HW133248   1.296   4.716  13.929  0.4761 -2.0973  1.3517
 7263SOL    HW233249   1.167   4.661  13.941 -0.1501 -1.2246 -0.5797
 7264SOL     OW33250   1.458   3.828   7.852 -0.3784  0.1402  0.1106
 7264SOL    HW133251   1.408   3.811   7.931 -0.5307 -0.8784 -0.2072
 7264SOL    HW233252   1.446   3.738   7.824 -1.3514  0.2346  0.2494
 7265SOL     OW33253   0.289   0.789   2.241 -0.5171 -0.1737  0.0833
 7265SOL    HW133254   0.333   0.706   2.262 -0.9495 -0.8263 -1.5964
 7265SOL    HW233255   0.255   0.771   2.154  0.9309 -0.9368 -0.3210
 7266SOL     OW33256   2.614   4.519   6.444 -0.0629  0.4932 -0.5251
 7266SOL    HW133257   2.620   4.610   6.413  0.8065  0.4488 -0.4798
 7266SOL    HW233258   2.704   4.505   6.473 -1.1555 -0.0085  2.5859
 7267SOL     OW33259   0.125   3.036   4.428 -0.2442 -0.0708  0.0813
 7267SOL    HW133260   0.074   3.077   4.357 -0.6528 -1.5082 -0.4544
 7267SOL    HW233261   0.170   2.973   4.372  0.2407  0.0063  0.3899
 7268SOL     OW33262   1.929   4.152   3.971  0.3195  0.2910 -0.1243
 7268SOL    HW133263   1.983   4.193   3.904  1.7574 -2.3422 -0.5681
 7268SOL    HW233264   1.996   4.136   4.038  0.3552  1.1911  0.0519
 7269SOL     OW33265   2.824   0.515   8.196 -0.4493 -0.3156 -0.0679
 7269SOL    HW133266   2.837   0.603   8.161 -1.1857 -0.7185 -1.3539
 7269SOL    HW233267   2.729   0.505   8.205  0.0340 -2.9154  2.2841
 7270SOL     OW33268   1.730   2.909   8.044 -0.0221 -0.5664 -0.4881
 7270SOL    HW133269   1.638   2.897   8.020  0.1207  0.1222 -1.3639
 7270SOL    HW233270   1.714   2.947   8.131 -1.2594  0.2304 -1.0610
 7271SOL     OW33271   3.940   3.546   7.955 -0.5965 -0.2536 -0.1683
 7271SOL    HW133272   3.877   3.503   7.897 -1.1585  2.5949 -1.6562
 7271SOL    HW233273   3.887   3.582   8.026  3.1924 -0.0849  2.5835
 7272SOL     OW33274   2.460   3.020  13.580  0.7454  0.3882 -0.5420
 7272SOL    HW133275   2.365   3.030  13.576  0.4168 -2.3084  0.5109
 7272SOL    HW233276   2.477   2.931  13.550 -1.6725 -0.2754 -0.0151
 7273SOL     OW33277   2.742   3.998  11.090 -0.0011 -0.4501 -0.0173
 7273SOL    HW133278   2.707   4.064  11.150 -0.0720  0.9178 -1.5725
 7273SOL    HW233279   2.828   4.037  11.077 -1.3835  2.3264 -0.8890
 7274SOL     OW33280   1.914   0.374   6.760 -0.1822 -0.2082 -0.1958
 7274SOL    HW133281   1.999   0.343   6.792 -0.5249 -1.4737 -0.4736
 7274SOL    HW233282   1.873   0.407   6.839  1.0006 -0.9124  0.7283
 7275SOL     OW33283   0.118   3.704   3.341  0.0814 -0.1182  0.2171
 7275SOL    HW133284   0.166   3.683   3.261 -0.1609 -1.9392  0.5535
 7275SOL    HW233285   0.123   3.800   3.332 -0.7685 -0.1659 -0.7661
 7276SOL     OW33286   1.166   0.290   4.310  0.0069 -0.3601  0.0152
 7276SOL    HW133287   1.193   0.228   4.378  1.2937 -0.3758 -0.5153
 7276SOL    HW233288   1.073   0.266   4.311  0.1102 -0.8065 -2.6814
 7277SOL     OW33289   2.657   0.452   6.408  0.0450 -0.4167 -0.5066
 7277SOL    HW133290   2.689   0.408   6.329 -0.1104  0.5204 -1.0971
 7277SOL    HW233291   2.604   0.386   6.453  0.9390 -2.5085 -2.5168
 7278SOL     OW33292   1.798   2.764   4.943  0.3212  0.1467 -0.0422
 7278SOL    HW133293   1.791   2.675   4.977 -1.8513  0.2943 -0.0908
 7278SOL    HW233294   1.762   2.810   5.019  0.8124  0.8958 -0.2576
 7279SOL     OW33295   4.695   1.698   3.944 -0.0297 -0.1142 -0.6019
 7279SOL    HW133296   4.721   1.637   3.875 -0.0247 -2.1713  1.2177
 7279SOL    HW233297   0.052   1.751   3.945  1.8094 -2.8652 -1.1995
 7280SOL     OW33298   1.373   4.183   3.230 -0.2320  0.1217 -0.1995
 7280SOL    HW133299   1.424   4.148   3.303  0.8809  0.5301 -0.7693
 7280SOL    HW233300   1.383   4.118   3.160 -0.8660 -1.5575  1.2669
 7281SOL     OW33301   0.029   4.055   3.893 -0.0064  0.1586  0.1305
 7281SOL    HW133302   0.066   4.096   3.815 -0.2684 -0.5916 -0.3818
 7281SOL    HW233303   4.681   4.117   3.911  0.0130 -0.1120  1.1518
 7282SOL     OW33304   3.035   0.675  17.654 -0.0886  0.0368  0.0547
 7282SOL    HW133305   3.125   0.682  17.687  0.0956  2.1031 -0.8573
 7282SOL    HW233306   3.033   0.624  17.574  0.1619 -0.0348  0.0940
 7283SOL     OW33307   2.757   1.085   2.378  0.2634 -0.0240 -0.1460
 7283SOL    HW133308   2.725   1.101   2.289 -1.5064  0.4389  0.5719
 7283SOL    HW233309   2.827   1.025   2.354  1.3612  0.4968  1.7547
 7284SOL     OW33310   3.718   2.636   5.091 -0.0202  0.4120 -0.3012
 7284SOL    HW133311   3.663   2.562   5.116 -0.2629  0.4197 -0.8254
 7284SOL    HW233312   3.771   2.601   5.020  2.0840 -1.4440  2.1784
 7285SOL     OW33313   1.690   1.005  16.281  0.0629 -0.3822  0.6460
 7285SOL    HW133314   1.694   1.032  16.189 -1.7025 -0.1272  0.6425
 7285SOL    HW233315   1.745   0.927  16.278 -1.1220 -1.2619  2.1169
 7286SOL     OW33316   1.128   2.913   3.019  0.6514 -0.2191  0.2951
 7286SOL    HW133317   1.092   2.996   2.989 -0.7940 -0.8617  0.2501
 7286SOL    HW233318   1.155   2.870   2.938 -1.3196 -1.8415  0.4974
 7287SOL     OW33319   2.366   2.445   5.028 -0.7260  0.0111  0.1801
 7287SOL    HW133320   2.441   2.421   4.974 -2.3007  0.3065 -2.1137
 7287SOL    HW233321   2.314   2.494   4.965 -2.2948 -1.3251  0.4548
 7288SOL     OW33322   3.411   0.292   6.378 -0.0095  0.1339 -0.1538
 7288SOL    HW133323   3.347   0.227   6.405 -0.8765  0.8442 -0.4973
 7288SOL    HW233324   3.371   0.367   6.423 -1.4180  0.0714 -1.2996
 7289SOL     OW33325   1.484   3.814   8.327 -0.4353 -0.1260 -0.2893
 7289SOL    HW133326   1.428   3.891   8.312  2.0158  1.5864 -0.6298
 7289SOL    HW233327   1.441   3.752   8.268 -0.5576 -1.4776  1.2337
 7290SOL     OW33328   2.296   0.338  10.275  0.2040  0.3505 -0.2623
 7290SOL    HW133329   2.321   0.319  10.365  3.5141 -1.3308 -1.5449
 7290SOL    HW233330   2.381   0.332  10.232  0.7648 -0.4178  0.9683
 7291SOL     OW33331   3.082   0.717   8.154 -0.6915 -0.3675  0.1217
 7291SOL    HW133332   3.168   0.695   8.188 -0.7527 -3.0346 -1.4325
 7291SOL    HW233333   3.072   0.658   8.080  2.3192 -1.8062  0.8825
 7292SOL     OW33334   2.600   3.127   4.587  0.2002  0.1843  0.3468
 7292SOL    HW133335   2.671   3.191   4.580 -0.4569  0.8558 -0.3208
 7292SOL    HW233336   2.533   3.167   4.643  0.3012 -0.5491  0.9924
 7293SOL     OW33337   2.798   4.602   7.618  0.0048  0.1972  0.5196
 7293SOL    HW133338   2.815   4.669   7.551 -1.1181 -0.5112 -0.4797
 7293SOL    HW233339   2.879   4.553   7.630 -0.6324 -0.9584  0.1637
 7294SOL     OW33340   0.339   0.439   6.230 -0.4509 -0.3094 -0.4267
 7294SOL    HW133341   0.306   0.418   6.142  1.2385 -0.5328 -1.0170
 7294SOL    HW233342   0.266   0.417   6.287  0.1923  1.5811  1.1054
 7295SOL     OW33343   2.751   2.632   9.643  0.2776 -0.3693  0.0581
 7295SOL    HW133344   2.845   2.617   9.635  0.2205 -0.5575 -0.2342
 7295SOL    HW233345   2.747   2.721   9.608 -0.7514  0.4101  2.1826
 7296SOL     OW33346   2.846   0.455   5.037 -0.2685  0.3096  0.0334
 7296SOL    HW133347   2.846   0.530   4.978 -0.4274 -0.6732 -1.2038
 7296SOL    HW233348   2.871   0.501   5.117  1.6447 -0.3075 -0.2200
 7297SOL     OW33349   1.727   2.053   5.250 -0.2332 -0.0377 -0.3349
 7297SOL    HW133350   1.694   1.974   5.207  1.7394 -1.3669  0.6032
 7297SOL    HW233351   1.765   2.012   5.328 -1.5681  0.0686  0.3814
 7298SOL     OW33352   2.450   1.682   4.508 -0.1055 -0.4717 -0.7684
 7298SOL    HW133353   2.430   1.617   4.441 -1.1855  0.1969 -1.0904
 7298SOL    HW233354   2.524   1.634   4.545  0.3074 -0.0200 -1.0006
 7299SOL     OW33355   0.593   2.127   1.200  0.3073  0.0468 -0.4970
 7299SOL    HW133356   0.552   2.054   1.154  2.2438 -1.5715  0.3270
 7299SOL    HW233357   0.526   2.194   1.196 -0.2944 -0.5755 -0.7897
 7300SOL     OW33358   0.414   4.434  14.282  0.4104 -0.5854 -0.1665
 7300SOL    HW133359   0.382   4.425  14.371  0.9100  1.2586  0.1838
 7300SOL    HW233360   0.501   4.395  14.286  0.4668 -0.2077  2.0720
 7301SOL     OW33361   0.117   2.217   7.291 -0.2026 -0.0227  0.4169
 7301SOL    HW133362   0.087   2.158   7.361  0.4694 -2.6717 -1.5192
 7301SOL    HW233363   0.199   2.259   7.318 -0.1839  0.2830 -0.1361
 7302SOL     OW33364   1.863   0.002   8.946  0.3860 -0.3346 -0.0091
 7302SOL    HW133365   1.927   4.654   8.955 -0.2905 -1.0546 -0.8243
 7302SOL    HW233366   1.921   0.073   8.918 -0.2699  0.9058  1.8403
 7303SOL     OW33367   0.550   1.584  11.753  0.0668  0.1144 -0.0636
 7303SOL    HW133368   0.508   1.648  11.812  0.8102  1.7135 -1.2800
 7303SOL    HW233369   0.611   1.543  11.814  2.4412  2.2296 -1.0309
 7304SOL     OW33370   4.715   4.533   2.217  0.7967 -0.0523  0.1021
 7304SOL    HW133371   4.644   4.524   2.154  0.0550 -1.9450  1.1988
 7304SOL    HW233372   4.703   4.449   2.261  0.9456 -0.3253 -0.3852
 7305SOL     OW33373   1.314   1.167   2.117  0.1502  0.3673 -0.9154
 7305SOL    HW133374   1.262   1.184   2.195  1.8503  2.1509 -0.1765
 7305SOL    HW233375   1.402   1.188   2.149  0.6382 -2.6493 -0.2509
 7306SOL     OW33376   1.676   1.222   1.952  0.1255  0.4084  0.5179
 7306SOL    HW133377   1.770   1.206   1.949 -0.0591 -0.7829  0.8056
 7306SOL    HW233378   1.659   1.275   1.874 -0.2755 -0.3356  0.0961
 7307SOL     OW33379   1.694   4.013  13.876  0.3199  0.1305 -0.4511
 7307SOL    HW133380   1.701   4.058  13.792  0.4241  1.0554  0.0469
 7307SOL    HW233381   1.690   4.086  13.938 -1.9666 -1.9041  1.7884
 7308SOL     OW33382   0.944   1.222   9.768 -0.2450  0.0091 -0.1480
 7308SOL    HW133383   0.959   1.189   9.856 -1.2302 -0.0462  0.0013
 7308SOL    HW233384   0.963   1.316   9.778 -0.4937  0.2394 -1.8357
 7309SOL     OW33385   1.603   0.821  11.931 -0.4329 -0.0377 -0.0123
 7309SOL    HW133386   1.565   0.795  11.847 -2.7852  0.6532  0.8483
 7309SOL    HW233387   1.593   0.915  11.918 -1.2175  0.1585  2.0644
 7310SOL     OW33388   3.926   3.860   3.706 -0.0126 -0.1864 -0.3459
 7310SOL    HW133389   3.995   3.914   3.744 -0.9065  0.0382  0.9384
 7310SOL    HW233390   3.980   3.802   3.653  0.6541  2.0391 -2.1119
 7311SOL     OW33391   1.325   0.189  12.864 -0.4815 -0.9424  0.2192
 7311SOL    HW133392   1.386   0.115  12.864  2.4306  1.4578 -2.6331
 7311SOL    HW233393   1.248   0.148  12.903 -0.6791 -0.0142  0.8013
 7312SOL     OW33394   0.038   3.824   9.406 -0.3015  0.4965  0.1710
 7312SOL    HW133395   0.002   3.760   9.345  0.1248  2.3459 -1.9943
 7312SOL    HW233396   4.689   3.885   9.420 -0.5600 -0.0019  1.0469
 7313SOL     OW33397   4.316   1.271  14.167  0.1449  0.2037 -0.1123
 7313SOL    HW133398   4.349   1.225  14.090 -1.9002  0.1834 -0.9825
 7313SOL    HW233399   4.249   1.323  14.122  2.0230  0.1231 -2.9771
 7314SOL     OW33400   2.470   0.451   4.411 -0.2819  0.2399  0.5341
 7314SOL    HW133401   2.432   0.425   4.327 -3.1842  0.3375  1.8144
 7314SOL    HW233402   2.532   0.519   4.384  2.1114 -2.3634 -0.5512
 7315SOL     OW33403   0.460   4.150  16.416  0.5009 -0.2505 -0.1310
 7315SOL    HW133404   0.411   4.201  16.480  2.8817  0.4455  1.1495
 7315SOL    HW233405   0.385   4.094  16.395  0.9822 -0.8926 -0.1187
 7316SOL     OW33406   3.360   4.643   3.693  0.6101  0.2662 -0.3693
 7316SOL    HW133407   3.302   4.580   3.649 -0.3810 -0.0266  1.3668
 7316SOL    HW233408   3.298   4.716   3.703  1.8201  1.0383  1.3466
 7317SOL     OW33409   3.166   3.553   8.000  0.0405  0.1969 -0.0750
 7317SOL    HW133410   3.144   3.545   8.093  1.4961  2.6893  0.4901
 7317SOL    HW233411   3.110   3.623   7.969 -0.1096 -0.0740 -0.4096
 7318SOL     OW33412   0.456   0.368   3.378  0.2676 -0.2726  0.1240
 7318SOL    HW133413   0.486   0.415   3.456 -2.6605  0.8778  0.5451
 7318SOL    HW233414   0.447   0.283   3.421  1.9987  1.1417  3.3110
 7319SOL     OW33415   2.348   0.506   2.062 -0.4019  0.0294  0.6868
 7319SOL    HW133416   2.272   0.481   2.114 -0.2688 -0.8198  0.4780
 7319SOL    HW233417   2.332   0.596   2.034  0.6953 -0.2066 -0.7255
 7320SOL     OW33418   3.611   3.046   7.821  0.5913 -0.3809  0.1186
 7320SOL    HW133419   3.545   3.008   7.763 -2.0158  1.6182  1.7627
 7320SOL    HW233420   3.660   3.096   7.755 -0.1825  0.6313  0.3003
 7321SOL     OW33421   3.236   2.006   1.504 -0.1467 -0.1282  0.7913
 7321SOL    HW133422   3.273   1.957   1.578  1.7006  0.9012  0.5221
 7321SOL    HW233423   3.295   2.081   1.497  1.2825 -1.1748  1.6303
 7322SOL     OW33424   3.631   0.599  11.799 -0.2231 -0.1284  0.1646
 7322SOL    HW133425   3.684   0.662  11.749 -0.5086 -0.6249 -0.7715
 7322SOL    HW233426   3.683   0.565  11.872 -0.1209 -1.8952 -0.7470
 7323SOL     OW33427   2.129   2.095   5.967  0.0581  0.1671 -0.3093
 7323SOL    HW133428   2.049   2.106   5.916 -0.8066 -2.5618  0.4385
 7323SOL    HW233429   2.096   2.136   6.047  0.0706 -1.2437  0.4263
 7324SOL     OW33430   3.794   2.975   2.963 -1.1304  0.0274 -0.1804
 7324SOL    HW133431   3.754   3.056   2.994  0.8319  2.1902 -3.3039
 7324SOL    HW233432   3.719   2.918   2.979  0.5995 -2.7400 -1.7989
 7325SOL     OW33433   0.249   0.202   3.676  0.0785 -0.2388 -0.4200
 7325SOL    HW133434   0.342   0.178   3.672  0.7183  1.7802  1.9147
 7325SOL    HW233435   0.220   0.153   3.599 -2.1509 -0.8921  0.8310
 7326SOL     OW33436   1.237   1.858  11.633 -0.3365  0.0428 -0.1509
 7326SOL    HW133437   1.318   1.876  11.586  0.6398  1.8083  2.2198
 7326SOL    HW233438   1.240   1.912  11.712  1.1353 -0.9637  0.4762
 7327SOL     OW33439   4.293   3.547  14.600  0.3557  0.4261  0.3188
 7327SOL    HW133440   4.375   3.511  14.634  0.7026 -0.1050 -1.0997
 7327SOL    HW233441   4.322   3.637  14.589 -2.4764  1.5092  1.6023
 7328SOL     OW33442   0.634   0.239   7.700  0.8174  0.3620  0.9009
 7328SOL    HW133443   0.704   0.274   7.645  1.6153 -0.0197  1.6610
 7328SOL    HW233444   0.557   0.293   7.688  0.2478 -0.3538  1.2984
 7329SOL     OW33445   0.945   1.545  10.659  0.8239  0.0454 -0.0607
 7329SOL    HW133446   0.973   1.582  10.576 -2.0133 -2.1937 -2.0058
 7329SOL    HW233447   0.874   1.489  10.630  2.9343 -2.1253 -1.0396
 7330SOL     OW33448   2.514   0.223  15.729  0.0763  0.0401 -0.1383
 7330SOL    HW133449   2.544   0.243  15.818  0.2183 -1.7021  0.2092
 7330SOL    HW233450   2.591   0.250  15.679 -1.0519 -0.0930 -1.9148
 7331SOL     OW33451   2.062   0.045  12.623  0.0081  0.2099  0.2492
 7331SOL    HW133452   2.059   4.717  12.704  1.3758  1.3224  1.0012
 7331SOL    HW233453   2.156   0.056  12.610 -0.0649 -1.6337 -1.9021
 7332SOL     OW33454   3.511   0.807   7.885  0.3705  0.1753  0.0805
 7332SOL    HW133455   3.512   0.891   7.840 -0.5185  0.3874  0.4495
 7332SOL    HW233456   3.444   0.832   7.949  0.4850 -2.4084  1.2160
 7333SOL     OW33457   3.808   1.059   3.921  0.1260 -0.1962  0.5141
 7333SOL    HW133458   3.842   1.066   3.831 -1.8333  1.8071 -0.0607
 7333SOL    HW233459   3.734   1.118   3.909 -1.0462 -1.6006  0.8519
 7334SOL     OW33460   3.976   2.861   2.569 -0.2896  0.0251  0.0046
 7334SOL    HW133461   3.890   2.878   2.529 -0.6891  1.3700  1.4709
 7334SOL    HW233462   4.025   2.801   2.513 -0.2168 -0.5169  0.6515
 7335SOL     OW33463   0.638   0.154   7.977 -0.4208  0.4804  0.2723
 7335SOL    HW133464   0.595   0.238   7.993  0.5858  0.8385  1.1165
 7335SOL    HW233465   0.659   0.163   7.884 -0.3760  0.4890  0.2834
 7336SOL     OW33466   1.690   3.162   6.221  0.6004 -0.6167  0.2559
 7336SOL    HW133467   1.703   3.237   6.163  1.1644 -2.1114 -1.5617
 7336SOL    HW233468   1.630   3.198   6.286  0.2925 -3.5490  1.6181
 7337SOL     OW33469   3.336   3.454   7.621  0.1178  0.8298 -0.1624
 7337SOL    HW133470   3.252   3.451   7.666 -0.3219  2.8615 -0.8267
 7337SOL    HW233471   3.395   3.495   7.684 -2.1686  2.0373  1.1744
 7338SOL     OW33472   3.368   3.841   7.445  0.5778  0.5694 -0.0720
 7338SOL    HW133473   3.398   3.847   7.535  2.4568  1.4932 -0.7445
 7338SOL    HW233474   3.284   3.888   7.443 -1.2703 -2.7853 -1.0690
 7339SOL     OW33475   4.080   1.646  17.563  0.0464  0.0141  0.5323
 7339SOL    HW133476   4.116   1.717  17.510  0.7866 -0.4934  0.3569
 7339SOL    HW233477   4.065   1.570  17.507  0.0083 -1.1527  2.1280
 7340SOL     OW33478   0.821   4.191   9.598 -0.1544 -0.0282 -0.4277
 7340SOL    HW133479   0.751   4.255   9.608 -0.6625 -0.7299  0.5660
 7340SOL    HW233480   0.903   4.239   9.609 -0.8141  0.9285  0.2367
 7341SOL     OW33481   2.493   0.687   0.339  0.5936 -0.0609 -0.2054
 7341SOL    HW133482   2.492   0.781   0.354  1.2084 -0.5435  2.7288
 7341SOL    HW233483   2.553   0.658   0.407  1.1536 -1.8411 -1.4579
 7342SOL     OW33484   0.467   4.181   5.553 -0.1040  0.3154 -0.3489
 7342SOL    HW133485   0.449   4.149   5.642 -1.9539 -1.0923 -1.2240
 7342SOL    HW233486   0.545   4.133   5.524 -0.6618 -0.1457 -1.0888
 7343SOL     OW33487   2.127   1.638   8.951 -0.3889 -0.0061  0.1063
 7343SOL    HW133488   2.153   1.624   9.042  0.4415 -0.5099 -0.2043
 7343SOL    HW233489   2.176   1.560   8.923 -2.2190 -0.9847 -0.3187
 7344SOL     OW33490   1.382   0.837  12.373 -0.1480  0.0877  0.2451
 7344SOL    HW133491   1.366   0.926  12.406 -0.4127  0.4706 -0.9000
 7344SOL    HW233492   1.475   0.848  12.352 -0.1440 -2.0095 -0.8561
 7345SOL     OW33493   3.644   3.049   6.766 -0.3362  0.2272  0.5495
 7345SOL    HW133494   3.605   3.135   6.780  1.7471  1.2151  0.3296
 7345SOL    HW233495   3.683   3.031   6.851  1.8609  2.1719 -0.0464
 7346SOL     OW33496   1.761   3.419   8.939 -0.3005 -0.0343  0.2872
 7346SOL    HW133497   1.677   3.414   8.985  0.3946  0.3583  1.5894
 7346SOL    HW233498   1.813   3.369   9.002  0.5820  1.6153  0.8494
 7347SOL     OW33499   4.633   2.799   3.218 -0.8022  0.0089 -0.3911
 7347SOL    HW133500   4.616   2.714   3.176 -0.1393 -0.1265 -0.3836
 7347SOL    HW233501   4.618   2.773   3.309  0.1200 -2.1472 -0.8451
 7348SOL     OW33502   1.375   2.072   4.173  0.2284  0.0420  0.2701
 7348SOL    HW133503   1.316   2.082   4.099 -0.9261  1.3867  1.3515
 7348SOL    HW233504   1.456   2.057   4.125  0.3452 -0.6479  0.6837
 7349SOL     OW33505   3.529   3.812  13.096  0.2464  0.2004 -0.3330
 7349SOL    HW133506   3.541   3.802  13.191  1.3232 -0.2636 -0.5222
 7349SOL    HW233507   3.608   3.783  13.051  0.2965 -0.6654  0.3056
 7350SOL     OW33508   0.231   2.399  14.632 -0.4292 -0.1816 -0.2514
 7350SOL    HW133509   0.251   2.469  14.694 -0.6239  1.0537 -1.5954
 7350SOL    HW233510   0.316   2.362  14.611 -0.6238  0.4145 -2.1099
 7351SOL     OW33511   1.243   3.151  12.551 -0.0558  0.2518  0.5510
 7351SOL    HW133512   1.237   3.177  12.643 -1.5337  0.3991  0.4108
 7351SOL    HW233513   1.235   3.239  12.514 -2.3862 -0.5606 -0.9078
 7352SOL     OW33514   1.930   0.514   9.152 -0.1110  0.0336  0.4509
 7352SOL    HW133515   1.942   0.603   9.186  0.7145  0.4717 -1.0043
 7352SOL    HW233516   2.012   0.472   9.176  1.2700  2.6871  0.3249
 7353SOL     OW33517   1.124   0.013  13.143  0.6155 -0.4102  0.3617
 7353SOL    HW133518   1.059   0.071  13.103  0.4611 -0.7043  0.1904
 7353SOL    HW233519   1.090   4.647  13.135 -2.2654  0.5654  1.8113
 7354SOL     OW33520   4.131   1.694  17.137  0.6739 -0.1787  0.1064
 7354SOL    HW133521   4.063   1.744  17.182 -0.0149 -0.3568 -0.7346
 7354SOL    HW233522   4.086   1.630  17.082  0.6747 -1.6941  1.8858
 7355SOL     OW33523   2.470   4.260   7.864 -0.4774 -0.1760  0.4225
 7355SOL    HW133524   2.469   4.254   7.768 -0.4890 -0.3553  0.4327
 7355SOL    HW233525   2.399   4.323   7.878 -0.5217 -1.1233  4.5913
 7356SOL     OW33526   3.135   1.820  11.889 -0.1893 -0.0508 -0.0652
 7356SOL    HW133527   3.226   1.821  11.860  0.3213  1.2364  1.5662
 7356SOL    HW233528   3.096   1.893  11.841  1.0180  1.0733  0.6759
 7357SOL     OW33529   0.688   2.806   4.302  0.2289 -0.4481  0.0807
 7357SOL    HW133530   0.721   2.753   4.229 -1.5577 -1.6545  0.1638
 7357SOL    HW233531   0.732   2.780   4.383 -0.9289  0.2274  0.9234
 7358SOL     OW33532   2.974   2.895  12.192 -0.4126  0.4125 -0.1452
 7358SOL    HW133533   3.020   2.822  12.234  1.1717 -0.2819 -3.0362
 7358SOL    HW233534   3.022   2.970  12.227  0.8212 -0.2680 -0.3840
 7359SOL     OW33535   2.549   1.129  12.751 -0.4092 -0.0425 -0.3446
 7359SOL    HW133536   2.626   1.142  12.807 -0.2207 -1.9261 -0.1816
 7359SOL    HW233537   2.510   1.213  12.777 -0.2904  0.3669 -1.5086
 7360SOL     OW33538   1.386   0.415   7.957 -0.1053 -0.0494  0.0134
 7360SOL    HW133539   1.433   0.332   7.960  0.1302  0.1131  0.7732
 7360SOL    HW233540   1.304   0.393   7.914 -1.4038  1.3965  1.7606
 7361SOL     OW33541   4.073   3.757   3.988 -0.4662 -0.4813 -0.3053
 7361SOL    HW133542   4.036   3.677   3.951 -2.5216  0.3783 -0.1532
 7361SOL    HW233543   4.051   3.828   3.927 -1.1195 -0.8478 -0.4990
 7362SOL     OW33544   2.518   2.914   1.524  0.6241  0.6083  0.6337
 7362SOL    HW133545   2.504   2.987   1.463 -0.6657  2.0790  2.6997
 7362SOL    HW233546   2.587   2.866   1.477 -0.1156  1.7860 -1.6440
 7363SOL     OW33547   0.369   2.943   6.912 -0.6653 -0.1469  0.4078
 7363SOL    HW133548   0.365   2.907   7.000  0.1740  1.0323  0.9345
 7363SOL    HW233549   0.319   3.025   6.912 -1.5355 -0.6645 -1.2281
 7364SOL     OW33550   1.750   2.759   9.542  0.5863  0.7749 -0.2408
 7364SOL    HW133551   1.736   2.708   9.462 -2.8015  2.0774 -0.4563
 7364SOL    HW233552   1.829   2.807   9.516  0.8483 -0.8086 -2.4012
 7365SOL     OW33553   1.548   4.143   5.673  0.3358  0.0061 -0.2241
 7365SOL    HW133554   1.590   4.066   5.637 -0.1707  0.1283 -1.0658
 7365SOL    HW233555   1.535   4.125   5.766 -0.2240  3.5256  0.4058
 7366SOL     OW33556   2.225   4.495   9.430  0.3499  0.0796  0.8794
 7366SOL    HW133557   2.144   4.445   9.423  0.3004  0.3888 -0.7703
 7366SOL    HW233558   2.193   4.575   9.471  0.3931  0.7285 -0.3849
 7367SOL     OW33559   0.512   2.218   8.362  0.4244  0.0913 -0.0099
 7367SOL    HW133560   0.554   2.142   8.322  0.7826 -0.2536  1.0303
 7367SOL    HW233561   0.477   2.187   8.446 -0.0159 -1.0088 -0.5964
 7368SOL     OW33562   3.217   1.728   5.871 -0.3058  0.0184 -0.3125
 7368SOL    HW133563   3.166   1.788   5.925  0.1147 -0.6149  0.7787
 7368SOL    HW233564   3.213   1.781   5.791 -0.5734 -0.8484 -0.8793
 7369SOL     OW33565   4.141   4.010  14.692 -0.8231 -0.0544 -0.3221
 7369SOL    HW133566   4.091   4.089  14.709 -1.7843 -1.0156  1.2936
 7369SOL    HW233567   4.202   4.041  14.625  0.5958  0.9550  1.4456
 7370SOL     OW33568   0.226   1.772  13.728  0.0987  0.3182 -0.1457
 7370SOL    HW133569   0.144   1.808  13.760  0.8262  0.1976  1.8866
 7370SOL    HW233570   0.224   1.680  13.755 -2.7854  0.8561  1.4846
 7371SOL     OW33571   2.282   0.113   2.265  0.1030  0.1984 -0.4992
 7371SOL    HW133572   2.350   0.072   2.319 -0.5868 -0.1936  0.0712
 7371SOL    HW233573   2.283   0.068   2.181 -1.7095  0.5265 -0.6901
 7372SOL     OW33574   1.055   2.952   4.476  0.4094 -0.7837  0.2065
 7372SOL    HW133575   1.094   2.967   4.390 -1.6256  0.9585 -0.3974
 7372SOL    HW233576   0.972   2.998   4.460  1.3395  0.9714  0.4796
 7373SOL     OW33577   1.240   2.097   2.309 -0.1957  0.2044 -0.1211
 7373SOL    HW133578   1.221   2.107   2.402 -1.3099  0.3515 -0.3572
 7373SOL    HW233579   1.292   2.017   2.308  0.0912  0.4013 -1.1278
 7374SOL     OW33580   1.293   3.982   3.782 -0.5786  0.1638  0.0670
 7374SOL    HW133581   1.319   3.919   3.714  2.3624 -0.3368  1.6657
 7374SOL    HW233582   1.235   4.041   3.734  0.9588 -0.5041 -2.6666
 7375SOL     OW33583   3.664   1.967  15.245  0.0133 -0.0150  0.2790
 7375SOL    HW133584   3.709   1.979  15.161 -0.0453  1.1411  0.4183
 7375SOL    HW233585   3.570   1.961  15.232 -0.3579  1.5082  2.2859
 7376SOL     OW33586   1.353   2.939   6.969  0.5682 -0.2961  0.7432
 7376SOL    HW133587   1.361   2.844   6.974 -0.5786 -0.4185  0.1125
 7376SOL    HW233588   1.425   2.964   7.027  1.2809 -1.4601  0.3547
 7377SOL     OW33589   0.720   4.378  13.836 -0.0739  0.6438 -0.4358
 7377SOL    HW133590   0.699   4.350  13.747 -0.8058 -1.3538  0.3537
 7377SOL    HW233591   0.638   4.367  13.886  0.7798 -0.5987  0.6865
 7378SOL     OW33592   3.858   0.971  15.289 -0.1396 -0.2516 -0.1077
 7378SOL    HW133593   3.841   0.964  15.383  1.5250  1.8540  0.3523
 7378SOL    HW233594   3.881   0.884  15.256  0.7130 -0.6440  1.5295
 7379SOL     OW33595   3.211   1.143   2.760  0.1771  0.2104 -0.6645
 7379SOL    HW133596   3.217   1.106   2.848  0.2427  0.4344 -0.5723
 7379SOL    HW233597   3.234   1.236   2.763 -0.5572  0.3539  0.5993
 7380SOL     OW33598   2.812   4.312   6.821 -0.4302 -0.4081 -0.2526
 7380SOL    HW133599   2.726   4.352   6.831  0.2204  0.5453  1.4521
 7380SOL    HW233600   2.795   4.271   6.736 -0.3919 -1.2734  0.1591
 7381SOL     OW33601   2.335   1.552   8.366  0.6262 -0.1146  0.3394
 7381SOL    HW133602   2.301   1.493   8.298  0.6885 -0.0369  0.2410
 7381SOL    HW233603   2.417   1.582   8.326  0.2552 -2.8554 -2.4995
 7382SOL     OW33604   4.423   4.352  13.132  0.2247  0.2139  0.2173
 7382SOL    HW133605   4.457   4.264  13.118  2.6343  1.1581  0.2049
 7382SOL    HW233606   4.377   4.329  13.213 -0.2130 -1.7561 -0.5988
 7383SOL     OW33607   2.810   0.260  11.449 -0.1298  0.0306  0.2467
 7383SOL    HW133608   2.776   0.288  11.364 -0.5334 -1.4402 -0.0813
 7383SOL    HW233609   2.896   0.299  11.438 -0.7097  1.0925 -0.5523
 7384SOL     OW33610   1.406   0.373   4.732  0.5525 -0.5018 -0.0055
 7384SOL    HW133611   1.338   0.409   4.675  0.4960 -1.4531 -0.5266
 7384SOL    HW233612   1.485   0.410   4.691 -0.8672  1.6067 -0.8115
 7385SOL     OW33613   2.302   2.699   7.455 -0.7509  0.8179 -0.5633
 7385SOL    HW133614   2.251   2.739   7.384  0.7481  1.0472 -1.5032
 7385SOL    HW233615   2.370   2.760   7.484 -0.5302  0.1350  0.3668
 7386SOL     OW33616   4.029   2.716   2.341  0.1100  0.0286 -0.3839
 7386SOL    HW133617   4.076   2.765   2.273 -0.6387  0.2178 -0.7651
 7386SOL    HW233618   3.957   2.692   2.283 -0.8499 -0.6014  1.1042
 7387SOL     OW33619   3.007   1.842   1.588  0.2289  0.2884 -0.0830
 7387SOL    HW133620   3.063   1.909   1.548  1.5616 -1.7923 -1.6800
 7387SOL    HW233621   3.052   1.762   1.563  0.8919  0.7483 -0.3589
 7388SOL     OW33622   1.559   3.554   9.888 -0.4222  0.3105 -0.4577
 7388SOL    HW133623   1.645   3.590   9.866 -0.6093  0.3525 -1.1059
 7388SOL    HW233624   1.592   3.474   9.929  1.8751  0.8010 -1.3196
 7389SOL     OW33625   0.042   1.946   6.251 -0.8208 -0.4014 -0.0376
 7389SOL    HW133626   0.105   2.014   6.227 -1.2996 -1.4077 -4.2050
 7389SOL    HW233627   4.696   2.000   6.290 -1.0623 -1.4347  0.9715
 7390SOL     OW33628   1.656   0.128   8.585 -1.0339  0.1615  0.0672
 7390SOL    HW133629   1.703   0.206   8.614 -0.7092 -0.3299  0.8747
 7390SOL    HW233630   1.620   0.153   8.500  1.7365  2.7176 -0.3723
 7391SOL     OW33631   0.337   3.349   3.190  0.4649 -0.6108 -0.1596
 7391SOL    HW133632   0.413   3.327   3.244 -1.2005  0.3359  2.6193
 7391SOL    HW233633   0.331   3.444   3.191  1.5216 -0.5558  2.0136
 7392SOL     OW33634   0.632   3.057   4.242 -0.3850  0.3299  0.7051
 7392SOL    HW133635   0.659   2.968   4.266 -0.0414  0.5193  1.0181
 7392SOL    HW233636   0.541   3.066   4.270 -0.0026  0.3383  1.9088
 7393SOL     OW33637   3.122   1.590  10.149 -0.3242  0.2717 -0.0334
 7393SOL    HW133638   3.109   1.664  10.209  1.6487 -0.2824  1.0694
 7393SOL    HW233639   3.171   1.529  10.203 -1.2247  0.0211  0.5117
 7394SOL     OW33640   1.241   3.661  17.629 -0.2584 -0.1216  0.8510
 7394SOL    HW133641   1.283   3.739  17.666 -0.8304 -0.4247  2.1457
 7394SOL    HW233642   1.239   3.677  17.534 -0.5966  1.3662  1.1000
 7395SOL     OW33643   1.674   4.262   3.980 -0.5556 -0.4311 -0.6134
 7395SOL    HW133644   1.666   4.241   3.887 -1.3709  0.3135 -0.7153
 7395SOL    HW233645   1.765   4.238   3.995 -1.1447 -1.9457  0.5243
 7396SOL     OW33646   0.947   0.230   3.795 -0.3161 -0.3654  0.5620
 7396SOL    HW133647   0.979   0.158   3.742 -1.5856 -2.1795  2.2895
 7396SOL    HW233648   1.013   0.230   3.864 -1.5724  2.3430  1.7961
 7397SOL     OW33649   4.213   2.377   2.415  0.3893  0.2220  0.2979
 7397SOL    HW133650   4.158   2.335   2.349  0.4752  0.4569  0.0759
 7397SOL    HW233651   4.151   2.436   2.458 -0.7626  0.0180 -1.0840
 7398SOL     OW33652   1.884   3.195   6.688 -0.0995  0.2901  0.2465
 7398SOL    HW133653   1.904   3.119   6.742 -0.3036 -2.0386 -2.9404
 7398SOL    HW233654   1.806   3.229   6.733  0.6819  1.6041  0.6101
 7399SOL     OW33655   2.250   4.437   4.055  0.3139 -1.0179  0.1697
 7399SOL    HW133656   2.239   4.487   4.136  2.0651  0.2289 -0.3462
 7399SOL    HW233657   2.198   4.357   4.065  1.2889 -1.6527  0.1724
 7400SOL     OW33658   0.771   2.285   1.645  0.0419 -0.4195  0.4092
 7400SOL    HW133659   0.723   2.216   1.691  0.5435 -0.3995  0.9615
 7400SOL    HW233660   0.823   2.322   1.716  1.1510 -0.4084 -0.4180
 7401SOL     OW33661   1.745   4.012  15.873 -0.2510 -0.2664 -0.0142
 7401SOL    HW133662   1.669   3.987  15.820  0.5322 -0.1407 -1.1941
 7401SOL    HW233663   1.813   3.986  15.811  0.4640 -0.6692  0.9522
 7402SOL     OW33664   2.189   3.342   8.360  0.2566  0.1415 -0.3991
 7402SOL    HW133665   2.140   3.264   8.387  0.6586 -0.5572 -1.6971
 7402SOL    HW233666   2.261   3.306   8.308  0.0511 -0.8714  0.0249
 7403SOL     OW33667   3.560   2.207   5.493  0.4425  0.4514  0.5235
 7403SOL    HW133668   3.558   2.239   5.583 -2.5518 -2.4073  1.5014
 7403SOL    HW233669   3.630   2.141   5.495  1.7147  1.8582  1.8345
 7404SOL     OW33670   2.691   1.337   7.337  0.3342 -0.1281 -0.0873
 7404SOL    HW133671   2.598   1.356   7.346  0.3773 -0.7969  1.7168
 7404SOL    HW233672   2.731   1.418   7.305  0.0277  1.7893  4.3309
 7405SOL     OW33673   2.408   1.823  11.081 -0.0139  0.7610  0.5152
 7405SOL    HW133674   2.321   1.783  11.071  0.3512  0.1391 -0.1187
 7405SOL    HW233675   2.451   1.743  11.112 -2.7275 -1.3067 -1.0463
 7406SOL     OW33676   4.119   3.755   8.021 -0.4798 -0.3878  0.1686
 7406SOL    HW133677   4.045   3.815   8.014 -0.6575 -0.5906  0.3087
 7406SOL    HW233678   4.070   3.674   8.007  0.3711 -0.6447 -1.4134
 7407SOL     OW33679   0.736   1.648  16.485 -0.2258 -0.1169 -0.1354
 7407SOL    HW133680   0.804   1.592  16.523 -1.3440 -0.6271  1.1203
 7407SOL    HW233681   0.724   1.599  16.403 -1.1332 -2.8278  1.6290
 7408SOL     OW33682   4.382   0.098  15.765  0.3016 -0.2698 -0.2902
 7408SOL    HW133683   4.427   0.076  15.683  0.9467 -0.0672  0.0157
 7408SOL    HW233684   4.337   0.015  15.782 -0.6342  0.3173  0.0794
 7409SOL     OW33685   0.230   4.391  14.492  1.0338  0.5339  0.1008
 7409SOL    HW133686   0.140   4.415  14.513  0.6648 -0.4638 -0.3366
 7409SOL    HW233687   0.254   4.336  14.567  2.2277 -0.7469 -1.2293
 7410SOL     OW33688   2.161   3.190   3.054 -0.0253  0.1938  0.1667
 7410SOL    HW133689   2.215   3.115   3.030  2.1800  2.0404 -0.6286
 7410SOL    HW233690   2.074   3.158   3.028  0.2370 -1.6626  1.5961
 7411SOL     OW33691   2.613   1.401  17.593  0.1401  0.1921 -0.1658
 7411SOL    HW133692   2.661   1.473  17.635  0.9696 -1.1071  1.1010
 7411SOL    HW233693   2.676   1.330  17.590  0.8171  0.7563  0.5436
 7412SOL     OW33694   4.004   4.350   0.017 -0.0461  0.5349 -0.4057
 7412SOL    HW133695   4.062   4.277  17.687 -1.4536 -0.6222 -0.2345
 7412SOL    HW233696   3.941   4.339  17.638 -1.6065 -1.4358  1.2799
 7413SOL     OW33697   2.203   2.140   4.252 -0.0035  0.1553  0.2800
 7413SOL    HW133698   2.282   2.090   4.231 -0.2573 -0.0568 -0.1906
 7413SOL    HW233699   2.237   2.194   4.323  0.6756  1.6781 -1.2101
 7414SOL     OW33700   3.288   1.924   3.796  0.4706 -0.3162  0.0126
 7414SOL    HW133701   3.320   1.876   3.872 -1.7084  0.0124  1.1140
 7414SOL    HW233702   3.253   2.005   3.832  1.9780  1.1787 -1.9012
 7415SOL     OW33703   2.461   1.626   6.108 -0.0347 -0.4456  0.9888
 7415SOL    HW133704   2.403   1.553   6.088 -0.3256  0.0600 -0.0046
 7415SOL    HW233705   2.545   1.580   6.100  0.2779 -0.0735  2.1069
 7416SOL     OW33706   1.430   2.840   6.597  0.8410  0.3880 -0.2631
 7416SOL    HW133707   1.491   2.912   6.609  0.3267  0.6218  0.9092
 7416SOL    HW233708   1.455   2.777   6.665  1.3801  0.8849 -0.0055
 7417SOL     OW33709   3.698   4.211   2.440 -0.2292  0.1129  0.5577
 7417SOL    HW133710   3.638   4.181   2.509 -1.4604 -0.1736 -0.6387
 7417SOL    HW233711   3.667   4.301   2.430  0.6211  0.3341 -0.0340
 7418SOL     OW33712   4.460   3.704   3.702  0.1693 -0.5687 -0.2407
 7418SOL    HW133713   4.548   3.706   3.664 -0.0714  0.4155 -0.7278
 7418SOL    HW233714   4.440   3.612   3.685  1.3692 -0.7753 -0.5157
 7419SOL     OW33715   2.546   0.505   3.715  0.2313  0.0015  0.1334
 7419SOL    HW133716   2.462   0.473   3.746 -0.4085  3.6673  2.2062
 7419SOL    HW233717   2.533   0.493   3.621 -2.0669  0.7464  0.3629
 7420SOL     OW33718   1.177   3.129   8.325 -0.1903  0.5406 -0.3459
 7420SOL    HW133719   1.240   3.154   8.393 -0.1826  0.0622 -0.1769
 7420SOL    HW233720   1.238   3.078   8.271 -0.3772  0.2571 -0.2870
 7421SOL     OW33721   4.152   3.301  11.701 -0.0739  0.0857  0.2301
 7421SOL    HW133722   4.158   3.394  11.682  0.1037  0.4597  2.1239
 7421SOL    HW233723   4.213   3.290  11.774 -2.7751  1.6418  2.6571
 7422SOL     OW33724   0.553   2.131   4.765  0.2063  0.6867  0.3167
 7422SOL    HW133725   0.559   2.145   4.859  0.0925 -0.4806  0.5060
 7422SOL    HW233726   0.550   2.035   4.756 -1.2050  0.6160  1.7240
 7423SOL     OW33727   3.950   4.028   6.270  0.3917 -0.1903 -0.5600
 7423SOL    HW133728   3.961   4.107   6.217  0.5953  1.7371  2.3435
 7423SOL    HW233729   3.991   3.972   6.204 -1.5687 -1.9757 -0.2559
 7424SOL     OW33730   1.622   4.292  16.660  0.7397  0.2645  0.2447
 7424SOL    HW133731   1.655   4.300  16.750  1.9066  1.8676 -0.3438
 7424SOL    HW233732   1.594   4.381  16.641  4.1671  0.9751 -1.5448
 7425SOL     OW33733   2.266   3.546   2.975  0.1166 -0.2312 -0.1222
 7425SOL    HW133734   2.326   3.472   2.963  1.2863  0.3798  1.8704
 7425SOL    HW233735   2.290   3.606   2.905  0.3465  0.8379  0.8663
 7426SOL     OW33736   4.089   1.812   7.305 -0.1821 -0.9526 -0.0834
 7426SOL    HW133737   4.130   1.803   7.218  1.1474  0.8059  0.3591
 7426SOL    HW233738   4.160   1.796   7.367 -0.2087 -1.9543 -0.3024
 7427SOL     OW33739   4.454   1.935   4.718  0.7924  0.3383  0.6689
 7427SOL    HW133740   4.365   1.971   4.713  0.6460  0.0415  1.1243
 7427SOL    HW233741   4.473   1.935   4.812  2.7116 -1.2804  0.2907
 7428SOL     OW33742   0.378   4.103   7.887  0.0329  0.3461  0.4490
 7428SOL    HW133743   0.430   4.045   7.942 -0.5361 -0.3043  0.3093
 7428SOL    HW233744   0.427   4.080   7.808  3.2855 -0.1408  2.6174
 7429SOL     OW33745   4.080   1.006  14.985 -0.6864 -0.6441  0.1486
 7429SOL    HW133746   4.172   0.990  14.961 -0.7435  0.3382 -0.7488
 7429SOL    HW233747   4.066   1.080  14.926  0.9149 -1.1360 -0.8589
 7430SOL     OW33748   2.965   2.573   7.930 -0.3209 -0.5921 -0.2380
 7430SOL    HW133749   2.879   2.550   7.966 -0.2122 -2.0923 -0.9648
 7430SOL    HW233750   2.950   2.666   7.914 -2.3275 -0.9030 -0.2344
 7431SOL     OW33751   3.445   2.419  14.551  0.0451  0.3252 -0.4290
 7431SOL    HW133752   3.415   2.501  14.511  1.5766  1.0658 -0.0521
 7431SOL    HW233753   3.535   2.453  14.557 -0.4772  2.0215 -2.0781
 7432SOL     OW33754   4.512   3.669   2.099  0.0684  0.0286  0.1436
 7432SOL    HW133755   4.539   3.612   2.171  1.7722 -1.3328 -1.5534
 7432SOL    HW233756   4.476   3.750   2.135  0.3796  0.4470 -0.4866
 7433SOL     OW33757   0.990   3.941   2.434 -0.3203  1.0091 -0.6922
 7433SOL    HW133758   1.034   3.861   2.463 -0.1368  1.2415 -0.3270
 7433SOL    HW233759   1.011   3.940   2.341  2.7541 -1.4348  0.0416
 7434SOL     OW33760   1.249   0.919   4.723 -0.1724 -0.1727 -1.0527
 7434SOL    HW133761   1.281   0.996   4.770  0.1269 -0.2485 -1.1344
 7434SOL    HW233762   1.241   0.953   4.634 -0.7064  2.9291  0.1871
 7435SOL     OW33763   0.078   0.289   5.497  0.3512 -0.5970 -0.5443
 7435SOL    HW133764   0.107   0.271   5.407 -0.0210  0.8614 -0.9502
 7435SOL    HW233765   0.167   0.308   5.527  0.5668 -0.9640 -0.9502
 7436SOL     OW33766   0.894   2.790   3.843 -0.6829  0.5034  1.1705
 7436SOL    HW133767   0.888   2.750   3.929 -0.4246 -2.0110  0.0286
 7436SOL    HW233768   0.981   2.831   3.841 -0.1740 -0.7482 -2.4150
 7437SOL     OW33769   1.553   1.279  14.663 -0.0367 -0.0680 -0.0072
 7437SOL    HW133770   1.489   1.260  14.594 -0.0515  0.5360 -0.1555
 7437SOL    HW233771   1.497   1.291  14.740 -1.5114 -1.4090 -0.8603
 7438SOL     OW33772   3.802   2.060   7.197  0.6896 -0.7568 -0.1415
 7438SOL    HW133773   3.809   2.132   7.260  1.0523  0.0060 -1.0609
 7438SOL    HW233774   3.896   2.046   7.187  0.6419  0.0487 -1.5807
 7439SOL     OW33775   3.371   4.281   2.265  0.0684  0.0475 -0.7054
 7439SOL    HW133776   3.426   4.359   2.255 -1.7987  1.1506 -2.3855
 7439SOL    HW233777   3.326   4.271   2.181 -0.8938  1.4773 -0.3582
 7440SOL     OW33778   1.580   3.569  12.408  0.5521 -0.1876  0.3339
 7440SOL    HW133779   1.541   3.581  12.495 -1.3840  1.2470 -0.7265
 7440SOL    HW233780   1.534   3.491  12.377  1.8692 -0.4312 -0.9776
 7441SOL     OW33781   1.584   3.407   9.597 -0.1063 -0.3933 -0.1640
 7441SOL    HW133782   1.526   3.475   9.632 -0.7487 -0.7261 -0.5886
 7441SOL    HW233783   1.559   3.411   9.505  1.6285  1.4040 -0.5634
 7442SOL     OW33784   3.133   2.931   0.093  0.1098  0.0208 -0.0435
 7442SOL    HW133785   3.199   2.986   0.134  0.2143 -0.1406  0.0024
 7442SOL    HW233786   3.096   2.988   0.025  0.7153  0.5902  0.1160
 7443SOL     OW33787   3.915   3.372  15.355  0.0436  0.0557 -0.3600
 7443SOL    HW133788   3.889   3.456  15.394 -1.5753  0.7743 -2.9212
 7443SOL    HW233789   4.002   3.359  15.394 -1.3300 -1.1484  2.2617
 7444SOL     OW33790   3.700   2.260   2.808 -0.3915 -0.4902 -0.1024
 7444SOL    HW133791   3.634   2.285   2.873 -0.1250 -2.9230  1.0964
 7444SOL    HW233792   3.648   2.245   2.729 -1.4772 -2.1540  0.9434
 7445SOL     OW33793   0.366   3.119  12.590  0.3470 -0.1369  0.2756
 7445SOL    HW133794   0.277   3.097  12.564  0.9355 -1.4660 -0.6414
 7445SOL    HW233795   0.368   3.114  12.686  2.6553 -0.8737  0.2114
 7446SOL     OW33796   2.755   2.257   4.437  0.0443 -0.0958 -0.0718
 7446SOL    HW133797   2.716   2.344   4.429 -0.9273 -0.4877  0.3673
 7446SOL    HW233798   2.810   2.262   4.515 -0.6672  0.8384  0.3821
 7447SOL     OW33799   0.541   2.201  10.701 -0.1916 -0.0496 -0.5041
 7447SOL    HW133800   0.597   2.188  10.777 -0.3409  0.5315 -0.2912
 7447SOL    HW233801   0.536   2.117  10.657 -3.5244 -0.5172  0.7479
 7448SOL     OW33802   3.523   0.666   2.016  0.4184 -0.1791 -0.1327
 7448SOL    HW133803   3.606   0.650   2.063  1.4676  1.1165 -1.5494
 7448SOL    HW233804   3.547   0.743   1.964 -0.6230  0.0543 -0.2544
 7449SOL     OW33805   2.018   1.020   2.273 -0.4369  0.0681  0.3726
 7449SOL    HW133806   2.095   1.026   2.217 -2.8137  0.7150 -2.8242
 7449SOL    HW233807   2.019   1.109   2.309  0.6484  0.9659 -1.8620
 7450SOL     OW33808   3.534   0.054  11.237  0.4881  0.4114  0.2075
 7450SOL    HW133809   3.466   0.088  11.179 -0.5471  2.2159  2.4878
 7450SOL    HW233810   3.505   4.687  11.253  0.3851  0.6819  1.4682
 7451SOL     OW33811   0.740   3.172   6.254 -0.2052 -0.3742  0.1119
 7451SOL    HW133812   0.777   3.088   6.229 -0.1897 -0.0470 -0.9789
 7451SOL    HW233813   0.760   3.225   6.177  2.0824  0.0248  0.9918
 7452SOL     OW33814   1.162   2.231  10.949  0.4963  0.3811 -0.1975
 7452SOL    HW133815   1.075   2.263  10.923  1.2470  0.3192 -2.7843
 7452SOL    HW233816   1.162   2.143  10.912  1.2957  0.6563 -0.8628
 7453SOL     OW33817   3.935   0.684   5.865 -0.4490 -0.9075  0.0491
 7453SOL    HW133818   4.020   0.677   5.909 -0.1841 -1.5926 -0.5513
 7453SOL    HW233819   3.955   0.754   5.803  2.3391 -0.0886  1.8909
 7454SOL     OW33820   2.418   3.697   5.418  0.0526 -0.1992  0.0966
 7454SOL    HW133821   2.462   3.724   5.498  1.6068 -1.7527 -0.2196
 7454SOL    HW233822   2.492   3.692   5.357 -0.4160  2.2694 -0.6634
 7455SOL     OW33823   3.832   0.760   9.702 -0.5447  0.3941  0.3756
 7455SOL    HW133824   3.767   0.780   9.768  1.1330  1.0855  1.8166
 7455SOL    HW233825   3.872   0.682   9.740 -2.1492 -1.0121 -0.8127
 7456SOL     OW33826   4.568   0.562   8.959  0.1006 -0.5124  0.4332
 7456SOL    HW133827   4.519   0.565   9.042 -1.5248  1.1640 -0.5846
 7456SOL    HW233828   4.586   0.469   8.947  1.7878 -0.2792  1.0938
 7457SOL     OW33829   1.936   0.557  16.521  0.0254  0.1217 -0.3430
 7457SOL    HW133830   1.993   0.544  16.597 -1.4642  0.3914  0.8280
 7457SOL    HW233831   1.857   0.605  16.548 -0.8301 -1.7816  0.5302
 7458SOL     OW33832   4.071   0.378  10.761 -0.7258  0.4583 -0.6632
 7458SOL    HW133833   4.145   0.317  10.762 -0.6230  0.6072  1.0482
 7458SOL    HW233834   4.004   0.317  10.792  1.0474 -1.0879  0.1611
 7459SOL     OW33835   1.516   3.145   7.874  0.1201 -0.0413 -0.0274
 7459SOL    HW133836   1.429   3.178   7.850  0.1998 -0.2352 -0.5852
 7459SOL    HW233837   1.490   3.053   7.884 -1.0687  0.3736  0.6533
 7460SOL     OW33838   1.801   2.689   5.470 -0.3957  0.7810  0.3574
 7460SOL    HW133839   1.741   2.626   5.509 -0.8559  2.5656  2.5341
 7460SOL    HW233840   1.741   2.762   5.453 -1.2446  0.1775  0.7835
 7461SOL     OW33841   4.715   3.466  17.365  0.5359 -0.1738  0.5023
 7461SOL    HW133842   4.681   3.417  17.290 -0.5007 -0.0726  0.9068
 7461SOL    HW233843   4.670   3.418  17.435 -0.6398  0.0647 -0.0786
 7462SOL     OW33844   2.955   1.917  12.721 -0.2878  0.7146 -0.3043
 7462SOL    HW133845   2.977   1.830  12.686 -3.8698 -0.5479  0.5781
 7462SOL    HW233846   2.969   1.977  12.648 -0.9523  0.4628 -0.6419
 7463SOL     OW33847   1.602   0.888  11.199 -0.1489  0.1430 -0.5657
 7463SOL    HW133848   1.639   0.971  11.168  0.7809  0.6606  1.9338
 7463SOL    HW233849   1.526   0.889  11.140  1.1507 -1.5912 -2.2600
 7464SOL     OW33850   2.185   1.510  17.463  0.0072 -0.6205  0.4891
 7464SOL    HW133851   2.167   1.563  17.386  1.1167  1.2932  1.5397
 7464SOL    HW233852   2.267   1.554  17.487  0.9758 -2.1413 -0.0275
 7465SOL     OW33853   1.306   1.673   7.788  0.4344 -0.1063  0.1125
 7465SOL    HW133854   1.366   1.648   7.859  1.1795  0.0724 -0.4533
 7465SOL    HW233855   1.368   1.662   7.716  0.7891 -0.5791  0.4814
 7466SOL     OW33856   4.474   3.336   5.027 -0.5723  0.2105  0.3281
 7466SOL    HW133857   4.504   3.246   5.015 -3.3053 -0.5005 -1.3016
 7466SOL    HW233858   4.459   3.350   4.933  0.2209  2.1837  0.5021
 7467SOL     OW33859   0.960   2.685   2.393 -0.4431  0.4134  0.0539
 7467SOL    HW133860   1.045   2.640   2.392  0.1977  1.5816  0.9749
 7467SOL    HW233861   0.904   2.614   2.425  0.5747 -0.8273 -0.8980
 7468SOL     OW33862   1.715   0.299   5.397  0.3020 -0.0230 -0.3651
 7468SOL    HW133863   1.674   0.351   5.328 -2.8171 -2.4185 -0.3174
 7468SOL    HW233864   1.654   0.322   5.467 -0.8115 -2.9036 -0.4046
 7469SOL     OW33865   2.468   3.311   6.405 -0.1781 -0.6447 -0.1903
 7469SOL    HW133866   2.400   3.266   6.456  0.2200 -0.5994  0.3763
 7469SOL    HW233867   2.418   3.364   6.343  0.3870 -1.1287 -1.0631
 7470SOL     OW33868   2.719   3.705   3.166 -0.0296 -0.2455  0.3060
 7470SOL    HW133869   2.665   3.748   3.100  0.8707 -2.0839 -1.6003
 7470SOL    HW233870   2.750   3.783   3.212 -1.9688  0.9842 -0.5051
 7471SOL     OW33871   0.474   1.751  12.335  0.4387  0.0987 -0.1134
 7471SOL    HW133872   0.410   1.817  12.361  0.1588 -0.1911 -0.0735
 7471SOL    HW233873   0.455   1.691  12.408  0.1407  0.6545  0.2654
 7472SOL     OW33874   3.845   4.272   7.596  0.0965  0.4449  0.0161
 7472SOL    HW133875   3.786   4.311   7.532 -0.8180 -1.1453 -0.1143
 7472SOL    HW233876   3.902   4.346   7.618  0.6320  0.8629 -2.7869
 7473SOL     OW33877   3.495   3.676  12.701 -0.2529 -0.5250  0.2128
 7473SOL    HW133878   3.552   3.741  12.661 -0.4885 -1.3529 -1.4554
 7473SOL    HW233879   3.560   3.610  12.724 -1.0858 -0.9175  1.4584
 7474SOL     OW33880   0.888   2.174   5.654  0.2054  0.4086 -0.6593
 7474SOL    HW133881   0.861   2.235   5.722 -0.5405 -3.1522  2.2663
 7474SOL    HW233882   0.901   2.242   5.589 -1.6828  0.5624 -0.8746
 7475SOL     OW33883   1.403   1.090   4.402  0.1539 -0.0538  0.5820
 7475SOL    HW133884   1.309   1.088   4.418  0.1049  2.0821  0.5675
 7475SOL    HW233885   1.424   1.006   4.362 -1.1497 -0.8882  1.6632
 7476SOL     OW33886   2.253   2.368   0.287  0.3440 -0.8684 -0.1268
 7476SOL    HW133887   2.255   2.384   0.193 -2.5311 -0.6936 -0.1528
 7476SOL    HW233888   2.306   2.439   0.324  1.1149 -0.1796 -2.5266
 7477SOL     OW33889   0.495   0.027   8.992  0.0782  0.3041 -0.2573
 7477SOL    HW133890   0.484   4.655   8.994 -1.4282  0.5190  1.5703
 7477SOL    HW233891   0.437   0.049   9.065 -0.7014  2.4318 -1.5333
 7478SOL     OW33892   2.519   1.185  12.269 -0.2111 -0.5063  0.3638
 7478SOL    HW133893   2.598   1.207  12.319  0.5747 -1.5735 -0.3988
 7478SOL    HW233894   2.483   1.136  12.343  0.0592  0.0756  0.8827
 7479SOL     OW33895   2.727   4.244  11.204  0.7294 -0.5458 -0.2003
 7479SOL    HW133896   2.806   4.261  11.255 -0.2664 -1.3037  1.5982
 7479SOL    HW233897   2.689   4.332  11.202  2.5263  0.2653  1.6386
 7480SOL     OW33898   2.449   3.913  16.035 -0.8033  0.4548  0.2665
 7480SOL    HW133899   2.396   3.880  16.107  2.2862  1.0768  2.8137
 7480SOL    HW233900   2.416   4.003  16.033  1.8487  1.3548 -1.9000
 7481SOL     OW33901   3.239   0.725   3.959 -0.1751 -0.2861  0.4005
 7481SOL    HW133902   3.272   0.636   3.944  0.4318 -0.1466  0.8997
 7481SOL    HW233903   3.300   0.747   4.029  0.6128 -0.1151 -0.3438
 7482SOL     OW33904   3.641   0.540  17.030 -0.2545  0.1443 -0.2040
 7482SOL    HW133905   3.684   0.512  17.111  2.0871  0.0384 -1.4901
 7482SOL    HW233906   3.671   0.470  16.971 -0.6548 -0.5325  0.4019
 7483SOL     OW33907   1.224   3.406   1.666 -0.0395 -0.1982  0.4789
 7483SOL    HW133908   1.165   3.332   1.674 -1.6076  1.0042  0.0134
 7483SOL    HW233909   1.303   3.370   1.626 -0.6043 -2.2415  1.2132
 7484SOL     OW33910   4.277   4.482   5.091  0.0961 -0.2678 -0.0927
 7484SOL    HW133911   4.363   4.516   5.115 -0.2424  0.6453 -0.1616
 7484SOL    HW233912   4.218   4.530   5.149 -1.3642 -1.4480 -0.5935
 7485SOL     OW33913   1.500   2.963   2.304 -0.5473 -0.6751  0.6043
 7485SOL    HW133914   1.408   2.980   2.281  0.1849  1.2310 -1.0288
 7485SOL    HW233915   1.501   2.879   2.349  0.7993 -0.4793  0.9242
 7486SOL     OW33916   0.683   0.119   5.171 -0.0580  0.4700  0.2853
 7486SOL    HW133917   0.652   0.059   5.239 -2.3022  0.1818 -0.9896
 7486SOL    HW233918   0.765   0.074   5.152 -0.5671 -0.5391  0.5081
 7487SOL     OW33919   4.124   3.374  12.881  0.7693 -0.4648  0.7035
 7487SOL    HW133920   4.170   3.456  12.898  0.2592 -0.0026 -0.1648
 7487SOL    HW233921   4.084   3.401  12.798  1.6402  0.8957  0.7242
 7488SOL     OW33922   1.559   3.579   5.529  0.4156  0.0905  0.1045
 7488SOL    HW133923   1.555   3.639   5.603 -0.5865  0.8123 -0.5249
 7488SOL    HW233924   1.482   3.523   5.539  0.5666  0.0474  1.0059
 7489SOL     OW33925   0.799   2.090   1.927  0.1321 -0.2130  0.6380
 7489SOL    HW133926   0.893   2.095   1.913 -0.1893 -0.4801 -1.6094
 7489SOL    HW233927   0.805   2.164   1.988 -0.1653  0.8875 -0.6456
 7490SOL     OW33928   0.890   2.684   0.671 -0.2123 -0.0079  0.1818
 7490SOL    HW133929   0.887   2.606   0.616  0.2033 -0.5112  0.8811
 7490SOL    HW233930   0.882   2.641   0.756  2.5702 -1.2751 -0.1975
 7491SOL     OW33931   1.926   4.718  10.153 -0.2700  0.0910 -0.1605
 7491SOL    HW133932   2.021   4.711  10.151 -0.2148  0.1400  2.1030
 7491SOL    HW233933   1.906   0.083  10.120 -0.5672 -0.3433 -1.1347
 7492SOL     OW33934   2.836   1.908   5.745 -0.4987 -0.7528  0.1617
 7492SOL    HW133935   2.765   1.971   5.749 -1.0605 -1.4936  1.9952
 7492SOL    HW233936   2.795   1.822   5.732 -1.6453 -0.1858  0.1118
 7493SOL     OW33937   0.806   1.502  13.050 -0.0030  0.5881  0.4430
 7493SOL    HW133938   0.726   1.499  12.998 -0.8777  0.4867  1.8093
 7493SOL    HW233939   0.869   1.455  12.995 -0.8914 -0.7503  0.5625
 7494SOL     OW33940   2.933   0.591   2.174 -0.6492  0.0925 -0.1274
 7494SOL    HW133941   2.998   0.623   2.237 -0.6900 -1.7981  0.8511
 7494SOL    HW233942   2.973   0.615   2.090  0.2010  1.8237  0.7714
 7495SOL     OW33943   1.500   2.215   7.837  0.2347 -0.1636  0.3594
 7495SOL    HW133944   1.546   2.238   7.918 -0.1738  1.5011  0.1089
 7495SOL    HW233945   1.522   2.122   7.829  1.5388  0.3999 -2.5662
 7496SOL     OW33946   3.765   3.594   3.240  0.4349 -0.2587 -0.7853
 7496SOL    HW133947   3.803   3.614   3.325 -1.0084  0.5520 -0.3314
 7496SOL    HW233948   3.820   3.636   3.174 -0.3661  0.3212 -1.0880
 7497SOL     OW33949   1.888   1.682   6.382 -0.0053 -0.2476 -0.0608
 7497SOL    HW133950   1.835   1.752   6.345 -0.0494  0.0784  0.6239
 7497SOL    HW233951   1.869   1.684   6.475  1.4031  0.4001  0.2075
 7498SOL     OW33952   3.674   4.027   6.282 -0.2787 -0.4256 -0.2685
 7498SOL    HW133953   3.693   3.977   6.361  1.3511  0.4252 -0.1083
 7498SOL    HW233954   3.764   4.050   6.257  0.0259  2.1736  3.3423
 7499SOL     OW33955   1.186   3.993  16.195  0.3075  0.9806 -0.1714
 7499SOL    HW133956   1.136   4.060  16.150  2.0003  1.4013 -1.4297
 7499SOL    HW233957   1.139   3.915  16.165  0.0505  1.3267 -0.6529
 7500SOL     OW33958   0.570   1.050   8.181 -0.1627 -0.2303 -0.0675
 7500SOL    HW133959   0.516   0.975   8.155  0.5493 -0.6781 -0.2282
 7500SOL    HW233960   0.507   1.107   8.227 -1.6775 -2.0504  0.1150
 7501SOL     OW33961   1.619   1.162  11.078  0.3587 -0.6417 -0.8350
 7501SOL    HW133962   1.562   1.239  11.074 -1.4972 -2.0329 -1.2460
 7501SOL    HW233963   1.670   1.186  11.001  0.0417  1.2730 -0.4497
 7502SOL     OW33964   0.541   4.507   4.934  0.5799 -0.3138 -0.3198
 7502SOL    HW133965   0.603   4.462   4.991 -0.0595 -1.6224 -0.6548
 7502SOL    HW233966   0.580   4.594   4.927  0.4082 -0.3932 -2.2300
 7503SOL     OW33967   1.822   4.599  10.476  0.3287  0.0736  0.6819
 7503SOL    HW133968   1.879   4.675  10.476 -0.6093  0.7780 -1.9915
 7503SOL    HW233969   1.741   4.627  10.520  0.7745 -0.1634  1.6502
 7504SOL     OW33970   0.573   0.496   3.568 -0.2214 -0.0395  0.0497
 7504SOL    HW133971   0.649   0.441   3.548  0.1086  0.9615 -1.4688
 7504SOL    HW233972   0.583   0.574   3.514  4.0586  0.4970  1.6458
 7505SOL     OW33973   2.932   1.407  10.771  0.3427 -0.5293 -0.4241
 7505SOL    HW133974   2.936   1.319  10.733  4.6023 -0.9896  1.1064
 7505SOL    HW233975   3.003   1.451  10.724  1.2789 -0.8546  0.6978
 7506SOL     OW33976   3.741   3.266  10.488  0.1957  0.0422  0.2138
 7506SOL    HW133977   3.677   3.274  10.417  0.4841 -3.3653 -0.4314
 7506SOL    HW233978   3.690   3.234  10.562 -1.0747  1.1493 -0.1843
 7507SOL     OW33979   4.087   0.412   6.624  0.0877 -0.4648 -0.3573
 7507SOL    HW133980   3.992   0.401   6.628  0.0435  0.0752  0.0349
 7507SOL    HW233981   4.110   0.383   6.536  0.3084 -1.5076  0.0428
 7508SOL     OW33982   0.098   2.959   8.136 -0.4066 -0.0169 -0.1359
 7508SOL    HW133983   0.038   3.013   8.084 -0.0024 -0.5888 -1.1800
 7508SOL    HW233984   0.140   3.017   8.200 -1.4737  1.5468 -0.8241
 7509SOL     OW33985   3.609   1.635   5.605 -0.2752 -0.5590  0.0693
 7509SOL    HW133986   3.589   1.547   5.571  0.2655 -0.6878  0.0943
 7509SOL    HW233987   3.683   1.655   5.548  0.5488 -1.0062  0.9821
 7510SOL     OW33988   2.645   3.702  15.991  0.0292  0.2320  0.0342
 7510SOL    HW133989   2.574   3.639  16.007  0.9024 -1.3036 -2.1490
 7510SOL    HW233990   2.599   3.786  15.995 -0.0614  0.2742 -1.7152
 7511SOL     OW33991   1.247   1.066   0.785 -0.1943  0.5265 -0.4234
 7511SOL    HW133992   1.295   1.089   0.865 -1.0993 -1.1741  0.6121
 7511SOL    HW233993   1.314   1.007   0.751 -0.4506  0.2946 -0.5231
 7512SOL     OW33994   2.259   3.547   2.587 -0.2967 -0.4705  0.5229
 7512SOL    HW133995   2.193   3.555   2.518 -0.3716 -1.4886  0.4746
 7512SOL    HW233996   2.218   3.590   2.662  0.7847 -0.2414  0.9835
 7513SOL     OW33997   2.595   4.451   8.997 -0.4325  0.1860  0.4448
 7513SOL    HW133998   2.668   4.487   8.948  0.2489 -0.0234  1.3136
 7513SOL    HW233999   2.555   4.534   9.025 -2.4702 -0.6069 -0.0929
 7514SOL     OW34000   1.672   0.322  13.179 -0.1828  0.1588  0.1363
 7514SOL    HW134001   1.718   0.399  13.145  3.5334 -2.1982 -0.1425
 7514SOL    HW234002   1.583   0.337  13.146 -0.4455 -0.0425  0.7398
 7515SOL     OW34003   2.547   4.189   6.841 -0.1041 -0.1109 -0.1004
 7515SOL    HW134004   2.549   4.247   6.765 -2.5231  0.3839  0.1910
 7515SOL    HW234005   2.512   4.109   6.803 -2.6069  1.8524 -1.9273
 7516SOL     OW34006   1.256   3.277   9.387 -0.2223  0.5911 -0.0703
 7516SOL    HW134007   1.262   3.206   9.322  1.0356 -0.0801  0.7758
 7516SOL    HW234008   1.171   3.320   9.380 -1.6837 -2.5830 -1.8271
 7517SOL     OW34009   0.999   3.884   8.147 -0.0538 -0.0241 -0.1935
 7517SOL    HW134010   0.964   3.965   8.183 -0.1115 -0.7026  1.2776
 7517SOL    HW234011   0.979   3.820   8.215  0.1176 -1.0142 -1.0567
 7518SOL     OW34012   2.959   3.440   9.546  0.1959 -0.0912  0.5408
 7518SOL    HW134013   3.015   3.424   9.471  0.4435 -1.6034  1.0577
 7518SOL    HW234014   2.989   3.526   9.577  0.9366 -0.1792  0.0573
 7519SOL     OW34015   0.393   0.213  11.831 -0.3063 -0.0895 -0.3433
 7519SOL    HW134016   0.468   0.270  11.847 -2.3024  2.5395 -0.3150
 7519SOL    HW234017   0.369   0.231  11.740 -0.8208 -1.6689 -0.5059
 7520SOL     OW34018   2.323   2.331  14.771  0.0207 -0.1652 -0.2806
 7520SOL    HW134019   2.383   2.270  14.814 -0.4200  1.0067  2.0077
 7520SOL    HW234020   2.267   2.273  14.719 -1.2370  0.1794  0.6903
 7521SOL     OW34021   2.742   3.005  16.436 -0.2171 -0.3156 -0.0783
 7521SOL    HW134022   2.651   3.035  16.436 -0.1920 -0.2434  0.4314
 7521SOL    HW234023   2.740   2.917  16.473  1.1382  0.0206  0.8275
 7522SOL     OW34024   0.478   2.245   2.486  0.0484  0.2290 -0.5945
 7522SOL    HW134025   0.446   2.333   2.466 -2.0518 -0.3120  0.3971
 7522SOL    HW234026   0.506   2.264   2.575  1.0248  1.1868 -1.1111
 7523SOL     OW34027   1.081   2.253   4.828  0.0878 -0.5296 -0.1533
 7523SOL    HW134028   1.008   2.284   4.774  0.5107  0.1025 -0.3712
 7523SOL    HW234029   1.154   2.252   4.766  0.0420 -2.3274 -0.1598
 7524SOL     OW34030   3.471   0.515   5.418 -0.5907  0.0730  0.3700
 7524SOL    HW134031   3.565   0.496   5.417 -0.6735 -0.2912 -0.3162
 7524SOL    HW234032   3.456   0.490   5.509  3.1581  1.7220  1.4425
 7525SOL     OW34033   4.302   3.295  12.176  0.5645  0.3748 -0.5070
 7525SOL    HW134034   4.375   3.274  12.118  1.3990 -0.9202  1.0459
 7525SOL    HW234035   4.238   3.313  12.107  1.4902  0.2340 -1.3965
 7526SOL     OW34036   1.291   4.021  10.688 -0.3254  0.2603 -0.1470
 7526SOL    HW134037   1.382   4.037  10.714 -0.7278  0.5149  1.1147
 7526SOL    HW234038   1.249   4.020  10.774 -0.4972 -0.3284 -0.2427
 7527SOL     OW34039   0.354   0.863   8.986 -0.1115 -0.3339 -0.1865
 7527SOL    HW134040   0.275   0.827   8.945  0.6178 -2.6848  0.4342
 7527SOL    HW234041   0.401   0.878   8.904 -2.9967 -0.5084 -1.8928
 7528SOL     OW34042   0.569   1.874  16.257  0.2536  0.2044  0.8624
 7528SOL    HW134043   0.657   1.838  16.251  0.4182  1.0235 -1.7442
 7528SOL    HW234044   0.594   1.953  16.304 -1.9062  0.2266  1.9661
 7529SOL     OW34045   3.695   3.746   3.720  0.1740 -0.2414  0.1339
 7529SOL    HW134046   3.776   3.797   3.722  0.5730 -0.7863 -2.5038
 7529SOL    HW234047   3.716   3.669   3.668  0.1669  0.8663 -1.5057
 7530SOL     OW34048   0.922   2.116   3.153  0.8619  0.3710 -0.2817
 7530SOL    HW134049   0.967   2.032   3.156 -0.0437 -0.1233 -0.5325
 7530SOL    HW234050   0.837   2.096   3.192  2.1192  0.6904  2.6163
 7531SOL     OW34051   0.269   1.508   3.780 -0.3920 -0.2210  0.1616
 7531SOL    HW134052   0.253   1.476   3.868 -0.2143  0.8494  0.5837
 7531SOL    HW234053   0.353   1.551   3.797 -0.8948  1.1360 -0.7276
 7532SOL     OW34054   1.786   1.210  10.534 -0.4484 -0.3142 -0.3625
 7532SOL    HW134055   1.810   1.122  10.565  0.3369 -0.1766 -0.5817
 7532SOL    HW234056   1.741   1.190  10.452 -1.4372 -0.3373  0.1844
 7533SOL     OW34057   3.806   2.315   4.570  0.3937 -0.2383 -1.0300
 7533SOL    HW134058   3.828   2.239   4.516  1.9259 -0.2816 -0.3370
 7533SOL    HW234059   3.800   2.387   4.507 -1.9911  0.6376  0.2006
 7534SOL     OW34060   4.146   4.342   4.902 -0.9424  0.3434 -0.1361
 7534SOL    HW134061   4.186   4.405   4.963 -0.4173 -0.5066  0.4025
 7534SOL    HW234062   4.121   4.407   4.837 -3.4645 -0.2492  0.2225
 7535SOL     OW34063   3.105   0.353   7.142 -0.1666  0.1002  0.0673
 7535SOL    HW134064   3.175   0.404   7.183 -0.0068 -1.1601  1.3633
 7535SOL    HW234065   3.057   0.432   7.118  0.5382  0.0079 -1.6369
 7536SOL     OW34066   1.807   0.429  13.560  0.7949 -0.2317 -0.0575
 7536SOL    HW134067   1.717   0.443  13.532  0.7479  2.4513  1.4840
 7536SOL    HW234068   1.865   0.464  13.492 -0.5681  0.3524 -0.9223
 7537SOL     OW34069   4.153   4.695   6.139 -0.0278  0.0318  0.3378
 7537SOL    HW134070   4.101   0.034   6.088  1.7670 -0.2347 -1.8015
 7537SOL    HW234071   4.141   0.014   6.225  0.1074  1.1172 -0.1699
 7538SOL     OW34072   4.318   1.952   3.133  0.1639 -0.4934  0.9327
 7538SOL    HW134073   4.293   1.974   3.222  0.4599 -2.9516  1.6155
 7538SOL    HW234074   4.410   1.929   3.145  0.9504  1.5575 -1.0070
 7539SOL     OW34075   4.226   4.623   7.538 -0.0204 -0.2888  0.1835
 7539SOL    HW134076   4.192   4.634   7.627  0.0955 -0.0184  0.1940
 7539SOL    HW234077   4.243   4.711   7.504 -1.6726  0.3622  1.0451
 7540SOL     OW34078   3.812   0.849   8.817 -0.3338 -0.1514 -0.1611
 7540SOL    HW134079   3.851   0.910   8.880 -0.5992  0.3221 -0.4478
 7540SOL    HW234080   3.745   0.830   8.882 -1.5084  2.0165 -0.7270
 7541SOL     OW34081   1.787   0.901   1.366 -0.1763  0.1700 -0.1190
 7541SOL    HW134082   1.880   0.914   1.385 -0.4898  2.4284 -0.1357
 7541SOL    HW234083   1.746   0.890   1.452 -0.1861 -1.4443 -0.3185
 7542SOL     OW34084   4.009   0.206   4.435  0.0892  0.3691 -0.0765
 7542SOL    HW134085   4.095   0.166   4.437  0.9286  2.1463 -0.6950
 7542SOL    HW234086   4.000   0.242   4.346  1.0991  0.9769  0.0687
 7543SOL     OW34087   1.424   1.062   7.295 -0.0929 -0.3632 -0.3971
 7543SOL    HW134088   1.412   0.970   7.318  0.4362 -0.3966 -0.2758
 7543SOL    HW234089   1.515   1.055   7.267 -0.5298 -3.9397 -0.9556
 7544SOL     OW34090   3.556   1.670   2.715 -0.3272  0.5514 -0.0748
 7544SOL    HW134091   3.598   1.756   2.721  0.9210 -0.2170  1.9526
 7544SOL    HW234092   3.465   1.694   2.695 -0.0506  0.5809 -1.3284
 7545SOL     OW34093   2.018   1.185  15.766  0.4648 -0.0962 -0.1284
 7545SOL    HW134094   2.093   1.241  15.748 -1.4003  2.4024 -0.1002
 7545SOL    HW234095   1.966   1.196  15.686 -0.5063 -3.1827  0.0546
 7546SOL     OW34096   1.493   1.929  10.785 -0.0680  0.6785 -0.4142
 7546SOL    HW134097   1.536   1.879  10.716  1.6787  2.5829 -0.6816
 7546SOL    HW234098   1.490   1.866  10.857  1.4895  0.9973 -0.0774
 7547SOL     OW34099   3.257   2.687   0.649  0.4214  0.6390  0.7686
 7547SOL    HW134100   3.230   2.778   0.660  1.1579  0.8334  1.0009
 7547SOL    HW234101   3.310   2.699   0.570  0.2729 -1.8264  0.2759
 7548SOL     OW34102   0.757   3.235   2.091 -0.2195  0.4446 -0.4410
 7548SOL    HW134103   0.756   3.286   2.010 -0.6484  1.5746  0.2777
 7548SOL    HW234104   0.788   3.298   2.157  1.3264 -0.6470 -0.1313
 7549SOL     OW34105   2.857   0.581   3.324  0.5670 -0.4604 -0.2456
 7549SOL    HW134106   2.818   0.662   3.293  0.6198 -0.4337 -0.2427
 7549SOL    HW234107   2.942   0.590   3.282  1.4755 -3.7388  0.9049
 7550SOL     OW34108   3.563   4.337   6.455  0.2242 -0.1164  0.1381
 7550SOL    HW134109   3.617   4.414   6.438 -0.5528  0.1094 -1.3104
 7550SOL    HW234110   3.528   4.357   6.541 -1.6501  1.7982 -1.0910
 7551SOL     OW34111   1.289   3.294   9.677  0.0445 -0.6777  0.4111
 7551SOL    HW134112   1.197   3.320   9.683  0.4862  1.0637 -0.3339
 7551SOL    HW234113   1.298   3.295   9.582  1.9568  0.3212  0.5937
 7552SOL     OW34114   2.093   1.495   4.845  0.1990  0.8603  0.4415
 7552SOL    HW134115   2.164   1.463   4.900  0.2566 -1.1208 -0.7666
 7552SOL    HW234116   2.102   1.433   4.772 -1.0050 -0.7101  1.6189
 7553SOL     OW34117   4.257   0.900   2.237  0.2316 -0.3999 -0.6968
 7553SOL    HW134118   4.266   0.930   2.146 -0.0654  0.1099 -0.5555
 7553SOL    HW234119   4.188   0.835   2.233 -1.2130  0.9399  2.5168
 7554SOL     OW34120   3.346   2.851   4.159 -0.2715  0.1653 -0.3157
 7554SOL    HW134121   3.313   2.761   4.166 -1.4719  0.7671  1.8045
 7554SOL    HW234122   3.274   2.895   4.206 -1.1738 -0.7328 -0.8552
 7555SOL     OW34123   1.272   1.290   7.251  0.2808  0.6202  0.3761
 7555SOL    HW134124   1.313   1.208   7.279  1.2622  0.9073 -0.2561
 7555SOL    HW234125   1.315   1.325   7.174  0.0277  3.4698  1.5209
 7556SOL     OW34126   0.582   1.576   2.737 -0.3680 -0.1764 -0.2592
 7556SOL    HW134127   0.534   1.509   2.688 -0.0936 -0.6530  0.1380
 7556SOL    HW234128   0.669   1.538   2.744 -0.2019  0.1921 -0.3356
 7557SOL     OW34129   2.202   2.890  15.666  0.5268 -0.0017  0.6891
 7557SOL    HW134130   2.217   2.984  15.673 -1.6542  0.3131  1.0449
 7557SOL    HW234131   2.124   2.878  15.720  0.3052 -2.5367 -0.1935
 7558SOL     OW34132   2.543   1.629  11.224  0.2246  0.1384 -0.5858
 7558SOL    HW134133   2.594   1.626  11.305  2.6250  1.8879 -2.0321
 7558SOL    HW234134   2.614   1.656  11.165 -0.7906 -0.3104 -2.0163
 7559SOL     OW34135   3.194   3.260  15.715  0.3102 -0.1491 -0.0219
 7559SOL    HW134136   3.143   3.318  15.773  2.3252  2.2330 -0.6243
 7559SOL    HW234137   3.223   3.187  15.770  0.0823 -0.0365  0.2551
 7560SOL     OW34138   1.880   4.213   6.923 -0.2074 -0.1492 -0.1664
 7560SOL    HW134139   1.860   4.154   6.851 -1.7744  1.1576 -0.8012
 7560SOL    HW234140   1.887   4.298   6.880  2.4209 -0.0770  0.4435
 7561SOL     OW34141   2.823   2.555  14.172  0.1349  0.0678  0.3512
 7561SOL    HW134142   2.867   2.506  14.241 -0.0499  1.1839  1.2506
 7561SOL    HW234143   2.898   2.598  14.129  0.0670  0.2695  0.4367
 7562SOL     OW34144   4.360   1.165  14.891  0.7335  0.3466  0.2078
 7562SOL    HW134145   4.425   1.156  14.821  0.8661  0.2288  0.3456
 7562SOL    HW234146   4.405   1.105  14.950  0.2346  0.0657  0.2988
 7563SOL     OW34147   4.153   0.227   4.899  0.3242 -0.0863 -0.4855
 7563SOL    HW134148   4.198   0.149   4.867 -0.9605 -0.9716 -0.1785
 7563SOL    HW234149   4.079   0.223   4.839 -0.5188  0.0861  0.5289
 7564SOL     OW34150   3.448   1.999  11.466 -0.2044 -0.4988 -0.3484
 7564SOL    HW134151   3.494   1.991  11.383 -2.0692  0.2002 -1.4297
 7564SOL    HW234152   3.367   1.956  11.439 -0.9853  0.6777  0.1153
 7565SOL     OW34153   4.157   1.887   2.027 -0.3635 -0.1575 -0.2379
 7565SOL    HW134154   4.173   1.855   1.938  0.7483  2.7714 -1.0920
 7565SOL    HW234155   4.199   1.821   2.081 -1.6530  0.4536  1.5250
 7566SOL     OW34156   4.137   0.947   0.080  0.1754  0.4010  0.5095
 7566SOL    HW134157   4.056   0.897   0.075  0.8352 -0.5215 -0.7852
 7566SOL    HW234158   4.125   1.002   0.003 -1.0786 -1.0318 -0.3131
 7567SOL     OW34159   0.357   1.552   8.659  0.0685 -0.3246  0.5373
 7567SOL    HW134160   0.410   1.572   8.583  0.9615  1.1545  1.5560
 7567SOL    HW234161   0.355   1.629   8.716 -0.8883 -1.3754  1.9430
 7568SOL     OW34162   1.108   0.041  14.922  0.3694  0.3908 -0.1704
 7568SOL    HW134163   1.106   0.137  14.929 -1.2337  0.3275  0.3267
 7568SOL    HW234164   1.199   0.031  14.950  0.6019 -0.4015 -1.2330
 7569SOL     OW34165   3.650   0.205  12.584  0.0600  0.2991 -0.2649
 7569SOL    HW134166   3.596   0.248  12.517  0.2504  1.0027  0.0291
 7569SOL    HW234167   3.584   0.151  12.627 -0.1814  0.7614 -0.0612
 7570SOL     OW34168   0.715   0.018   1.348 -0.3542 -0.3306 -0.1864
 7570SOL    HW134169   0.750   0.038   1.262  1.6317  0.2584  0.7506
 7570SOL    HW234170   0.795   0.045   1.392  1.0940 -4.5655 -0.2024
 7571SOL     OW34171   0.549   2.019   5.864  0.1791  0.4615 -0.2681
 7571SOL    HW134172   0.481   2.086   5.853 -0.4354 -0.2058 -0.5309
 7571SOL    HW234173   0.495   1.944   5.890  0.1419  0.0976 -1.4004
 7572SOL     OW34174   3.415   4.703   2.362  0.3259 -0.0166  0.0460
 7572SOL    HW134175   3.325   4.690   2.391 -0.0066 -1.8788 -1.7769
 7572SOL    HW234176   3.399   0.042   2.291  1.4943  0.9462  0.6165
 7573SOL     OW34177   4.038   1.632   8.035 -0.2443 -0.2877 -0.4394
 7573SOL    HW134178   3.970   1.621   8.102  0.9016  0.1386  0.7770
 7573SOL    HW234179   3.995   1.571   7.975 -0.2506  0.4418 -1.1676
 7574SOL     OW34180   1.931   0.343  16.906 -0.3829  0.0610  0.5320
 7574SOL    HW134181   1.851   0.291  16.895 -0.4887  0.2325  0.4949
 7574SOL    HW234182   1.932   0.361  17.000 -0.5325  4.2243 -0.2512
 7575SOL     OW34183   1.323   3.871   7.435  0.4245 -0.4297  0.2917
 7575SOL    HW134184   1.296   3.780   7.445 -4.5215  1.1250  1.2875
 7575SOL    HW234185   1.298   3.926   7.510 -0.7769  2.7176 -2.3972
 7576SOL     OW34186   1.751   0.156  17.590  0.4311  0.1034 -0.0592
 7576SOL    HW134187   1.729   0.225  17.652 -0.1984  1.9652 -2.3793
 7576SOL    HW234188   1.786   0.081  17.638 -2.1246 -2.2992 -1.9154
 7577SOL     OW34189   2.006   3.728   6.301 -0.1922 -0.2067  0.3665
 7577SOL    HW134190   2.032   3.749   6.211 -0.9307  1.5103  0.5689
 7577SOL    HW234191   1.911   3.722   6.298 -0.1422 -0.8140  0.0169
 7578SOL     OW34192   2.915   2.826   4.004 -0.4452  0.0344  0.3144
 7578SOL    HW134193   2.902   2.875   4.086 -0.8119 -0.7302  0.7192
 7578SOL    HW234194   2.837   2.772   3.994  1.3154 -2.2061 -1.1542
 7579SOL     OW34195   2.593   4.218   4.101  0.1524 -0.0384  0.5230
 7579SOL    HW134196   2.508   4.189   4.134 -0.5378 -0.5296 -1.7198
 7579SOL    HW234197   2.598   4.301   4.149  1.4145  0.0870  0.1622
 7580SOL     OW34198   1.173   2.255   8.891  0.2955  0.3732  0.1950
 7580SOL    HW134199   1.125   2.265   8.973 -0.1946  1.1318 -0.1824
 7580SOL    HW234200   1.196   2.162   8.885 -3.4206 -0.3454 -2.9849
 7581SOL     OW34201   0.372   0.405  12.702 -0.1201 -0.1246 -0.8000
 7581SOL    HW134202   0.301   0.367  12.650 -1.8152  0.9064  0.7758
 7581SOL    HW234203   0.428   0.328  12.705 -1.1043 -0.7891  0.4266
 7582SOL     OW34204   2.530   4.240   2.997  0.0898 -0.1411 -0.3832
 7582SOL    HW134205   2.505   4.292   2.920 -3.8651  0.8306  1.5484
 7582SOL    HW234206   2.462   4.272   3.056 -1.7591 -0.9854 -2.0239
 7583SOL     OW34207   4.068   3.542   2.769  0.1333  0.0269  0.2966
 7583SOL    HW134208   4.111   3.571   2.850 -1.5691 -0.6304  1.4243
 7583SOL    HW234209   4.136   3.494   2.723 -0.0987  1.0313 -1.1227
 7584SOL     OW34210   3.971   2.159   6.513  0.0314 -0.3587 -0.1590
 7584SOL    HW134211   3.880   2.177   6.533  0.0277 -2.3261  1.6347
 7584SOL    HW234212   3.999   2.121   6.597  1.4086  1.0173  0.0208
 7585SOL     OW34213   3.780   2.933   3.578 -0.1817 -0.0167  0.5988
 7585SOL    HW134214   3.704   2.898   3.531 -0.0682 -0.0472  0.4358
 7585SOL    HW234215   3.838   2.928   3.502 -0.8730 -0.0479  0.0735
 7586SOL     OW34216   2.681   3.335   7.018 -0.4845  0.0236  0.3792
 7586SOL    HW134217   2.746   3.402   7.000 -0.7392 -0.8679 -3.8096
 7586SOL    HW234218   2.709   3.266   6.958 -1.9154 -0.9277  0.8008
 7587SOL     OW34219   1.599   0.069   4.217 -0.2453  0.0606 -0.3368
 7587SOL    HW134220   1.517   0.119   4.213 -0.3518  0.1202  2.4244
 7587SOL    HW234221   1.557   4.708   4.237  1.1392 -0.2629  1.2590
 7588SOL     OW34222   0.684   3.662   7.615  0.2225  0.0061  0.1189
 7588SOL    HW134223   0.680   3.713   7.534 -0.8216 -0.9344 -0.4230
 7588SOL    HW234224   0.634   3.587   7.582 -0.3415  1.3325 -2.1065
 7589SOL     OW34225   0.449   1.293   2.959  0.2131 -0.5642 -0.0716
 7589SOL    HW134226   0.413   1.362   3.015 -0.4670 -1.5126  0.6800
 7589SOL    HW234227   0.426   1.213   3.007  1.9374 -0.1489  1.4419
 7590SOL     OW34228   1.634   2.088  13.500 -0.0301 -0.1387  0.2162
 7590SOL    HW134229   1.639   1.992  13.505 -0.7259 -0.1581  0.6214
 7590SOL    HW234230   1.583   2.106  13.421  1.6527  0.9473 -0.6259
 7591SOL     OW34231   3.505   3.355  17.000  0.1780 -0.2906  0.0987
 7591SOL    HW134232   3.529   3.445  17.024 -0.5784  0.2259 -1.1028
 7591SOL    HW234233   3.425   3.340  17.050 -0.1359 -2.4966 -1.0692
 7592SOL     OW34234   4.526   0.277   0.231 -0.3728 -0.0204  0.9842
 7592SOL    HW134235   4.485   0.311   0.152  0.4248 -1.0380  0.1341
 7592SOL    HW234236   4.618   0.273   0.202 -0.4094  1.0797  0.7131
 7593SOL     OW34237   0.725   3.429   8.848 -0.1781  0.1727  0.1421
 7593SOL    HW134238   0.775   3.511   8.847 -2.0508  1.2948 -2.6527
 7593SOL    HW234239   0.773   3.376   8.785 -1.5333 -0.9196  0.0498
 7594SOL     OW34240   0.178   2.558   4.501 -0.7375 -0.3516 -0.7801
 7594SOL    HW134241   0.183   2.645   4.540  1.2156  0.9266 -3.9057
 7594SOL    HW234242   0.192   2.575   4.408  0.4860 -2.0769 -0.9173
 7595SOL     OW34243   1.541   3.116   8.238 -0.1111  0.7693  0.3355
 7595SOL    HW134244   1.591   3.118   8.320 -0.4727  1.1581  0.5444
 7595SOL    HW234245   1.584   3.189   8.193  1.2612  0.4689  1.1576
 7596SOL     OW34246   3.006   1.005   4.303 -0.3748 -0.4687  0.6780
 7596SOL    HW134247   2.945   0.976   4.236 -2.3020  3.0683  0.8837
 7596SOL    HW234248   2.999   1.101   4.303  0.0542 -0.4363 -2.3904
 7597SOL     OW34249   3.474   0.074  14.552  0.5231 -0.0087 -0.0885
 7597SOL    HW134250   3.448   0.061  14.461  0.4018  0.5926 -0.1440
 7597SOL    HW234251   3.567   0.100  14.551  0.4888  0.1267  0.1854
 7598SOL     OW34252   1.071   4.017  17.562  0.5696  0.5834  0.3937
 7598SOL    HW134253   1.142   4.001  17.624  1.0343 -0.0515 -0.2957
 7598SOL    HW234254   0.998   3.977  17.609  1.0362 -3.0133 -1.8924
 7599SOL     OW34255   2.698   1.581   4.530  0.0133 -0.3645  0.0940
 7599SOL    HW134256   2.741   1.553   4.611 -0.5332  2.3709  1.3051
 7599SOL    HW234257   2.718   1.674   4.538 -0.4914 -0.3098  0.6940
 7600SOL     OW34258   2.301   3.201   6.621  0.0083 -0.2536 -0.0224
 7600SOL    HW134259   2.245   3.134   6.660 -0.0987  1.0112  2.0201
 7600SOL    HW234260   2.385   3.155   6.626  0.6641  1.0068  0.7452
 7601SOL     OW34261   3.002   4.674   8.106 -0.6097  0.1216  0.1378
 7601SOL    HW134262   3.053   4.605   8.149 -0.1920 -0.0915 -0.7038
 7601SOL    HW234263   3.054   0.029   8.122 -0.3197  0.2039 -1.2198
 7602SOL     OW34264   2.782   2.728   9.162 -0.1313 -0.4512 -0.0272
 7602SOL    HW134265   2.844   2.672   9.210 -1.0176 -0.4233  1.1402
 7602SOL    HW234266   2.715   2.733   9.230  0.9526  0.9284  0.9415
 7603SOL     OW34267   1.058   4.446   0.801 -0.0393 -0.7956 -0.2900
 7603SOL    HW134268   0.984   4.407   0.755 -0.4622 -2.0228  1.3949
 7603SOL    HW234269   1.097   4.375   0.852 -0.8879  0.1832  1.7285
 7604SOL     OW34270   2.923   3.790  15.496 -0.1198  0.6271 -0.5403
 7604SOL    HW134271   2.851   3.728  15.498 -1.2286  1.9033 -0.8640
 7604SOL    HW234272   2.949   3.788  15.588  2.0641  0.2022 -1.1634
 7605SOL     OW34273   2.444   3.542  16.004  0.0218 -0.4648 -0.1649
 7605SOL    HW134274   2.357   3.520  16.039  0.4657 -0.5774  0.8644
 7605SOL    HW234275   2.442   3.502  15.917 -1.0182  0.3846 -0.5391
 7606SOL     OW34276   4.691   3.316   9.675  0.7632 -0.1368  0.5489
 7606SOL    HW134277   0.033   3.386   9.680 -0.3386  0.9396 -0.5653
 7606SOL    HW234278   4.614   3.363   9.704  0.1638  0.8820 -2.7245
 7607SOL     OW34279   1.781   1.127  12.185  0.6322  0.0136  0.5857
 7607SOL    HW134280   1.832   1.158  12.259  0.5865  1.6625 -0.0746
 7607SOL    HW234281   1.852   1.096  12.130 -0.7111 -1.7207 -0.1786
 7608SOL     OW34282   2.579   1.301   5.283  0.1460 -0.0589 -0.6708
 7608SOL    HW134283   2.546   1.391   5.283 -1.7351 -0.7618  0.3988
 7608SOL    HW234284   2.608   1.292   5.192 -0.8500 -0.6338 -0.9264
 7609SOL     OW34285   3.263   3.161  17.640  0.2415  0.0826 -0.5746
 7609SOL    HW134286   3.216   3.129  17.563 -0.0842  0.8529 -0.6998
 7609SOL    HW234287   3.202   3.233  17.661  0.8332  0.5657 -0.5227
 7610SOL     OW34288   2.414   3.262   0.205  1.0949  0.2115  0.3255
 7610SOL    HW134289   2.486   3.201   0.189  0.3669 -0.6013  0.1538
 7610SOL    HW234290   2.463   3.342   0.224 -0.4262  1.2689 -0.2185
 7611SOL     OW34291   3.232   2.216   7.537  0.0703 -0.0801 -0.1021
 7611SOL    HW134292   3.177   2.261   7.473  1.6466  2.6332  0.4729
 7611SOL    HW234293   3.179   2.205   7.616 -0.3524 -1.5586 -0.5948
 7612SOL     OW34294   4.030   2.280  12.926  0.1571  0.0951  0.2139
 7612SOL    HW134295   4.052   2.337  13.000 -2.0015  1.6895 -0.3760
 7612SOL    HW234296   4.097   2.213  12.943 -0.9286 -0.6596  1.4954
 7613SOL     OW34297   2.478   0.351   2.755  0.2842  0.2755 -0.0066
 7613SOL    HW134298   2.533   0.273   2.755 -0.2598 -0.0996  1.3070
 7613SOL    HW234299   2.537   0.421   2.727 -0.2600 -0.1687 -2.2930
 7614SOL     OW34300   3.070   4.256   2.113 -0.5901 -0.2345  0.6428
 7614SOL    HW134301   3.105   4.322   2.173  0.4076 -1.7716  1.7822
 7614SOL    HW234302   3.085   4.173   2.159  1.2348  0.7705  1.8669
 7615SOL     OW34303   3.221   3.215   0.992 -0.6191 -0.4847 -0.3781
 7615SOL    HW134304   3.128   3.229   0.973 -0.4143  1.0296 -0.3070
 7615SOL    HW234305   3.254   3.252   0.910 -0.6142 -0.0199 -0.1710
 7616SOL     OW34306   4.070   2.061   7.228 -0.2429  0.3212  0.6859
 7616SOL    HW134307   4.156   2.097   7.251 -0.6944  0.7046  1.7263
 7616SOL    HW234308   4.067   1.981   7.280 -0.8633 -0.2836 -0.2753
 7617SOL     OW34309   2.093   4.562   5.991  0.0313 -0.1978 -0.1524
 7617SOL    HW134310   2.162   4.499   6.012 -0.6003 -0.1390  2.1106
 7617SOL    HW234311   2.107   4.581   5.899 -1.4261  0.9640 -0.1339
 7618SOL     OW34312   2.521   0.567   8.212  0.5957  0.0038 -0.0078
 7618SOL    HW134313   2.507   0.477   8.183 -0.1170 -0.6947  2.5357
 7618SOL    HW234314   2.519   0.610   8.126  1.0583  0.2418  0.0999
 7619SOL     OW34315   0.475   2.736   2.199 -0.3843  0.4609  0.1938
 7619SOL    HW134316   0.408   2.741   2.267 -0.1275  0.1442  0.4704
 7619SOL    HW234317   0.514   2.821   2.218 -1.4447  0.8188  0.7497
 7620SOL     OW34318   0.453   2.222  16.334 -0.3091 -0.0473 -0.5550
 7620SOL    HW134319   0.548   2.229  16.337 -0.0638 -2.6348 -1.9210
 7620SOL    HW234320   0.435   2.181  16.248  0.9300 -2.5807  0.3869
 7621SOL     OW34321   1.217   1.672   7.475 -0.2069 -0.0632 -0.0490
 7621SOL    HW134322   1.132   1.694   7.438 -0.3197  0.8498  0.7389
 7621SOL    HW234323   1.190   1.678   7.566 -0.8680  2.5380 -0.4156
 7622SOL     OW34324   0.529   4.094   3.541 -0.1758  0.0786 -0.2105
 7622SOL    HW134325   0.482   4.138   3.612  0.5088  2.3601 -1.1644
 7622SOL    HW234326   0.511   4.006   3.575  1.1260  0.6302  1.9230
 7623SOL     OW34327   1.297   1.848   6.684 -0.0657 -0.2673  0.6759
 7623SOL    HW134328   1.211   1.809   6.667 -0.2521 -0.3732  1.8494
 7623SOL    HW234329   1.344   1.800   6.617  0.0419  0.6193  0.1227
 7624SOL     OW34330   0.908   1.095   3.577 -0.9534  0.2215  0.2690
 7624SOL    HW134331   0.976   1.031   3.555  1.2942  2.4214  0.8646
 7624SOL    HW234332   0.830   1.041   3.588  0.0387 -1.2168  0.2572
 7625SOL     OW34333   3.844   0.724   4.974 -0.6330 -0.3120 -0.2891
 7625SOL    HW134334   3.790   0.699   4.899 -1.2050  1.6804 -0.5528
 7625SOL    HW234335   3.774   0.722   5.040 -1.4943  1.0281 -1.1622
 7626SOL     OW34336   0.675   1.083   4.594  0.1134  0.2649 -0.4110
 7626SOL    HW134337   0.593   1.039   4.617 -0.1704  0.6783 -0.6244
 7626SOL    HW234338   0.729   1.085   4.672  0.3740 -0.2461 -0.5775
 7627SOL     OW34339   2.686   2.160   7.103  0.3862 -0.1143  0.2088
 7627SOL    HW134340   2.707   2.068   7.119  0.4217  0.5850  4.1060
 7627SOL    HW234341   2.658   2.182   7.192  1.2942 -0.3309  0.5484
 7628SOL     OW34342   2.569   1.010   5.047  0.0467 -0.1791 -0.3132
 7628SOL    HW134343   2.576   1.105   5.043 -0.8679 -0.0253  1.9868
 7628SOL    HW234344   2.571   0.998   4.952  0.7296  0.7516 -0.4214
 7629SOL     OW34345   0.056   0.532   7.404  0.4857 -0.2844 -0.5780
 7629SOL    HW134346   0.053   0.437   7.417  0.4586 -0.0484  1.1068
 7629SOL    HW234347   0.136   0.544   7.353  1.1674 -0.4624  0.4500
 7630SOL     OW34348   3.046   3.457   8.565 -0.1077 -0.2228  0.1711
 7630SOL    HW134349   2.986   3.431   8.494  1.1526 -0.1863 -0.8910
 7630SOL    HW234350   2.984   3.458   8.638 -0.6314 -0.8426 -0.2600
 7631SOL     OW34351   1.978   4.306  16.099 -0.6520  0.6307  0.4904
 7631SOL    HW134352   1.934   4.320  16.015  1.1265  0.6377 -0.4317
 7631SOL    HW234353   2.024   4.390  16.103  0.8217 -0.1037 -1.2016
 7632SOL     OW34354   3.100   3.533   1.883 -0.1960  0.3526 -0.2133
 7632SOL    HW134355   3.161   3.472   1.924  1.0245  1.5730 -0.1838
 7632SOL    HW234356   3.021   3.480   1.894 -1.4837  2.0796 -0.9551
 7633SOL     OW34357   1.034   0.598   5.026 -0.4553  0.0312 -0.1432
 7633SOL    HW134358   1.051   0.574   4.934 -0.3363  0.8887 -0.3397
 7633SOL    HW234359   0.949   0.641   5.022 -1.1024 -1.1593  0.5890
 7634SOL     OW34360   2.230   1.230  15.523  0.1241  0.0605 -0.3363
 7634SOL    HW134361   2.249   1.258  15.613  0.0793  1.5024 -0.7610
 7634SOL    HW234362   2.262   1.309  15.479 -1.5450  1.3512  0.7807
 7635SOL     OW34363   2.123   3.338   6.253 -0.9192  0.4061  0.2003
 7635SOL    HW134364   2.083   3.312   6.336  1.1090 -0.1023  1.0204
 7635SOL    HW234365   2.054   3.384   6.205  0.4838  2.0284 -0.2398
 7636SOL     OW34366   1.657   3.230  13.529  0.0983  0.1470  0.1100
 7636SOL    HW134367   1.712   3.300  13.495 -0.3187  1.0626  1.3132
 7636SOL    HW234368   1.569   3.262  13.510  1.0295  1.2054 -2.3604
 7637SOL     OW34369   2.589   3.747   7.647 -0.4520 -0.6415  0.3981
 7637SOL    HW134370   2.545   3.830   7.632  1.9410  0.7985  1.3716
 7637SOL    HW234371   2.682   3.769   7.636 -0.3607 -0.4049  1.5500
 7638SOL     OW34372   4.193   3.381   6.616  0.2340 -0.3958  0.1924
 7638SOL    HW134373   4.158   3.357   6.530  0.6257 -4.0363  1.0572
 7638SOL    HW234374   4.274   3.331   6.613  1.0272  0.8451  0.7729
 7639SOL     OW34375   3.520   0.110   0.620  0.4043 -0.0660 -0.6198
 7639SOL    HW134376   3.592   0.083   0.678  0.4905 -0.3468 -0.8554
 7639SOL    HW234377   3.469   0.029   0.623  0.3936  0.0176  1.0744
 7640SOL     OW34378   1.665   3.770  12.277  0.0990 -0.0902  0.3956
 7640SOL    HW134379   1.656   3.684  12.319 -0.6025  0.2687  0.9750
 7640SOL    HW234380   1.675   3.736  12.188 -1.5799 -0.4369  0.3446
 7641SOL     OW34381   4.408   0.135   2.262  0.1183 -0.0444  0.0531
 7641SOL    HW134382   4.429   0.043   2.248 -0.1634 -0.1258  0.1548
 7641SOL    HW234383   4.493   0.165   2.294  0.2645  0.8941 -1.2027
 7642SOL     OW34384   1.450   2.320   5.307 -0.1436  0.1991 -0.0442
 7642SOL    HW134385   1.436   2.266   5.229 -1.1602  0.1721  0.1650
 7642SOL    HW234386   1.419   2.262   5.377 -1.0559 -0.1516 -0.7450
 7643SOL     OW34387   2.206   2.298   4.456  0.0533 -0.2644 -0.2162
 7643SOL    HW134388   2.153   2.238   4.509 -4.7824  2.9452 -1.4929
 7643SOL    HW234389   2.274   2.326   4.517  0.7189 -0.7061 -0.7470
 7644SOL     OW34390   0.657   2.987   3.036  0.1095  0.1023  0.1964
 7644SOL    HW134391   0.621   3.069   3.002 -1.0105  0.5342  2.4378
 7644SOL    HW234392   0.655   3.005   3.130 -2.7519 -2.5449  0.6377
 7645SOL     OW34393   4.519   2.504   6.030 -0.9044 -0.6705  0.4207
 7645SOL    HW134394   4.426   2.493   6.054 -1.7299  0.4390 -2.3317
 7645SOL    HW234395   4.553   2.514   6.119  0.7323 -3.9866  0.1752
 7646SOL     OW34396   3.102   3.138   5.379  0.2407  0.7153 -0.4440
 7646SOL    HW134397   3.010   3.117   5.361  0.9614 -2.6736 -0.0342
 7646SOL    HW234398   3.103   3.230   5.407  0.6435  0.2633  1.0087
 7647SOL     OW34399   0.102   2.498   0.915 -0.1402  0.3176  0.1869
 7647SOL    HW134400   0.091   2.592   0.930  0.6065  0.3110  0.7942
 7647SOL    HW234401   0.078   2.477   1.005  1.0506  0.4642  0.5411
 7648SOL     OW34402   2.893   0.859   8.453  0.1778  0.1445 -0.3898
 7648SOL    HW134403   2.883   0.853   8.548  0.0312  1.6063 -0.3154
 7648SOL    HW234404   2.807   0.838   8.416  1.5926 -0.1997 -3.5038
 7649SOL     OW34405   3.976   4.657   7.030  0.1613 -0.0384  0.1634
 7649SOL    HW134406   3.940   4.580   6.986 -0.1682  0.9747 -1.3163
 7649SOL    HW234407   3.927   0.007   6.993  1.0556 -0.0475 -1.0570
 7650SOL     OW34408   4.360   2.827   4.752 -0.4490  0.6597  0.7037
 7650SOL    HW134409   4.280   2.830   4.700  1.4208  0.3995 -2.2020
 7650SOL    HW234410   4.348   2.761   4.821  2.3535 -0.9553 -0.3352
 7651SOL     OW34411   0.543   3.247   3.788 -0.1986 -0.2703  0.1158
 7651SOL    HW134412   0.637   3.258   3.798 -0.2472 -0.6189  0.9181
 7651SOL    HW234413   0.512   3.265   3.877  1.2030  0.9019  0.3721
 7652SOL     OW34414   2.374   4.494   2.214 -0.3103 -0.2157 -0.5289
 7652SOL    HW134415   2.426   4.558   2.165 -2.3197  1.2345 -0.7434
 7652SOL    HW234416   2.438   4.423   2.223 -1.0446 -0.8070  0.0652
 7653SOL     OW34417   0.462   1.199  10.039 -0.4626  0.3921  0.0870
 7653SOL    HW134418   0.535   1.260  10.027 -0.6626  0.5242 -0.4313
 7653SOL    HW234419   0.433   1.238  10.121 -0.9954  2.4352 -1.0886
 7654SOL     OW34420   2.617   2.343  17.235 -0.3653 -0.7228 -0.0287
 7654SOL    HW134421   2.607   2.433  17.266  1.9224  0.2688 -2.1164
 7654SOL    HW234422   2.561   2.337  17.158 -2.7253  1.8640  1.4890
 7655SOL     OW34423   4.225   3.814   0.147  0.0688  0.1203 -0.6686
 7655SOL    HW134424   4.159   3.809   0.077 -2.3202 -0.0257  1.5855
 7655SOL    HW234425   4.252   3.724   0.163  0.2458  0.5800  1.6784
 7656SOL     OW34426   1.268   3.133   7.483 -0.8095  0.7386 -0.0944
 7656SOL    HW134427   1.249   3.125   7.390  0.1992 -1.6189 -0.0951
 7656SOL    HW234428   1.362   3.145   7.473 -0.7154  0.0204 -0.0640
 7657SOL     OW34429   1.831   1.709   1.136 -0.0139 -0.5612 -0.9522
 7657SOL    HW134430   1.821   1.631   1.082  0.4851 -0.7806 -0.7254
 7657SOL    HW234431   1.791   1.770   1.074 -0.2680  0.3440  0.0870
 7658SOL     OW34432   1.123   1.276   2.837 -0.4380 -0.2193  0.4218
 7658SOL    HW134433   1.117   1.266   2.932 -1.2414  0.5538  0.4553
 7658SOL    HW234434   1.109   1.186   2.808  0.7569  0.6440 -2.8399
 7659SOL     OW34435   1.598   0.078   4.761 -0.4197  0.2186 -0.1603
 7659SOL    HW134436   1.548   0.076   4.679  3.5562 -2.3556 -2.5206
 7659SOL    HW234437   1.568   4.721   4.805  3.3429 -1.0215  0.2272
 7660SOL     OW34438   3.930   4.469   8.530  0.5867  0.0487  0.3830
 7660SOL    HW134439   3.906   4.520   8.607 -1.0697 -1.2359  0.7368
 7660SOL    HW234440   3.977   4.543   8.492 -0.5403 -0.1382 -1.4293
 7661SOL     OW34441   2.160   3.944   9.487  0.0248 -0.3325  0.2418
 7661SOL    HW134442   2.240   3.981   9.450 -0.4442 -0.3820 -0.8467
 7661SOL    HW234443   2.114   3.905   9.412  2.8953 -1.2686 -1.0173
 7662SOL     OW34444   0.002   1.344   8.796 -0.8372  0.7589  0.4779
 7662SOL    HW134445   0.084   1.300   8.818 -0.3768  1.1908 -0.3819
 7662SOL    HW234446   4.661   1.320   8.864  0.9255 -1.2753  1.3975
 7663SOL     OW34447   0.690   3.966  12.341 -1.3026 -0.1133 -0.1681
 7663SOL    HW134448   0.749   3.915  12.396  0.5968  2.3609  0.1050
 7663SOL    HW234449   0.691   3.924  12.255  2.0895 -1.2490  0.4209
 7664SOL     OW34450   3.844   1.215  17.317 -0.0608 -0.0294  0.2349
 7664SOL    HW134451   3.806   1.167  17.243 -0.4188  0.1479  0.3023
 7664SOL    HW234452   3.932   1.237  17.287  0.0518 -0.6417  0.1188
 7665SOL     OW34453   0.983   0.693  16.625  0.1819  1.2089  0.1844
 7665SOL    HW134454   0.926   0.724  16.695  0.9364  0.0041  1.3204
 7665SOL    HW234455   1.067   0.682  16.670  1.2183  4.3194 -0.9568
 7666SOL     OW34456   4.623   0.269  16.597  0.2898 -0.1437  0.3417
 7666SOL    HW134457   4.527   0.276  16.591  0.2642 -1.2016 -0.5116
 7666SOL    HW234458   4.640   0.211  16.671  1.7184 -0.2731 -0.0826
 7667SOL     OW34459   3.642   3.319  11.771  0.9909  0.2610 -0.0729
 7667SOL    HW134460   3.628   3.241  11.824  2.6046 -0.2063 -0.3341
 7667SOL    HW234461   3.553   3.354  11.760  1.4347  0.6299 -2.4441
 7668SOL     OW34462   3.351   3.740   8.183  0.7281  0.4369  0.0132
 7668SOL    HW134463   3.351   3.799   8.259 -1.2962 -0.4547  0.7052
 7668SOL    HW234464   3.313   3.797   8.117 -0.9249 -1.3758 -0.5940
 7669SOL     OW34465   0.587   2.350   2.719  0.0041 -0.0422  0.2805
 7669SOL    HW134466   0.607   2.336   2.811  2.3339  1.0754 -0.0737
 7669SOL    HW234467   0.569   2.444   2.726 -1.0127 -0.2595  0.6734
 7670SOL     OW34468   0.359   1.160   3.247  0.1838  0.0086  0.4735
 7670SOL    HW134469   0.274   1.196   3.275  0.2233  1.5681 -1.3700
 7670SOL    HW234470   0.334   1.123   3.162 -0.5209 -0.6156  0.9526
 7671SOL     OW34471   3.260   1.747   7.328 -0.0056 -0.0463  0.1854
 7671SOL    HW134472   3.280   1.838   7.349 -3.5265  0.4693  1.3334
 7671SOL    HW234473   3.336   1.695   7.355 -2.0267 -3.3102 -0.3740
 7672SOL     OW34474   4.463   1.319   7.582 -0.0708 -0.0358 -0.5843
 7672SOL    HW134475   4.458   1.228   7.553 -0.7479  0.0575 -0.7535
 7672SOL    HW234476   4.556   1.339   7.592  0.1607 -0.3335 -2.1414
 7673SOL     OW34477   4.201   4.710  13.923  0.0558 -0.1780  0.3593
 7673SOL    HW134478   4.295   0.003  13.928  0.2049  0.1766 -3.3055
 7673SOL    HW234479   4.174   0.031  14.004 -1.4116  2.0854 -1.3258
 7674SOL     OW34480   3.631   0.735   5.156 -0.6647 -0.6020 -0.2947
 7674SOL    HW134481   3.572   0.711   5.227 -0.0325 -1.4246 -0.0496
 7674SOL    HW234482   3.581   0.807   5.117  0.3737 -0.1204 -0.7619
 7675SOL     OW34483   0.728   3.293   4.091 -0.2623  0.0001 -0.5762
 7675SOL    HW134484   0.634   3.294   4.071 -0.0750 -0.5682 -1.4829
 7675SOL    HW234485   0.735   3.209   4.137  2.6123  0.3160 -0.4694
 7676SOL     OW34486   3.262   4.438   8.499 -0.2657  0.0005  0.5975
 7676SOL    HW134487   3.212   4.465   8.576 -1.7685  0.0002 -0.3719
 7676SOL    HW234488   3.344   4.486   8.505 -1.4517  2.2572 -1.2143
 7677SOL     OW34489   2.751   2.738   5.614  0.3947  0.1524  0.1439
 7677SOL    HW134490   2.690   2.677   5.653  0.3331 -1.3821 -2.3627
 7677SOL    HW234491   2.718   2.820   5.652  1.7925  0.2675  1.1063
 7678SOL     OW34492   2.097   3.202   8.613  0.5492 -0.1660 -0.0035
 7678SOL    HW134493   2.048   3.271   8.658 -0.3492  0.9832 -2.7521
 7678SOL    HW234494   2.026   3.163   8.562  0.9315 -0.1294 -0.5647
 7679SOL     OW34495   4.132   0.943   0.775  0.3423  0.6340 -0.5483
 7679SOL    HW134496   4.219   0.906   0.760 -0.6264 -1.7167 -0.3151
 7679SOL    HW234497   4.120   1.009   0.707 -1.4243  0.9254  0.0439
 7680SOL     OW34498   2.529   2.139   9.464  0.0100  0.0839  0.5506
 7680SOL    HW134499   2.475   2.170   9.392  1.6767  2.4279  0.3150
 7680SOL    HW234500   2.554   2.052   9.432 -2.1531 -0.1808 -0.4163
 7681SOL     OW34501   2.975   2.915  11.731  0.8607 -0.3660  0.1568
 7681SOL    HW134502   2.986   2.974  11.805  0.6528  0.0309 -0.1328
 7681SOL    HW234503   2.995   2.829  11.769 -2.1267 -1.5283 -0.8851
 7682SOL     OW34504   3.480   0.026  10.905 -0.6515 -0.7073 -0.5667
 7682SOL    HW134505   3.433   4.669  10.931  2.2530 -1.7106  1.6462
 7682SOL    HW234506   3.436   0.088  10.963 -0.7369  0.2044 -1.6275
 7683SOL     OW34507   3.121   2.873   1.364  0.5427  0.4987 -0.5860
 7683SOL    HW134508   3.123   2.778   1.352 -2.2489  0.2745  0.7850
 7683SOL    HW234509   3.176   2.899   1.290 -1.7525 -0.5799 -2.6672
 7684SOL     OW34510   3.536   1.395   6.053  0.3497 -0.0542 -0.5893
 7684SOL    HW134511   3.517   1.458   5.982  1.3026 -1.6971 -2.3041
 7684SOL    HW234512   3.450   1.366   6.082  0.9907 -0.2245  1.1382
 7685SOL     OW34513   1.325   1.338   8.631  0.6267 -0.0134 -0.0725
 7685SOL    HW134514   1.296   1.288   8.555  0.3010 -2.0167  1.3708
 7685SOL    HW234515   1.396   1.382   8.584  0.5694 -0.0188 -0.1650
 7686SOL     OW34516   3.438   1.738   0.191 -0.1690 -0.8408  0.1430
 7686SOL    HW134517   3.469   1.661   0.145  0.4268 -0.3945 -0.1960
 7686SOL    HW234518   3.506   1.802   0.170  0.8787 -1.8125  0.5431
 7687SOL     OW34519   3.654   0.331   5.131 -0.4079  0.6837  0.1206
 7687SOL    HW134520   3.634   0.238   5.134  0.8809  0.3914 -0.3032
 7687SOL    HW234521   3.660   0.348   5.037  0.9626 -0.2794  0.0369
 7688SOL     OW34522   4.351   0.596   6.300  0.1364  0.2261 -0.1495
 7688SOL    HW134523   4.292   0.667   6.273  0.7030 -0.1537 -2.3806
 7688SOL    HW234524   4.382   0.561   6.216 -0.5864 -1.4112  0.2637
 7689SOL     OW34525   2.776   3.529  12.865 -0.1067  0.3180  0.1289
 7689SOL    HW134526   2.755   3.533  12.771  0.4932  4.4911  0.1522
 7689SOL    HW234527   2.865   3.561  12.851  0.4987 -1.4264  0.0369
 7690SOL     OW34528   3.211   1.814   1.019 -0.0448 -0.3712  0.0550
 7690SOL    HW134529   3.215   1.812   1.115 -2.5028  0.3442  0.1782
 7690SOL    HW234530   3.304   1.809   0.998 -0.3581 -0.6360 -1.2418
 7691SOL     OW34531   3.442   0.814   8.747 -0.5026  0.0173  0.2814
 7691SOL    HW134532   3.473   0.741   8.799  1.3696 -0.2295 -1.1708
 7691SOL    HW234533   3.459   0.881   8.813  2.0145 -0.7616  0.4199
 7692SOL     OW34534   1.319   1.557   2.438  0.6764  0.0304 -0.2995
 7692SOL    HW134535   1.240   1.610   2.440 -0.2595 -1.4013  1.5065
 7692SOL    HW234536   1.374   1.610   2.381  0.0636  0.2036 -0.7316
 7693SOL     OW34537   4.305   3.983   2.859  0.0765 -0.1252 -0.3928
 7693SOL    HW134538   4.303   4.058   2.799 -1.9606 -0.1031 -0.2717
 7693SOL    HW234539   4.393   3.946   2.849  0.6097  0.6608  1.4487
 7694SOL     OW34540   3.053   0.720   1.439  0.2106 -0.5632  0.2390
 7694SOL    HW134541   3.059   0.681   1.352 -2.8664  0.7837 -0.5390
 7694SOL    HW234542   3.005   0.651   1.485 -1.2936  0.7553  0.6336
 7695SOL     OW34543   3.318   1.416  17.432 -0.0271  0.0978 -0.2163
 7695SOL    HW134544   3.322   1.340  17.489  0.5662 -0.0223 -0.4143
 7695SOL    HW234545   3.412   1.434  17.424  0.1921 -0.7085  0.5970
 7696SOL     OW34546   2.843   0.749   6.360 -0.2325 -0.6822  0.2808
 7696SOL    HW134547   2.758   0.729   6.398 -1.1067  2.3295 -0.1026
 7696SOL    HW234548   2.820   0.832   6.317 -0.4076  0.6310  2.9303
 7697SOL     OW34549   1.975   1.334   8.145  0.0913 -0.3811  0.1993
 7697SOL    HW134550   1.961   1.398   8.215 -0.2163  0.1621 -0.3494
 7697SOL    HW234551   1.970   1.253   8.195 -1.5925 -1.3654 -1.5468
 7698SOL     OW34552   0.901   2.362   4.635 -0.2648 -0.1271  0.1620
 7698SOL    HW134553   0.922   2.342   4.544  1.6687  0.6979  0.4263
 7698SOL    HW234554   0.809   2.337   4.647  0.0701 -1.3034  0.2865
 7699SOL     OW34555   3.842   2.207   2.459 -0.8285 -0.2035  0.1010
 7699SOL    HW134556   3.909   2.201   2.391 -0.5588 -0.3295  0.3785
 7699SOL    HW234557   3.875   2.137   2.516  0.7307 -0.5881 -1.2674
 7700SOL     OW34558   4.423   0.561   6.050  0.5236  0.1675 -0.7865
 7700SOL    HW134559   4.454   0.476   6.079 -1.0004 -0.4808 -1.0910
 7700SOL    HW234560   4.499   0.619   6.050  1.0742 -0.5584 -1.5064
 7701SOL     OW34561   3.007   0.894   7.945 -0.8489 -0.0143  0.1294
 7701SOL    HW134562   2.953   0.847   7.881  1.0016 -2.1647  0.1690
 7701SOL    HW234563   3.017   0.834   8.018  1.5751  1.4301  0.9825
 7702SOL     OW34564   4.263   2.025  11.700  0.3758 -0.0537 -0.3528
 7702SOL    HW134565   4.260   1.933  11.672 -0.1410  0.3827 -1.7007
 7702SOL    HW234566   4.198   2.061  11.640  2.0041  2.4125 -0.6061
 7703SOL     OW34567   2.626   0.964   6.534 -0.5356  0.0238  0.3535
 7703SOL    HW134568   2.658   0.972   6.624 -1.9344 -0.3752  0.8888
 7703SOL    HW234569   2.632   0.871   6.517 -1.1150  0.0018  0.2825
 7704SOL     OW34570   1.604   2.422   6.665 -0.1139  0.8824  0.5330
 7704SOL    HW134571   1.562   2.490   6.717 -0.4057 -0.2468  1.7587
 7704SOL    HW234572   1.693   2.458   6.668 -0.7400  2.4800 -0.1613
 7705SOL     OW34573   3.182   4.176   8.471 -0.6572  0.4539 -0.8487
 7705SOL    HW134574   3.215   4.265   8.487 -0.9176  0.0887  1.6359
 7705SOL    HW234575   3.088   4.185   8.489 -0.4286 -0.9259  0.9373
 7706SOL     OW34576   0.667   2.829   1.494  0.4792  0.7105  0.3933
 7706SOL    HW134577   0.756   2.798   1.508  0.0630 -0.3315  0.7133
 7706SOL    HW234578   0.621   2.760   1.446  1.4356 -0.4449  1.1618
 7707SOL     OW34579   4.113   2.060  14.199  0.0041  0.2799  0.4751
 7707SOL    HW134580   4.120   2.137  14.255 -1.1709  0.2100  0.7329
 7707SOL    HW234581   4.036   2.076  14.145 -0.0493  1.4607  0.9140
 7708SOL     OW34582   0.529   1.568  11.486  0.2180  0.6368 -0.8586
 7708SOL    HW134583   0.436   1.550  11.470 -0.1685  1.8025  0.0908
 7708SOL    HW234584   0.527   1.571  11.582 -0.0662  2.3523 -0.9256
 7709SOL     OW34585   3.550   0.925   6.470  0.1789  0.0121  0.4923
 7709SOL    HW134586   3.456   0.914   6.458 -0.0367  1.4530  0.8435
 7709SOL    HW234587   3.575   0.837   6.497 -0.8092  0.5743  3.2000
 7710SOL     OW34588   4.320   2.312   2.665 -0.5013  0.4481 -0.0795
 7710SOL    HW134589   4.232   2.310   2.703 -1.1979 -2.1104 -1.8196
 7710SOL    HW234590   4.296   2.319   2.572  0.4863  0.0373 -0.3624
 7711SOL     OW34591   2.190   3.985   8.031  0.4542 -0.4260  0.2802
 7711SOL    HW134592   2.284   3.975   8.013  0.5172  2.4683 -1.0428
 7711SOL    HW234593   2.176   4.049   7.961 -2.1028 -1.3088 -0.0231
 7712SOL     OW34594   0.458   3.348   5.273  0.6491 -0.4297  0.1322
 7712SOL    HW134595   0.529   3.346   5.210 -0.4468  1.4286 -1.1426
 7712SOL    HW234596   0.391   3.310   5.216 -1.5265 -2.3806  3.9686
 7713SOL     OW34597   3.002   2.405   0.966  0.1261  0.5432 -0.2376
 7713SOL    HW134598   2.992   2.499   0.977  0.7098  0.4944  0.7228
 7713SOL    HW234599   3.083   2.398   0.914  0.0302 -1.3972 -0.1138
 7714SOL     OW34600   4.599   0.204   3.684 -0.4252 -0.4296  0.2246
 7714SOL    HW134601   4.631   0.114   3.686  0.2939 -0.1654  0.5413
 7714SOL    HW234602   4.647   0.236   3.608 -1.2595  0.7764  0.2033
 7715SOL     OW34603   0.813   0.973  16.288  0.3022 -0.7316  0.2260
 7715SOL    HW134604   0.720   0.957  16.305 -0.6796  2.2140 -2.3432
 7715SOL    HW234605   0.824   0.935  16.201  1.7261 -0.7577  0.4169
 7716SOL     OW34606   3.762   4.239   4.923 -0.5997  0.2521 -0.3884
 7716SOL    HW134607   3.705   4.177   4.970  0.2993 -0.6530 -0.5115
 7716SOL    HW234608   3.778   4.188   4.844 -1.4258 -1.0367  0.2556
 7717SOL     OW34609   0.414   2.894   0.971  0.0402 -0.2199 -0.3762
 7717SOL    HW134610   0.508   2.880   0.957 -0.2277 -0.7654 -1.6891
 7717SOL    HW234611   0.412   2.986   0.947 -2.8538  0.0086  0.8939
 7718SOL     OW34612   2.018   3.540  11.163 -0.3009 -0.5366 -0.0047
 7718SOL    HW134613   1.948   3.533  11.098  0.5755  0.1846 -1.0205
 7718SOL    HW234614   2.091   3.509  11.109  0.5878  1.6805 -0.0655
 7719SOL     OW34615   3.155   2.406  11.051  0.1418  0.0455  0.1873
 7719SOL    HW134616   3.100   2.378  11.124 -0.3441 -1.0887 -0.6084
 7719SOL    HW234617   3.095   2.417  10.977 -2.0789  0.2271  2.0152
 7720SOL     OW34618   0.354   4.295   4.880  0.6532  0.4826 -0.4202
 7720SOL    HW134619   0.404   4.221   4.914 -2.2019 -1.8999 -1.4717
 7720SOL    HW234620   0.420   4.364   4.890 -0.5237  1.7406 -1.3726
 7721SOL     OW34621   3.464   2.815   0.066 -0.6971 -0.2025 -0.0258
 7721SOL    HW134622   3.423   2.889   0.111 -0.3936 -0.7002  1.0660
 7721SOL    HW234623   3.474   2.860  17.674  0.1039  1.8563  1.1586
 7722SOL     OW34624   1.610   3.246  15.909 -0.3041  0.3889  0.5126
 7722SOL    HW134625   1.526   3.233  15.867 -0.0283  0.4978 -0.0692
 7722SOL    HW234626   1.612   3.342  15.908  2.5243  0.3157 -0.9778
 7723SOL     OW34627   4.131   3.130  12.734  0.6292  0.7721 -0.4038
 7723SOL    HW134628   4.136   3.201  12.798 -0.4578 -2.4899  3.3107
 7723SOL    HW234629   4.116   3.062  12.799  3.2618 -0.0253 -0.6255
 7724SOL     OW34630   1.999   3.524   2.883  0.2691 -0.4577  0.0473
 7724SOL    HW134631   2.084   3.539   2.923 -0.1707  2.3292 -0.0893
 7724SOL    HW234632   1.981   3.618   2.889 -3.5164 -1.2598  1.2181
 7725SOL     OW34633   4.210   4.164  14.445  0.1537  0.1376  0.4430
 7725SOL    HW134634   4.253   4.245  14.419 -2.7125  1.8976  1.1395
 7725SOL    HW234635   4.138   4.162  14.382 -1.2177 -0.8985  2.0231
 7726SOL     OW34636   4.477   4.311   2.394  0.2255 -0.3601  0.3001
 7726SOL    HW134637   4.425   4.390   2.406  1.1860 -0.0922  2.7849
 7726SOL    HW234638   4.401   4.253   2.393  0.4113 -0.6384  1.4550
 7727SOL     OW34639   4.575   2.394   4.008 -0.0040  0.5382 -0.3443
 7727SOL    HW134640   4.497   2.345   3.985 -1.1808  1.7343  1.1569
 7727SOL    HW234641   4.573   2.385   4.103 -0.2403  2.2954 -0.1890
 7728SOL     OW34642   1.562   3.387   6.338  0.7313 -0.7991 -0.3215
 7728SOL    HW134643   1.539   3.436   6.417  2.9830 -1.1911  0.5750
 7728SOL    HW234644   1.525   3.446   6.272 -0.5772 -1.1884  0.0740
 7729SOL     OW34645   3.746   0.471  15.634 -0.1112 -0.2467  0.6287
 7729SOL    HW134646   3.794   0.393  15.609  1.6225  0.7129  0.9316
 7729SOL    HW234647   3.809   0.499  15.700 -3.0957  1.3767  2.8491
 7730SOL     OW34648   1.653   4.334   7.792 -0.4213  0.6523  0.0027
 7730SOL    HW134649   1.558   4.340   7.795 -0.5620 -0.9714 -1.6689
 7730SOL    HW234650   1.654   4.298   7.704 -1.0884  2.4320 -0.7374
 7731SOL     OW34651   1.777   2.801   2.619 -0.0719  0.1465  0.0475
 7731SOL    HW134652   1.716   2.741   2.662 -1.1194 -0.7057 -2.6371
 7731SOL    HW234653   1.717   2.845   2.559 -0.1057  0.9764  0.6860
 7732SOL     OW34654   3.000   1.771  10.373 -0.0600  0.5383 -0.2521
 7732SOL    HW134655   3.081   1.810  10.406  0.5140 -0.6486 -0.2777
 7732SOL    HW234656   2.956   1.853  10.348 -2.3153 -0.8731 -0.9155
 7733SOL     OW34657   0.680   2.245   5.959  0.2385  0.2443  0.5064
 7733SOL    HW134658   0.620   2.316   5.935  0.2278 -0.1995 -0.7607
 7733SOL    HW234659   0.625   2.167   5.957  1.5945 -0.7391  2.0336
 7734SOL     OW34660   4.482   1.375  14.675 -0.3573  0.0099  0.6944
 7734SOL    HW134661   4.391   1.373  14.705 -0.7333  0.4890 -0.4383
 7734SOL    HW234662   4.473   1.416  14.589  2.3173 -0.8484 -0.0068
 7735SOL     OW34663   2.161   2.645   0.954  0.2062 -0.7293  0.4029
 7735SOL    HW134664   2.155   2.585   0.880 -0.2730 -0.5306  0.2776
 7735SOL    HW234665   2.141   2.728   0.910 -0.8665 -1.8684 -1.2456
 7736SOL     OW34666   2.125   1.578   7.802  0.4651 -0.1667  0.1765
 7736SOL    HW134667   2.051   1.534   7.843 -0.4418  0.2166 -1.0494
 7736SOL    HW234668   2.075   1.655   7.776 -2.0795 -1.3902  1.4935
 7737SOL     OW34669   1.689   4.579   2.523 -0.2656 -0.5840  0.1332
 7737SOL    HW134670   1.713   4.672   2.520  1.9117 -1.0950  1.3438
 7737SOL    HW234671   1.770   4.535   2.549 -0.4853 -0.1627  1.4929
 7738SOL     OW34672   0.564   4.522   8.647 -0.5238 -0.0162 -0.0503
 7738SOL    HW134673   0.642   4.470   8.628 -0.1997 -0.4400  2.5070
 7738SOL    HW234674   0.509   4.450   8.678  1.0185 -1.5608 -0.8840
 7739SOL     OW34675   2.046   1.826  16.955 -0.2471  0.4034  0.8720
 7739SOL    HW134676   1.983   1.845  16.885 -0.1492  1.9510  1.2116
 7739SOL    HW234677   2.058   1.731  16.950  0.7722  0.4466  2.7355
 7740SOL     OW34678   1.431   4.414   8.074 -0.0557  0.3936  0.5289
 7740SOL    HW134679   1.387   4.460   8.146 -0.8579  0.8702 -0.2617
 7740SOL    HW234680   1.515   4.459   8.082  0.0117  0.4534 -0.4903
 7741SOL     OW34681   2.763   1.823   6.055  0.0688  0.2551  0.0116
 7741SOL    HW134682   2.709   1.884   6.005 -0.3572  0.9111  1.2708
 7741SOL    HW234683   2.769   1.749   5.995 -0.1445 -0.3583  0.7503
 7742SOL     OW34684   1.979   3.919  12.160  0.5590  0.1459  0.4115
 7742SOL    HW134685   2.006   3.874  12.080  0.0104  0.8410 -0.1718
 7742SOL    HW234686   1.920   3.983  12.121 -1.9115 -2.3311  0.0978
 7743SOL     OW34687   2.277   0.171   5.137 -0.0696 -0.0441 -0.0423
 7743SOL    HW134688   2.288   0.204   5.048  0.5138  1.2010  0.5038
 7743SOL    HW234689   2.189   0.133   5.131  1.1250 -2.9047  0.6559
 7744SOL     OW34690   3.543   4.613  14.967  0.3378  0.3298  0.1361
 7744SOL    HW134691   3.449   4.608  14.984 -0.2360  0.2704 -3.0171
 7744SOL    HW234692   3.551   4.543  14.903 -1.4296  0.8832 -0.7061
 7745SOL     OW34693   0.263   3.951   4.159  0.2940 -0.5764 -0.5792
 7745SOL    HW134694   0.326   4.010   4.201  1.3779 -2.0543 -0.1380
 7745SOL    HW234695   0.178   3.991   4.177  0.5939 -1.1251  1.9396
 7746SOL     OW34696   0.013   0.542   4.287  0.1212  0.7662 -0.2936
 7746SOL    HW134697   4.676   0.599   4.237 -0.8029  0.1975  0.1515
 7746SOL    HW234698   4.664   0.512   4.344 -0.0156  0.3609 -0.6797
 7747SOL     OW34699   0.101   4.236   4.975  0.0206  0.3053  0.0830
 7747SOL    HW134700   0.120   4.143   4.977 -1.7380 -0.0862 -1.0057
 7747SOL    HW234701   0.175   4.273   4.928  0.3110 -0.1152  0.2120
 7748SOL     OW34702   1.728   0.860  11.474 -0.0726  0.2462 -0.3988
 7748SOL    HW134703   1.819   0.849  11.502 -0.0780  1.6735  0.2049
 7748SOL    HW234704   1.739   0.837  11.381 -0.4613  3.5653 -1.2651
 7749SOL     OW34705   2.652   1.728   9.495  0.4380 -0.2923 -0.7929
 7749SOL    HW134706   2.678   1.814   9.463 -0.2342 -0.6587 -2.3339
 7749SOL    HW234707   2.624   1.681   9.416  1.7157 -0.8000 -0.9448
 7750SOL     OW34708   1.761   1.793   8.834  0.0443 -0.4981 -0.2159
 7750SOL    HW134709   1.751   1.737   8.911  0.9866  0.6292  0.7238
 7750SOL    HW234710   1.680   1.768   8.788  0.9165 -0.2055 -1.9197
 7751SOL     OW34711   2.195   3.504   8.751  0.4991 -0.1223 -0.6554
 7751SOL    HW134712   2.129   3.522   8.818 -1.0140 -0.6429 -2.0007
 7751SOL    HW234713   2.152   3.531   8.670 -0.0943  1.9129  0.3400
 7752SOL     OW34714   1.625   0.915   8.734 -0.6067  0.7270  0.2075
 7752SOL    HW134715   1.686   0.937   8.804  0.4625  2.0731 -1.1599
 7752SOL    HW234716   1.686   0.930   8.662 -0.1313 -1.4632  0.1580
 7753SOL     OW34717   2.839   3.705   2.629 -0.0676  0.0425  0.3140
 7753SOL    HW134718   2.769   3.764   2.657  1.1047  1.9641 -0.8785
 7753SOL    HW234719   2.793   3.632   2.586 -0.0056  0.5449 -0.5974
 7754SOL     OW34720   3.397   1.631   2.145  0.0701  0.8859  0.3515
 7754SOL    HW134721   3.447   1.705   2.111 -0.7314  1.1185 -0.3158
 7754SOL    HW234722   3.364   1.669   2.226 -0.7191  0.6518  0.1383
 7755SOL     OW34723   1.881   3.706  16.398  0.2252  0.2605  0.5042
 7755SOL    HW134724   1.943   3.675  16.464 -0.9986 -1.1271  0.9723
 7755SOL    HW234725   1.930   3.788  16.389  1.2057 -0.4516 -0.6878
 7756SOL     OW34726   4.262   4.559   3.965  0.0002 -0.3610 -0.6001
 7756SOL    HW134727   4.295   4.604   3.887  1.0762 -0.4355 -0.1880
 7756SOL    HW234728   4.320   4.483   3.968 -0.0680 -0.3376  1.3316
 7757SOL     OW34729   1.007   3.599   1.780 -0.0317 -0.0260 -0.4967
 7757SOL    HW134730   1.080   3.551   1.742 -0.8646 -0.5195 -1.4604
 7757SOL    HW234731   1.010   3.683   1.734  2.4011  0.8791  1.3241
 7758SOL     OW34732   2.475   3.941   7.981 -0.6695 -0.1005  0.1593
 7758SOL    HW134733   2.512   4.019   8.023  0.7198 -1.3355  1.2472
 7758SOL    HW234734   2.483   3.961   7.888 -2.2045  0.4725  0.1558
 7759SOL     OW34735   3.399   0.992  16.249  0.2838 -0.0011  0.1479
 7759SOL    HW134736   3.375   1.039  16.329 -0.9217  2.0816 -1.4123
 7759SOL    HW234737   3.383   0.900  16.269  0.8010 -0.2852 -0.7261
 7760SOL     OW34738   2.269   4.690   4.880 -0.9018  0.5839 -0.7502
 7760SOL    HW134739   2.215   4.667   4.955  1.3188  0.8966  0.9498
 7760SOL    HW234740   2.355   4.657   4.908  0.1481  5.0367  1.2164
 7761SOL     OW34741   3.008   3.964   2.224 -0.3411 -0.2475 -0.4921
 7761SOL    HW134742   3.070   3.901   2.188 -0.8802 -1.8848  1.4422
 7761SOL    HW234743   3.063   3.990   2.298  1.6513 -0.9905 -1.7192
 7762SOL     OW34744   0.359   1.274  12.042 -0.0803  0.7046  0.4121
 7762SOL    HW134745   0.431   1.335  12.060 -0.3966  1.4350 -0.8319
 7762SOL    HW234746   0.330   1.249  12.130  1.3456  1.1282  1.0162
 7763SOL     OW34747   2.492   2.118   1.257  0.7825  0.4925  0.6221
 7763SOL    HW134748   2.412   2.071   1.277  0.8455  1.0520  2.1893
 7763SOL    HW234749   2.551   2.045   1.235  0.0635  1.1539 -3.4656
 7764SOL     OW34750   3.815   3.163  14.863  0.2211 -0.7621  0.1472
 7764SOL    HW134751   3.733   3.191  14.824  0.4229 -1.0576 -0.4910
 7764SOL    HW234752   3.785   3.124  14.945  0.3018  1.5497  1.2601
 7765SOL     OW34753   0.671   4.443   2.494  0.1800 -0.1390  0.0638
 7765SOL    HW134754   0.760   4.427   2.526  0.7611  2.2770 -0.3835
 7765SOL    HW234755   0.645   4.513   2.555  1.5971  0.0336  0.4613
 7766SOL     OW34756   3.889   1.899   6.355 -0.2690  0.5291 -0.6209
 7766SOL    HW134757   3.886   1.975   6.412 -1.0954  1.6141 -2.1179
 7766SOL    HW234758   3.873   1.835   6.425 -1.4098  1.9808  0.4425
 7767SOL     OW34759   2.854   4.024   2.550  0.8367  0.9193  0.1405
 7767SOL    HW134760   2.891   3.940   2.575  0.6031  0.7186 -0.1884
 7767SOL    HW234761   2.763   4.007   2.575  1.6215 -0.4367  2.0796
 7768SOL     OW34762   3.162   2.167   3.834 -0.4848  0.3364 -0.2488
 7768SOL    HW134763   3.207   2.229   3.891  1.9414 -1.8455  0.2386
 7768SOL    HW234764   3.088   2.133   3.885 -1.7320  1.6239 -1.2138
 7769SOL     OW34765   4.284   2.350  17.581  0.0297 -0.4488  0.1490
 7769SOL    HW134766   4.312   2.343  17.673  0.1564  2.5082  0.3324
 7769SOL    HW234767   4.313   2.432  17.543 -0.1234 -0.9486 -1.0457
 7770SOL     OW34768   1.277   0.118   7.270  0.7800 -0.1122 -0.1786
 7770SOL    HW134769   1.318   0.067   7.199  0.2070 -0.2455 -0.4115
 7770SOL    HW234770   1.288   0.064   7.348  0.8773  0.1754  0.0097
 7771SOL     OW34771   0.951   0.924  11.704  0.0485  0.2501  0.5783
 7771SOL    HW134772   0.967   1.016  11.726  2.8172 -0.5937  2.1875
 7771SOL    HW234773   1.009   0.883  11.769  0.7734 -0.1515 -0.3183
 7772SOL     OW34774   2.995   2.193   2.420  0.3455  0.3261 -0.0795
 7772SOL    HW134775   2.918   2.237   2.384  0.2455  0.1626 -0.0627
 7772SOL    HW234776   2.967   2.103   2.403 -2.4419  1.4627 -1.5539
 7773SOL     OW34777   1.610   3.884   7.002 -0.0643 -0.3527  0.1540
 7773SOL    HW134778   1.559   3.845   7.073 -2.1820  2.5806  0.2450
 7773SOL    HW234779   1.638   3.967   7.042 -2.6747  0.2925  0.6352
 7774SOL     OW34780   3.430   2.180  15.190  0.3986  0.3449 -0.3688
 7774SOL    HW134781   3.410   2.086  15.195 -0.2772  0.4566 -0.9157
 7774SOL    HW234782   3.468   2.201  15.275 -1.3058 -0.8688  0.6968
 7775SOL     OW34783   3.636   1.938   2.701 -0.4215  0.2098  0.2763
 7775SOL    HW134784   3.668   1.905   2.617  0.9140 -1.0130  1.2651
 7775SOL    HW234785   3.604   2.025   2.677  0.2328  0.5748  0.7439
 7776SOL     OW34786   0.896   0.511   3.210  0.1689  0.1611  0.4804
 7776SOL    HW134787   0.988   0.522   3.185  0.2809 -0.6701  0.5387
 7776SOL    HW234788   0.895   0.418   3.230  2.7003 -0.0041 -0.1691
 7777SOL     OW34789   0.492   2.049   2.726  0.0415  0.2910  0.3133
 7777SOL    HW134790   0.568   2.028   2.672 -1.0412  0.2103 -1.2007
 7777SOL    HW234791   0.458   1.960   2.723  0.6878  0.0411  0.5864
 7778SOL     OW34792   2.302   4.194  11.909 -0.5675  0.7868  0.1541
 7778SOL    HW134793   2.284   4.267  11.849  1.4363 -1.4711 -3.1499
 7778SOL    HW234794   2.275   4.126  11.848  5.2385  0.7398 -2.3405
 7779SOL     OW34795   0.283   0.065   6.724 -0.0489 -0.2471  0.3383
 7779SOL    HW134796   0.350   0.018   6.674 -0.7316 -0.1288 -0.6894
 7779SOL    HW234797   0.318   0.154   6.724 -0.2531 -0.1658  0.3259
 7780SOL     OW34798   0.424   2.630   6.672 -0.1950  0.2480 -0.2533
 7780SOL    HW134799   0.435   2.724   6.685 -0.8093  0.4727 -1.3711
 7780SOL    HW234800   0.331   2.624   6.652  0.8056 -1.1375 -4.5218
 7781SOL     OW34801   3.049   4.420   1.765  0.1096  0.2188 -0.1395
 7781SOL    HW134802   3.084   4.509   1.760  0.0148  0.2015 -1.0617
 7781SOL    HW234803   3.013   4.429   1.854  1.3540 -0.4864  0.4403
 7782SOL     OW34804   3.112   4.211   3.594  0.3967  0.3158 -0.4973
 7782SOL    HW134805   3.032   4.160   3.606  1.6659 -2.0289 -2.2650
 7782SOL    HW234806   3.173   4.138   3.596  2.4677  2.0504 -0.7157
 7783SOL     OW34807   4.516   1.259   8.971 -0.2941  0.1521  0.1552
 7783SOL    HW134808   4.483   1.300   9.051  1.1772 -0.1932  0.9461
 7783SOL    HW234809   4.524   1.165   8.988  1.1193  0.3395  0.5635
 7784SOL     OW34810   4.035   1.125   5.992 -0.1516 -0.3498  0.0855
 7784SOL    HW134811   3.986   1.116   6.074  1.3356  0.1259  1.0295
 7784SOL    HW234812   4.106   1.068   6.022  0.6423  0.8421  0.4406
 7785SOL     OW34813   0.616   0.011  11.972  0.8071 -0.3592 -0.0586
 7785SOL    HW134814   0.589   4.649  11.937  1.8614  0.1670 -2.1684
 7785SOL    HW234815   0.672   0.050  11.904  2.3470 -3.4850 -0.5744
 7786SOL     OW34816   2.936   1.423   7.511  0.3323  0.1174  0.0510
 7786SOL    HW134817   2.859   1.369   7.490  0.7133 -0.6875  0.7437
 7786SOL    HW234818   2.927   1.436   7.605  1.7225 -3.4684  0.6763
 7787SOL     OW34819   3.233   1.519  13.325  0.1796 -0.3337  0.0199
 7787SOL    HW134820   3.146   1.537  13.290  1.9343  1.7105 -3.2759
 7787SOL    HW234821   3.266   1.450  13.267 -3.1148 -1.0240 -0.9992
 7788SOL     OW34822   0.153   4.534   4.344 -0.3022  0.3310  0.1637
 7788SOL    HW134823   0.073   4.517   4.394 -0.6996  0.4797 -0.4117
 7788SOL    HW234824   0.130   4.614   4.296  0.1562  0.8598  0.8291
 7789SOL     OW34825   3.234   2.489  10.399 -0.7858  0.2062 -0.0132
 7789SOL    HW134826   3.232   2.536  10.316 -0.2881 -1.3751 -0.9320
 7789SOL    HW234827   3.250   2.553  10.468  1.2604  1.4264 -1.6289
 7790SOL     OW34828   4.570   2.130   3.060 -0.0598  0.3105 -0.6886
 7790SOL    HW134829   4.645   2.083   3.024  0.7423 -0.6602  2.2664
 7790SOL    HW234830   4.593   2.214   3.020 -1.7425  2.5199  3.0244
 7791SOL     OW34831   3.852   0.491   8.078 -0.0913  0.5787 -0.5964
 7791SOL    HW134832   3.855   0.405   8.120 -4.3896  0.9137  0.3716
 7791SOL    HW234833   3.781   0.489   8.014 -0.7259 -0.0234  0.1377
 7792SOL     OW34834   0.820   3.136   4.445  0.0142  0.1686  0.3845
 7792SOL    HW134835   0.871   3.198   4.393 -1.6154  1.2486  0.0585
 7792SOL    HW234836   0.767   3.098   4.375  0.5267  0.0826  0.0444
 7793SOL     OW34837   3.511   0.272  15.965 -0.4429 -0.0538 -0.1197
 7793SOL    HW134838   3.598   0.255  15.928 -0.6436  2.2743 -1.6385
 7793SOL    HW234839   3.483   0.323  15.889 -0.4426  1.6656  1.0431
 7794SOL     OW34840   2.934   2.061   3.972 -0.4838 -0.4490  0.1240
 7794SOL    HW134841   2.874   2.119   4.018  0.1567 -0.4918  1.0068
 7794SOL    HW234842   2.888   1.980   3.950 -0.7952  0.2612 -1.9252
 7795SOL     OW34843   1.891   3.824  11.764  0.0953  0.3042 -0.1589
 7795SOL    HW134844   1.939   3.749  11.728  0.9497  0.4550  0.6886
 7795SOL    HW234845   1.952   3.842  11.836 -0.1993 -0.7782  0.3498
 7796SOL     OW34846   2.490   4.697   9.036 -0.3543 -0.4188  0.1134
 7796SOL    HW134847   2.495   0.041   9.105 -2.9023  1.9403 -1.9466
 7796SOL    HW234848   2.458   0.030   8.964  3.0691  0.6390 -0.5815
 7797SOL     OW34849   1.209   2.333   4.028 -0.2741 -0.3990  0.4816
 7797SOL    HW134850   1.265   2.273   3.979  0.2608  0.4967 -0.0032
 7797SOL    HW234851   1.143   2.272   4.061 -1.0474  0.7390  1.0436
 7798SOL     OW34852   1.742   3.563  17.196  0.3939 -0.1373  0.5047
 7798SOL    HW134853   1.822   3.580  17.247  0.4746  2.5047 -0.5146
 7798SOL    HW234854   1.782   3.545  17.111 -0.4641  1.9440 -0.3448
 7799SOL     OW34855   2.263   4.371   6.081  0.3096 -0.4101  0.1007
 7799SOL    HW134856   2.226   4.283   6.078  1.3222 -0.8340  0.3847
 7799SOL    HW234857   2.336   4.370   6.019  1.5249  0.3720  1.5416
 7800SOL     OW34858   3.786   1.552   4.080  0.1226  0.5337  0.5736
 7800SOL    HW134859   3.824   1.527   3.996  0.2115  1.3792  0.3565
 7800SOL    HW234860   3.716   1.610   4.050 -1.0111 -1.2219 -0.1670
 7801SOL     OW34861   2.252   1.484  13.867  0.3285 -0.6194  0.4693
 7801SOL    HW134862   2.284   1.503  13.956 -0.8126  1.0390  0.5252
 7801SOL    HW234863   2.161   1.511  13.875 -0.1367 -1.3877 -2.4996
 7802SOL     OW34864   1.755   2.825   6.556  0.4304  0.3154 -0.3692
 7802SOL    HW134865   1.795   2.741   6.578 -0.1540 -0.4467 -2.2240
 7802SOL    HW234866   1.773   2.846   6.464  1.1011  1.9312  0.1453
 7803SOL     OW34867   3.063   1.510   4.434 -0.3637 -0.4081  0.2447
 7803SOL    HW134868   3.032   1.598   4.454 -1.8562 -0.5569 -1.3900
 7803SOL    HW234869   3.067   1.479   4.525 -0.4291  0.2961  0.4902
 7804SOL     OW34870   3.237   1.866  10.436 -0.2851  0.8980  0.3711
 7804SOL    HW134871   3.262   1.929  10.368  0.7596 -2.2545 -2.2025
 7804SOL    HW234872   3.323   1.831  10.460 -0.7709 -0.1428  0.6256
 7805SOL     OW34873   2.181   4.114   6.018 -0.4474 -0.1398 -0.4483
 7805SOL    HW134874   2.204   4.071   5.935  0.8546 -1.8569  0.8006
 7805SOL    HW234875   2.091   4.144   6.009 -0.5832  0.2189  2.3298
 7806SOL     OW34876   2.884   2.794   8.664 -0.5789  0.9773  0.1228
 7806SOL    HW134877   2.932   2.771   8.743 -0.0164 -1.0408 -0.8155
 7806SOL    HW234878   2.822   2.858   8.699 -0.8612 -0.3671  2.0821
 7807SOL     OW34879   4.665   4.072  12.541  0.3839  0.2236  0.2787
 7807SOL    HW134880   4.654   4.159  12.502  0.3994 -1.1506 -2.8022
 7807SOL    HW234881   0.008   4.079  12.610  1.1798  1.2298 -0.5802
 7808SOL     OW34882   3.850   4.633   3.114  0.1497  0.0919  0.3551
 7808SOL    HW134883   3.822   4.629   3.023 -0.6115 -0.0961  0.6011
 7808SOL    HW234884   3.828   4.547   3.148 -0.0204  0.0395  0.1083
 7809SOL     OW34885   1.132   1.919  17.276  0.2743  0.2991  0.4139
 7809SOL    HW134886   1.039   1.926  17.297  0.9284  4.9081  1.8463
 7809SOL    HW234887   1.169   2.007  17.284 -0.2694  0.6822 -1.3573
 7810SOL     OW34888   2.748   2.957  11.588 -0.1880  0.1858 -0.1247
 7810SOL    HW134889   2.797   2.945  11.670 -2.0931 -0.0663  0.9871
 7810SOL    HW234890   2.786   3.036  11.550 -0.2531  1.5496  2.6476
 7811SOL     OW34891   2.248   0.896   1.923  0.2433 -0.7028  0.3349
 7811SOL    HW134892   2.178   0.914   1.859  0.5613  0.8226  0.4200
 7811SOL    HW234893   2.288   0.981   1.941  0.6821 -0.6280 -0.9527
 7812SOL     OW34894   3.758   4.706  14.767 -0.0279  0.0717  0.0579
 7812SOL    HW134895   3.678   4.655  14.777 -1.8671  3.6012  3.4718
 7812SOL    HW234896   3.736   0.040  14.692 -1.5200 -0.2644  0.2518
 7813SOL     OW34897   2.244   1.356   6.350 -0.6569  0.6266 -0.1903
 7813SOL    HW134898   2.322   1.398   6.387 -0.9583  0.2175  0.9009
 7813SOL    HW234899   2.184   1.431   6.355 -1.2672  0.1950 -1.0051
 7814SOL     OW34900   2.776   4.666   2.482  0.0187  0.0483 -0.7602
 7814SOL    HW134901   2.769   4.652   2.576  0.4305 -0.0201 -0.7412
 7814SOL    HW234902   2.852   0.002   2.486  0.2437 -0.2583 -0.6016
 7815SOL     OW34903   1.391   0.162  12.474 -0.5467 -0.3657  0.1202
 7815SOL    HW134904   1.311   0.111  12.468 -0.1713 -0.8783 -0.4786
 7815SOL    HW234905   1.377   0.230  12.408  0.6764 -0.1996  0.0277
 7816SOL     OW34906   0.864   1.525   5.644  0.4393  0.1682  0.0069
 7816SOL    HW134907   0.910   1.588   5.700 -1.2748  1.2084  0.2285
 7816SOL    HW234908   0.806   1.585   5.597 -1.8060 -1.2139  1.0151
 7817SOL     OW34909   2.619   2.788   9.357  0.0094  0.1303  0.8064
 7817SOL    HW134910   2.575   2.849   9.298  0.9081 -1.6352 -1.7170
 7817SOL    HW234911   2.691   2.839   9.394  1.5155 -0.6633 -1.0185
 7818SOL     OW34912   4.436   0.264   8.371 -0.1615  0.1444 -0.1569
 7818SOL    HW134913   4.413   0.180   8.409 -0.4857  0.0101 -0.6434
 7818SOL    HW234914   4.486   0.233   8.295 -1.0873 -2.2672  0.2292
 7819SOL     OW34915   3.747   3.944   4.260 -0.1035 -0.4249 -0.6528
 7819SOL    HW134916   3.834   3.964   4.293 -0.7949 -0.3837  1.1477
 7819SOL    HW234917   3.690   4.018   4.280 -1.0281 -1.4458  0.4710
 7820SOL     OW34918   1.605   0.200   9.222  0.6125 -0.9596 -0.2712
 7820SOL    HW134919   1.557   0.267   9.270  0.0615  0.5078 -2.9038
 7820SOL    HW234920   1.694   0.234   9.223 -0.7756  2.6440  0.6411
 7821SOL     OW34921   2.311   3.393  12.803  0.0543  0.2591 -0.2942
 7821SOL    HW134922   2.288   3.459  12.869  0.9495  0.6593 -0.3791
 7821SOL    HW234923   2.232   3.342  12.786 -0.0640  0.0727  0.8000
 7822SOL     OW34924   0.091   1.039   5.112 -0.1562  0.5051  0.0900
 7822SOL    HW134925   0.035   1.117   5.114  1.8056  1.8787  1.6665
 7822SOL    HW234926   0.142   1.053   5.192  1.0254 -1.3991 -0.3482
 7823SOL     OW34927   3.726   0.095   5.846 -0.0604  0.2170  0.2912
 7823SOL    HW134928   3.644   0.052   5.870 -0.6264  0.5813 -0.9720
 7823SOL    HW234929   3.693   0.184   5.834 -0.0775  0.2730  0.7570
 7824SOL     OW34930   4.219   1.003   5.246 -0.2090 -0.3568  0.0724
 7824SOL    HW134931   4.170   1.085   5.253  2.1971  1.0229  0.6503
 7824SOL    HW234932   4.307   1.038   5.230  0.0544 -2.0606 -2.1782
 7825SOL     OW34933   4.109   3.593   1.997 -0.0494 -0.2996  0.5836
 7825SOL    HW134934   4.049   3.667   1.989  0.6057  0.0885 -0.7998
 7825SOL    HW234935   4.088   3.591   2.091  1.7895 -0.6406  1.0032
 7826SOL     OW34936   1.483   1.494   6.606  0.4670  0.2630 -0.9075
 7826SOL    HW134937   1.458   1.417   6.655 -3.5632  2.3824  0.3432
 7826SOL    HW234938   1.549   1.520   6.671  0.0251 -0.8865 -0.0148
 7827SOL     OW34939   0.945   2.074  11.323 -0.2766  0.1662  0.0055
 7827SOL    HW134940   0.851   2.061  11.339 -0.0249 -0.5593  0.8818
 7827SOL    HW234941   0.962   2.144  11.385  4.3216 -0.1607 -0.9052
 7828SOL     OW34942   3.089   1.490   5.860 -0.3898 -0.0176 -0.1684
 7828SOL    HW134943   3.111   1.437   5.936 -2.2544 -0.7740 -0.1739
 7828SOL    HW234944   3.141   1.569   5.874 -0.3164 -0.3219  1.2709
 7829SOL     OW34945   0.441   1.451  13.070 -0.4006  0.2376 -0.2858
 7829SOL    HW134946   0.358   1.432  13.026  0.1467 -0.7463 -0.8697
 7829SOL    HW234947   0.491   1.431  12.991 -0.6008 -0.0287 -0.3451
 7830SOL     OW34948   0.885   1.956   8.371  0.1243  0.0476 -0.2569
 7830SOL    HW134949   0.886   1.980   8.464  1.5363  0.7798 -0.4579
 7830SOL    HW234950   0.976   1.939   8.348  0.1816  2.2072 -1.6859
 7831SOL     OW34951   2.353   1.195  16.830  0.5794  0.4263 -0.5062
 7831SOL    HW134952   2.313   1.246  16.900  1.2062 -1.5141  1.2647
 7831SOL    HW234953   2.419   1.257  16.800  2.2605 -0.8577  0.5094
 7832SOL     OW34954   3.085   3.761   7.029 -0.3550 -0.2416 -0.3308
 7832SOL    HW134955   3.144   3.834   7.048 -2.1322  2.3168 -4.5818
 7832SOL    HW234956   3.139   3.684   7.012 -1.4430 -1.0269 -0.2178
 7833SOL     OW34957   4.396   4.228   4.928 -0.0109 -0.4409 -0.5410
 7833SOL    HW134958   4.314   4.246   4.882 -0.6786 -1.1917  0.3537
 7833SOL    HW234959   4.433   4.148   4.893  0.3892  0.4436 -2.1042
 7834SOL     OW34960   4.124   2.635   8.518 -0.1828 -0.1035  0.6769
 7834SOL    HW134961   4.093   2.644   8.428 -0.7846 -0.2058  0.8792
 7834SOL    HW234962   4.203   2.690   8.516  0.1971 -0.7105 -1.7356
 7835SOL     OW34963   0.961   3.007   8.432  0.4802 -0.6555 -0.4855
 7835SOL    HW134964   1.020   3.058   8.376  0.0171 -2.4898 -2.6246
 7835SOL    HW234965   0.890   2.986   8.371 -1.5594 -1.6892  2.2813
 7836SOL     OW34966   1.009   2.994   0.305  0.1286  0.2269 -0.3519
 7836SOL    HW134967   1.048   2.948   0.379 -1.1025  0.8620  0.6835
 7836SOL    HW234968   1.035   2.933   0.235 -0.6825 -1.0368  0.4560
 7837SOL     OW34969   4.180   0.468   3.063 -0.0392 -0.0765 -0.1866
 7837SOL    HW134970   4.248   0.520   3.107 -2.4474  1.6694  1.4631
 7837SOL    HW234971   4.115   0.454   3.132 -0.3200  0.1654 -0.4046
 7838SOL     OW34972   1.682   2.200   3.260 -0.4375 -0.7437 -0.1625
 7838SOL    HW134973   1.774   2.226   3.268 -0.8307  0.8690 -0.9324
 7838SOL    HW234974   1.667   2.188   3.167  0.4184 -0.4339 -0.3434
 7839SOL     OW34975   3.272   1.512  10.347 -0.0730 -0.3738 -0.5874
 7839SOL    HW134976   3.302   1.421  10.351  1.7142  0.2814  0.9762
 7839SOL    HW234977   3.330   1.563  10.404  0.6237 -2.1751  0.3360
 7840SOL     OW34978   4.446   2.131   8.724 -0.6238 -0.2313  0.5083
 7840SOL    HW134979   4.471   2.202   8.664  1.8632 -0.5821  1.1183
 7840SOL    HW234980   4.353   2.119   8.703 -0.6408 -0.5052  0.7489
 7841SOL     OW34981   1.949   2.941   9.936  0.9519 -0.1432  0.1185
 7841SOL    HW134982   1.998   3.011   9.979  0.0318  2.3959 -2.9619
 7841SOL    HW234983   1.860   2.968   9.960  0.4256 -1.4687 -0.3606
 7842SOL     OW34984   0.663   1.125  11.558 -0.3315  0.1072 -0.2245
 7842SOL    HW134985   0.710   1.159  11.635 -1.4220  1.2520 -0.0652
 7842SOL    HW234986   0.586   1.181  11.553  1.8702  3.1585 -0.0219
 7843SOL     OW34987   1.525   1.003  13.806  0.3967 -0.2868  0.1857
 7843SOL    HW134988   1.564   1.087  13.830  1.4924 -0.9393  0.6482
 7843SOL    HW234989   1.433   1.023  13.790  0.0766 -0.4475  1.8701
 7844SOL     OW34990   2.071   0.661   1.301 -0.2497 -0.0592  0.0975
 7844SOL    HW134991   2.032   0.744   1.329 -0.2683 -0.6251  1.7178
 7844SOL    HW234992   2.165   0.676   1.304  0.1742 -2.4893 -1.6556
 7845SOL     OW34993   0.233   3.611   3.868  0.1606 -0.1011  0.3250
 7845SOL    HW134994   0.271   3.699   3.860  1.9640 -1.1263 -2.0715
 7845SOL    HW234995   0.147   3.624   3.907  0.6380  1.8183  0.7615
 7846SOL     OW34996   0.041   0.596   0.587 -0.0742  0.0701  0.2924
 7846SOL    HW134997   0.009   0.506   0.584 -0.1047  0.0585  1.0208
 7846SOL    HW234998   0.128   0.587   0.626 -0.3153  0.3965  0.9131
 7847SOL     OW34999   2.409   2.342  15.131 -0.0674  0.0597 -0.3360
 7847SOL    HW135000   2.441   2.430  15.153  1.2180 -0.5256  0.1499
 7847SOL    HW235001   2.322   2.369  15.101  0.7355  1.0671 -1.7963
 7848SOL     OW35002   3.553   1.610  13.604  0.1124 -0.6548  0.2891
 7848SOL    HW135003   3.597   1.543  13.656  2.1097 -0.1654 -0.7783
 7848SOL    HW235004   3.486   1.551  13.569 -1.0027  0.0714  1.1857
 7849SOL     OW35005   3.266   4.222   2.736  0.2101 -0.3501  0.1147
 7849SOL    HW135006   3.261   4.169   2.815 -1.0151 -2.0850 -1.1239
 7849SOL    HW235007   3.328   4.177   2.679 -0.3172  1.5101 -1.9637
 7850SOL     OW35008   1.606   3.467   7.468  0.3094  0.1548  0.1974
 7850SOL    HW135009   1.663   3.497   7.397  0.3748 -2.4648 -0.8816
 7850SOL    HW235010   1.522   3.488   7.427 -1.3493 -3.8432  1.5516
 7851SOL     OW35011   4.591   2.681   3.673  0.0399  0.4855  0.2671
 7851SOL    HW135012   4.653   2.641   3.612 -0.0419 -2.0946  1.8594
 7851SOL    HW235013   4.528   2.609   3.681  1.7204 -0.9389  0.5398
 7852SOL     OW35014   2.968   0.196  12.678 -0.1504  0.3756  0.4368
 7852SOL    HW135015   2.945   0.286  12.703 -2.0232  0.7019 -2.5198
 7852SOL    HW235016   2.900   0.174  12.615 -1.3241  0.4310  1.6836
 7853SOL     OW35017   2.858   1.494  16.801 -0.4123 -0.1509  0.1054
 7853SOL    HW135018   2.783   1.435  16.793  1.1917 -2.1079 -0.5226
 7853SOL    HW235019   2.930   1.448  16.758 -1.8753 -0.0323 -2.4870
 7854SOL     OW35020   1.892   1.732   7.043 -0.5879 -0.1000  0.1271
 7854SOL    HW135021   1.872   1.644   7.074 -2.0150  0.9359  2.1663
 7854SOL    HW235022   1.904   1.769   7.130  1.9021  0.1160 -0.3227
 7855SOL     OW35023   1.334   2.413  13.490 -0.3579  0.2270  0.0915
 7855SOL    HW135024   1.294   2.490  13.449  3.2990  1.4356 -1.1842
 7855SOL    HW235025   1.377   2.369  13.417 -0.2504  1.4131 -0.5626
 7856SOL     OW35026   1.530   4.569  12.874  0.0413 -0.5911 -0.0863
 7856SOL    HW135027   1.478   4.591  12.951  0.3600  0.2762 -0.1182
 7856SOL    HW235028   1.494   4.629  12.809  0.1112 -1.5994 -1.0609
 7857SOL     OW35029   3.196   1.889   5.640 -0.5278  0.0932  0.6234
 7857SOL    HW135030   3.285   1.883   5.607  0.1256 -2.1607  2.7566
 7857SOL    HW235031   3.133   1.886   5.568 -1.8909  0.7159  1.7895
 7858SOL     OW35032   2.587   2.576   3.555 -0.2444  0.2611 -0.2513
 7858SOL    HW135033   2.654   2.587   3.622  0.8222 -1.5462 -1.0150
 7858SOL    HW235034   2.522   2.641   3.580  0.7920  0.8461  0.9153
 7859SOL     OW35035   2.701   2.421   3.349 -0.6559  0.5132 -0.4783
 7859SOL    HW135036   2.639   2.409   3.277 -0.9124 -0.0848 -0.1587
 7859SOL    HW235037   2.662   2.493   3.399 -2.1067 -1.4618  1.2458
 7860SOL     OW35038   3.785   2.331  12.053  0.5281 -0.1090  0.1297
 7860SOL    HW135039   3.741   2.300  11.974  1.6925 -0.1096 -0.5244
 7860SOL    HW235040   3.833   2.250  12.071 -0.1679 -0.7245 -0.7779
 7861SOL     OW35041   0.628   1.119   3.330  0.1702 -0.0722 -1.1751
 7861SOL    HW135042   0.622   1.039   3.382 -2.5288  0.3035 -0.9263
 7861SOL    HW235043   0.537   1.132   3.304 -0.0896 -1.0011 -0.7331
 7862SOL     OW35044   1.069   2.047  12.633  0.8749 -0.3301 -0.4858
 7862SOL    HW135045   1.045   1.958  12.608 -2.1506 -0.0220  1.2741
 7862SOL    HW235046   1.158   2.049  12.598  1.2929 -0.9492  0.5351
 7863SOL     OW35047   0.236   0.574  10.834  0.1146 -0.6616  0.1945
 7863SOL    HW135048   0.323   0.540  10.816  0.0322 -0.4376 -0.6135
 7863SOL    HW235049   0.230   0.545  10.925  0.2040  0.2274  0.4871
 7864SOL     OW35050   0.145   2.279   5.974 -0.6791  0.1568  0.3690
 7864SOL    HW135051   0.118   2.309   6.061 -1.8184  0.0526  0.0486
 7864SOL    HW235052   0.072   2.311   5.920 -0.4102  0.0240 -0.0713
 7865SOL     OW35053   0.022   1.284   6.249 -1.0624 -0.0955  0.5263
 7865SOL    HW135054   0.068   1.206   6.280 -3.6997 -0.9215  2.3115
 7865SOL    HW235055   0.049   1.349   6.314  1.2104 -2.4185  1.9112
 7866SOL     OW35056   2.677   2.901   3.600 -0.0375 -0.0059 -0.5490
 7866SOL    HW135057   2.703   2.814   3.631 -1.3893 -0.6152 -1.1442
 7866SOL    HW235058   2.590   2.924   3.630 -0.6876  1.0730 -3.1984
 7867SOL     OW35059   2.481   4.500   4.606 -0.3755  0.1014  0.1108
 7867SOL    HW135060   2.575   4.498   4.622 -0.2329  2.1272 -0.3952
 7867SOL    HW235061   2.463   4.406   4.601 -0.8025  0.1629  0.4817
 7868SOL     OW35062   3.864   0.613   8.641  0.4518  0.1603  0.5021
 7868SOL    HW135063   3.775   0.624   8.606  1.0436  2.9608 -0.1105
 7868SOL    HW235064   3.897   0.703   8.644  1.5767 -0.2055 -0.8847
 7869SOL     OW35065   2.955   1.764   1.086 -0.1985  0.1735  0.5529
 7869SOL    HW135066   3.043   1.795   1.066  0.5762 -1.6935  1.0112
 7869SOL    HW235067   2.892   1.827   1.052  1.2250  0.3286 -1.7521
 7870SOL     OW35068   0.480   4.467   9.002 -0.3831  0.3240 -0.2269
 7870SOL    HW135069   0.390   4.436   8.988 -0.4251 -0.3692  1.6170
 7870SOL    HW235070   0.523   4.383   9.018  0.6573  1.0887  1.0264
 7871SOL     OW35071   3.944   2.680  10.628 -0.5974  0.2688  0.0526
 7871SOL    HW135072   3.855   2.662  10.596 -0.7316 -1.4603  1.4186
 7871SOL    HW235073   3.945   2.776  10.631 -1.0031  0.3152 -1.0514
 7872SOL     OW35074   3.935   0.163  10.864 -0.4403  0.3799  0.0764
 7872SOL    HW135075   3.854   0.213  10.871 -1.0862 -0.4786 -1.2291
 7872SOL    HW235076   3.954   0.157  10.958  3.4580 -0.1414 -0.7631
 7873SOL     OW35077   3.820   4.412  17.512  0.4611 -0.3994  0.3796
 7873SOL    HW135078   3.869   4.449  17.439 -3.1242  0.6986 -1.4840
 7873SOL    HW235079   3.731   4.428  17.479  0.3360  0.3995  1.1007
 7874SOL     OW35080   4.665   3.775   8.360  0.1786 -0.4640  0.2102
 7874SOL    HW135081   4.641   3.859   8.320 -1.6657 -2.1939 -2.2913
 7874SOL    HW235082   4.606   3.717   8.313  0.2242  0.4024 -0.9162
 7875SOL     OW35083   3.719   0.662   0.217  0.1923 -0.4405  0.0978
 7875SOL    HW135084   3.630   0.689   0.241  0.8869  2.4841 -0.5678
 7875SOL    HW235085   3.727   0.574   0.253  0.4723 -0.7137 -0.6244
 7876SOL     OW35086   4.509   2.827   9.799 -0.4870  0.2290  0.4819
 7876SOL    HW135087   4.515   2.739   9.760  0.8312  0.3168  0.4876
 7876SOL    HW235088   4.600   2.833   9.828  0.2065 -0.3145 -1.5908
 7877SOL     OW35089   1.655   0.453   7.297  0.0266 -0.2933 -0.1047
 7877SOL    HW135090   1.590   0.391   7.329  0.9442 -1.3543 -0.2981
 7877SOL    HW235091   1.682   0.489   7.382 -0.8995 -0.0654  0.0924
 7878SOL     OW35092   3.382   3.118  17.225 -0.3575  0.3443 -0.8706
 7878SOL    HW135093   3.364   3.064  17.149  0.8416 -1.7826  0.3475
 7878SOL    HW235094   3.478   3.115  17.233 -0.5554  0.8887  2.0003
 7879SOL     OW35095   1.573   1.776   9.276 -0.7627 -0.9758  0.6278
 7879SOL    HW135096   1.558   1.854   9.330  0.1671 -0.2371 -0.2015
 7879SOL    HW235097   1.631   1.728   9.335  2.8434 -0.4740 -2.5560
 7880SOL     OW35098   3.555   3.334   6.260  0.4226  0.5325 -0.1929
 7880SOL    HW135099   3.595   3.420   6.277  0.8375  0.7377 -2.2101
 7880SOL    HW235100   3.491   3.319   6.330  1.9117  1.2512  1.3224
 7881SOL     OW35101   2.149   2.989   4.266 -0.0170 -0.1175  0.3089
 7881SOL    HW135102   2.068   3.026   4.302 -0.2629 -0.1646 -0.1983
 7881SOL    HW235103   2.136   2.898   4.295 -1.9664  0.0623  0.0248
 7882SOL     OW35104   4.421   0.553   6.552  0.1104 -0.3476  0.5220
 7882SOL    HW135105   4.517   0.557   6.551 -0.0058  3.9172  3.0718
 7882SOL    HW235106   4.398   0.560   6.460 -0.4795  0.3080  0.7220
 7883SOL     OW35107   3.221   2.397   0.786 -0.2748 -0.0840 -0.0417
 7883SOL    HW135108   3.302   2.350   0.804  0.7134  1.0913 -1.4431
 7883SOL    HW235109   3.248   2.481   0.748 -1.3975  0.0579 -0.5480
 7884SOL     OW35110   3.156   1.340   6.359  0.1706 -0.2617 -0.0119
 7884SOL    HW135111   3.202   1.308   6.436  1.3935  0.9378 -0.2536
 7884SOL    HW235112   3.080   1.285   6.377 -0.4724  0.8728  0.7841
 7885SOL     OW35113   3.550   1.886   9.528  0.0511  0.2057  0.2705
 7885SOL    HW135114   3.464   1.855   9.556 -0.4051  1.4647  0.2333
 7885SOL    HW235115   3.544   1.981   9.537  0.6856  0.3278 -0.6264
 7886SOL     OW35116   2.457   3.245   3.975  0.3495 -0.5896  0.1650
 7886SOL    HW135117   2.409   3.228   4.056  0.6054  0.1280  0.4730
 7886SOL    HW235118   2.483   3.156   3.953 -0.9792 -0.8802 -0.2154
 7887SOL     OW35119   2.853   4.113   3.628  0.3377 -0.5312 -0.3805
 7887SOL    HW135120   2.834   4.142   3.718 -0.9699 -2.0054 -0.1888
 7887SOL    HW235121   2.788   4.043   3.621  2.3944 -2.1128 -3.4929
 7888SOL     OW35122   3.693   0.402   0.319  0.0531  0.0249  0.6559
 7888SOL    HW135123   3.751   0.407   0.395  1.4765 -1.0342 -0.3673
 7888SOL    HW235124   3.724   0.317   0.289 -0.5286  0.5656 -1.4702
 7889SOL     OW35125   0.385   3.228   6.702  0.2300  0.0503  0.3019
 7889SOL    HW135126   0.328   3.207   6.777 -0.5793 -1.2007 -0.6495
 7889SOL    HW235127   0.350   3.313   6.678 -2.1260 -0.7071  1.0259
 7890SOL     OW35128   1.895   2.406   6.002 -0.0318  0.2572  0.4216
 7890SOL    HW135129   1.910   2.315   6.029  1.1437  0.4564  0.4124
 7890SOL    HW235130   1.799   2.412   5.999 -0.0206  0.3459  0.1825
 7891SOL     OW35131   2.551   0.294   5.512 -0.4415  0.0910 -0.0749
 7891SOL    HW135132   2.518   0.336   5.433 -1.0949 -3.2130 -1.5414
 7891SOL    HW235133   2.534   0.205   5.480 -0.1673  0.6526 -1.7472
 7892SOL     OW35134   0.309   0.120   7.561  0.1199  0.0628 -0.0100
 7892SOL    HW135135   0.243   0.121   7.630  0.4574 -1.5753  0.3308
 7892SOL    HW235136   0.256   0.090   7.487 -1.1811  0.6205  0.7054
 7893SOL     OW35137   1.943   3.587   5.925  0.2860  0.0551  0.0977
 7893SOL    HW135138   2.011   3.653   5.941  0.3433  0.4050 -1.6805
 7893SOL    HW235139   1.885   3.647   5.879 -0.9046 -0.5902  0.7434
 7894SOL     OW35140   4.033   2.567   4.227 -0.0409  0.0740 -0.2194
 7894SOL    HW135141   3.954   2.608   4.262 -0.8722 -1.7922  0.0839
 7894SOL    HW235142   4.070   2.541   4.312 -0.8771  1.4696  0.5829
 7895SOL     OW35143   2.156   1.868  15.097 -0.2890  0.0100  0.2073
 7895SOL    HW135144   2.063   1.878  15.078  0.4332 -0.3218 -3.5480
 7895SOL    HW235145   2.175   1.776  15.076 -1.3204  0.5962 -3.3372
 7896SOL     OW35146   4.139   4.685   7.840  0.5357 -0.2147 -0.1541
 7896SOL    HW135147   4.199   4.653   7.908 -0.0580 -0.2531  0.3492
 7896SOL    HW235148   4.174   0.051   7.835 -2.1756  0.9798  1.9890
 7897SOL     OW35149   2.655   0.948   8.755 -0.0513  0.3931  0.6770
 7897SOL    HW135150   2.617   0.999   8.826 -0.8486 -1.0626  1.2957
 7897SOL    HW235151   2.656   1.014   8.687 -0.6966  1.0694  1.3290
 7898SOL     OW35152   0.492   3.625   6.546 -0.1156 -0.5353 -0.3284
 7898SOL    HW135153   0.524   3.714   6.555 -1.7429 -0.1285  1.5670
 7898SOL    HW235154   0.561   3.591   6.489  1.2438  0.8957  0.4648
 7899SOL     OW35155   4.566   3.531   9.489 -0.0109  0.2848  0.1681
 7899SOL    HW135156   4.479   3.552   9.455 -0.0630 -1.3063 -0.6361
 7899SOL    HW235157   4.591   3.448   9.449 -2.5874  0.5578 -1.9901
 7900SOL     OW35158   0.204   0.439   6.588  0.4606  0.0191  0.1291
 7900SOL    HW135159   0.190   0.513   6.647  0.8006  1.9610 -2.2354
 7900SOL    HW235160   0.295   0.413   6.602  0.3365 -0.8511 -0.7499
 7901SOL     OW35161   1.612   3.656   3.412 -0.3321  0.0669  0.5613
 7901SOL    HW135162   1.561   3.676   3.491 -0.6023 -1.5070  0.7892
 7901SOL    HW235163   1.692   3.620   3.450  0.2838  0.9576  0.1239
 7902SOL     OW35164   3.497   2.499   8.961 -0.3218  0.2545 -0.8165
 7902SOL    HW135165   3.574   2.484   8.906 -0.2153 -0.6106 -0.4379
 7902SOL    HW235166   3.501   2.415   9.007  1.0293  0.7448 -0.0212
 7903SOL     OW35167   2.057   2.670  12.356  0.0583  0.4256  0.6555
 7903SOL    HW135168   1.996   2.684  12.284  0.4787  0.7979  0.3699
 7903SOL    HW235169   2.122   2.739  12.340  2.3450 -2.1213 -0.8968
 7904SOL     OW35170   3.418   2.472  17.116 -0.2381  0.0367  0.6127
 7904SOL    HW135171   3.439   2.449  17.207 -0.2153  1.6044  1.0086
 7904SOL    HW235172   3.406   2.387  17.075 -0.0129 -0.5093  1.6799
 7905SOL     OW35173   4.707   0.680   6.939  0.3811 -0.2827  0.6768
 7905SOL    HW135174   4.674   0.601   6.982 -1.3453  0.1433  0.1316
 7905SOL    HW235175   0.060   0.650   6.889  1.0874  3.7810 -0.6776
 7906SOL     OW35176   4.561   2.715   2.813  0.0132 -0.1750  0.5976
 7906SOL    HW135177   4.581   2.665   2.892 -0.0667  0.6358  1.1296
 7906SOL    HW235178   4.640   2.686   2.768 -0.5647 -0.3118 -0.3310
 7907SOL     OW35179   3.469   1.658   3.160 -0.3690  0.6523 -0.2432
 7907SOL    HW135180   3.552   1.702   3.177  0.3573  0.1845 -2.5845
 7907SOL    HW235181   3.493   1.595   3.093  1.4254  1.1542 -0.0516
 7908SOL     OW35182   3.269   3.713   5.068  0.0199  0.6641  0.7223
 7908SOL    HW135183   3.309   3.647   5.124  1.9458  1.4492  0.2713
 7908SOL    HW235184   3.317   3.719   4.985 -3.0267  1.5951 -0.9776
 7909SOL     OW35185   0.326   3.066   0.641  0.6196  0.2204  0.1717
 7909SOL    HW135186   0.405   3.056   0.588  1.1649 -0.9227  1.2230
 7909SOL    HW235187   0.367   3.086   0.725  1.3358  1.6487 -0.5081
 7910SOL     OW35188   2.872   2.522  14.792  0.3524 -0.2487 -0.0754
 7910SOL    HW135189   2.950   2.496  14.840  0.9698 -1.2174 -1.6050
 7910SOL    HW235190   2.802   2.489  14.848  0.2370  0.8603  0.4324
 7911SOL     OW35191   3.106   1.897   3.137  0.0773  0.1855 -0.4315
 7911SOL    HW135192   3.098   1.818   3.189 -1.6284 -0.3821 -1.5746
 7911SOL    HW235193   3.021   1.941   3.133  0.6103  1.2706  0.0514
 7912SOL     OW35194   3.437   0.006  15.206 -0.2062  0.0187 -0.1257
 7912SOL    HW135195   3.350   0.008  15.244 -0.0925  0.0490  0.1315
 7912SOL    HW235196   3.490   4.687  15.273  2.0668  1.9646 -0.6775
 7913SOL     OW35197   2.287   1.197   2.751  0.0777 -0.6210 -0.0282
 7913SOL    HW135198   2.227   1.250   2.804  2.1385  2.4968 -0.8273
 7913SOL    HW235199   2.364   1.251   2.736  0.7205 -0.8947  2.2009
 7914SOL     OW35200   3.293   0.186   4.171  0.4546  0.4533 -0.1772
 7914SOL    HW135201   3.198   0.189   4.181  0.3278  2.0958 -1.9300
 7914SOL    HW235202   3.295   0.128   4.095 -1.8314  0.1969 -0.0331
 7915SOL     OW35203   2.864   3.423   1.954  0.2027  0.2728  0.3329
 7915SOL    HW135204   2.815   3.426   1.872 -0.7769 -2.7557  0.8127
 7915SOL    HW235205   2.837   3.497   2.009 -2.8728 -1.6813  1.4993
 7916SOL     OW35206   3.097   3.458   7.735  0.3032  0.0761 -0.2064
 7916SOL    HW135207   3.080   3.459   7.829  0.3839  0.2654 -0.1941
 7916SOL    HW235208   3.015   3.486   7.694 -1.0089 -0.0841  2.2677
 7917SOL     OW35209   2.037   2.862   2.470  0.5578 -0.2820  0.2274
 7917SOL    HW135210   1.942   2.871   2.459  0.4405  0.1673  1.6153
 7917SOL    HW235211   2.060   2.950   2.501  1.9240 -0.4500 -0.3095
 7918SOL     OW35212   3.827   4.505  15.528 -0.0262  0.2318 -0.1339
 7918SOL    HW135213   3.846   4.415  15.555  0.5182  0.7163  1.1160
 7918SOL    HW235214   3.787   4.530  15.612 -0.3163  1.1491 -0.5499
 7919SOL     OW35215   3.092   0.252   6.681 -0.2673 -0.4086  0.1239
 7919SOL    HW135216   3.000   0.230   6.697 -0.6120  0.5433 -0.5669
 7919SOL    HW235217   3.122   0.251   6.772  0.3283  0.9436 -0.0713
 7920SOL     OW35218   1.883   4.545   6.253  0.0440 -0.3636  0.0612
 7920SOL    HW135219   1.925   4.501   6.179 -1.9906 -0.7908 -0.8448
 7920SOL    HW235220   1.952   4.598   6.292 -1.0009  2.1649 -1.5540
 7921SOL     OW35221   2.516   4.177   2.470  0.2912  0.1523  0.4710
 7921SOL    HW135222   2.528   4.243   2.403  1.4027  0.5665  1.0666
 7921SOL    HW235223   2.532   4.098   2.418 -0.1884  0.3165  0.0755
 7922SOL     OW35224   2.398   1.481   5.679  0.5787  0.0244 -0.0042
 7922SOL    HW135225   2.427   1.434   5.758  1.5425  1.4622  0.5072
 7922SOL    HW235226   2.466   1.548   5.684  1.2203 -0.6008 -0.4227
 7923SOL     OW35227   1.362   4.144  11.452 -0.2432  0.0644  0.5987
 7923SOL    HW135228   1.450   4.166  11.422  0.1225  0.6447  2.1058
 7923SOL    HW235229   1.379   4.112  11.541  1.5779  1.3213  0.7003
 7924SOL     OW35230   0.228   4.699  17.682 -0.5874 -0.7356  0.7071
 7924SOL    HW135231   0.270   0.017   0.065  0.3856 -1.6907  0.6780
 7924SOL    HW235232   0.150   4.658   0.026 -1.9019  0.2899 -0.8901
 7925SOL     OW35233   3.155   1.617   1.496 -0.2967 -0.6396  0.2258
 7925SOL    HW135234   3.245   1.640   1.471 -0.7454  0.7706 -0.1317
 7925SOL    HW235235   3.118   1.586   1.414 -0.0322 -1.6177  0.4832
 7926SOL     OW35236   0.207   3.755   2.523 -0.3662 -0.9309  0.1398
 7926SOL    HW135237   0.267   3.825   2.550  0.9788 -2.2337  0.5397
 7926SOL    HW235238   0.244   3.715   2.444 -1.8011 -1.4026 -0.2881
 7927SOL     OW35239   3.009   1.851  11.099  0.4385 -0.8229 -0.1615
 7927SOL    HW135240   3.064   1.783  11.140  1.1561  0.4410  0.9859
 7927SOL    HW235241   3.028   1.829  11.008 -1.0363  2.5892 -1.3072
 7928SOL     OW35242   2.153   1.609   0.638 -0.1162 -0.0558  0.1550
 7928SOL    HW135243   2.119   1.682   0.586 -1.9523 -1.3688 -0.5075
 7928SOL    HW235244   2.247   1.621   0.646  0.4957 -3.0386 -2.6083
 7929SOL     OW35245   3.794   0.542   7.448  0.5267 -1.1868  0.2079
 7929SOL    HW135246   3.799   0.612   7.513  1.5597 -1.0877  0.0231
 7929SOL    HW235247   3.792   0.595   7.369  0.4560 -1.2358  0.1775
 7930SOL     OW35248   3.165   1.564  10.646 -0.3383 -0.3913 -0.1814
 7930SOL    HW135249   3.186   1.477  10.612 -1.5650 -0.7212 -0.0970
 7930SOL    HW235250   3.122   1.599  10.568 -0.0321 -2.3791 -1.2362
 7931SOL     OW35251   1.954   0.717  15.538 -0.7166  0.2678  0.0513
 7931SOL    HW135252   1.962   0.622  15.528 -1.1032  0.1937  0.4589
 7931SOL    HW235253   2.030   0.743  15.486 -2.3974 -0.5077 -2.7993
 7932SOL     OW35254   4.550   2.343   4.260  0.5226 -0.4514  0.4706
 7932SOL    HW135255   4.534   2.255   4.293  0.0026 -1.5338 -2.5907
 7932SOL    HW235256   4.570   2.388   4.342  2.3775 -0.2408 -0.0738
 7933SOL     OW35257   1.237   0.933   3.800 -0.4844  0.2826 -0.5538
 7933SOL    HW135258   1.206   0.845   3.823  1.2163 -0.3805 -0.7560
 7933SOL    HW235259   1.208   0.924   3.709  0.2263 -0.6457 -0.6893
 7934SOL     OW35260   1.401   4.712   7.064  0.1546  0.3396  0.5050
 7934SOL    HW135261   1.351   0.055   7.015  1.3236 -0.0832 -1.2575
 7934SOL    HW235262   1.417   4.655   6.989 -3.0082  1.3814 -0.9413
 7935SOL     OW35263   3.999   0.315   6.152  0.2123 -0.3574 -0.0266
 7935SOL    HW135264   3.989   0.258   6.076  0.3513  1.8131 -1.6753
 7935SOL    HW235265   3.940   0.387   6.130  1.0771  0.5888  0.7706
 7936SOL     OW35266   0.484   3.315  14.403 -0.8052 -0.0846  0.2667
 7936SOL    HW135267   0.451   3.250  14.466  3.2762 -0.2241  2.2324
 7936SOL    HW235268   0.485   3.391  14.462  3.0843  1.4316 -1.8023
 7937SOL     OW35269   0.787   0.331  16.331  0.1133 -0.4054 -0.0010
 7937SOL    HW135270   0.875   0.339  16.367  1.0696  0.2927 -2.5030
 7937SOL    HW235271   0.760   0.252  16.378 -0.5816  1.7257  3.2077
 7938SOL     OW35272   0.793   4.348   2.789  0.2518 -0.4636 -0.0008
 7938SOL    HW135273   0.849   4.391   2.723 -0.2699 -1.2263 -0.9432
 7938SOL    HW235274   0.834   4.265   2.813 -1.6719 -1.4045  0.0589
 7939SOL     OW35275   0.692   3.745   1.714  0.0821 -0.1747 -0.2617
 7939SOL    HW135276   0.742   3.722   1.636 -1.4113  2.2166 -1.9187
 7939SOL    HW235277   0.677   3.660   1.756  0.2626  0.0636  0.2876
 7940SOL     OW35278   0.264   1.516  11.392 -0.6694  0.2301 -0.0547
 7940SOL    HW135279   0.301   1.430  11.372 -2.0341 -0.2167 -0.7074
 7940SOL    HW235280   0.280   1.563  11.310 -0.1687 -1.5645 -1.0042
 7941SOL     OW35281   2.437   4.276  15.829  0.6761 -0.4837 -0.1093
 7941SOL    HW135282   2.346   4.268  15.860 -0.2920  1.0933 -2.5891
 7941SOL    HW235283   2.481   4.300  15.911 -1.2641  0.8888  0.5525
 7942SOL     OW35284   1.555   1.132   0.771  0.5170  0.1175  0.1986
 7942SOL    HW135285   1.531   1.142   0.863  2.0230 -2.5136  0.9017
 7942SOL    HW235286   1.611   1.054   0.773  0.6284  0.2227  1.0321
 7943SOL     OW35287   0.027   4.710   5.351 -0.2562  0.9875 -0.5159
 7943SOL    HW135288   0.066   0.073   5.334  1.5459 -0.0779 -1.8183
 7943SOL    HW235289   4.662   4.721   5.314 -1.7803 -2.2873  2.1352
 7944SOL     OW35290   1.219   3.467  14.653  0.0322  0.1471 -0.3913
 7944SOL    HW135291   1.135   3.497  14.688 -1.2059 -1.5432 -1.9074
 7944SOL    HW235292   1.236   3.514  14.572  1.8427  0.5031  0.2029
 7945SOL     OW35293   1.198   0.471   5.187 -0.1140 -0.5798 -0.4029
 7945SOL    HW135294   1.169   0.532   5.254  1.2891  1.8324 -1.9787
 7945SOL    HW235295   1.145   0.517   5.121  0.6880  0.4432 -0.3340
 7946SOL     OW35296   3.263   1.582   4.132  0.0025  0.1848  0.0518
 7946SOL    HW135297   3.184   1.607   4.181  0.0145 -1.3905  0.8737
 7946SOL    HW235298   3.293   1.512   4.189  1.3782  0.3230 -0.5030
 7947SOL     OW35299   0.980   2.429   2.674 -0.2867  0.3657 -0.2401
 7947SOL    HW135300   1.075   2.441   2.673 -0.2284  0.0093  1.5282
 7947SOL    HW235301   0.966   2.335   2.688 -1.2782  0.3959 -0.9875
 7948SOL     OW35302   1.301   4.282   1.266 -0.9925  0.0883 -0.0747
 7948SOL    HW135303   1.376   4.225   1.249 -1.1812  0.1713 -1.1940
 7948SOL    HW235304   1.221   4.237   1.240 -0.9026  0.3472 -0.8185
 7949SOL     OW35305   0.009   3.471   3.731  0.0169 -0.3399  0.1404
 7949SOL    HW135306   0.092   3.468   3.778 -0.6628 -3.1580  1.1529
 7949SOL    HW235307   4.675   3.511   3.797 -3.4605  1.2393 -3.8226
 7950SOL     OW35308   0.124   4.685   2.821 -0.1782 -0.7986  0.5379
 7950SOL    HW135309   0.200   4.694   2.762 -0.7483 -2.2919 -0.4049
 7950SOL    HW235310   0.093   0.053   2.810 -0.8375 -0.9474  1.2239
 7951SOL     OW35311   0.274   4.353   4.158 -0.0233  0.5590  0.0062
 7951SOL    HW135312   0.251   4.420   4.222  0.6775  2.1517 -1.4299
 7951SOL    HW235313   0.193   4.315   4.123  0.1403  0.8281 -0.6640
 7952SOL     OW35314   0.390   0.797  10.988  0.3640 -0.3465 -0.2827
 7952SOL    HW135315   0.334   0.852  10.932 -0.4175 -0.9353 -0.0812
 7952SOL    HW235316   0.414   0.736  10.919  0.9394  1.1033 -1.3844
 7953SOL     OW35317   1.974   1.078   8.233  0.3809  0.5826  0.3151
 7953SOL    HW135318   1.883   1.108   8.239 -0.2565 -1.2126 -0.5027
 7953SOL    HW235319   1.960   1.002   8.288  0.3919 -2.0437 -3.2982
 7954SOL     OW35320   2.027   0.092   4.470 -0.0097  0.0333 -0.0101
 7954SOL    HW135321   2.084   0.018   4.447 -0.2280  0.2349 -1.2050
 7954SOL    HW235322   1.973   0.049   4.536  1.5969  1.7612  2.4256
 7955SOL     OW35323   0.237   2.499   2.468  0.2491 -0.4246 -0.0208
 7955SOL    HW135324   0.143   2.516   2.473  0.1842  0.0617 -2.8574
 7955SOL    HW235325   0.270   2.588   2.482 -3.9646  1.4135 -1.6324
 7956SOL     OW35326   2.917   4.342   7.822 -0.0248  0.4738 -0.3081
 7956SOL    HW135327   2.850   4.404   7.854 -0.9292  0.1599 -1.6094
 7956SOL    HW235328   2.950   4.386   7.744  0.1780  1.8848  0.5710
 7957SOL     OW35329   4.697   2.337   4.555  0.2121 -0.2867  0.1402
 7957SOL    HW135330   4.705   2.260   4.499  0.2852 -0.9557  1.0698
 7957SOL    HW235331   0.063   2.372   4.569 -0.9277  2.6607 -0.0363
 7958SOL     OW35332   2.412   2.979   3.936  0.1219  0.0718 -0.1618
 7958SOL    HW135333   2.414   2.932   3.853  0.4816  0.8397 -0.5812
 7958SOL    HW235334   2.319   3.000   3.931  0.0209 -0.4416 -0.5169
 7959SOL     OW35335   1.443   3.811  15.689  0.0671 -0.0963  0.1133
 7959SOL    HW135336   1.458   3.833  15.596  1.6000 -0.5178  0.2578
 7959SOL    HW235337   1.454   3.897  15.730  0.1170  1.6381 -3.4597
 7960SOL     OW35338   0.227   0.442  10.121  0.0376 -0.3093  0.5572
 7960SOL    HW135339   0.231   0.512  10.055 -2.3674 -0.2087  0.5310
 7960SOL    HW235340   0.311   0.451  10.166  0.2695  2.0642 -0.3144
 7961SOL     OW35341   0.545   2.610   3.085  0.6721 -0.4250  0.0331
 7961SOL    HW135342   0.544   2.663   3.164 -2.1189  0.0293 -0.3110
 7961SOL    HW235343   0.584   2.668   3.020  0.3237  0.8959  1.0236
 7962SOL     OW35344   2.054   4.598   5.732 -0.6829  0.1366 -0.0635
 7962SOL    HW135345   2.056   4.668   5.666  1.7029  0.4397  0.3468
 7962SOL    HW235346   2.137   4.556   5.713 -1.4844 -1.3197 -0.3667
 7963SOL     OW35347   0.735   3.796   6.433 -0.2884 -0.3125  0.0633
 7963SOL    HW135348   0.795   3.732   6.395 -0.1145  0.8210 -1.5304
 7963SOL    HW235349   0.677   3.814   6.359  0.8670 -1.5986 -1.1512
 7964SOL     OW35350   1.371   2.332   2.372 -0.1127  0.3811  0.5019
 7964SOL    HW135351   1.450   2.285   2.401 -0.8634 -0.5826  0.9809
 7964SOL    HW235352   1.323   2.263   2.326  1.1597 -0.5164  0.5133
 7965SOL     OW35353   2.577   4.461   4.233  0.3248  0.2951 -0.4257
 7965SOL    HW135354   2.506   4.511   4.273 -0.9488 -1.0939 -0.9689
 7965SOL    HW235355   2.641   4.532   4.235 -0.7943  1.2879  0.0711
 7966SOL     OW35356   3.879   0.982   5.031 -0.7184 -0.2601  0.3570
 7966SOL    HW135357   3.870   1.011   4.941  0.5852  0.4669  0.4668
 7966SOL    HW235358   3.872   0.886   5.027  2.3701 -0.5145  0.8598
 7967SOL     OW35359   2.957   4.507   0.475  0.8008  0.2845 -0.2127
 7967SOL    HW135360   2.888   4.570   0.495 -0.0052 -0.6993  0.1298
 7967SOL    HW235361   2.906   4.437   0.433  0.5089  0.7523 -0.6364
 7968SOL     OW35362   4.561   1.748   4.545  0.3445  0.1373 -0.1967
 7968SOL    HW135363   4.546   1.821   4.605 -1.0013 -1.6993  1.6895
 7968SOL    HW235364   4.471   1.717   4.533  1.6568 -2.1138 -4.4024
 7969SOL     OW35365   2.923   1.555  15.264 -0.1387  0.3221  0.1537
 7969SOL    HW135366   2.908   1.530  15.173 -1.3927 -0.4026  0.5628
 7969SOL    HW235367   2.959   1.476  15.303 -4.2510 -1.3525  0.6194
 7970SOL     OW35368   4.277   2.595   6.148  0.2864  0.2706 -0.1887
 7970SOL    HW135369   4.299   2.652   6.222  2.5858 -2.1624  0.9870
 7970SOL    HW235370   4.182   2.606   6.149  0.2163 -0.2845 -0.5159
 7971SOL     OW35371   0.230   1.721   5.467 -0.4856  0.3109  0.0722
 7971SOL    HW135372   0.290   1.659   5.424 -0.4720  0.4130 -0.0579
 7971SOL    HW235373   0.293   1.771   5.519  0.2945 -0.6707  0.0770
 7972SOL     OW35374   0.329   1.010   1.073  0.0727  0.1588  0.0527
 7972SOL    HW135375   0.387   0.938   1.052 -0.4956 -0.5869  1.0768
 7972SOL    HW235376   0.260   0.962   1.117 -0.5953 -0.3500 -1.5360
 7973SOL     OW35377   4.248   0.953  12.276  0.0855  0.5842  0.4782
 7973SOL    HW135378   4.251   0.867  12.234  0.5715  1.0626 -0.4723
 7973SOL    HW235379   4.279   1.013  12.208 -2.4250 -0.4194 -1.5462
 7974SOL     OW35380   0.684   4.467   5.809 -0.3244 -0.3105  0.3693
 7974SOL    HW135381   0.588   4.463   5.814 -0.2774 -1.4082  0.3899
 7974SOL    HW235382   0.700   4.560   5.826  1.6129 -0.8847  1.5839
 7975SOL     OW35383   4.294   1.510   3.921 -0.0252  0.0416 -0.3465
 7975SOL    HW135384   4.285   1.589   3.867  0.5580  0.6972  0.5109
 7975SOL    HW235385   4.347   1.453   3.866  1.7581  2.0608 -0.7330
 7976SOL     OW35386   4.505   0.676   4.931 -0.3394  0.3057 -0.0148
 7976SOL    HW135387   4.484   0.768   4.918  0.1557  0.7332  2.1854
 7976SOL    HW235388   4.573   0.688   4.997  0.8662  1.0975 -1.4090
 7977SOL     OW35389   0.892   4.397   7.999  0.3769 -0.2161  0.4191
 7977SOL    HW135390   0.869   4.368   7.910 -0.1699  0.4245  0.3481
 7977SOL    HW235391   0.859   4.331   8.061  1.0750 -0.6923  0.2795
 7978SOL     OW35392   3.831   4.061   1.058  1.0579  0.0840 -0.2052
 7978SOL    HW135393   3.915   4.092   1.025  0.0958  2.1011 -0.7084
 7978SOL    HW235394   3.823   4.102   1.144 -0.5518 -0.8684  0.1042
 7979SOL     OW35395   2.602   2.534   9.414  0.3714 -0.8121  0.6567
 7979SOL    HW135396   2.666   2.532   9.486 -0.6244  2.0363  1.6173
 7979SOL    HW235397   2.590   2.629   9.415 -0.1036 -0.8853  1.4686
 7980SOL     OW35398   1.919   1.379   1.786 -0.6363  0.1242 -0.2270
 7980SOL    HW135399   1.829   1.406   1.767 -1.2901 -2.1490 -0.3419
 7980SOL    HW235400   1.927   1.295   1.741 -0.4591  0.0506 -0.0566
 7981SOL     OW35401   2.171   2.565   2.636  0.7695  0.7009 -0.4944
 7981SOL    HW135402   2.132   2.580   2.722 -2.3424 -1.7665 -1.4396
 7981SOL    HW235403   2.093   2.563   2.580  1.3047 -1.1400 -1.1563
 7982SOL     OW35404   3.034   2.805   4.561  0.7796 -0.1324  0.2844
 7982SOL    HW135405   2.950   2.847   4.545  1.7264  1.2206 -1.1474
 7982SOL    HW235406   3.049   2.833   4.652 -0.9272 -1.7930  1.0628
 7983SOL     OW35407   4.658   3.882  11.182  0.1810 -0.2276 -0.0704
 7983SOL    HW135408   4.680   3.792  11.206  0.7311 -0.5472 -1.7834
 7983SOL    HW235409   4.716   3.931  11.240 -1.0619 -1.6837  2.3914
 7984SOL     OW35410   1.350   2.950   6.250 -0.1893 -0.0839  0.0782
 7984SOL    HW135411   1.304   2.944   6.166  0.6165 -1.8545 -0.2493
 7984SOL    HW235412   1.280   2.973   6.310  0.3646 -0.4461  0.8677
 7985SOL     OW35413   4.017   2.809  13.031  0.7901 -0.3746  0.2395
 7985SOL    HW135414   4.081   2.746  13.064 -0.2722 -1.0856  0.9596
 7985SOL    HW235415   3.945   2.760  12.992  1.7856 -0.1326 -1.8691
 7986SOL     OW35416   4.673   3.023   9.616 -0.2566  0.0944  0.7652
 7986SOL    HW135417   4.617   3.086   9.570  2.6574  0.8891 -1.7240
 7986SOL    HW235418   4.623   2.983   9.687  0.6281  1.1434  1.9908
 7987SOL     OW35419   1.544   1.517  11.296  0.1483  0.6763 -0.1045
 7987SOL    HW135420   1.493   1.486  11.221 -0.6636  0.7135  0.4287
 7987SOL    HW235421   1.579   1.436  11.334 -1.5518  1.4878  3.1582
 7988SOL     OW35422   3.526   0.510   4.313 -0.4105  0.2583 -0.8128
 7988SOL    HW135423   3.584   0.435   4.307 -0.7828 -0.0419 -0.6407
 7988SOL    HW235424   3.459   0.497   4.246 -0.0761 -0.0311 -1.0887
 7989SOL     OW35425   4.666   1.633   6.622 -0.4593  0.1117 -0.2474
 7989SOL    HW135426   4.583   1.616   6.667 -0.8048 -2.3835 -1.7674
 7989SOL    HW235427   4.708   1.690   6.685 -0.5319  1.1623 -1.1517
 7990SOL     OW35428   1.465   1.707  10.487 -0.9453  0.1966 -0.7940
 7990SOL    HW135429   1.404   1.780  10.481 -0.9221  0.2044 -0.9273
 7990SOL    HW235430   1.536   1.732  10.428  0.0448 -1.8381 -0.4834
 7991SOL     OW35431   2.756   2.885   8.935 -0.0161  0.0111 -0.4687
 7991SOL    HW135432   2.761   2.870   9.029  1.0210  0.8823 -0.3839
 7991SOL    HW235433   2.666   2.860   8.918 -0.3369  0.7980  0.0862
 7992SOL     OW35434   0.327   2.544  13.188 -0.0279  0.1083 -0.3687
 7992SOL    HW135435   0.326   2.467  13.245  0.7541  2.0217  2.2287
 7992SOL    HW235436   0.300   2.603  13.258 -0.2824 -0.0182 -0.3599
 7993SOL     OW35437   2.464   2.070  17.165 -0.2057  0.1099 -0.2590
 7993SOL    HW135438   2.479   2.153  17.120 -0.1673  0.1112 -0.2438
 7993SOL    HW235439   2.546   2.021  17.159 -0.5362 -0.0965 -3.1534
 7994SOL     OW35440   3.542   2.260   9.285  0.0146  0.1293 -0.0606
 7994SOL    HW135441   3.632   2.290   9.296 -0.2023  0.2449  1.3811
 7994SOL    HW235442   3.546   2.188   9.348  1.3994  0.0628 -0.2331
 7995SOL     OW35443   0.609   1.005   5.542 -0.2002 -0.0075  0.4219
 7995SOL    HW135444   0.635   1.097   5.554  0.3273 -0.5044  3.1802
 7995SOL    HW235445   0.637   0.986   5.453  3.3432 -1.2819  1.8040
 7996SOL     OW35446   0.839   3.065   6.822 -0.0484  0.3347  0.4162
 7996SOL    HW135447   0.792   3.147   6.807  0.1606  0.4790  0.5587
 7996SOL    HW235448   0.901   3.067   6.750  1.2034  0.4569  1.4925
 7997SOL     OW35449   1.686   1.965   1.570 -0.1705 -0.4134 -0.6000
 7997SOL    HW135450   1.744   2.032   1.607  0.0662 -0.3084 -1.1569
 7997SOL    HW235451   1.716   1.895   1.628 -1.9244 -0.2728  0.4722
 7998SOL     OW35452   4.642   1.870   6.831  0.1435  0.5359  0.3665
 7998SOL    HW135453   4.715   1.919   6.795  1.4769 -2.1446 -0.5888
 7998SOL    HW235454   4.609   1.925   6.902  1.1239  0.4209  0.9053
 7999SOL     OW35455   3.884   2.441   5.298 -0.2736  0.0756 -0.7308
 7999SOL    HW135456   3.802   2.487   5.312 -0.1400  0.2368 -0.4756
 7999SOL    HW235457   3.936   2.500   5.244 -0.0155  1.3429  0.9330
 8000SOL     OW35458   1.981   2.122  12.916 -0.2260  0.2038  0.4048
 8000SOL    HW135459   2.034   2.043  12.908 -2.7977 -1.5854  1.1947
 8000SOL    HW235460   2.055   2.179  12.938  0.1109 -0.1947  0.3012
 8001SOL     OW35461   4.541   4.127   6.475 -0.1250  0.0568 -0.1663
 8001SOL    HW135462   4.516   4.217   6.457  0.8567 -0.1805 -2.7816
 8001SOL    HW235463   4.485   4.088   6.407 -0.0195 -0.3725 -0.0103
 8002SOL     OW35464   2.731   1.918   0.987  0.6310  0.2150 -0.3912
 8002SOL    HW135465   2.746   1.950   1.076 -0.0165  3.5121 -1.4738
 8002SOL    HW235466   2.635   1.912   0.986  0.5688  0.5748  2.7644
 8003SOL     OW35467   1.243   2.495   6.246  0.1667 -0.1995 -0.2200
 8003SOL    HW135468   1.184   2.420   6.237 -0.8784  0.2860  2.5601
 8003SOL    HW235469   1.289   2.476   6.327 -1.3412  1.4804  1.0260
 8004SOL     OW35470   1.269   0.750  13.317 -0.1669 -0.4245  0.0663
 8004SOL    HW135471   1.219   0.786  13.390  1.8807 -1.4339  1.9567
 8004SOL    HW235472   1.356   0.740  13.356 -1.1299 -0.5336  2.1903
 8005SOL     OW35473   1.676   0.870   0.493  0.4220  0.3726 -0.5077
 8005SOL    HW135474   1.645   0.782   0.517 -0.7841  0.9873  0.1605
 8005SOL    HW235475   1.687   0.907   0.581  1.4474 -0.9994 -0.0471
 8006SOL     OW35476   1.324   2.391   7.693  0.0368 -0.1146  0.0873
 8006SOL    HW135477   1.253   2.329   7.707  1.4266 -1.3854  1.5265
 8006SOL    HW235478   1.387   2.352   7.754 -1.8980 -1.2848  1.3383
 8007SOL     OW35479   0.653   0.205   5.533 -0.1294  0.6755 -0.5779
 8007SOL    HW135480   0.690   0.292   5.516  1.3812 -0.3537 -2.5121
 8007SOL    HW235481   0.713   0.150   5.483  0.1855  1.4475 -1.0430
 8008SOL     OW35482   1.433   2.473   6.452 -0.1192  0.4198  0.4101
 8008SOL    HW135483   1.490   2.475   6.375  1.2809 -0.2843  1.4553
 8008SOL    HW235484   1.499   2.444   6.515  1.1217  1.2390 -0.5172
 8009SOL     OW35485   3.024   1.651   3.237  0.0999  0.2338 -0.1390
 8009SOL    HW135486   2.990   1.591   3.171  0.4165 -1.8460  1.6072
 8009SOL    HW235487   3.016   1.596   3.315  6.2178 -0.9271 -0.3480
 8010SOL     OW35488   3.165   4.388   6.337  0.0125  0.4277 -0.0578
 8010SOL    HW135489   3.222   4.445   6.388 -0.7613 -1.7656  3.2566
 8010SOL    HW235490   3.166   4.318   6.402  1.6993  0.4667 -0.0468
 8011SOL     OW35491   1.913   1.253  10.218 -0.1580  0.0110  0.1030
 8011SOL    HW135492   1.988   1.194  10.218 -0.2064 -0.0425 -2.9721
 8011SOL    HW235493   1.847   1.198  10.261 -0.1232 -0.4393 -0.4367
 8012SOL     OW35494   3.718   0.028   5.561  0.0887 -0.3671  0.2138
 8012SOL    HW135495   3.735   0.033   5.655  1.2521 -2.0647  0.0832
 8012SOL    HW235496   3.775   4.678   5.537 -0.4942 -0.4952 -0.7675
 8013SOL     OW35497   3.577   2.698   2.098 -0.0510 -0.7618 -0.8016
 8013SOL    HW135498   3.579   2.785   2.059 -0.2311  0.2107  1.3372
 8013SOL    HW235499   3.492   2.691   2.141  0.0594 -1.5369 -0.7096
 8014SOL     OW35500   0.066   0.623   1.564 -0.0072 -0.1610  0.2113
 8014SOL    HW135501   0.091   0.538   1.526 -1.9791 -0.8292  0.4288
 8014SOL    HW235502   0.140   0.680   1.540 -1.2056  1.1655 -0.2861
 8015SOL     OW35503   2.592   3.032   8.176 -0.3367 -0.5788  0.2001
 8015SOL    HW135504   2.540   2.955   8.152 -3.1330  0.6305  2.3615
 8015SOL    HW235505   2.632   3.053   8.092 -0.7127 -0.5538  0.0287
 8016SOL     OW35506   1.695   1.696   3.728  0.2901  0.1292 -0.1649
 8016SOL    HW135507   1.607   1.732   3.714 -0.4700 -2.4348 -1.9052
 8016SOL    HW235508   1.705   1.630   3.660  0.2874 -1.5951  1.5158
 8017SOL     OW35509   0.994   3.086   2.040  0.4825 -0.1619  0.1019
 8017SOL    HW135510   0.983   3.019   2.108  0.0658  0.7632  0.9481
 8017SOL    HW235511   0.923   3.148   2.053  0.1569 -1.0880  2.8986
 8018SOL     OW35512   0.120   3.976  11.343 -0.2355 -0.4847  0.0323
 8018SOL    HW135513   0.137   3.931  11.426 -2.0922 -1.6664 -0.2305
 8018SOL    HW235514   0.208   3.982  11.304  0.7719 -0.8390  2.2391
 8019SOL     OW35515   1.760   1.413   6.484 -0.8053  0.2854  0.1729
 8019SOL    HW135516   1.669   1.395   6.505 -1.0038  2.4887  1.1978
 8019SOL    HW235517   1.783   1.477   6.551  2.3586 -1.1740  0.4740
 8020SOL     OW35518   0.864   1.187   8.486 -0.1582 -0.1616  0.5046
 8020SOL    HW135519   0.868   1.096   8.456  1.0823  1.5131 -4.3933
 8020SOL    HW235520   0.905   1.183   8.572 -2.1553 -2.5358  1.3611
 8021SOL     OW35521   1.825   2.621   1.073 -1.0554 -0.5257 -0.3082
 8021SOL    HW135522   1.800   2.657   0.988 -1.1893 -2.1670 -0.9636
 8021SOL    HW235523   1.740   2.622   1.116 -1.1040  0.4961 -0.4409
 8022SOL     OW35524   1.519   2.138   6.019 -0.3168 -0.3728  0.5540
 8022SOL    HW135525   1.608   2.137   6.055  0.2770 -4.2577 -1.0104
 8022SOL    HW235526   1.478   2.120   6.104 -0.7195  2.0127  0.8792
 8023SOL     OW35527   1.377   3.152  14.318  0.4048 -0.2221  0.3563
 8023SOL    HW135528   1.455   3.192  14.357  0.3219  0.4112 -0.1283
 8023SOL    HW235529   1.312   3.163  14.387  1.6497  4.0624  0.8728
 8024SOL     OW35530   0.982   0.011   0.553 -0.1026 -0.0331  0.3204
 8024SOL    HW135531   0.959   0.098   0.585  0.7829  0.0170  0.8075
 8024SOL    HW235532   0.991   0.029   0.459 -1.6303  0.6388  0.3093
 8025SOL     OW35533   0.185   1.877   6.515  0.1784  0.0887  0.0826
 8025SOL    HW135534   0.095   1.847   6.521  0.0034  0.7103  0.5430
 8025SOL    HW235535   0.182   1.897   6.421 -1.3783  1.3915  0.4230
 8026SOL     OW35536   1.593   4.173   3.704  0.1311  0.0818 -0.2026
 8026SOL    HW135537   1.577   4.093   3.753  2.1334  0.9670  1.9213
 8026SOL    HW235538   1.509   4.192   3.661 -0.0525 -0.1945  0.0390
 8027SOL     OW35539   0.416   0.798   9.317 -0.4378  0.2149 -0.4328
 8027SOL    HW135540   0.398   0.887   9.284  0.8092  0.8575  0.6097
 8027SOL    HW235541   0.439   0.823   9.407  1.1019  1.0804 -1.0554
 8028SOL     OW35542   4.101   0.026   2.325  0.4510 -0.4575 -0.2727
 8028SOL    HW135543   4.078   4.662   2.359  0.8808  0.0376  1.2991
 8028SOL    HW235544   4.196   0.020   2.318  0.8904  3.3974  2.2004
 8029SOL     OW35545   3.961   0.965  10.051 -0.0042  0.0130  0.7544
 8029SOL    HW135546   3.921   1.038  10.098  1.2977  2.3186 -1.7649
 8029SOL    HW235547   3.884   0.916  10.022 -0.6585  0.5735  1.5449
 8030SOL     OW35548   2.139   2.250   3.785 -0.0310  0.4867 -0.3072
 8030SOL    HW135549   2.154   2.189   3.713 -1.0662 -0.5517  0.3710
 8030SOL    HW235550   2.135   2.192   3.861  1.2240  0.5557 -0.1814
 8031SOL     OW35551   1.435   2.333   3.079 -0.1503  0.9984  0.0334
 8031SOL    HW135552   1.352   2.293   3.054 -0.2463  1.2824 -0.1080
 8031SOL    HW235553   1.480   2.261   3.122  0.0964 -1.0757 -3.6865
 8032SOL     OW35554   0.924   0.796   5.546  0.1934 -0.1698 -0.5634
 8032SOL    HW135555   0.843   0.789   5.497 -0.2632  1.0317  0.0246
 8032SOL    HW235556   0.957   0.881   5.515 -3.5161  2.1425  1.8374
 8033SOL     OW35557   3.551   2.384  16.083  0.3183 -0.6614  0.4830
 8033SOL    HW135558   3.502   2.447  16.136  2.2021  0.8227  0.4695
 8033SOL    HW235559   3.557   2.423  15.996  0.9115  0.5986  1.0827
 8034SOL     OW35560   2.388   3.106   5.120 -0.1446  0.0604 -0.2888
 8034SOL    HW135561   2.434   3.066   5.194 -0.4819 -0.3676 -0.3088
 8034SOL    HW235562   2.374   3.198   5.141  2.8705  0.0214  1.7437
 8035SOL     OW35563   3.366   0.832   2.900 -0.2672  0.0478  0.1853
 8035SOL    HW135564   3.371   0.883   2.981  2.8220  1.6389 -0.9769
 8035SOL    HW235565   3.460   0.811   2.896 -0.6989 -2.3164  2.6699
 8036SOL     OW35566   3.646   4.314   2.761  0.7881  0.4340 -0.0776
 8036SOL    HW135567   3.561   4.328   2.718  1.1844  2.1038 -0.3040
 8036SOL    HW235568   3.620   4.259   2.835 -0.2316  1.2086  0.1410
 8037SOL     OW35569   1.373   3.001   3.491 -0.6840 -0.5975  0.1489
 8037SOL    HW135570   1.365   2.907   3.476 -2.3572 -0.1236 -1.8126
 8037SOL    HW235571   1.328   3.050   3.423 -1.2744 -1.0200  0.2398
 8038SOL     OW35572   1.661   1.156   5.342  0.1812  0.4548  0.5501
 8038SOL    HW135573   1.692   1.156   5.251 -0.4038  0.5312  0.3549
 8038SOL    HW235574   1.577   1.201   5.342 -1.0927 -1.9291  0.2404
 8039SOL     OW35575   3.041   3.796   8.042  0.5076  1.1055 -0.1715
 8039SOL    HW135576   2.956   3.768   8.076  1.2273 -0.8717  0.0263
 8039SOL    HW235577   3.047   3.874   8.096 -2.8408  0.6278  0.8915
 8040SOL     OW35578   1.967   3.656   6.561 -0.1562 -0.3215  0.2858
 8040SOL    HW135579   2.001   3.706   6.487 -1.4359 -2.5624 -1.8368
 8040SOL    HW235580   1.983   3.565   6.534 -0.0076  0.4382 -2.2177
 8041SOL     OW35581   1.941   1.124   1.659  0.9422 -0.8075 -0.0665
 8041SOL    HW135582   1.923   1.031   1.667  0.9075 -0.9900 -2.3732
 8041SOL    HW235583   2.035   1.135   1.675  0.8920  2.7107 -2.0791
 8042SOL     OW35584   3.173   0.093   3.829  0.3131 -0.2068 -0.1353
 8042SOL    HW135585   3.123   0.039   3.889 -0.5977  0.8803  0.0941
 8042SOL    HW235586   3.156   0.183   3.858 -0.2839 -0.9927  1.9217
 8043SOL     OW35587   0.019   4.635   3.540 -0.6020 -0.2714  0.5118
 8043SOL    HW135588   0.108   4.633   3.506 -0.2768  0.2021  1.3293
 8043SOL    HW235589   0.001   4.543   3.523  0.8283 -0.6130  0.8709
 8044SOL     OW35590   1.479   0.085   3.261  0.3847  0.3960  0.1616
 8044SOL    HW135591   1.497   0.168   3.217 -0.6077  0.0419 -0.9145
 8044SOL    HW235592   1.461   0.110   3.352 -0.4614  1.3228 -0.2580
 8045SOL     OW35593   1.682   2.977   1.560  0.0652  0.8542 -0.5681
 8045SOL    HW135594   1.588   2.991   1.572 -0.1366 -1.5670  0.6639
 8045SOL    HW235595   1.702   3.048   1.499  1.9648 -1.0531 -2.1266
 8046SOL     OW35596   1.211   2.454  11.075  0.5472 -0.1492  0.2985
 8046SOL    HW135597   1.196   2.375  11.024  2.0035  0.4476 -1.0585
 8046SOL    HW235598   1.241   2.518  11.011 -1.6117 -0.7480 -1.3069
 8047SOL     OW35599   0.930   3.258   6.490 -0.3173  0.4545  0.5949
 8047SOL    HW135600   0.913   3.320   6.561 -0.2201  1.0383  0.1070
 8047SOL    HW235601   0.843   3.224   6.468  0.3421 -0.3534 -0.7896
 8048SOL     OW35602   3.112   0.259  10.078  0.0319  0.0824 -0.1699
 8048SOL    HW135603   3.197   0.295  10.104 -0.3257  0.6291  0.2458
 8048SOL    HW235604   3.092   0.308   9.997 -1.3622 -0.5374 -0.2039
 8049SOL     OW35605   2.245   0.793   0.540 -0.7526  0.1865 -0.6286
 8049SOL    HW135606   2.164   0.751   0.511 -1.5277  0.3074  1.3930
 8049SOL    HW235607   2.295   0.799   0.458  1.6902 -0.1874  0.8261
 8050SOL     OW35608   3.153   1.770   3.567  0.0859  0.4870  0.0011
 8050SOL    HW135609   3.218   1.759   3.636 -0.5098  2.9123  0.9322
 8050SOL    HW235610   3.199   1.824   3.503 -1.2070  1.7252  0.1091
 8051SOL     OW35611   2.273   3.582  15.495  0.7002  0.3680  0.4557
 8051SOL    HW135612   2.300   3.569  15.404 -1.9633  2.3744 -0.6252
 8051SOL    HW235613   2.229   3.498  15.505  2.1162 -0.2252  1.7664
 8052SOL     OW35614   1.248   0.729   8.848  0.4381 -0.1335  0.0730
 8052SOL    HW135615   1.174   0.771   8.803  0.0109 -1.2179 -0.2283
 8052SOL    HW235616   1.254   0.772   8.934  0.8412  1.4922 -0.7655
 8053SOL     OW35617   4.327   0.890   5.584 -0.1378 -0.5846 -0.3286
 8053SOL    HW135618   4.348   0.942   5.505 -1.3722 -1.3376 -1.1396
 8053SOL    HW235619   4.282   0.953   5.639 -0.3744  0.1953 -1.4106
 8054SOL     OW35620   2.118   2.525   5.904 -0.2947 -0.0052 -0.2665
 8054SOL    HW135621   2.039   2.495   5.949  1.3415 -1.5781  1.5242
 8054SOL    HW235622   2.108   2.456   5.839 -2.7488 -0.0470  0.1419
 8055SOL     OW35623   2.447   1.888   1.582 -0.2974  0.3860 -0.0582
 8055SOL    HW135624   2.522   1.829   1.573  0.3054  0.4425  4.4643
 8055SOL    HW235625   2.481   1.958   1.638 -2.3384  0.2064  1.3843
 8056SOL     OW35626   3.581   0.323   4.632  0.0370  0.3658  0.8270
 8056SOL    HW135627   3.626   0.376   4.567 -0.1187 -1.2988 -0.6442
 8056SOL    HW235628   3.520   0.285   4.570  1.0923 -1.3037  0.7921
 8057SOL     OW35629   4.512   3.920   8.072 -0.0685  0.2244 -0.2362
 8057SOL    HW135630   4.527   3.956   8.159 -0.5928 -2.6705  1.0345
 8057SOL    HW235631   4.520   4.000   8.019 -0.7998 -0.7453 -1.8334
 8058SOL     OW35632   0.332   2.276   5.426 -0.1664  0.1379 -0.6925
 8058SOL    HW135633   0.412   2.223   5.420  0.5275  0.9807  1.1825
 8058SOL    HW235634   0.319   2.303   5.335 -4.1300 -0.2691 -0.2610
 8059SOL     OW35635   2.275   0.431   9.530  0.0621  0.3991 -0.6274
 8059SOL    HW135636   2.311   0.365   9.590  0.2269  1.2643  0.2350
 8059SOL    HW235637   2.280   0.507   9.588 -2.2514  0.6072 -0.6852
 8060SOL     OW35638   3.350   4.599   1.095  0.0636  0.2144 -0.1715
 8060SOL    HW135639   3.429   4.561   1.057 -1.1078 -3.4424  1.0177
 8060SOL    HW235640   3.279   4.558   1.045  0.0273  0.5517 -0.3941
 8061SOL     OW35641   1.568   0.203   2.895 -0.1198 -0.5284 -0.2868
 8061SOL    HW135642   1.560   0.296   2.913 -2.7605 -0.6538 -0.7612
 8061SOL    HW235643   1.623   0.170   2.967  0.4613 -1.1337 -1.0043
 8062SOL     OW35644   0.142   2.159   5.599  0.2892 -0.3846 -0.0856
 8062SOL    HW135645   0.217   2.207   5.564 -0.0673 -0.2069 -0.6140
 8062SOL    HW235646   0.081   2.230   5.579  0.1374 -0.2387  0.9081
 8063SOL     OW35647   3.359   2.110  14.316  0.3980  0.3331 -0.4800
 8063SOL    HW135648   3.434   2.135  14.262  0.0183  2.2338 -0.1406
 8063SOL    HW235649   3.381   2.152  14.399 -0.3163  1.9397 -1.1016
 8064SOL     OW35650   2.054   4.094   7.303  0.4736 -0.2162  0.1809
 8064SOL    HW135651   2.118   4.049   7.358 -0.1808 -1.5883 -0.1792
 8064SOL    HW235652   2.091   4.082   7.215 -1.9861  0.6900 -0.9688
 8065SOL     OW35653   0.586   0.694   8.854  0.0907 -0.6162  0.0524
 8065SOL    HW135654   0.495   0.685   8.826  0.7126  0.6521 -2.3078
 8065SOL    HW235655   0.589   0.639   8.932 -2.6043 -2.0242 -0.8204
 8066SOL     OW35656   1.405   2.752   8.206  0.5304 -0.3430 -0.0224
 8066SOL    HW135657   1.466   2.680   8.191  0.7684 -0.1359 -0.0543
 8066SOL    HW235658   1.336   2.718   8.263  0.5659 -0.0594  0.1900
 8067SOL     OW35659   1.263   0.493   5.522  0.0768  0.0991 -0.2346
 8067SOL    HW135660   1.222   0.562   5.470 -0.4275 -0.1529 -0.1644
 8067SOL    HW235661   1.224   0.420   5.474 -1.7887  0.1838  1.1628
 8068SOL     OW35662   3.392   3.288  11.625  0.4751  1.1178  0.4682
 8068SOL    HW135663   3.395   3.273  11.530 -2.0129  1.3309  0.3481
 8068SOL    HW235664   3.373   3.203  11.663 -0.7313  1.2641  0.1930
 8069SOL     OW35665   3.694   4.700   6.146 -0.5060 -0.0905  0.0842
 8069SOL    HW135666   3.642   0.055   6.122 -0.2922 -0.5495 -1.8217
 8069SOL    HW235667   3.762   0.017   6.200  1.0752 -1.2557 -1.0820
 8070SOL     OW35668   2.958   4.091   7.466  0.1458 -0.1133  0.0635
 8070SOL    HW135669   3.047   4.121   7.487 -1.5916  2.7166  3.2912
 8070SOL    HW235670   2.946   4.124   7.377  1.0335 -1.2349 -0.4859
 8071SOL     OW35671   0.525   3.941   8.051  0.5719  0.7371  0.0871
 8071SOL    HW135672   0.539   4.018   8.106 -0.9337  0.9998  0.0904
 8071SOL    HW235673   0.605   3.938   7.998 -0.3128 -1.2513 -1.1063
 8072SOL     OW35674   0.863   2.721  14.504 -0.4818 -0.0777  0.2712
 8072SOL    HW135675   0.841   2.707  14.597 -2.6451 -1.4009 -0.4328
 8072SOL    HW235676   0.957   2.706  14.504 -0.3211  0.9341 -0.1422
 8073SOL     OW35677   3.355   0.138   7.826 -0.1806  0.1307  0.2914
 8073SOL    HW135678   3.390   0.163   7.911  1.5423 -0.2551 -0.2879
 8073SOL    HW235679   3.284   0.201   7.840 -0.9490 -0.7578  0.3925
 8074SOL     OW35680   3.799   2.033  17.161  0.2472 -0.0093  0.0191
 8074SOL    HW135681   3.880   2.000  17.120 -0.0291 -0.0431 -0.4956
 8074SOL    HW235682   3.840   2.078  17.234  2.1817 -1.8690  0.0948
 8075SOL     OW35683   2.543   2.692   8.589 -0.1165 -0.6691 -0.5823
 8075SOL    HW135684   2.469   2.666   8.534 -1.0766 -0.4530  0.6075
 8075SOL    HW235685   2.530   2.647   8.672 -0.8264  0.9094  0.1674
 8076SOL     OW35686   1.449   1.567   3.280 -0.1888 -0.5155  0.4452
 8076SOL    HW135687   1.496   1.627   3.221 -0.5193  1.1624  1.8856
 8076SOL    HW235688   1.414   1.503   3.218 -0.1661  0.4328 -0.5370
 8077SOL     OW35689   0.988   4.219  14.112 -0.2523  0.6034  0.5867
 8077SOL    HW135690   0.965   4.155  14.045  3.0308 -1.2990  1.2398
 8077SOL    HW235691   0.898   4.244  14.135 -0.7457  0.4385 -1.2283
 8078SOL     OW35692   1.446   0.364   7.075 -0.1066 -0.0633  0.2283
 8078SOL    HW135693   1.386   0.319   7.015 -0.2237  1.6025 -0.9037
 8078SOL    HW235694   1.496   0.409   7.007  1.1700  1.3065  2.0769
 8079SOL     OW35695   4.566   1.086   8.027 -0.4265  0.4825 -0.1619
 8079SOL    HW135696   4.567   1.119   8.116  0.9218 -1.1061  0.4133
 8079SOL    HW235697   4.478   1.047   8.026 -0.5751  0.8380 -1.6905
 8080SOL     OW35698   4.429   0.859   3.901 -0.5919  0.3259 -0.4048
 8080SOL    HW135699   4.360   0.832   3.840 -0.5591 -0.0714 -0.2668
 8080SOL    HW235700   4.465   0.937   3.858  1.3244 -1.9340 -2.8995
 8081SOL     OW35701   3.836   3.367   5.920  0.2298 -0.1136  0.4104
 8081SOL    HW135702   3.846   3.459   5.898 -0.7645 -0.3324 -0.9589
 8081SOL    HW235703   3.760   3.374   5.978 -1.5605  0.8137 -2.0095
 8082SOL     OW35704   1.542   3.293  15.356 -0.3433 -0.1818 -0.4570
 8082SOL    HW135705   1.497   3.334  15.282  0.0757 -0.9398 -1.1348
 8082SOL    HW235706   1.524   3.199  15.346 -0.0863 -0.4156  1.2815
 8083SOL     OW35707   1.814   1.358  13.141  0.0011 -0.0738  0.2106
 8083SOL    HW135708   1.788   1.289  13.202 -0.7810 -0.1319 -0.1903
 8083SOL    HW235709   1.732   1.379  13.095 -0.4830  1.0104  1.5712
 8084SOL     OW35710   2.526   3.926   5.874 -0.1596 -0.1007 -0.2623
 8084SOL    HW135711   2.546   3.979   5.951  0.5748  0.7343 -1.0230
 8084SOL    HW235712   2.586   3.965   5.810 -0.0161  0.6082  0.3090
 8085SOL     OW35713   1.948   2.001   4.322 -0.6520  0.0104 -0.0905
 8085SOL    HW135714   1.897   2.017   4.401  0.2232 -1.6739  0.8031
 8085SOL    HW235715   2.031   2.044   4.342  0.2646 -0.8061 -2.2404
 8086SOL     OW35716   0.618   0.399   7.213  0.0013  0.0854  0.2105
 8086SOL    HW135717   0.568   0.318   7.226  2.2025 -1.2794  0.2626
 8086SOL    HW235718   0.704   0.359   7.230  0.2437  0.7329  0.5038
 8087SOL     OW35719   0.407   0.537   2.215 -0.4868 -0.2301 -0.2928
 8087SOL    HW135720   0.495   0.530   2.177 -0.3371  0.3216 -0.0405
 8087SOL    HW235721   0.355   0.498   2.144  0.5440 -2.4523  0.1653
 8088SOL     OW35722   1.978   1.832  10.482 -0.0215  0.2041  0.0814
 8088SOL    HW135723   2.001   1.919  10.450  0.6528  0.1315  0.3708
 8088SOL    HW235724   2.061   1.802  10.518 -0.1975 -0.8462 -0.3815
 8089SOL     OW35725   2.919   3.217   2.514 -0.4487  0.5960 -0.1877
 8089SOL    HW135726   2.859   3.291   2.524 -0.9313 -0.0198  1.5578
 8089SOL    HW235727   2.889   3.191   2.427 -0.7460 -1.6163  0.5700
 8090SOL     OW35728   0.058   1.536   5.324  0.1025  0.1685  0.4194
 8090SOL    HW135729   0.026   1.484   5.397  1.3490  0.4352  1.1634
 8090SOL    HW235730   0.136   1.575   5.364 -1.4231  3.5628  0.0842
 8091SOL     OW35731   3.979   2.350   6.142  0.2241 -0.1241  0.0324
 8091SOL    HW135732   4.003   2.381   6.229 -0.1867  1.6957 -0.4964
 8091SOL    HW235733   3.900   2.306   6.175 -0.1271  0.9764  0.6463
 8092SOL     OW35734   0.636   2.843   7.556  0.6431 -0.0974  0.2487
 8092SOL    HW135735   0.619   2.885   7.640 -0.7516  2.0724 -1.1420
 8092SOL    HW235736   0.573   2.891   7.503  0.8625 -1.9519 -1.7111
 8093SOL     OW35737   1.121   3.391   5.418 -0.1021 -0.5459 -0.2656
 8093SOL    HW135738   1.097   3.299   5.418 -0.6882 -0.3915  1.1349
 8093SOL    HW235739   1.181   3.401   5.344  1.4689 -1.2214  0.9196
 8094SOL     OW35740   4.047   1.212   5.108 -0.3176  0.0939 -0.0395
 8094SOL    HW135741   4.009   1.141   5.057 -4.2515  2.1815  0.0178
 8094SOL    HW235742   4.098   1.249   5.036  1.5317 -0.4974  0.9722
 8095SOL     OW35743   3.377   3.804   5.756 -0.1905 -0.4660 -0.0361
 8095SOL    HW135744   3.287   3.834   5.745  0.2248  1.1520  0.9819
 8095SOL    HW235745   3.431   3.877   5.784 -0.5288 -1.0242  2.0788
 8096SOL     OW35746   0.511   3.867  12.523  0.6478  0.4087 -0.2737
 8096SOL    HW135747   0.586   3.908  12.567  0.7496  0.0979 -0.1592
 8096SOL    HW235748   0.535   3.883  12.432  1.5105  2.0386  0.2346
 8097SOL     OW35749   0.895   4.077  10.008  0.9295 -0.8418  0.2136
 8097SOL    HW135750   0.940   4.111  10.085 -0.7747 -0.7755  1.1809
 8097SOL    HW235751   0.912   4.150   9.949 -0.5504 -0.8919 -0.2856
 8098SOL     OW35752   2.098   4.579   3.088  0.4888  0.1024  0.3965
 8098SOL    HW135753   2.112   4.515   3.158 -0.9122  0.1678  0.7274
 8098SOL    HW235754   2.144   4.658   3.115  1.7100  0.0545 -1.5570
 8099SOL     OW35755   1.843   4.093   4.571  0.6522 -0.2354 -0.1090
 8099SOL    HW135756   1.790   4.159   4.617  0.0599  0.6674 -2.0624
 8099SOL    HW235757   1.880   4.057   4.651  2.0434 -0.1212 -0.7091
 8100SOL     OW35758   2.485   0.438  12.741  0.7306 -0.1177  0.8130
 8100SOL    HW135759   2.407   0.391  12.711  0.8135  0.3912 -0.2111
 8100SOL    HW235760   2.459   0.528  12.719  1.3015 -0.3166 -0.6494
 8101SOL     OW35761   4.127   4.240  16.525 -0.3135 -0.0046  0.1634
 8101SOL    HW135762   4.108   4.146  16.526  0.5516 -0.1616  1.3479
 8101SOL    HW235763   4.138   4.259  16.618 -1.0294  1.7596 -0.1006
 8102SOL     OW35764   2.146   0.097   3.649  0.2563 -0.3191 -0.1242
 8102SOL    HW135765   2.178   0.113   3.560 -0.4333 -0.1604 -0.3400
 8102SOL    HW235766   2.053   0.120   3.648  0.5676  1.0414  0.8048
 8103SOL     OW35767   0.873   3.372   5.204  0.6365  0.7779 -0.1925
 8103SOL    HW135768   0.829   3.452   5.233  1.7611  0.8276  1.4128
 8103SOL    HW235769   0.936   3.416   5.147 -0.2408  0.3670 -1.4641
 8104SOL     OW35770   0.516   2.455   3.349 -0.9891  0.1669 -0.3811
 8104SOL    HW135771   0.570   2.531   3.371  0.0206 -1.0903  1.4806
 8104SOL    HW235772   0.541   2.399   3.423  0.2686 -0.8178 -1.5502
 8105SOL     OW35773   3.057   1.499   1.739  0.4118 -0.4612  0.1082
 8105SOL    HW135774   3.098   1.527   1.657  1.4813 -2.4899 -0.0500
 8105SOL    HW235775   3.107   1.556   1.798 -1.1045  0.2589  0.7032
 8106SOL     OW35776   0.213   3.064   1.905 -0.0339 -0.3022  0.5206
 8106SOL    HW135777   0.131   3.109   1.927  1.2443  1.6991  1.1762
 8106SOL    HW235778   0.259   3.095   1.983  0.7384  1.5407 -0.6736
 8107SOL     OW35779   2.656   1.954   9.338 -0.2554  0.0924  0.1290
 8107SOL    HW135780   2.604   1.913   9.269 -1.4831  1.1067  0.4537
 8107SOL    HW235781   2.729   1.999   9.293  0.6951 -0.1557  1.4295
 8108SOL     OW35782   3.591   3.781  15.848  0.5253 -0.8932  0.0201
 8108SOL    HW135783   3.530   3.846  15.812 -0.2322  0.9998  4.6518
 8108SOL    HW235784   3.540   3.742  15.919 -0.1299 -1.6261 -0.8623
 8109SOL     OW35785   2.883   0.608   8.833  0.5560  0.5324  0.3036
 8109SOL    HW135786   2.884   0.591   8.738 -0.8424 -0.0452  0.3937
 8109SOL    HW235787   2.967   0.653   8.841 -1.0942  3.3731  1.6734
 8110SOL     OW35788   2.497   2.826   8.890  0.6345  0.3675  0.3643
 8110SOL    HW135789   2.415   2.780   8.907  0.4770  0.5885  0.2051
 8110SOL    HW235790   2.476   2.915   8.919  0.1802  1.2434 -2.6060
 8111SOL     OW35791   4.157   2.400   2.134  0.1573 -0.4198  0.1335
 8111SOL    HW135792   4.228   2.463   2.144  1.3948 -1.6034 -1.1714
 8111SOL    HW235793   4.199   2.318   2.105 -0.5451 -1.5904  2.4253
 8112SOL     OW35794   1.817   2.253   6.460  0.3714  0.1259 -0.2967
 8112SOL    HW135795   1.722   2.240   6.465  0.4432 -0.2223  0.1196
 8112SOL    HW235796   1.848   2.245   6.550  0.2858 -2.6175 -0.5128
 8113SOL     OW35797   0.956   4.372   5.455 -0.3036 -0.0909  0.1370
 8113SOL    HW135798   0.869   4.393   5.490 -0.1827 -2.3996  1.8390
 8113SOL    HW235799   0.947   4.376   5.360 -1.3539  1.4033  0.2882
 8114SOL     OW35800   0.335   4.207  13.716  0.2394  0.3874  0.1921
 8114SOL    HW135801   0.247   4.171  13.724  0.0326  0.1887 -2.9910
 8114SOL    HW235802   0.368   4.136  13.661  0.1595  2.0527 -2.0183
 8115SOL     OW35803   1.915   0.119   6.319 -0.0985 -0.0903  0.5638
 8115SOL    HW135804   1.845   0.160   6.268  1.4801  1.6248 -0.2308
 8115SOL    HW235805   1.884   0.135   6.408 -0.8590  0.1742  0.2490
 8116SOL     OW35806   4.645   3.041   6.102  0.3646 -0.1255 -0.3155
 8116SOL    HW135807   4.578   3.007   6.043  0.4663  0.7215 -0.9125
 8116SOL    HW235808   4.693   2.959   6.114  1.4694  0.5685 -0.0252
 8117SOL     OW35809   3.050   0.298  13.058  0.0716 -0.0048 -0.3044
 8117SOL    HW135810   3.137   0.338  13.063 -0.7889  1.7057  0.6268
 8117SOL    HW235811   3.033   0.281  12.965  1.1689  0.6999 -0.6367
 8118SOL     OW35812   1.700   1.797  10.348 -0.3835  0.2856  0.3085
 8118SOL    HW135813   1.766   1.775  10.414 -0.5088 -0.7307  0.0919
 8118SOL    HW235814   1.746   1.868  10.302  1.3405 -1.1834 -0.2310
 8119SOL     OW35815   3.537   2.794   2.395  0.1070 -0.1326 -0.5685
 8119SOL    HW135816   3.480   2.867   2.371 -0.3626  0.1963  1.5085
 8119SOL    HW235817   3.621   2.839   2.391  0.4768 -0.6281  1.6281
 8120SOL     OW35818   3.797   0.548  12.288  0.0546 -0.7135 -0.0346
 8120SOL    HW135819   3.856   0.616  12.321  0.6792 -0.6517 -1.2820
 8120SOL    HW235820   3.856   0.504  12.227  1.4966  0.4139  0.5395
 8121SOL     OW35821   3.543   3.154   5.380  0.5044 -0.4626 -0.2689
 8121SOL    HW135822   3.484   3.078   5.380 -0.8977  0.6515 -1.1149
 8121SOL    HW235823   3.527   3.179   5.471  0.4787 -0.0370 -0.3945
 8122SOL     OW35824   1.877   0.251   9.253  0.0382 -0.1362  0.4468
 8122SOL    HW135825   1.868   0.325   9.192  0.6811 -0.3169  0.1309
 8122SOL    HW235826   1.948   0.287   9.306  1.3916 -1.6581 -0.3234
 8123SOL     OW35827   2.911   4.264   0.023  0.6378  0.5798  0.4823
 8123SOL    HW135828   2.943   4.321  17.645 -1.2258  1.8105  0.6289
 8123SOL    HW235829   2.837   4.310   0.063  2.9312  1.5131  3.5694
 8124SOL     OW35830   3.144   4.478   0.231 -0.7096  0.1319 -0.2904
 8124SOL    HW135831   3.095   4.456   0.310  0.0574 -0.0520  0.1323
 8124SOL    HW235832   3.223   4.525   0.258 -0.3866 -0.0481 -0.9177
 8125SOL     OW35833   2.788   1.788   3.344 -0.1933 -0.2338 -0.3345
 8125SOL    HW135834   2.863   1.738   3.313 -1.8391 -1.9006 -1.5658
 8125SOL    HW235835   2.792   1.858   3.279 -0.0008  0.7539  0.7406
 8126SOL     OW35836   0.402   2.174  11.000  0.0394  0.5341  0.4665
 8126SOL    HW135837   0.404   2.087  10.960 -2.7789 -0.0954  1.6986
 8126SOL    HW235838   0.376   2.229  10.926 -1.2044 -1.6894 -0.7438
 8127SOL     OW35839   2.104   0.108  11.172 -0.0927 -0.8921 -0.3008
 8127SOL    HW135840   2.043   0.088  11.101  1.0706  0.7260 -1.7611
 8127SOL    HW235841   2.059   0.180  11.218  0.9083 -0.0952 -0.5813
 8128SOL     OW35842   4.292   3.381   8.308  0.4879  0.0746 -0.1006
 8128SOL    HW135843   4.262   3.341   8.390  2.6133 -1.3477 -0.0104
 8128SOL    HW235844   4.242   3.330   8.245 -1.1277  2.4578 -0.7457
 8129SOL     OW35845   4.688   3.217   5.485 -0.1945  0.0474 -0.6004
 8129SOL    HW135846   4.648   3.301   5.463 -0.1952  0.2525  0.1627
 8129SOL    HW235847   4.641   3.162   5.422  1.8473 -2.8250  0.3364
 8130SOL     OW35848   0.478   2.617   2.649 -0.5731  0.2068 -0.6645
 8130SOL    HW135849   0.560   2.665   2.649  1.0130 -2.4852 -0.8716
 8130SOL    HW235850   0.425   2.677   2.596  0.0573  1.0998 -0.2830
 8131SOL     OW35851   0.234   1.179   8.852  0.3433  0.2788  0.7101
 8131SOL    HW135852   0.270   1.100   8.813 -2.7165 -0.2014 -1.1414
 8131SOL    HW235853   0.274   1.235   8.786 -0.1801 -0.4088 -0.1791
 8132SOL     OW35854   4.500   3.413  14.725 -0.3031 -0.1367  0.0468
 8132SOL    HW135855   4.500   3.397  14.819  0.2553  0.3522  0.1270
 8132SOL    HW235856   4.571   3.352  14.703  0.5020  0.0451  2.1384
 8133SOL     OW35857   4.022   4.218   8.622  0.3163  0.3022 -0.1830
 8133SOL    HW135858   3.979   4.160   8.559 -1.9227 -1.6861  3.1667
 8133SOL    HW235859   3.997   4.306   8.595 -0.0844 -0.0291 -0.8778
 8134SOL     OW35860   0.705   0.566   4.923 -0.4077 -0.5228 -0.1708
 8134SOL    HW135861   0.715   0.472   4.939  1.9525 -0.2234 -0.0080
 8134SOL    HW235862   0.680   0.578   4.831  0.7927 -3.1150 -0.8359
 8135SOL     OW35863   1.299   1.007  12.731 -0.1024 -0.2908  0.5159
 8135SOL    HW135864   1.386   1.042  12.749 -0.0066 -2.3856  4.2452
 8135SOL    HW235865   1.283   1.039  12.643  0.9790 -1.8919 -0.2562
 8136SOL     OW35866   0.138   2.565  13.730  0.6607  0.1519  0.1847
 8136SOL    HW135867   0.141   2.617  13.810 -0.7260  2.6108 -1.3528
 8136SOL    HW235868   0.042   2.562  13.720  0.8430 -2.9081 -0.4856
 8137SOL     OW35869   3.675   4.549  14.385  0.7527 -0.5086  0.1899
 8137SOL    HW135870   3.608   4.524  14.450  0.6483  1.3137  0.7845
 8137SOL    HW235871   3.722   4.466  14.382  0.3326 -0.6542 -1.9529
 8138SOL     OW35872   0.246   2.541   4.928  0.0194  0.1722  0.2775
 8138SOL    HW135873   0.243   2.504   4.840  0.4284 -1.9522  1.1753
 8138SOL    HW235874   0.253   2.635   4.908  1.1411  0.2081  0.8601
 8139SOL     OW35875   2.588   2.119   3.918  0.7020  0.2651 -0.1327
 8139SOL    HW135876   2.669   2.164   3.940  1.6250 -0.1646 -2.7409
 8139SOL    HW235877   2.538   2.186   3.871 -0.2012 -0.0274  0.4091
 8140SOL     OW35878   4.004   0.178  17.520 -0.4056 -0.7338  0.2793
 8140SOL    HW135879   3.930   0.150  17.466  0.4734 -0.5998 -0.9924
 8140SOL    HW235880   4.069   0.114  17.491 -1.3570 -1.8189  0.5519
 8141SOL     OW35881   1.885   1.261   4.883 -0.0363 -0.0721  0.2167
 8141SOL    HW135882   1.932   1.192   4.931  0.3196 -0.8772 -1.3031
 8141SOL    HW235883   1.949   1.329   4.864 -2.5668  2.4670  0.8064
 8142SOL     OW35884   1.397   3.440   2.446 -0.1948  0.6467  0.0343
 8142SOL    HW135885   1.457   3.495   2.497 -0.7017  0.8188  0.4546
 8142SOL    HW235886   1.425   3.353   2.474  0.7263  0.6194 -1.0008
 8143SOL     OW35887   1.884   0.265  15.247 -0.4080  0.2171 -0.4106
 8143SOL    HW135888   1.956   0.214  15.209  1.3902  2.1056  0.4537
 8143SOL    HW235889   1.814   0.228  15.193 -1.0554 -0.5960  1.0130
 8144SOL     OW35890   0.124   3.290  11.071 -0.1199  0.0721 -0.0292
 8144SOL    HW135891   0.125   3.385  11.072  3.3202  0.0454 -0.8864
 8144SOL    HW235892   0.102   3.273  11.162  1.8872 -1.1970  0.2307
 8145SOL     OW35893   1.618   1.752   1.891 -0.0536  0.1614 -0.6675
 8145SOL    HW135894   1.689   1.724   1.833  1.2464  0.6789  0.6454
 8145SOL    HW235895   1.539   1.726   1.845  0.7607 -0.2340 -1.8501
 8146SOL     OW35896   1.715   2.252   6.180  0.0904  0.9198  0.0069
 8146SOL    HW135897   1.669   2.330   6.209  0.3897 -0.2200  3.4887
 8146SOL    HW235898   1.743   2.204   6.257  2.5871  1.3728 -0.6315
 8147SOL     OW35899   0.777   0.301   5.002 -0.3598 -0.6094  0.0153
 8147SOL    HW135900   0.861   0.255   5.009  0.0687  0.3974  1.5700
 8147SOL    HW235901   0.727   0.240   5.056 -0.7242 -0.5502 -0.2591
 8148SOL     OW35902   4.117   0.069   6.639 -0.3229 -0.1858 -0.7156
 8148SOL    HW135903   4.186   0.023   6.686  1.8731  1.9728 -1.7997
 8148SOL    HW235904   4.097   0.141   6.699  2.5885  1.0983 -1.2688
 8149SOL     OW35905   0.329   4.470   3.875 -0.2250  0.6463  0.1547
 8149SOL    HW135906   0.368   4.457   3.962 -0.9367  2.0819  0.6801
 8149SOL    HW235907   0.236   4.484   3.896  0.2040  0.3245  2.2650
 8150SOL     OW35908   0.220   0.648   9.200 -0.2209 -0.1074 -0.1826
 8150SOL    HW135909   0.237   0.667   9.108  0.2556 -0.5477 -0.1818
 8150SOL    HW235910   0.291   0.697   9.241 -0.0114 -0.1261 -0.5254
 8151SOL     OW35911   4.540   4.196   8.004 -0.9433 -0.2044 -0.2780
 8151SOL    HW135912   4.494   4.271   8.042  1.9650  1.6090 -0.3475
 8151SOL    HW235913   4.554   4.220   7.912  2.4915  0.5476  0.4409
 8152SOL     OW35914   1.938   0.124  13.981  0.2894  0.2223  0.3196
 8152SOL    HW135915   1.984   0.192  14.031  1.4694  0.6321 -1.3290
 8152SOL    HW235916   1.879   0.182  13.932  2.8166 -0.1006 -3.0257
 8153SOL     OW35917   2.918   3.680  16.865  0.8084 -0.0608 -0.0002
 8153SOL    HW135918   2.977   3.607  16.851  1.9549  1.1170 -1.4163
 8153SOL    HW235919   2.832   3.648  16.838  1.0623 -1.2550  0.6142
 8154SOL     OW35920   2.249   3.781  14.947  0.0692 -0.1604  0.4089
 8154SOL    HW135921   2.207   3.769  14.862  0.9651  3.3980 -0.5308
 8154SOL    HW235922   2.312   3.709  14.945  1.5272  1.1025  1.0629
 8155SOL     OW35923   2.869   1.287  10.227  0.3562  0.0373 -0.7696
 8155SOL    HW135924   2.826   1.275  10.142 -1.6495 -0.0735  0.2609
 8155SOL    HW235925   2.864   1.382  10.235 -2.6784 -0.1521 -0.3170
 8156SOL     OW35926   2.810   3.174   2.989  0.1583  0.4651  0.1654
 8156SOL    HW135927   2.721   3.154   3.017  1.3472 -3.2351  1.2553
 8156SOL    HW235928   2.821   3.267   3.010  0.3120  0.0605  1.8886
 8157SOL     OW35929   2.354   2.815  12.518 -0.0998 -0.3369  0.0206
 8157SOL    HW135930   2.382   2.778  12.434  1.4111 -1.3791  0.9922
 8157SOL    HW235931   2.283   2.869  12.483  1.2174  1.5807  0.3572
 8158SOL     OW35932   1.013   3.374   6.980 -0.4504 -0.5796  0.1344
 8158SOL    HW135933   0.945   3.426   7.023 -0.6429 -0.9496  0.2725
 8158SOL    HW235934   1.099   3.416   6.982 -0.6763 -0.0750 -0.7846
 8159SOL     OW35935   0.747   1.730   7.475 -0.7317  0.7397 -0.2364
 8159SOL    HW135936   0.653   1.747   7.471 -1.1562 -0.8572  4.0421
 8159SOL    HW235937   0.787   1.806   7.432  2.3299 -0.1099  1.1156
 8160SOL     OW35938   1.892   3.282   7.084 -0.1656  0.3717 -0.5966
 8160SOL    HW135939   1.925   3.318   7.167 -1.5291 -1.3712  0.7241
 8160SOL    HW235940   1.978   3.243   7.073 -0.7956 -0.3753 -2.8312
 8161SOL     OW35941   3.094   2.096   5.863  0.2872  0.0808  0.3401
 8161SOL    HW135942   3.089   2.183   5.823 -0.3495 -2.1221 -4.4276
 8161SOL    HW235943   3.060   2.046   5.789  1.6255 -1.9579  1.1071
 8162SOL     OW35944   3.344   2.747   0.382  0.2633  0.1244  1.2196
 8162SOL    HW135945   3.326   2.840   0.394 -1.2330 -0.3160  2.3111
 8162SOL    HW235946   3.415   2.751   0.317 -0.6843 -0.7809  0.1348
 8163SOL     OW35947   0.016   3.845  17.571 -0.3409 -0.4083  0.1251
 8163SOL    HW135948   0.043   3.930  17.535 -0.5720 -0.9886 -1.4183
 8163SOL    HW235949   0.098   3.813  17.607 -1.5710  0.0190  3.2829
 8164SOL     OW35950   4.666   2.273   6.619  0.0839 -0.4144  0.8146
 8164SOL    HW135951   4.684   2.283   6.712 -1.1626  0.2584  0.9906
 8164SOL    HW235952   0.026   2.307   6.585  0.4096 -1.5975  0.3865
 8165SOL     OW35953   2.347   0.455   7.173  0.2837 -0.1028  0.5460
 8165SOL    HW135954   2.352   0.396   7.247  0.1273  0.1884  0.7887
 8165SOL    HW235955   2.384   0.406   7.099  1.0377  2.6264 -0.8899
 8166SOL     OW35956   0.318   3.491   8.380  0.1459 -0.7936 -0.1916
 8166SOL    HW135957   0.391   3.448   8.424  1.0547 -0.9680 -1.8874
 8166SOL    HW235958   0.280   3.559   8.437  0.5293  1.3814 -2.5236
 8167SOL     OW35959   2.792   3.842   4.575  0.4103 -0.0143  0.1059
 8167SOL    HW135960   2.706   3.823   4.536  0.2495 -1.0791  0.9629
 8167SOL    HW235961   2.826   3.753   4.562 -0.5710 -0.3395 -0.2359
 8168SOL     OW35962   0.067   2.079   3.897 -0.3097  0.3843 -0.2386
 8168SOL    HW135963   0.117   2.080   3.815  0.2133  1.3685  0.0994
 8168SOL    HW235964   0.124   2.135   3.948  0.0451  2.1652 -2.5954
 8169SOL     OW35965   0.789   1.419   4.842  1.1526  0.2011 -0.2671
 8169SOL    HW135966   0.849   1.438   4.914 -0.8306  0.2741  1.3663
 8169SOL    HW235967   0.831   1.460   4.767  2.5430 -1.3443 -0.3326
 8170SOL     OW35968   3.000   3.222   5.880  0.3674  0.1612 -0.0631
 8170SOL    HW135969   3.045   3.305   5.900  1.5845 -0.6191  0.4856
 8170SOL    HW235970   3.082   3.174   5.888 -0.4442 -1.1476  0.2651
 8171SOL     OW35971   3.736   0.168   1.390 -0.2343  0.0615  0.3310
 8171SOL    HW135972   3.663   0.122   1.349  2.3675 -2.1122 -1.9026
 8171SOL    HW235973   3.711   0.167   1.482  0.8428 -3.1443  0.5655
 8172SOL     OW35974   3.994   3.587   2.258 -0.5404  0.4608  0.4025
 8172SOL    HW135975   4.008   3.649   2.331 -2.9160  1.6434 -0.1567
 8172SOL    HW235976   3.904   3.609   2.233 -1.0741  0.6490  2.4738
 8173SOL     OW35977   3.125   1.841  12.975 -0.7906  0.2757  0.4026
 8173SOL    HW135978   3.175   1.875  13.049  1.0611 -2.0834  0.2681
 8173SOL    HW235979   3.058   1.907  12.960 -1.5731 -0.7586 -0.6563
 8174SOL     OW35980   3.274   3.455  16.548  0.1841 -0.0186  0.0468
 8174SOL    HW135981   3.223   3.374  16.551  0.6683 -0.4060 -2.2683
 8174SOL    HW235982   3.326   3.438  16.469  0.0172  0.8232 -0.2355
 8175SOL     OW35983   2.829   0.206   4.083 -0.4227 -0.3796 -0.2314
 8175SOL    HW135984   2.775   0.188   4.005 -0.3039 -1.2430 -0.1140
 8175SOL    HW235985   2.837   0.301   4.076 -0.0284 -0.2730  1.6347
 8176SOL     OW35986   1.190   3.495  12.426 -0.0782  0.1906  0.4666
 8176SOL    HW135987   1.115   3.471  12.371  0.9871 -2.0709  0.0027
 8176SOL    HW235988   1.260   3.439  12.393 -1.6250 -0.1339 -2.2622
 8177SOL     OW35989   4.415   2.488   7.189  0.1231 -0.1728 -0.3576
 8177SOL    HW135990   4.506   2.471   7.164 -0.1927 -3.3963  0.7233
 8177SOL    HW235991   4.428   2.571   7.236 -0.0648  1.3930 -3.0393
 8178SOL     OW35992   3.619   0.585   8.866 -0.0423  0.0348  0.0380
 8178SOL    HW135993   3.559   0.543   8.805 -0.2329  0.7007 -0.2402
 8178SOL    HW235994   3.690   0.521   8.863  0.8618  1.1398 -2.5716
 8179SOL     OW35995   1.292   4.639   7.472  0.4235  0.1390  0.1871
 8179SOL    HW135996   1.237   4.566   7.443  0.2645  0.6181 -0.7236
 8179SOL    HW235997   1.249   4.659   7.554 -1.0472  0.5825 -0.6920
 8180SOL     OW35998   0.091   4.144   7.077 -0.2813 -0.2883 -0.2241
 8180SOL    HW135999   0.088   4.063   7.127 -0.0664 -0.1356  0.0392
 8180SOL    HW236000   0.145   4.207   7.126 -0.5813  0.2812 -0.6265
 8181SOL     OW36001   2.361   2.948   2.953  0.2921  0.2833 -0.5895
 8181SOL    HW136002   2.413   3.025   2.931 -0.3395  0.9373  0.1610
 8181SOL    HW236003   2.331   2.921   2.866 -0.4181  1.1562 -0.6221
 8182SOL     OW36004   3.182   0.487   7.603  0.1785 -0.6787  0.1630
 8182SOL    HW136005   3.196   0.577   7.572 -0.3963 -1.0904 -1.2834
 8182SOL    HW236006   3.106   0.479   7.545 -0.6561  1.1881  0.9831
 8183SOL     OW36007   1.589   0.550   6.465  0.4248  0.5305  0.2631
 8183SOL    HW136008   1.574   0.640   6.493  0.1205  0.5553  0.0121
 8183SOL    HW236009   1.682   0.537   6.487 -0.3525 -3.2176  1.3458
 8184SOL     OW36010   3.250   1.872   8.358  0.4118 -0.0723  0.6922
 8184SOL    HW136011   3.291   1.944   8.310 -0.7716  0.9397  1.1830
 8184SOL    HW236012   3.291   1.882   8.444  0.4653  0.2434  0.6289
 8185SOL     OW36013   0.813   1.531   7.280  0.1273 -0.1918 -0.1769
 8185SOL    HW136014   0.809   1.600   7.346 -0.8097  0.1519 -0.5900
 8185SOL    HW236015   0.903   1.500   7.280  0.0755 -0.2877  2.5181
 8186SOL     OW36016   0.998   1.151  10.353 -0.7774  0.1116 -0.2777
 8186SOL    HW136017   0.922   1.165  10.296 -1.6858 -1.0542  0.6395
 8186SOL    HW236018   1.049   1.085  10.307  0.5031  0.1394  1.1060
 8187SOL     OW36019   2.321   0.673   6.618 -0.1944  0.6692 -0.4043
 8187SOL    HW136020   2.384   0.628   6.674 -2.1284 -2.7169 -0.9132
 8187SOL    HW236021   2.247   0.690   6.676  0.5984  0.5380  0.6490
 8188SOL     OW36022   2.037   4.259   4.958 -0.1744 -0.3668  0.8398
 8188SOL    HW136023   2.126   4.225   4.960 -0.8193 -2.0879  0.5230
 8188SOL    HW236024   2.048   4.333   5.018  0.1317 -1.2906  1.9184
 8189SOL     OW36025   1.776   1.194   6.274 -0.4491 -0.1547  0.2978
 8189SOL    HW136026   1.756   1.283   6.302 -1.0754 -0.5429  1.0791
 8189SOL    HW236027   1.863   1.174   6.311  0.1409  1.3015 -0.3224
 8190SOL     OW36028   3.721   2.833   4.132  0.5385 -0.0414 -0.0689
 8190SOL    HW136029   3.798   2.818   4.077  0.5877  1.7030 -0.4712
 8190SOL    HW236030   3.684   2.907   4.084 -0.4005 -0.8997 -0.6663
 8191SOL     OW36031   1.020   2.427  14.844  0.4990  0.2539  0.6589
 8191SOL    HW136032   0.953   2.494  14.850  1.6381  1.3273  1.3004
 8191SOL    HW236033   1.075   2.441  14.922  1.5209  0.9248 -0.1870
 8192SOL     OW36034   2.700   1.514   3.144  0.6773 -0.0395  0.1785
 8192SOL    HW136035   2.776   1.516   3.087  0.9534 -0.1484  0.5468
 8192SOL    HW236036   2.713   1.429   3.186  0.7851  0.1566  0.5388
 8193SOL     OW36037   1.566   3.332   3.214 -0.9053 -0.4010 -0.7822
 8193SOL    HW136038   1.601   3.377   3.137 -1.6559  1.4556 -0.0321
 8193SOL    HW236039   1.642   3.287   3.251 -0.7012 -0.7544 -1.6436
 8194SOL     OW36040   2.837   1.980   3.136 -0.1051 -0.4134 -0.5175
 8194SOL    HW136041   2.819   2.047   3.203  0.1353 -0.5888 -0.2806
 8194SOL    HW236042   2.839   2.032   3.056  1.0381  1.5289  0.7411
 8195SOL     OW36043   1.572   2.750   8.581 -0.3944  0.6906 -0.3323
 8195SOL    HW136044   1.516   2.727   8.655 -1.6747 -0.2842 -1.6088
 8195SOL    HW236045   1.653   2.703   8.597 -0.2863  0.6634 -0.9625
 8196SOL     OW36046   0.721   4.696   4.825  0.1097  0.5177  0.2727
 8196SOL    HW136047   0.816   4.708   4.829 -0.0227  1.6108  0.2893
 8196SOL    HW236048   0.715   4.656   4.738  0.0144 -1.5393  1.2406
 8197SOL     OW36049   1.524   1.626   7.944  0.0246  0.1739  0.9162
 8197SOL    HW136050   1.590   1.685   7.907 -0.4114  0.6873  0.9574
 8197SOL    HW236051   1.582   1.583   8.007 -0.6837 -0.6994  0.9662
 8198SOL     OW36052   1.464   1.318  11.723 -0.6230  0.2603 -0.1993
 8198SOL    HW136053   1.407   1.351  11.654  1.1693  1.6027 -1.0112
 8198SOL    HW236054   1.477   1.397  11.775  3.1472  0.9003 -2.1510
 8199SOL     OW36055   3.149   3.618   4.548  0.3587  0.1799 -0.0267
 8199SOL    HW136056   3.180   3.702   4.514 -2.6344  0.3565 -2.2551
 8199SOL    HW236057   3.226   3.561   4.541 -0.0792 -0.4468  0.2702
 8200SOL     OW36058   3.451   3.188   4.997  0.4185  0.5467  0.2242
 8200SOL    HW136059   3.544   3.210   4.988  0.5739 -0.8099 -1.4625
 8200SOL    HW236060   3.413   3.221   4.915  2.1926 -0.0751 -0.8608
 8201SOL     OW36061   1.878   2.166   7.844 -0.3184  0.2422  0.3312
 8201SOL    HW136062   1.968   2.134   7.850 -0.4824 -0.7071 -2.6690
 8201SOL    HW236063   1.859   2.180   7.752  1.5546  0.5859 -0.0038
 8202SOL     OW36064   1.310   0.676  11.237  0.3005 -0.5258  0.1240
 8202SOL    HW136065   1.294   0.771  11.237  0.9875 -0.4151 -1.4345
 8202SOL    HW236066   1.225   0.642  11.208 -0.5855  2.0975 -0.3980
 8203SOL     OW36067   4.476   1.189   0.475  0.2682 -0.7372 -1.0244
 8203SOL    HW136068   4.503   1.140   0.553  1.1846 -0.3480 -1.1007
 8203SOL    HW236069   4.426   1.120   0.431  0.7941 -1.8677  0.1473
 8204SOL     OW36070   0.819   4.343   6.307 -0.0885 -0.5829 -0.1610
 8204SOL    HW136071   0.810   4.427   6.262  0.2172  0.6097  2.0050
 8204SOL    HW236072   0.813   4.287   6.229 -1.0141  0.8794 -1.1371
 8205SOL     OW36073   4.363   2.496   9.942  0.0780  0.1334  0.3194
 8205SOL    HW136074   4.377   2.403   9.926 -0.5369 -0.2004  1.7329
 8205SOL    HW236075   4.432   2.531   9.885 -0.8008  0.0294 -0.8081
 8206SOL     OW36076   3.655   0.767  14.449  0.4530  0.7811 -0.2247
 8206SOL    HW136077   3.724   0.826  14.417  2.7564 -0.8729  1.6895
 8206SOL    HW236078   3.694   0.745  14.534  2.1382 -0.7846 -1.4042
 8207SOL     OW36079   3.057   2.046   4.597  0.3054 -0.1457 -0.7491
 8207SOL    HW136080   3.121   2.063   4.666  0.2632  0.9096 -0.9673
 8207SOL    HW236081   3.005   2.125   4.583 -0.2073 -0.2960  0.3712
 8208SOL     OW36082   2.243   3.008   5.891 -0.5347  0.2585  0.3068
 8208SOL    HW136083   2.278   3.090   5.926  1.0586  1.2080 -3.5231
 8208SOL    HW236084   2.232   2.953   5.968  0.6960  0.9366  0.9737
 8209SOL     OW36085   1.627   1.244  13.871  0.2043 -0.1400  0.2130
 8209SOL    HW136086   1.689   1.180  13.906 -0.2233 -0.5895  0.1577
 8209SOL    HW236087   1.673   1.328  13.865  1.3637 -0.7340  1.0531
 8210SOL     OW36088   0.994   3.174   2.364 -0.7317 -0.6829 -0.3066
 8210SOL    HW136089   0.911   3.193   2.407 -1.0214 -3.0998  0.1785
 8210SOL    HW236090   0.986   3.251   2.308 -2.4641 -0.2979  0.4589
 8211SOL     OW36091   1.913   0.137  10.558  0.4191 -0.0831 -1.0267
 8211SOL    HW136092   1.971   0.172  10.491  0.9940  0.1590 -0.4001
 8211SOL    HW236093   1.954   0.154  10.643  0.0873 -0.0179 -0.8782
 8212SOL     OW36094   2.698   3.156  15.434  0.3243  0.0461  0.6302
 8212SOL    HW136095   2.757   3.232  15.431  3.5007 -2.5252 -2.1186
 8212SOL    HW236096   2.659   3.165  15.347  3.0349 -0.4299 -0.6637
 8213SOL     OW36097   0.715   4.260   8.702  0.7715 -0.1403  0.6349
 8213SOL    HW136098   0.799   4.268   8.747 -0.0839  1.7480  1.8677
 8213SOL    HW236099   0.653   4.256   8.775 -0.9515  2.4360 -0.6612
 8214SOL     OW36100   0.742   0.277   1.681 -0.3107  0.5065  0.0050
 8214SOL    HW136101   0.828   0.243   1.657 -0.7963 -1.6872  1.3972
 8214SOL    HW236102   0.722   0.337   1.609  0.2810 -1.0733 -1.4555
 8215SOL     OW36103   0.794   4.084   9.329  0.0660 -0.4268 -0.1546
 8215SOL    HW136104   0.816   4.167   9.286 -2.2474  0.1437 -0.2792
 8215SOL    HW236105   0.761   4.118   9.413  2.1355  0.1966  0.3960
 8216SOL     OW36106   4.469   3.120   4.816  0.1010  0.3630 -0.1038
 8216SOL    HW136107   4.464   3.025   4.812  1.0000  0.3775 -1.7552
 8216SOL    HW236108   4.539   3.132   4.751  0.4379 -0.1385  0.1626
 8217SOL     OW36109   3.264   0.540   7.241 -0.3017  0.3836  0.0470
 8217SOL    HW136110   3.357   0.529   7.260 -0.2580  0.4034 -0.1472
 8217SOL    HW236111   3.225   0.575   7.321 -0.8370 -0.9449  0.3652
 8218SOL     OW36112   3.457   1.378   7.145 -0.0407 -0.4345  0.0008
 8218SOL    HW136113   3.519   1.367   7.073  0.4158  1.6141  0.0844
 8218SOL    HW236114   3.416   1.463   7.132  0.3738 -0.2212  0.0721
 8219SOL     OW36115   2.699   4.547  11.149 -0.3088 -0.2080 -0.4592
 8219SOL    HW136116   2.696   4.635  11.186  0.1180 -0.5418  0.3669
 8219SOL    HW236117   2.735   4.574  11.065 -1.9355  2.0313 -0.4492
 8220SOL     OW36118   2.520   4.481   9.668  0.4419  0.3425  0.3273
 8220SOL    HW136119   2.457   4.410   9.662  0.2061  0.5621  0.2326
 8220SOL    HW236120   2.514   4.510   9.577 -2.4075 -0.2204  0.3379
 8221SOL     OW36121   2.196   3.633   2.142  0.3831 -0.3743  0.6467
 8221SOL    HW136122   2.132   3.690   2.100  0.3783  0.2277  1.4746
 8221SOL    HW236123   2.154   3.618   2.226 -0.4735 -1.6732 -0.0236
 8222SOL     OW36124   1.984   2.878  11.294  0.0819  0.2453  0.4116
 8222SOL    HW136125   1.966   2.971  11.282 -0.3907 -0.2148 -2.5665
 8222SOL    HW236126   2.007   2.845  11.207  0.0025 -2.1714  1.3148
 8223SOL     OW36127   1.792   2.622   8.649  0.9575  0.1477  0.1750
 8223SOL    HW136128   1.840   2.607   8.568 -0.3110 -1.2192 -0.3326
 8223SOL    HW236129   1.785   2.529   8.671 -0.7893  0.4124  0.7911
 8224SOL     OW36130   3.047   4.121  16.644 -0.6667  0.2476 -0.4294
 8224SOL    HW136131   3.078   4.030  16.639  1.6759  0.9236  1.9813
 8224SOL    HW236132   2.963   4.104  16.686 -0.2690  2.1905  1.1454
 8225SOL     OW36133   4.576   3.516  17.067  0.2491 -0.2174 -0.2978
 8225SOL    HW136134   4.513   3.572  17.022 -0.7579 -0.9440  0.2263
 8225SOL    HW236135   4.655   3.571  17.072 -0.0070 -0.0179  1.8121
 8226SOL     OW36136   4.531   1.970  10.487 -0.2116  0.2385 -0.3923
 8226SOL    HW136137   4.581   1.898  10.526 -0.9123  0.8180  1.5932
 8226SOL    HW236138   4.581   2.007  10.415  0.0332 -0.0856 -0.3911
 8227SOL     OW36139   0.233   2.513   3.679  0.2211  0.0713  0.3410
 8227SOL    HW136140   0.183   2.443   3.638  2.0137 -1.4867  0.8324
 8227SOL    HW236141   0.173   2.538   3.750  0.7569  2.9400 -0.2142
 8228SOL     OW36142   1.567   4.094  10.749  0.3051  0.7022  0.3269
 8228SOL    HW136143   1.593   4.186  10.741  1.6520  0.2098 -0.8850
 8228SOL    HW236144   1.642   4.057  10.796 -0.4414  1.0947  1.8534
 8229SOL     OW36145   2.171   2.904   2.105 -0.1408 -0.3868  0.3861
 8229SOL    HW136146   2.244   2.847   2.081  0.7178  0.6844  0.5024
 8229SOL    HW236147   2.210   2.991   2.113  0.2293 -0.6056  0.9462
 8230SOL     OW36148   1.239   2.094   6.798  0.3756  0.4715  0.3659
 8230SOL    HW136149   1.263   2.159   6.732 -2.4023  2.0823  0.9234
 8230SOL    HW236150   1.276   2.013   6.762 -0.4815  1.3566 -2.4864
 8231SOL     OW36151   1.247   2.238   4.618 -0.1962  0.4246 -0.3991
 8231SOL    HW136152   1.310   2.192   4.562  0.8245 -0.4450  1.4382
 8231SOL    HW236153   1.211   2.300   4.555 -1.7394 -1.1601 -1.0645
 8232SOL     OW36154   1.266   3.343   4.464  0.5416 -0.5238  0.5007
 8232SOL    HW136155   1.183   3.339   4.418 -0.3739  1.5612  1.9530
 8232SOL    HW236156   1.296   3.431   4.443 -2.2830 -0.1535 -1.8957
 8233SOL     OW36157   0.767   0.167  11.768 -0.2789  0.1414 -0.0373
 8233SOL    HW136158   0.799   0.084  11.733  0.0167  0.1422  0.2295
 8233SOL    HW236159   0.820   0.225  11.712  2.0031 -1.4989  0.4004
 8234SOL     OW36160   4.358   3.962  14.851  0.0036  0.8147  0.2120
 8234SOL    HW136161   4.278   3.968  14.798  0.4784  1.5539 -0.4232
 8234SOL    HW236162   4.420   3.937  14.783 -1.1453  1.7293 -1.1730
 8235SOL     OW36163   4.625   3.381   9.236  0.0405  0.2075 -0.6736
 8235SOL    HW136164   4.681   3.364   9.160 -0.6758 -0.7027 -1.0037
 8235SOL    HW236165   4.660   3.315   9.297 -1.5843 -0.4568 -0.4534
 8236SOL     OW36166   0.916   1.723   9.071 -0.0908 -0.6465  0.7804
 8236SOL    HW136167   0.940   1.688   8.985  1.6776 -1.8936  1.7892
 8236SOL    HW236168   0.941   1.649   9.127 -1.6103 -0.1089  2.1732
 8237SOL     OW36169   4.332   3.206  14.453 -0.0942 -0.6856 -0.0658
 8237SOL    HW136170   4.368   3.120  14.473 -1.3225 -0.8338  1.5385
 8237SOL    HW236171   4.384   3.262  14.509 -0.5001 -0.6742  0.3019
 8238SOL     OW36172   4.225   2.157   4.931  0.3175  0.2133 -0.2358
 8238SOL    HW136173   4.198   2.076   4.889 -2.3550  0.6955  0.5646
 8238SOL    HW236174   4.137   2.181   4.959 -0.4728 -4.2043  1.0722
 8239SOL     OW36175   3.190   0.334   4.983 -0.0903 -0.9235  0.3781
 8239SOL    HW136176   3.137   0.388   5.041  0.3343  0.7690 -0.8087
 8239SOL    HW236177   3.233   0.398   4.926 -0.1190 -0.5612  0.7571
 8240SOL     OW36178   4.402   1.870  14.057  0.6110 -0.1226 -0.3483
 8240SOL    HW136179   4.435   1.943  14.004  0.0393 -1.0602 -2.0217
 8240SOL    HW236180   4.370   1.809  13.990  1.4859 -0.6586 -0.2694
 8241SOL     OW36181   1.597   2.188   9.683 -0.0625  0.1851 -0.0312
 8241SOL    HW136182   1.539   2.184   9.759  1.1448 -1.7593  0.8077
 8241SOL    HW236183   1.599   2.280   9.660  1.8310 -0.1231 -1.1144
 8242SOL     OW36184   2.980   4.289  16.928 -0.0065  0.3506 -0.6710
 8242SOL    HW136185   3.045   4.220  16.941 -2.4540 -1.9070 -0.6525
 8242SOL    HW236186   3.028   4.345  16.867  0.7110  0.6191  0.1336
 8243SOL     OW36187   3.681   2.921   5.127  0.2044 -0.6989  0.1674
 8243SOL    HW136188   3.648   2.832   5.112 -0.1508 -0.5971  0.3488
 8243SOL    HW236189   3.729   2.954   5.051  0.5182 -0.7068  0.3616
 8244SOL     OW36190   3.426   4.322   6.200  0.3114  0.2510 -0.1333
 8244SOL    HW136191   3.484   4.335   6.275  0.4673 -1.6253  0.0776
 8244SOL    HW236192   3.347   4.369   6.228  0.4878  0.6405 -0.2972
 8245SOL     OW36193   3.901   4.680   5.110  0.2993  0.0348  0.1988
 8245SOL    HW136194   3.878   4.603   5.057 -1.0336  0.9072 -0.4729
 8245SOL    HW236195   3.917   0.018   5.038 -1.3294 -0.1300 -0.2978
 8246SOL     OW36196   4.176   1.148   8.403 -0.4925  0.0687 -0.0091
 8246SOL    HW136197   4.193   1.207   8.476  2.8408 -1.2447  0.2698
 8246SOL    HW236198   4.093   1.184   8.372 -0.4242  0.3429  0.1261
 8247SOL     OW36199   3.635   1.191   2.412  0.8225 -0.1920 -0.2123
 8247SOL    HW136200   3.680   1.202   2.328  0.9025 -0.7349 -0.2468
 8247SOL    HW236201   3.614   1.282   2.431  2.2307 -0.2887  1.8152
 8248SOL     OW36202   3.952   0.219   7.194  0.4177 -0.0785  0.1338
 8248SOL    HW136203   3.944   0.307   7.157 -0.2486  0.3837  1.3753
 8248SOL    HW236204   4.042   0.189   7.180  0.1984 -0.5175 -0.3397
 8249SOL     OW36205   0.726   1.465   5.366  0.1014  0.5893 -0.2796
 8249SOL    HW136206   0.780   1.543   5.377  2.2932 -1.1255  1.1553
 8249SOL    HW236207   0.658   1.499   5.308 -0.8268 -1.5576 -0.4442
 8250SOL     OW36208   0.377   1.654   2.424 -0.4187 -0.0476  0.7480
 8250SOL    HW136209   0.361   1.682   2.333 -0.5757 -0.8730  0.5276
 8250SOL    HW236210   0.299   1.694   2.461  0.7392  1.6317  1.4099
 8251SOL     OW36211   1.189   0.119   2.699  0.2560  0.4350 -0.2453
 8251SOL    HW136212   1.184   0.029   2.667 -0.4753  0.7429 -1.0070
 8251SOL    HW236213   1.159   0.167   2.622 -0.0268 -2.5534 -1.9654
 8252SOL     OW36214   3.008   2.906   5.828  0.0205 -0.0299 -0.2378
 8252SOL    HW136215   3.056   2.847   5.886  0.6637  0.1637 -0.5670
 8252SOL    HW236216   3.011   2.984   5.883 -1.2025 -1.5988  2.0253
 8253SOL     OW36217   1.754   2.561   7.342  0.2083  0.7472 -0.5471
 8253SOL    HW136218   1.821   2.531   7.404  0.3417  1.6310 -0.2693
 8253SOL    HW236219   1.774   2.497   7.273 -2.4048  0.6651 -1.2189
 8254SOL     OW36220   3.585   1.335   7.788  0.0400 -0.2906 -0.0659
 8254SOL    HW136221   3.554   1.354   7.876  1.0902 -0.8480  0.4217
 8254SOL    HW236222   3.642   1.412   7.784 -0.7107  0.2691  0.1604
 8255SOL     OW36223   1.822   1.026   6.054  0.2727 -0.8027  0.2652
 8255SOL    HW136224   1.859   1.079   5.984 -2.6033 -0.0433 -0.6703
 8255SOL    HW236225   1.819   1.089   6.126  0.1725  0.4474 -0.8409
 8256SOL     OW36226   4.699   2.925   6.653 -0.2627  0.0119 -0.4834
 8256SOL    HW136227   4.618   2.974   6.647 -0.1196  0.6295  2.3451
 8256SOL    HW236228   4.670   2.845   6.697  2.5292 -0.0793  1.1988
 8257SOL     OW36229   2.449   3.629   2.047  0.4453 -0.1021  0.4909
 8257SOL    HW136230   2.356   3.627   2.066  0.0650 -0.8990 -1.5053
 8257SOL    HW236231   2.446   3.697   1.980 -0.9293  0.8384  1.5068
 8258SOL     OW36232   4.069   1.508   4.443 -0.5482 -0.1908 -0.5554
 8258SOL    HW136233   4.002   1.573   4.420  0.7259  1.6762  1.0108
 8258SOL    HW236234   4.063   1.451   4.366  3.7970 -0.4522 -0.6641
 8259SOL     OW36235   4.491   1.925   2.001  0.1862 -0.1233 -0.0723
 8259SOL    HW136236   4.503   1.852   1.941 -1.2984 -0.6709  0.3071
 8259SOL    HW236237   4.480   1.998   1.941 -0.6874 -0.0662  0.1564
 8260SOL     OW36238   3.361   3.190   6.804  0.6805 -0.2816 -0.0853
 8260SOL    HW136239   3.359   3.101   6.841 -2.3077  0.0823  0.6381
 8260SOL    HW236240   3.311   3.166   6.726  2.0730 -0.5662 -0.8844
 8261SOL     OW36241   2.823   1.235   1.401  0.2600 -0.3369 -1.0034
 8261SOL    HW136242   2.889   1.223   1.332 -0.2299  2.3373 -1.9466
 8261SOL    HW236243   2.754   1.258   1.339 -1.8299 -2.2491  0.6456
 8262SOL     OW36244   1.804   1.529  14.895 -0.3272  0.1859 -0.1828
 8262SOL    HW136245   1.754   1.555  14.972 -0.2812  2.6812 -0.9999
 8262SOL    HW236246   1.885   1.493  14.932 -2.2922 -1.7093  2.2573
 8263SOL     OW36247   3.536   2.471  17.352 -0.1989 -0.4415  0.2290
 8263SOL    HW136248   3.629   2.451  17.343 -0.5721 -1.4232 -1.5259
 8263SOL    HW236249   3.539   2.554  17.399  0.5144  0.2273 -1.0141
 8264SOL     OW36250   1.496   1.802   8.609  0.1207 -0.1790 -0.2800
 8264SOL    HW136251   1.499   1.734   8.677 -0.4062  0.5038  0.4222
 8264SOL    HW236252   1.401   1.815   8.608 -0.1066 -1.7934 -0.7598
 8265SOL     OW36253   3.654   2.270  15.832  0.8032 -0.1284  0.0400
 8265SOL    HW136254   3.621   2.235  15.914  0.9235  2.2222  1.0911
 8265SOL    HW236255   3.597   2.228  15.767  2.4978  0.1140 -1.6231
 8266SOL     OW36256   4.533   1.831   8.032 -0.4234  0.0941 -0.0054
 8266SOL    HW136257   4.457   1.885   8.051  0.1000  0.9802 -0.4277
 8266SOL    HW236258   4.519   1.755   8.089  0.2995 -0.6684 -0.8384
 8267SOL     OW36259   2.149   3.222   6.949  0.7907 -0.3379 -0.0182
 8267SOL    HW136260   2.150   3.170   6.869  1.0115  0.2119 -0.3713
 8267SOL    HW236261   2.241   3.226   6.974  1.4846  0.7275 -2.7057
 8268SOL     OW36262   2.449   1.129   7.309 -0.4501 -0.4666  0.7532
 8268SOL    HW136263   2.434   1.166   7.222 -0.2652  0.8298  1.2768
 8268SOL    HW236264   2.439   1.205   7.366 -0.3449 -0.9257  1.3882
 8269SOL     OW36265   0.704   2.917   5.457 -0.2235 -0.2729  0.3125
 8269SOL    HW136266   0.614   2.885   5.459 -0.5884  0.7881  1.2140
 8269SOL    HW236267   0.685   3.007   5.432  2.2883  0.2575  0.3570
 8270SOL     OW36268   3.363   0.776  14.897  0.0624  0.0973 -0.2222
 8270SOL    HW136269   3.422   0.729  14.956 -1.4950 -1.1939  0.3065
 8270SOL    HW236270   3.395   0.754  14.809 -1.5715  1.4098 -1.1387
 8271SOL     OW36271   3.481   3.484   7.867  0.0503  0.8480  0.3278
 8271SOL    HW136272   3.424   3.413   7.897  0.1390  1.2925  1.5350
 8271SOL    HW236273   3.510   3.520   7.950  0.2165  1.6818 -0.0998
 8272SOL     OW36274   1.139   0.550   4.402  0.2159 -0.3216  0.2444
 8272SOL    HW136275   1.141   0.468   4.353 -0.1372  0.9590 -1.9220
 8272SOL    HW236276   1.215   0.596   4.369 -0.3530  0.7841  0.4662
 8273SOL     OW36277   3.622   1.720  17.477  0.0756  0.3350  0.1961
 8273SOL    HW136278   3.682   1.773  17.425 -1.4140  0.6649 -1.1960
 8273SOL    HW236279   3.552   1.777  17.508 -1.5207 -1.1636 -0.6431
 8274SOL     OW36280   1.370   2.087   4.435 -0.7745  0.3542 -0.0287
 8274SOL    HW136281   1.361   2.109   4.342  4.1147 -2.8022 -1.2202
 8274SOL    HW236282   1.452   2.037   4.431 -0.5764  0.6696  0.1400
 8275SOL     OW36283   2.331   2.011   8.833 -0.4109 -0.0421  0.4714
 8275SOL    HW136284   2.297   2.008   8.922  0.9327  0.5746  0.9991
 8275SOL    HW236285   2.292   2.093   8.800  0.2234 -0.2733 -0.8663
 8276SOL     OW36286   3.916   1.248   6.494 -0.1711  0.0077  0.5749
 8276SOL    HW136287   3.987   1.209   6.443 -1.6392  1.0644 -2.2505
 8276SOL    HW236288   3.965   1.276   6.572  0.6630  1.1985 -0.3715
 8277SOL     OW36289   1.180   3.632  15.595  0.3046 -0.9548 -0.0322
 8277SOL    HW136290   1.260   3.673  15.625 -2.4687  1.5938  3.8650
 8277SOL    HW236291   1.123   3.668  15.663  1.0103 -0.1498  0.1273
 8278SOL     OW36292   1.844   3.674   8.655 -0.3462  0.0158  0.6399
 8278SOL    HW136293   1.787   3.717   8.718 -0.5159  1.3028 -0.3982
 8278SOL    HW236294   1.786   3.611   8.611  0.5741 -1.0704  0.9734
 8279SOL     OW36295   4.145   1.377   4.170  0.8973 -0.8332  0.0900
 8279SOL    HW136296   4.215   1.316   4.197  2.2998  0.0873 -1.4652
 8279SOL    HW236297   4.152   1.367   4.075 -0.8700  2.9236 -0.4006
 8280SOL     OW36298   2.173   1.666   3.338  0.3881  0.7020  0.0751
 8280SOL    HW136299   2.081   1.677   3.361  0.8854  2.0133  1.4517
 8280SOL    HW236300   2.166   1.601   3.268  0.7901  0.4292  0.2876
 8281SOL     OW36301   0.403   2.122  16.103  0.3460  0.1902  0.4322
 8281SOL    HW136302   0.327   2.150  16.053  1.3703  4.4036  1.2135
 8281SOL    HW236303   0.460   2.112  16.026 -0.7460  1.3973 -0.5315
 8282SOL     OW36304   1.694   3.849   5.092 -0.7488 -0.0954  0.1349
 8282SOL    HW136305   1.618   3.821   5.142 -1.0583  0.9335  0.2482
 8282SOL    HW236306   1.710   3.939   5.122  1.7300 -0.8435  1.0612
 8283SOL     OW36307   0.931   3.858   7.884 -1.0133  0.1061 -0.1216
 8283SOL    HW136308   0.839   3.882   7.893 -1.2236 -0.6658 -0.2353
 8283SOL    HW236309   0.970   3.878   7.969 -2.0567 -0.2581  0.4353
 8284SOL     OW36310   2.426   3.843  15.734 -0.3107 -0.0054  0.0362
 8284SOL    HW136311   2.364   3.772  15.716  2.2290 -2.6024  1.4929
 8284SOL    HW236312   2.445   3.847  15.827  0.1819  0.8459 -0.1026
 8285SOL     OW36313   1.950   1.909  12.377 -0.0175  0.3716  0.0455
 8285SOL    HW136314   1.990   1.938  12.295  1.4605 -0.2197  0.5414
 8285SOL    HW236315   1.955   1.813  12.375 -1.1821  0.3510 -1.5850
 8286SOL     OW36316   3.161   3.144   6.613  0.3441  0.0290 -0.4035
 8286SOL    HW136317   3.100   3.102   6.553 -1.3964 -0.4218  1.6932
 8286SOL    HW236318   3.112   3.147   6.695  0.5506  1.2054 -0.3272
 8287SOL     OW36319   0.052   0.195   0.141 -0.0027  0.0161  0.0047
 8287SOL    HW136320   0.078   0.185   0.049 -0.6756 -0.5646 -0.1220
 8287SOL    HW236321   0.129   0.229   0.186  0.2819 -0.4482 -0.1275
 8288SOL     OW36322   2.414   3.559  14.654 -0.5563  0.0242  0.0765
 8288SOL    HW136323   2.323   3.587  14.668 -0.7340 -0.5559  0.0710
 8288SOL    HW236324   2.446   3.619  14.586  0.8271 -1.6610 -0.7616
 8289SOL     OW36325   1.263   2.640  14.803 -0.7752  0.6147  0.8174
 8289SOL    HW136326   1.320   2.575  14.844 -1.1952  1.4597  2.7255
 8289SOL    HW236327   1.298   2.637  14.714 -0.9306 -2.3584  0.8534
 8290SOL     OW36328   2.322   2.092   8.282  0.2298  0.3516  0.3633
 8290SOL    HW136329   2.316   2.006   8.240 -0.4333  0.3641  0.4456
 8290SOL    HW236330   2.232   2.121   8.291  0.5258  0.9551  1.3972
 8291SOL     OW36331   3.400   2.172  14.608 -0.3069  0.2492 -0.4154
 8291SOL    HW136332   3.418   2.263  14.585  1.2678  1.2000  4.6809
 8291SOL    HW236333   3.457   2.155  14.683  0.0436  0.8241 -0.5557
 8292SOL     OW36334   1.606   0.870   2.600  0.1009  0.1133 -0.5656
 8292SOL    HW136335   1.664   0.920   2.543 -0.1536 -0.8679 -1.6886
 8292SOL    HW236336   1.606   0.921   2.681  1.3727 -2.1505  0.8689
 8293SOL     OW36337   3.004   1.177   8.035 -0.0491 -0.6216 -0.3210
 8293SOL    HW136338   3.012   1.232   7.957 -0.4902 -0.0585  0.0307
 8293SOL    HW236339   2.995   1.089   8.000 -1.2591 -1.0316  1.0033
 8294SOL     OW36340   4.307   1.728   1.798 -0.1801 -0.1905 -0.3632
 8294SOL    HW136341   4.283   1.733   1.705 -0.7978 -1.2227 -0.2604
 8294SOL    HW236342   4.402   1.717   1.798 -0.0308  1.0997 -0.6985
 8295SOL     OW36343   4.690   0.000   3.049 -0.2491 -0.2633  0.2071
 8295SOL    HW136344   4.608   4.701   3.004 -0.4769  0.6558  0.1838
 8295SOL    HW236345   0.028   4.695   2.980 -1.3127  0.4357 -1.0027
 8296SOL     OW36346   3.985   1.900   0.196  0.3216 -0.2232  0.2061
 8296SOL    HW136347   3.990   1.950   0.115 -0.3706 -1.4082 -0.5742
 8296SOL    HW236348   3.944   1.820   0.163 -0.6600  1.2462 -2.1380
 8297SOL     OW36349   2.286   0.461   6.177 -0.1009 -0.1072 -0.1527
 8297SOL    HW136350   2.197   0.453   6.214  0.9086 -3.0257  1.7222
 8297SOL    HW236351   2.277   0.539   6.123  1.2015  0.6219  0.7063
 8298SOL     OW36352   2.330   0.045  12.567  0.7369 -0.7165 -0.2663
 8298SOL    HW136353   2.405   0.075  12.618 -0.0008 -0.2824  0.5877
 8298SOL    HW236354   2.366   4.697  12.514  0.7413 -0.9650  0.0652
 8299SOL     OW36355   0.740   3.136   1.770 -0.4175  0.2753 -0.3559
 8299SOL    HW136356   0.728   3.087   1.852 -1.7121 -1.1025 -1.3810
 8299SOL    HW236357   0.667   3.197   1.784 -1.2688 -0.8319  0.0336
 8300SOL     OW36358   0.948   1.038  11.352 -0.5629  0.2884 -0.4924
 8300SOL    HW136359   0.917   1.047  11.442  0.0042  0.2630 -0.2890
 8300SOL    HW236360   0.941   1.128  11.321 -2.8444  0.0505 -0.6294
 8301SOL     OW36361   1.685   2.326   8.636  0.0802 -0.1053  0.1329
 8301SOL    HW136362   1.760   2.287   8.591 -1.7345 -4.2993  0.7288
 8301SOL    HW236363   1.700   2.287   8.722  2.5085  0.2738 -0.1103
 8302SOL     OW36364   0.397   0.494  11.696 -0.0392 -0.6024  0.6802
 8302SOL    HW136365   0.438   0.490  11.610  1.1434  1.0053  1.1808
 8302SOL    HW236366   0.471   0.525  11.749 -2.1991  3.1973  1.4549
 8303SOL     OW36367   2.424   0.382   1.514 -0.6472  0.8348  0.3378
 8303SOL    HW136368   2.508   0.367   1.557 -1.8961 -1.0255  2.1364
 8303SOL    HW236369   2.414   0.475   1.534 -0.0526  1.0977 -0.5896
 8304SOL     OW36370   1.663   2.496   2.271 -0.1275  0.4064 -0.4952
 8304SOL    HW136371   1.579   2.456   2.251  0.0715  0.2433 -1.0136
 8304SOL    HW236372   1.719   2.424   2.301 -1.5249  0.1261  1.4310
 8305SOL     OW36373   3.923   0.648   8.297  0.5256  0.2858  0.1426
 8305SOL    HW136374   3.844   0.701   8.287 -0.0590 -0.6407 -0.2481
 8305SOL    HW236375   3.909   0.582   8.229  0.0602  1.7455 -1.1686
 8306SOL     OW36376   0.742   2.233  17.353  0.1222 -0.0044 -0.2432
 8306SOL    HW136377   0.720   2.298  17.420  0.9526 -0.5780  0.5903
 8306SOL    HW236378   0.740   2.160  17.415 -1.5954 -0.4673 -0.8477
 8307SOL     OW36379   4.112   3.193  16.659 -1.4008 -0.3093  0.2768
 8307SOL    HW136380   4.023   3.160  16.671 -1.7670  0.7862  0.6069
 8307SOL    HW236381   4.152   3.108  16.674 -0.2395  0.2718  0.4399
 8308SOL     OW36382   1.922   4.249  16.688 -0.2674  0.9835  0.3774
 8308SOL    HW136383   1.882   4.172  16.647  2.1547 -0.0556 -0.0104
 8308SOL    HW236384   1.894   4.311  16.621 -1.3203 -0.9724 -1.0083
 8309SOL     OW36385   3.301   4.153   0.373  0.0674 -0.2430 -0.5219
 8309SOL    HW136386   3.223   4.099   0.358 -0.0784  0.1765 -1.2314
 8309SOL    HW236387   3.328   4.174   0.284 -0.7621  0.2358 -0.6618
 8310SOL     OW36388   0.541   0.618   3.079 -0.0520  0.2707  0.7065
 8310SOL    HW136389   0.602   0.688   3.103 -0.2203  0.1518  1.4867
 8310SOL    HW236390   0.543   0.612   2.984 -2.2163 -0.9202  0.7327
 8311SOL     OW36391   0.149   1.072   3.931  0.0935  0.3224  0.2006
 8311SOL    HW136392   0.119   1.156   3.897 -2.7629 -0.5495  0.5740
 8311SOL    HW236393   0.063   1.040   3.959  0.1314  1.1762  1.2782
 8312SOL     OW36394   4.536   0.626   1.364 -0.4428  0.2047  0.0103
 8312SOL    HW136395   4.458   0.591   1.407  2.5532 -3.6634  2.3829
 8312SOL    HW236396   4.581   0.650   1.446  1.9847 -0.6827 -1.0532
 8313SOL     OW36397   2.078   2.976   8.172 -0.4176 -0.1290  0.0701
 8313SOL    HW136398   2.041   2.964   8.260 -0.1061  0.5949  0.3054
 8313SOL    HW236399   2.096   2.885   8.150  0.8700  0.4916 -1.3950
 8314SOL     OW36400   0.566   1.307   5.526  0.2339  0.3299 -0.2410
 8314SOL    HW136401   0.612   1.371   5.471 -1.4514  0.5709 -1.3811
 8314SOL    HW236402   0.506   1.266   5.463 -0.7518 -1.2354  1.7442
 8315SOL     OW36403   3.420   1.110   0.535 -0.5284 -0.5322 -0.0799
 8315SOL    HW136404   3.503   1.067   0.518  0.9090  1.7872  1.1258
 8315SOL    HW236405   3.451   1.177   0.595 -0.6062 -0.4771 -0.1009
 8316SOL     OW36406   3.544   0.223   5.488  0.2231  0.6660 -0.1037
 8316SOL    HW136407   3.609   0.154   5.502 -0.2924  0.5946  1.8558
 8316SOL    HW236408   3.569   0.252   5.400 -1.7923 -1.5889 -1.4391
 8317SOL     OW36409   3.225   3.084   8.242  0.2891 -0.2379 -0.1938
 8317SOL    HW136410   3.296   3.106   8.302  0.6748 -0.4557 -0.5817
 8317SOL    HW236411   3.273   3.088   8.160 -0.8544  0.0941 -0.8547
 8318SOL     OW36412   2.216   3.329   5.218 -0.1667  0.7207  0.3287
 8318SOL    HW136413   2.248   3.370   5.299  0.0602 -0.5536  0.8959
 8318SOL    HW236414   2.128   3.312   5.251  0.8775 -0.4307  2.5318
 8319SOL     OW36415   1.535   3.684  10.254  0.1180 -0.1674  0.2004
 8319SOL    HW136416   1.630   3.694  10.259  0.2669 -1.1255 -0.8774
 8319SOL    HW236417   1.524   3.599  10.212  2.5795  0.2024 -1.1988
 8320SOL     OW36418   3.911   1.707   1.204  0.5530  0.0609 -0.9030
 8320SOL    HW136419   3.990   1.760   1.192  1.1576 -0.4697  0.7545
 8320SOL    HW236420   3.909   1.674   1.114  3.8422 -0.8335 -0.6625
 8321SOL     OW36421   3.846   2.615   7.277 -0.1365  0.4904 -0.1272
 8321SOL    HW136422   3.841   2.530   7.233  1.4126  0.7431 -0.7805
 8321SOL    HW236423   3.769   2.604   7.334 -0.3213 -0.8449 -0.6296
 8322SOL     OW36424   3.976   1.361   3.089  0.3050 -0.2668  0.1561
 8322SOL    HW136425   4.019   1.425   3.147 -1.3346  0.8819  0.0895
 8322SOL    HW236426   4.034   1.368   3.013 -0.3991  2.5008 -0.1222
 8323SOL     OW36427   2.044   0.776  12.966  0.0088 -0.2225  0.1395
 8323SOL    HW136428   2.027   0.823  13.047 -0.1304  2.1638 -1.2927
 8323SOL    HW236429   2.139   0.773  12.963  0.1222  1.2589  2.2887
 8324SOL     OW36430   0.560   0.754   0.739 -0.2913 -0.0508  0.2275
 8324SOL    HW136431   0.534   0.843   0.714 -0.3963  0.4935  2.2589
 8324SOL    HW236432   0.489   0.693   0.717 -0.1376 -0.8265  1.8771
 8325SOL     OW36433   2.065   0.321   4.080  0.1189  0.1443 -0.0048
 8325SOL    HW136434   2.068   0.400   4.026  2.5922  0.9849  1.3436
 8325SOL    HW236435   1.976   0.338   4.112  0.1262 -0.5210  0.3586
 8326SOL     OW36436   0.490   4.296   6.781  0.0357  0.1748 -0.7117
 8326SOL    HW136437   0.398   4.271   6.788  0.0595 -0.2385 -1.8100
 8326SOL    HW236438   0.508   4.313   6.688  1.5581 -2.2850 -0.8592
 8327SOL     OW36439   3.248   0.989   6.505 -0.2495  0.1298  0.3648
 8327SOL    HW136440   3.170   1.018   6.458 -0.1956  2.1140  1.4600
 8327SOL    HW236441   3.219   0.899   6.516 -1.8438  0.7363  1.1123
 8328SOL     OW36442   0.691   0.759   7.783 -0.1292 -0.3538 -0.3070
 8328SOL    HW136443   0.600   0.788   7.774  0.0913  0.6855  0.8408
 8328SOL    HW236444   0.685   0.692   7.714  1.1597  0.2131 -0.9658
 8329SOL     OW36445   4.575   2.696   1.005  0.2700  0.1310  0.5588
 8329SOL    HW136446   4.631   2.745   1.066 -0.4798  0.4153  1.0090
 8329SOL    HW236447   4.503   2.759   0.998 -0.0208 -0.3232 -0.4953
 8330SOL     OW36448   1.195   1.251   8.844 -0.0604 -0.1719  0.6128
 8330SOL    HW136449   1.265   1.189   8.865 -2.2071 -1.9392  2.5703
 8330SOL    HW236450   1.231   1.284   8.762  0.0966  0.9457  1.1364
 8331SOL     OW36451   0.342   2.766   4.777 -0.1296 -0.0350  0.2745
 8331SOL    HW136452   0.393   2.753   4.698  0.4767  1.2559  0.4479
 8331SOL    HW236453   0.264   2.816   4.751 -0.0854 -0.0005  0.2089
 8332SOL     OW36454   4.216   3.193   4.852  0.5174 -0.3680  0.4668
 8332SOL    HW136455   4.291   3.141   4.821  1.1708  0.7872  0.1181
 8332SOL    HW236456   4.140   3.136   4.847  1.2777 -1.4246  0.9855
 8333SOL     OW36457   4.282   1.606   7.778 -0.1989  0.2125  0.3734
 8333SOL    HW136458   4.344   1.602   7.851 -0.2245  1.1988  0.4546
 8333SOL    HW236459   4.281   1.513   7.759  1.0396  0.5868 -1.5648
 8334SOL     OW36460   2.657   0.207   2.180 -0.3835  0.0608  0.0687
 8334SOL    HW136461   2.592   0.278   2.179  0.0676  0.5072  1.1811
 8334SOL    HW236462   2.739   0.251   2.157  0.2401 -0.2393  1.7361
 8335SOL     OW36463   2.998   4.625  14.870 -0.2611 -0.2831 -0.2077
 8335SOL    HW136464   2.921   4.571  14.888 -1.9041  2.2100  0.2150
 8335SOL    HW236465   3.065   4.557  14.872  0.4537  0.4406  0.3310
 8336SOL     OW36466   2.440   1.650   9.022 -0.0379 -0.7658  0.6042
 8336SOL    HW136467   2.514   1.590   9.019  0.9798  0.5892 -1.9066
 8336SOL    HW236468   2.441   1.691   8.935  1.9541 -0.8749  0.5849
 8337SOL     OW36469   3.355   2.641   1.469 -0.9950  0.5133 -0.2072
 8337SOL    HW136470   3.410   2.716   1.495 -0.2039 -0.2470  0.3172
 8337SOL    HW236471   3.421   2.573   1.484 -1.2437  0.4647  0.6881
 8338SOL     OW36472   0.982   1.240  15.159  0.0988  0.5107  0.5265
 8338SOL    HW136473   1.017   1.226  15.072 -0.1030 -0.4196  0.5984
 8338SOL    HW236474   0.915   1.306  15.141 -0.3468 -0.8473 -2.8416
 8339SOL     OW36475   0.836   0.611   1.085 -0.0808 -0.0281  0.4527
 8339SOL    HW136476   0.787   0.529   1.081 -1.5604  1.0062 -2.5816
 8339SOL    HW236477   0.840   0.649   0.997 -1.4268 -0.2204  0.3001
 8340SOL     OW36478   3.507   2.485   3.964 -0.0308 -0.7442 -0.0557
 8340SOL    HW136479   3.591   2.445   3.944  0.6398  0.1192  1.0833
 8340SOL    HW236480   3.513   2.472   4.058 -3.7758 -0.1575  0.2799
 8341SOL     OW36481   4.100   4.186  12.860 -0.7269  0.0916 -0.1223
 8341SOL    HW136482   4.016   4.172  12.904  0.1367 -2.0252  0.9119
 8341SOL    HW236483   4.140   4.256  12.911 -1.1213  0.5337 -0.4144
 8342SOL     OW36484   0.966   0.937   8.995 -0.4891  0.6127 -0.2080
 8342SOL    HW136485   0.974   0.852   8.953  1.6184  1.2431 -1.0783
 8342SOL    HW236486   1.035   0.938   9.061 -0.8137 -1.3989  0.1389
 8343SOL     OW36487   2.975   3.281   2.174 -0.4962  0.1334 -0.1972
 8343SOL    HW136488   2.940   3.314   2.091  0.3272 -0.3460 -0.7302
 8343SOL    HW236489   2.981   3.363   2.224 -5.0735 -0.4555  1.3301
 8344SOL     OW36490   0.035   4.241   4.431  0.1196  0.0492 -0.0633
 8344SOL    HW136491   0.074   4.206   4.511 -0.2615  0.7705  0.4371
 8344SOL    HW236492   0.024   4.334   4.452 -1.4384 -0.2629  0.5216
 8345SOL     OW36493   2.391   2.174  10.150 -0.7265 -0.6516  0.1780
 8345SOL    HW136494   2.473   2.166  10.199 -0.7806 -0.4077  0.3101
 8345SOL    HW236495   2.417   2.178  10.058  1.3860  0.4052  0.8178
 8346SOL     OW36496   4.716   4.720   4.687  0.5083 -0.4263  0.5714
 8346SOL    HW136497   0.014   0.075   4.635 -1.3170 -1.0256 -1.0667
 8346SOL    HW236498   4.631   0.024   4.724 -0.6102  0.9164 -2.9126
 8347SOL     OW36499   2.513   4.189   4.701 -0.2632 -0.0209  0.2072
 8347SOL    HW136500   2.595   4.237   4.709 -0.4396  0.0911  1.4550
 8347SOL    HW236501   2.535   4.114   4.646  1.8381 -0.0522  1.0901
 8348SOL     OW36502   2.221   2.743  13.353  0.2001 -0.4764 -0.0797
 8348SOL    HW136503   2.138   2.769  13.392  0.1461 -0.4849 -0.1924
 8348SOL    HW236504   2.221   2.647  13.352 -1.5218 -0.4831  0.1907
 8349SOL     OW36505   3.063   2.356   2.621  0.3997 -0.1395 -0.3682
 8349SOL    HW136506   2.980   2.400   2.637  0.3818 -0.6884  1.0099
 8349SOL    HW236507   3.036   2.279   2.570 -3.1258  0.1747  1.0682
 8350SOL     OW36508   0.954   4.220  12.079 -0.2160  0.3555 -0.5941
 8350SOL    HW136509   0.873   4.235  12.127 -0.4901 -1.1169 -0.5898
 8350SOL    HW236510   0.974   4.309  12.048  1.1150  0.8092  1.5960
 8351SOL     OW36511   2.598   3.436   5.835 -0.0192  0.1164 -0.8463
 8351SOL    HW136512   2.537   3.459   5.905  0.8295  0.2980 -0.1670
 8351SOL    HW236513   2.543   3.398   5.767  0.1767 -0.0329 -0.9228
 8352SOL     OW36514   1.975   0.042   1.829  0.0648 -0.3953 -0.0883
 8352SOL    HW136515   1.881   0.024   1.834 -0.2795  1.7222  0.7518
 8352SOL    HW236516   1.972   0.124   1.781  0.4184 -0.0835  0.4267
 8353SOL     OW36517   2.301   1.803   5.634  0.7471 -0.0980  0.0770
 8353SOL    HW136518   2.253   1.789   5.716  0.5483  0.3718  0.0386
 8353SOL    HW236519   2.267   1.732   5.580 -2.9630  1.3773  0.4702
 8354SOL     OW36520   3.609   2.823  12.250  1.0238  0.4293  0.3418
 8354SOL    HW136521   3.645   2.754  12.305  1.8215 -0.0983 -0.8373
 8354SOL    HW236522   3.594   2.776  12.168 -1.1279  0.2498  0.8409
 8355SOL     OW36523   2.601   2.551  17.430  0.3379 -0.3745  0.1870
 8355SOL    HW136524   2.506   2.550  17.428  0.3406  0.1411 -0.3112
 8355SOL    HW236525   2.614   2.636  17.472  2.3057  0.4715 -2.1039
 8356SOL     OW36526   3.566   0.691  10.473 -0.3228  0.1678 -0.1524
 8356SOL    HW136527   3.622   0.616  10.456  0.4492  0.3617  1.5773
 8356SOL    HW236528   3.489   0.642  10.502  0.8145 -0.4909  1.7266
 8357SOL     OW36529   4.271   0.629   1.843  0.5166 -0.3468 -0.5296
 8357SOL    HW136530   4.355   0.608   1.885 -0.1664 -1.7002  0.1484
 8357SOL    HW236531   4.225   0.546   1.853 -0.4249  0.1417 -0.8790
 8358SOL     OW36532   0.151   0.562   5.189  0.1318 -0.1417  0.1985
 8358SOL    HW136533   0.189   0.592   5.107 -0.7330  2.2031  0.6352
 8358SOL    HW236534   0.066   0.605   5.186 -0.3230 -1.1040 -0.4001
 8359SOL     OW36535   4.493   0.765   6.807 -0.4507  0.0155  0.2563
 8359SOL    HW136536   4.578   0.723   6.823  0.8763  3.1681  1.5893
 8359SOL    HW236537   4.512   0.848   6.852 -1.2103  1.1726 -1.5654
 8360SOL     OW36538   3.578   1.916   0.385 -0.0680  0.1042  0.1870
 8360SOL    HW136539   3.637   1.939   0.313  0.3721  0.6705  0.7325
 8360SOL    HW236540   3.495   1.940   0.344 -1.2094 -1.2751  1.6691
 8361SOL     OW36541   2.578   4.689   7.730  0.3077 -0.2658 -0.0938
 8361SOL    HW136542   2.514   4.643   7.676  0.8303 -1.3849  0.2289
 8361SOL    HW236543   2.662   4.658   7.695  0.7326 -1.2426  1.7756
 8362SOL     OW36544   3.566   3.733   0.843  0.2792  0.4565  0.1254
 8362SOL    HW136545   3.538   3.780   0.922 -2.8330 -0.0188 -0.7197
 8362SOL    HW236546   3.658   3.755   0.829  0.0853  0.8757 -0.4968
 8363SOL     OW36547   4.176   2.629  17.623 -0.5575 -0.3748 -0.2135
 8363SOL    HW136548   4.244   2.622  17.555  0.1594  1.8113  0.2691
 8363SOL    HW236549   4.228   2.666   0.002  0.7265 -3.4253  0.4159
 8364SOL     OW36550   3.440   3.812   6.167 -0.2188  0.2959  0.1952
 8364SOL    HW136551   3.456   3.894   6.120 -0.3352  0.8385  1.0995
 8364SOL    HW236552   3.507   3.753   6.134  0.5047  0.0790  2.0972
 8365SOL     OW36553   1.124   1.000   2.741  0.4307  0.3065  0.2582
 8365SOL    HW136554   1.068   1.035   2.672  1.0292  0.1371 -0.3127
 8365SOL    HW236555   1.211   1.035   2.722  1.1530 -0.5493  2.0111
 8366SOL     OW36556   1.524   2.860   5.678  0.5582 -0.1015 -0.0993
 8366SOL    HW136557   1.554   2.880   5.767 -0.8795  0.5893  0.2361
 8366SOL    HW236558   1.609   2.861   5.633  0.1201  0.2348 -0.9245
 8367SOL     OW36559   1.571   2.474   4.255  0.0276 -0.4532 -0.0397
 8367SOL    HW136560   1.621   2.489   4.174  0.9743 -0.7740  0.4844
 8367SOL    HW236561   1.596   2.384   4.276  1.3426 -0.2605 -0.8000
 8368SOL     OW36562   2.755   4.515   4.664 -0.6922 -0.2031 -0.1827
 8368SOL    HW136563   2.835   4.547   4.705 -0.2781 -1.4605 -0.0303
 8368SOL    HW236564   2.768   4.421   4.663 -0.6567 -0.1385 -3.4439
 8369SOL     OW36565   3.050   2.118  14.360 -0.6021 -0.2646  0.2617
 8369SOL    HW136566   3.023   2.028  14.340 -3.2231  0.3859  0.9464
 8369SOL    HW236567   3.145   2.116  14.377 -0.6730 -1.4847  0.5058
 8370SOL     OW36568   2.069   0.103   6.659 -0.1925  0.3801 -0.0212
 8370SOL    HW136569   2.123   0.154   6.598 -1.5802  2.1562  0.2442
 8370SOL    HW236570   1.983   0.142   6.648  1.0987  3.2812  0.1006
 8371SOL     OW36571   4.604   4.630  13.158  0.1707  0.1198 -0.1133
 8371SOL    HW136572   4.637   4.643  13.069 -0.1470 -0.0664 -0.2598
 8371SOL    HW236573   4.592   4.535  13.169  1.5528 -0.0459 -0.1066
 8372SOL     OW36574   0.091   0.547   1.021 -0.0400 -0.6897  0.2903
 8372SOL    HW136575   0.021   0.611   1.035 -0.1720 -0.6069 -0.7752
 8372SOL    HW236576   0.150   0.576   0.952  1.4995 -0.9763  1.4776
 8373SOL     OW36577   1.971   0.605  13.371  0.2238  0.1341 -0.0992
 8373SOL    HW136578   1.910   0.679  13.373 -0.7887 -0.6993 -0.2871
 8373SOL    HW236579   2.049   0.641  13.414 -0.2677 -0.1591  1.0454
 8374SOL     OW36580   3.553   0.970   5.054 -0.4457  0.4074 -0.3465
 8374SOL    HW136581   3.615   1.011   4.993 -0.7742  0.5483 -0.5893
 8374SOL    HW236582   3.490   0.925   4.998  0.7654 -1.3230 -0.3171
 8375SOL     OW36583   3.153   0.126   5.911  0.0918  0.3338  0.0948
 8375SOL    HW136584   3.130   0.213   5.941 -1.6906 -0.6586  1.6145
 8375SOL    HW236585   3.109   0.119   5.827 -0.0178 -0.3672  0.2063
 8376SOL     OW36586   3.371   2.732  15.916 -0.1763 -0.1649  0.1684
 8376SOL    HW136587   3.309   2.760  15.847  0.3162  2.2249  0.6942
 8376SOL    HW236588   3.418   2.814  15.932  1.5807 -1.4131  1.2919
 8377SOL     OW36589   0.003   2.955   2.775  0.1195  0.2085 -0.2392
 8377SOL    HW136590   0.069   2.904   2.822  1.0753  0.6673 -1.0562
 8377SOL    HW236591   4.654   2.892   2.770  0.8718 -0.7669  1.3763
 8378SOL     OW36592   1.070   1.159  10.619  0.2666  0.0984 -0.1117
 8378SOL    HW136593   1.070   1.169  10.524 -1.2793  2.6597  0.1576
 8378SOL    HW236594   1.119   1.239  10.636  0.5176  0.2351 -1.4912
 8379SOL     OW36595   4.547   4.309   4.104  0.1716  0.2361  0.3208
 8379SOL    HW136596   4.533   4.404   4.114  0.3337  0.3347 -0.3601
 8379SOL    HW236597   4.469   4.280   4.152 -0.2176  1.2821  0.3350
 8380SOL     OW36598   3.936   1.921   8.040 -0.3618  0.4007  0.8745
 8380SOL    HW136599   3.992   1.917   8.118  3.1669  0.2849 -1.7080
 8380SOL    HW236600   4.003   1.901   7.975 -1.2447 -2.2084  0.7698
 8381SOL     OW36601   2.017   2.199   6.245  0.0732  0.2751 -0.3173
 8381SOL    HW136602   1.946   2.236   6.297  0.5968  2.3164 -1.0398
 8381SOL    HW236603   2.082   2.269   6.252 -0.2541  0.2493  2.8549
 8382SOL     OW36604   3.387   4.524   2.724  0.6600  0.4893 -0.1728
 8382SOL    HW136605   3.361   4.502   2.814 -0.1476 -0.0862 -0.5485
 8382SOL    HW236606   3.305   4.561   2.690  0.6036  0.8627  0.3577
 8383SOL     OW36607   0.579   4.677  12.380 -0.0243  0.4969 -0.5033
 8383SOL    HW136608   0.612   4.628  12.304  1.1546  0.0007  0.3426
 8383SOL    HW236609   0.546   0.038  12.347 -1.0599  0.3645  0.1915
 8384SOL     OW36610   0.193   3.322   1.010 -0.0517  0.6042 -0.2589
 8384SOL    HW136611   0.149   3.264   0.948  1.5741 -1.9808  1.0573
 8384SOL    HW236612   0.148   3.405   0.991 -1.1663  0.3313  1.2145
 8385SOL     OW36613   3.151   4.207   4.157  0.2274 -0.1228 -0.3513
 8385SOL    HW136614   3.228   4.216   4.213 -0.3272 -1.3382  0.6073
 8385SOL    HW236615   3.194   4.153   4.091 -1.4621 -2.9947  0.8483
 8386SOL     OW36616   2.631   4.381   2.660 -0.0466  0.2482  0.1405
 8386SOL    HW136617   2.551   4.429   2.643  0.1316 -0.8198 -3.6015
 8386SOL    HW236618   2.608   4.302   2.612 -1.5142  0.3421  0.6883
 8387SOL     OW36619   0.594   2.400  13.460  0.1046  0.5288  0.5717
 8387SOL    HW136620   0.561   2.311  13.470 -1.1324  1.1291  1.8465
 8387SOL    HW236621   0.508   2.437  13.482 -0.2178 -0.4318  0.9294
 8388SOL     OW36622   2.327   1.085   6.725 -0.7241  0.7510 -0.1552
 8388SOL    HW136623   2.335   1.017   6.793 -0.3431  0.4800 -0.4682
 8388SOL    HW236624   2.414   1.081   6.686  0.3151  0.2080  2.2082
 8389SOL     OW36625   0.104   0.724   8.916  0.2678  0.0403 -0.1591
 8389SOL    HW136626   0.080   0.746   8.826 -0.2297  3.5238  0.8296
 8389SOL    HW236627   0.053   0.647   8.941  0.9592 -0.4487 -0.2474
 8390SOL     OW36628   1.063   3.063  14.687  0.0778 -0.5939  0.9511
 8390SOL    HW136629   0.988   3.108  14.725  1.4347  0.9541  1.7979
 8390SOL    HW236630   1.049   2.974  14.720  0.2747 -1.1177 -0.3810
 8391SOL     OW36631   3.587   0.385   0.612 -0.1265  0.1880 -0.0420
 8391SOL    HW136632   3.665   0.397   0.557  0.4676 -1.2224  0.4964
 8391SOL    HW236633   3.542   0.308   0.579 -2.5931  1.7384 -0.3481
 8392SOL     OW36634   1.257   4.476  16.583 -0.0527  0.4436 -0.0952
 8392SOL    HW136635   1.291   4.514  16.665  0.8099 -1.4570  0.4217
 8392SOL    HW236636   1.332   4.461  16.526  0.0206  0.8966 -0.1205
 8393SOL     OW36637   3.354   1.060   1.175 -0.0997 -0.5580 -0.6346
 8393SOL    HW136638   3.335   1.147   1.141  0.6436 -0.6376 -1.2612
 8393SOL    HW236639   3.329   0.997   1.108  1.5872 -1.4996 -0.3834
 8394SOL     OW36640   2.460   0.112   8.749  0.1939 -0.0775 -0.1236
 8394SOL    HW136641   2.426   0.142   8.665 -2.2992  0.3013  1.0140
 8394SOL    HW236642   2.484   0.025   8.716  2.6588  0.2818  0.7877
 8395SOL     OW36643   2.806   2.942   7.338  0.8206  0.3541  0.4313
 8395SOL    HW136644   2.826   2.991   7.418  0.9375 -0.0613  0.6553
 8395SOL    HW236645   2.793   2.850   7.362  1.6296 -0.7391 -3.3114
 8396SOL     OW36646   2.219   4.139  10.549  0.2414 -0.0902  0.4078
 8396SOL    HW136647   2.190   4.230  10.549  0.6033  0.0273 -0.5580
 8396SOL    HW236648   2.305   4.162  10.583  0.0377 -0.1591  0.9699
 8397SOL     OW36649   1.904   1.443   7.910  0.1676  0.3012 -0.7890
 8397SOL    HW136650   1.816   1.405   7.915 -0.0416  0.8546 -0.3611
 8397SOL    HW236651   1.938   1.420   7.997 -0.0760 -0.8203 -0.9867
 8398SOL     OW36652   4.565   0.608   0.055  0.0699  0.2835  0.3606
 8398SOL    HW136653   4.507   0.675   0.091  0.7477  0.5047  1.0467
 8398SOL    HW236654   4.608   0.577   0.135 -0.3327  0.1747  0.5394
 8399SOL     OW36655   2.858   2.996  16.177  0.1751 -0.4106  0.1827
 8399SOL    HW136656   2.854   2.901  16.182 -1.3401 -0.3645 -0.2910
 8399SOL    HW236657   2.806   3.018  16.254  1.0161  0.6172  0.4579
 8400SOL     OW36658   1.550   3.624   6.099 -0.5267  0.0713 -0.3130
 8400SOL    HW136659   1.480   3.688   6.085 -0.8579 -0.8838 -3.0339
 8400SOL    HW236660   1.619   3.673   6.143 -1.7105  0.6419  0.9268
 8401SOL     OW36661   2.344   4.587   4.343  0.2606  0.5105  0.2302
 8401SOL    HW136662   2.309   4.602   4.430 -1.4756  3.1839 -0.9346
 8401SOL    HW236663   2.368   4.677   4.320 -1.4012  1.2203  1.3295
 8402SOL     OW36664   4.356   2.767   8.483  0.0340  0.2063 -1.0638
 8402SOL    HW136665   4.396   2.786   8.398  1.4635  1.4276 -0.1005
 8402SOL    HW236666   4.421   2.704   8.516 -2.1416 -0.5064  1.8407
 8403SOL     OW36667   0.008   0.875   8.692 -0.0899 -0.0249  0.1761
 8403SOL    HW136668   4.657   0.909   8.640 -0.8169 -1.7762  0.0665
 8403SOL    HW236669   0.079   0.863   8.628  0.3772  0.1089  0.6668
 8404SOL     OW36670   1.409   2.422   8.943  0.5947  0.2469 -0.6366
 8404SOL    HW136671   1.322   2.386   8.924  0.0518  0.7662  0.8815
 8404SOL    HW236672   1.471   2.380   8.884 -0.3446 -3.3582  0.9101
 8405SOL     OW36673   3.673   3.049   9.730  0.3960  0.3032  0.6953
 8405SOL    HW136674   3.586   3.026   9.763  0.6957 -0.5485  0.9050
 8405SOL    HW236675   3.669   3.033   9.635  0.1269  0.2457  0.7158
 8406SOL     OW36676   3.466   0.834  15.693  0.3981  0.1864 -0.3788
 8406SOL    HW136677   3.425   0.900  15.636 -0.4826 -0.0475 -0.0234
 8406SOL    HW236678   3.523   0.787  15.632 -2.1660 -1.0260 -1.8666
 8407SOL     OW36679   3.579   0.114  12.095 -0.4549  0.0499 -0.8072
 8407SOL    HW136680   3.513   0.078  12.155  0.1125  1.4478  0.6531
 8407SOL    HW236681   3.617   0.187  12.144 -2.0356  1.0929 -1.1176
 8408SOL     OW36682   4.164   3.591   7.531  0.3795 -0.2668 -0.0977
 8408SOL    HW136683   4.220   3.598   7.608  0.2447 -1.2264  0.0884
 8408SOL    HW236684   4.231   3.619   7.468 -0.2786  1.2257 -0.1353
 8409SOL     OW36685   2.652   4.606   6.975 -0.3649 -0.0784 -0.2384
 8409SOL    HW136686   2.726   4.571   6.925 -0.4976 -1.3604  0.4681
 8409SOL    HW236687   2.615   4.523   7.004  0.8080 -0.5778 -0.1481
 8410SOL     OW36688   0.894   3.338   9.888  0.0544 -0.3284  0.1501
 8410SOL    HW136689   0.803   3.348   9.916  0.3956 -0.8900  1.4527
 8410SOL    HW236690   0.941   3.325   9.970 -1.3775  0.8066  1.1555
 8411SOL     OW36691   1.192   0.592   4.037  0.3051 -0.3955  0.1356
 8411SOL    HW136692   1.274   0.544   4.029 -0.0050 -0.5823 -1.7224
 8411SOL    HW236693   1.230   0.672   4.073 -1.1107  0.1833  0.3531
 8412SOL     OW36694   0.589   0.418   6.353  0.0225  0.2985  0.2020
 8412SOL    HW136695   0.512   0.388   6.304 -1.1213 -0.3713  2.4135
 8412SOL    HW236696   0.639   0.338   6.367 -1.6401 -1.0148 -1.3337
 8413SOL     OW36697   2.769   0.488   6.918  0.5340 -0.2077 -0.5197
 8413SOL    HW136698   2.813   0.534   6.846  1.7376 -0.2541  0.1977
 8413SOL    HW236699   2.782   0.400   6.883  0.5743 -0.0492 -0.9026
 8414SOL     OW36700   3.118   0.970  16.375 -0.3164 -0.6200 -0.2799
 8414SOL    HW136701   3.095   0.994  16.465 -1.5146 -1.0442 -0.4753
 8414SOL    HW236702   3.186   0.905  16.393 -0.3828 -0.5870  0.0754
 8415SOL     OW36703   1.763   2.706   3.173  0.0557  0.3117 -0.3153
 8415SOL    HW136704   1.765   2.799   3.192  2.7571  0.0423  0.7973
 8415SOL    HW236705   1.827   2.700   3.102  2.5797  0.4672  1.9377
 8416SOL     OW36706   3.576   0.592   3.219  0.3190 -0.6255 -0.0254
 8416SOL    HW136707   3.538   0.504   3.229 -1.2603  0.3124  2.3143
 8416SOL    HW236708   3.668   0.570   3.230  0.6372  1.2693  0.9017
 8417SOL     OW36709   1.033   1.717  16.217  0.7878  0.1887  0.0614
 8417SOL    HW136710   1.024   1.645  16.280 -0.9467  1.2651  1.0496
 8417SOL    HW236711   1.128   1.726  16.215  0.7578  0.3409 -0.8243
 8418SOL     OW36712   1.563   1.433   5.099 -0.0532 -0.7014 -0.1855
 8418SOL    HW136713   1.549   1.446   5.192 -0.7061 -0.2608 -0.3462
 8418SOL    HW236714   1.607   1.348   5.100  1.6821  0.1943 -0.0876
 8419SOL     OW36715   4.335   0.954   7.925 -0.1144 -0.3638 -0.0349
 8419SOL    HW136716   4.287   1.032   7.899  0.2604 -0.5365 -1.2929
 8419SOL    HW236717   4.306   0.938   8.015 -2.2701 -0.4087 -0.7326
 8420SOL     OW36718   3.994   2.161  16.582 -0.1215  0.3102 -0.2642
 8420SOL    HW136719   4.090   2.163  16.575 -0.1455 -1.6173 -1.0445
 8420SOL    HW236720   3.979   2.255  16.591 -1.3193  0.0675  0.2649
 8421SOL     OW36721   3.976   0.398  12.153  0.1446  0.1836 -0.5414
 8421SOL    HW136722   3.986   0.323  12.213 -1.6207 -1.0874 -1.8250
 8421SOL    HW236723   4.069   0.418  12.147  0.2955 -1.4439 -3.4906
 8422SOL     OW36724   1.808   1.384  11.997 -0.2547  0.3669 -0.2870
 8422SOL    HW136725   1.825   1.326  12.070  1.0177  0.6459 -0.3716
 8422SOL    HW236726   1.816   1.322  11.924  1.0631 -0.9280  0.9788
 8423SOL     OW36727   2.850   1.753   0.403 -0.0858 -0.0051 -0.0914
 8423SOL    HW136728   2.932   1.704   0.396  0.5052  1.1832 -1.4139
 8423SOL    HW236729   2.827   1.757   0.311 -1.5888 -0.1260  0.2752
 8424SOL     OW36730   2.065   1.984   7.540  0.0352  1.2119  0.2616
 8424SOL    HW136731   2.149   2.026   7.522  1.8222 -2.2417  0.4999
 8424SOL    HW236732   2.006   2.036   7.486  0.5928  1.1955 -0.3760
 8425SOL     OW36733   4.413   4.422   6.670 -0.0696 -0.2377 -0.2731
 8425SOL    HW136734   4.430   4.395   6.580  0.2092 -1.2479  0.0794
 8425SOL    HW236735   4.498   4.456   6.698 -0.5999  1.7130 -1.0497
 8426SOL     OW36736   3.706   1.798   3.135 -0.2336 -0.4927 -0.1765
 8426SOL    HW136737   3.749   1.853   3.200  0.2781 -1.2780  0.1493
 8426SOL    HW236738   3.689   1.868   3.072 -1.4490 -1.7431 -1.2375
 8427SOL     OW36739   4.163   0.172  12.934  0.1263 -0.5350  0.4489
 8427SOL    HW136740   4.118   0.237  12.880  1.0266 -0.4704 -0.2275
 8427SOL    HW236741   4.199   0.111  12.870  1.1015  0.4489  0.0558
 8428SOL     OW36742   1.279   0.329   5.755  0.3879  0.1656 -0.1379
 8428SOL    HW136743   1.255   0.378   5.834 -1.0700 -0.2333 -0.3347
 8428SOL    HW236744   1.282   0.396   5.687 -1.6911  0.1852 -0.2011
 8429SOL     OW36745   0.101   3.134   4.989 -0.1280  0.4809 -0.4369
 8429SOL    HW136746   0.196   3.139   4.975 -0.4083  3.0985 -1.4309
 8429SOL    HW236747   0.073   3.216   4.948  0.6554  1.4937  1.0261
 8430SOL     OW36748   0.395   3.472   2.890 -0.5451  0.2028  0.0526
 8430SOL    HW136749   0.389   3.556   2.845 -2.5512 -0.0565 -0.1877
 8430SOL    HW236750   0.367   3.494   2.979  0.3242 -0.2328  0.4298
 8431SOL     OW36751   0.494   2.141  13.455  0.1520 -1.0306 -0.2102
 8431SOL    HW136752   0.560   2.074  13.436  2.3507  1.3769 -1.0637
 8431SOL    HW236753   0.434   2.089  13.509  0.5776 -1.4199 -0.1093
 8432SOL     OW36754   3.517   3.248  11.297 -0.5024 -0.2687 -0.5744
 8432SOL    HW136755   3.585   3.242  11.365 -0.8774  0.5390 -0.1340
 8432SOL    HW236756   3.557   3.318  11.245 -1.5318 -0.4719 -1.6182
 8433SOL     OW36757   1.555   0.584  11.254  0.4017  0.0414  0.5776
 8433SOL    HW136758   1.463   0.607  11.246  0.6207  0.5185 -0.5419
 8433SOL    HW236759   1.598   0.669  11.261  0.3576  0.1005  0.1288
 8434SOL     OW36760   2.572   1.753   5.675 -0.2616  0.0793 -0.3656
 8434SOL    HW136761   2.561   1.752   5.770  0.8918 -0.3935 -0.2435
 8434SOL    HW236762   2.489   1.786   5.641  0.6607  0.5084 -2.2068
 8435SOL     OW36763   2.108   2.140   2.206 -0.4258  0.4770  0.4022
 8435SOL    HW136764   2.070   2.106   2.125  0.8932 -1.7116  0.7138
 8435SOL    HW236765   2.147   2.220   2.172 -1.4856  0.8285 -0.0034
 8436SOL     OW36766   3.212   0.894   5.248  0.1861 -0.2895  0.3650
 8436SOL    HW136767   3.173   0.876   5.333 -0.4309 -0.7711 -0.0227
 8436SOL    HW236768   3.131   0.925   5.207  1.6523  1.9369 -0.8717
 8437SOL     OW36769   0.361   3.126   8.082  0.0660  0.5635  0.2427
 8437SOL    HW136770   0.300   3.170   8.141 -2.0205 -0.7111 -0.9908
 8437SOL    HW236771   0.394   3.206   8.040  1.9760 -1.1599 -1.5529
 8438SOL     OW36772   1.958   0.404   7.626  0.3785 -0.4876 -0.2423
 8438SOL    HW136773   1.954   0.479   7.684  1.5006  0.7832 -1.7923
 8438SOL    HW236774   1.918   0.344   7.689 -0.0980  1.7456  1.5270
 8439SOL     OW36775   0.878   0.077   9.658  0.5165 -0.1407 -0.2766
 8439SOL    HW136776   0.924   4.715   9.651 -1.0800 -0.9824 -0.6227
 8439SOL    HW236777   0.791   0.047   9.631  0.0101  0.5743  0.5805
 8440SOL     OW36778   1.292   4.667   3.941  0.1741 -0.1756  0.4486
 8440SOL    HW136779   1.263   0.019   3.994  0.5327  1.8714 -2.2466
 8440SOL    HW236780   1.281   4.596   4.005  0.4706 -0.4638  0.1807
 8441SOL     OW36781   3.039   3.115   6.865 -0.3546  0.0217  0.6753
 8441SOL    HW136782   3.071   3.153   6.948  0.9961  1.1495 -0.3537
 8441SOL    HW236783   2.948   3.087   6.873  0.1689 -1.8193  0.2912
 8442SOL     OW36784   0.478   0.664  17.197  0.2822 -0.0711  0.0517
 8442SOL    HW136785   0.402   0.609  17.179 -0.9273  1.6753 -0.1505
 8442SOL    HW236786   0.446   0.711  17.274 -0.2018  1.0984 -0.8767
 8443SOL     OW36787   2.137   1.785   8.459 -0.0336 -0.3958  0.3932
 8443SOL    HW136788   2.129   1.792   8.554 -1.3795 -3.4615  0.5173
 8443SOL    HW236789   2.194   1.708   8.451 -0.7242 -0.9947  1.2306
 8444SOL     OW36790   0.127   2.903   4.691 -0.5951  0.4225 -0.2507
 8444SOL    HW136791   0.051   2.854   4.662 -0.3101 -0.5569  0.6630
 8444SOL    HW236792   0.129   2.968   4.621  2.5917  1.1174  0.4768
 8445SOL     OW36793   3.607   0.562   7.957 -0.7918 -0.5024  0.4678
 8445SOL    HW136794   3.562   0.639   7.922  0.5246  0.0060 -0.0963
 8445SOL    HW236795   3.613   0.507   7.878 -0.5574 -0.7585  0.6623
 8446SOL     OW36796   1.479   2.932   8.444  0.8065  0.7661 -0.9283
 8446SOL    HW136797   1.515   2.864   8.502 -1.7861 -0.2156 -0.4675
 8446SOL    HW236798   1.463   2.878   8.367  0.4705 -0.3916 -0.0549
 8447SOL     OW36799   2.227   0.633   8.955  0.0905 -0.6494 -0.1291
 8447SOL    HW136800   2.143   0.679   8.952  0.2663 -0.4230 -1.3073
 8447SOL    HW236801   2.259   0.676   8.876  0.7826  0.1439  0.5742
 8448SOL     OW36802   1.891   1.486   2.880 -0.1646  0.2626  0.4565
 8448SOL    HW136803   1.797   1.490   2.860  0.1137  1.3948 -0.6030
 8448SOL    HW236804   1.882   1.527   2.966 -0.8904  1.3324 -0.1278
 8449SOL     OW36805   4.463   1.651   2.861 -0.2341 -0.0538 -0.3099
 8449SOL    HW136806   4.490   1.742   2.875 -0.3623  0.1786 -1.6180
 8449SOL    HW236807   4.371   1.658   2.836 -0.4471  1.3984  0.8751
 8450SOL     OW36808   1.893   3.254   8.266 -0.8794  0.3310 -0.2691
 8450SOL    HW136809   1.830   3.242   8.194  2.2595  2.7977 -3.4549
 8450SOL    HW236810   1.970   3.204   8.240 -1.5953 -0.4292 -0.9208
 8451SOL     OW36811   3.653   1.013   4.154  0.4122  0.4105 -0.5077
 8451SOL    HW136812   3.585   0.945   4.151 -0.3292  1.0401  1.9481
 8451SOL    HW236813   3.723   0.983   4.096  0.3533  1.1927 -0.9791
 8452SOL     OW36814   0.515   1.617  16.632  0.2878  0.3071 -0.0688
 8452SOL    HW136815   0.596   1.621  16.581  1.3790 -0.5712  1.6048
 8452SOL    HW236816   0.462   1.691  16.602 -0.0870 -0.2527 -0.7885
 8453SOL     OW36817   2.814   4.285   1.966  0.1143 -0.3213  0.2691
 8453SOL    HW136818   2.884   4.292   2.031  0.2602  1.7973 -0.1284
 8453SOL    HW236819   2.741   4.343   1.988 -0.2205 -0.7122  0.1963
 8454SOL     OW36820   0.406   2.319   1.198  0.0134 -0.0444  0.2355
 8454SOL    HW136821   0.410   2.408   1.163 -2.4885  0.7477  1.9854
 8454SOL    HW236822   0.314   2.307   1.220  0.1377 -0.7389  0.3871
 8455SOL     OW36823   3.389   1.738  17.264 -0.0354 -0.4570  0.3197
 8455SOL    HW136824   3.467   1.771  17.220 -1.0978  0.4455 -0.8947
 8455SOL    HW236825   3.401   1.784  17.346 -2.6522 -1.9510  1.5411
 8456SOL     OW36826   3.523   4.512   5.174  0.0495 -0.5609 -0.1879
 8456SOL    HW136827   3.463   4.438   5.188 -1.2728  0.3670 -0.9832
 8456SOL    HW236828   3.597   4.493   5.232  0.4485  0.6416 -0.3092
 8457SOL     OW36829   2.658   2.038   7.972  0.4151 -0.4206  0.1007
 8457SOL    HW136830   2.603   1.964   7.998 -0.8889  0.4752 -0.0462
 8457SOL    HW236831   2.680   2.013   7.882  1.6726 -0.8909  0.5432
 8458SOL     OW36832   1.360   2.085   4.805  0.4478  0.3021  0.6039
 8458SOL    HW136833   1.361   1.996   4.770  3.8424  0.3088  0.6739
 8458SOL    HW236834   1.323   2.136   4.733  0.3446 -0.3367  0.2083
 8459SOL     OW36835   2.384   2.568   3.300  0.8477  0.3486 -0.1924
 8459SOL    HW136836   2.344   2.614   3.226  1.6499  0.1149 -0.7705
 8459SOL    HW236837   2.392   2.638   3.365  0.4246 -1.5867  1.9458
 8460SOL     OW36838   3.932   2.015  17.637 -0.0152 -0.1152 -0.0060
 8460SOL    HW136839   3.918   2.105  17.667  0.8879 -0.8172  2.5674
 8460SOL    HW236840   3.855   2.000  17.583  2.8674 -1.2971 -3.7679
 8461SOL     OW36841   2.272   2.412  11.798  0.2890  0.2057 -0.6227
 8461SOL    HW136842   2.344   2.380  11.743  1.1262  3.1871 -1.2453
 8461SOL    HW236843   2.318   2.468  11.861  0.1567 -0.1014 -0.2543
 8462SOL     OW36844   0.093   4.255   6.467 -0.0560  0.1068  0.0493
 8462SOL    HW136845   0.157   4.218   6.527  2.0827  0.9496 -1.7111
 8462SOL    HW236846   0.010   4.253   6.514 -0.1007 -1.3705 -0.0808
 8463SOL     OW36847   0.928   3.937  12.957 -0.2184  0.1699 -0.2036
 8463SOL    HW136848   0.899   3.848  12.936 -1.4717  0.5246  0.0069
 8463SOL    HW236849   0.988   3.941  12.882 -0.3924  0.3083 -0.3334
 8464SOL     OW36850   4.113   2.376   9.103 -0.3503 -0.2035  0.1363
 8464SOL    HW136851   4.191   2.340   9.061  0.9733 -0.0895  2.5232
 8464SOL    HW236852   4.069   2.291   9.112  0.0357 -0.5344 -1.1398
 8465SOL     OW36853   3.338   3.123  15.931  0.7603  0.0687 -0.1219
 8465SOL    HW136854   3.393   3.201  15.930 -0.7737  1.0991 -2.4152
 8465SOL    HW236855   3.302   3.125  16.019  2.0747  2.0461  0.3754
 8466SOL     OW36856   1.691   3.169  14.781 -0.3693  0.4544 -0.5687
 8466SOL    HW136857   1.601   3.173  14.814 -0.4211  2.8182 -0.9937
 8466SOL    HW236858   1.698   3.073  14.785 -2.8489  0.4427  3.1101
 8467SOL     OW36859   0.584   4.020   4.442 -0.7359 -0.1775  0.1944
 8467SOL    HW136860   0.537   4.086   4.391 -4.7301 -2.1936  1.2757
 8467SOL    HW236861   0.545   3.946   4.394 -0.3858  1.3017 -2.4169
 8468SOL     OW36862   4.619   3.936   8.626  0.5760 -0.0021  0.0244
 8468SOL    HW136863   4.528   3.947   8.597  0.0819 -1.5410  0.9534
 8468SOL    HW236864   4.630   3.841   8.619 -1.3566 -0.4042  2.4918
 8469SOL     OW36865   2.422   3.828   1.754  0.4139 -0.1240 -0.1412
 8469SOL    HW136866   2.356   3.829   1.685  0.7528 -0.7661 -0.4772
 8469SOL    HW236867   2.368   3.827   1.833  1.0939 -1.7891  0.3124
 8470SOL     OW36868   3.752   2.369   3.873  0.2601 -0.4345 -0.4313
 8470SOL    HW136869   3.751   2.333   3.784 -0.4879 -1.5893  0.0414
 8470SOL    HW236870   3.830   2.424   3.878  1.3813 -1.8195 -2.8445
 8471SOL     OW36871   3.369   1.415   7.438 -0.0071 -0.2299 -0.0884
 8471SOL    HW136872   3.391   1.486   7.499  0.1004 -1.3026  1.1184
 8471SOL    HW236873   3.452   1.367   7.439 -1.1871 -2.2754 -1.0251
 8472SOL     OW36874   0.117   2.426   3.088  0.6153  0.6582 -0.2845
 8472SOL    HW136875   0.138   2.480   3.165 -0.8225  0.9540 -0.0972
 8472SOL    HW236876   0.174   2.468   3.024  0.4123 -0.1822 -1.0022
 8473SOL     OW36877   0.457   1.966   3.140 -0.3111 -0.3154  0.0686
 8473SOL    HW136878   0.526   1.977   3.076  1.4864  0.4927  2.1586
 8473SOL    HW236879   0.446   2.055   3.172 -0.8338 -1.0397  1.9360
 8474SOL     OW36880   0.346   1.750  15.301 -0.0620 -0.4080  0.9483
 8474SOL    HW136881   0.324   1.766  15.209  0.6784 -0.8028  0.7020
 8474SOL    HW236882   0.437   1.723  15.293 -0.1603  0.0641 -1.8254
 8475SOL     OW36883   0.413   0.685   5.918 -0.0871 -0.4189  0.0021
 8475SOL    HW136884   0.344   0.726   5.866 -1.2619 -0.9656  1.1234
 8475SOL    HW236885   0.369   0.701   6.001  0.3678  1.9829 -0.2109
 8476SOL     OW36886   3.232   1.557   0.853  0.1034  0.4017  0.4701
 8476SOL    HW136887   3.211   1.647   0.878  0.4925  0.6724 -0.1694
 8476SOL    HW236888   3.143   1.522   0.862  0.6827  0.0844  4.9833
 8477SOL     OW36889   4.069   3.418  14.556 -0.3982  0.0562 -0.3215
 8477SOL    HW136890   4.157   3.453  14.567 -0.5344  0.2297  0.2087
 8477SOL    HW236891   4.068   3.394  14.463  0.1673 -0.7544 -0.1175
 8478SOL     OW36892   1.814   4.327   8.035  0.1457 -0.0378 -0.5257
 8478SOL    HW136893   1.771   4.267   8.097 -0.1236  0.6440 -0.0512
 8478SOL    HW236894   1.763   4.305   7.957  2.0587 -1.7192 -1.2980
 8479SOL     OW36895   2.667   3.551  10.406 -0.3507  0.3829 -0.1450
 8479SOL    HW136896   2.736   3.485  10.399 -0.0189  0.6319  0.7909
 8479SOL    HW236897   2.640   3.552  10.314 -1.8185 -1.1339  0.2720
 8480SOL     OW36898   4.267   1.312  16.277  0.2874  0.3039  0.2687
 8480SOL    HW136899   4.191   1.367  16.260  0.7599  0.1934 -2.2262
 8480SOL    HW236900   4.313   1.367  16.341  2.2691 -1.4278  0.3491
 8481SOL     OW36901   1.179   2.419   4.396 -0.0237  0.2997  0.4701
 8481SOL    HW136902   1.179   2.500   4.345  0.9107 -0.9075 -1.4535
 8481SOL    HW236903   1.256   2.380   4.355  0.9131  0.2384  2.3013
 8482SOL     OW36904   1.235   4.358   4.382 -0.0304 -0.4791  0.1238
 8482SOL    HW136905   1.271   4.282   4.427  0.5533 -0.1752  0.1730
 8482SOL    HW236906   1.143   4.334   4.369 -0.0136 -0.4683 -0.0178
 8483SOL     OW36907   3.536   1.434   8.718 -0.5070 -0.1204  0.2255
 8483SOL    HW136908   3.538   1.354   8.665 -0.5394  1.4653 -2.1451
 8483SOL    HW236909   3.459   1.417   8.772  0.9345 -0.3530  2.2038
 8484SOL     OW36910   0.632   3.760   6.972  0.7587  0.0131 -0.0158
 8484SOL    HW136911   0.629   3.817   6.895 -0.9855 -0.5938 -0.3972
 8484SOL    HW236912   0.563   3.699   6.945 -0.0283  1.1971 -0.6604
 8485SOL     OW36913   3.908   1.620   0.955  0.0513 -0.3149  0.2120
 8485SOL    HW136914   3.881   1.680   0.885 -0.4165 -0.5713  0.1711
 8485SOL    HW236915   3.975   1.571   0.908  0.3597 -1.2494  1.6322
 8486SOL     OW36916   0.647   1.823  17.646 -0.2841  1.0452  0.2528
 8486SOL    HW136917   0.600   1.851  17.568  3.2324  3.9123 -0.8318
 8486SOL    HW236918   0.715   1.890  17.651  1.9379 -1.2717  1.6607
 8487SOL     OW36919   1.812   0.971   3.156 -0.5278 -0.0644 -1.2604
 8487SOL    HW136920   1.862   0.911   3.211 -0.0049  2.1381  0.6547
 8487SOL    HW236921   1.846   1.055   3.186  2.3886 -2.1366  1.2038
 8488SOL     OW36922   2.098   1.824  13.978 -0.5627 -0.3692 -0.0133
 8488SOL    HW136923   2.078   1.914  14.006  1.8087 -0.4402  1.9080
 8488SOL    HW236924   2.181   1.803  14.020 -0.2124  1.4567  0.2197
 8489SOL     OW36925   0.774   2.361   8.889  0.0441 -0.4925 -0.3686
 8489SOL    HW136926   0.683   2.367   8.860  0.0859  0.0127 -0.3891
 8489SOL    HW236927   0.766   2.393   8.979 -3.1521 -0.3509 -0.6759
 8490SOL     OW36928   1.422   0.476   0.992 -0.0868  0.6712  0.1936
 8490SOL    HW136929   1.371   0.511   1.065 -0.4085  1.7872 -0.5746
 8490SOL    HW236930   1.505   0.473   1.040 -0.6227  0.2944  1.1053
 8491SOL     OW36931   1.577   1.840   2.489  0.0965  0.4823  0.7355
 8491SOL    HW136932   1.544   1.760   2.530  2.0897 -1.1122 -0.7969
 8491SOL    HW236933   1.525   1.832   2.409  0.1158 -1.3590  0.9230
 8492SOL     OW36934   0.831   4.082  11.871  0.0939 -0.0543  0.0378
 8492SOL    HW136935   0.849   4.165  11.826  1.0640  0.0932  0.7038
 8492SOL    HW236936   0.889   4.100  11.945 -0.2041  1.5302 -0.1267
 8493SOL     OW36937   2.532   2.366   4.235  0.2952  0.1749  0.2632
 8493SOL    HW136938   2.593   2.440   4.243  0.4612 -0.3456  3.8153
 8493SOL    HW236939   2.475   2.383   4.160  1.4339  0.5092 -0.5376
 8494SOL     OW36940   2.683   1.556   5.021 -0.0495 -0.6055  0.2858
 8494SOL    HW136941   2.662   1.642   5.058  0.4063 -0.8635  1.1430
 8494SOL    HW236942   2.595   1.518   5.020 -0.1144 -0.4550  0.1711
 8495SOL     OW36943   2.969   0.265   4.679 -0.0214 -0.0989 -0.0309
 8495SOL    HW136944   2.885   0.230   4.649  0.1058  0.4592 -1.0716
 8495SOL    HW236945   2.975   0.346   4.627 -0.9409  1.3154  2.0957
 8496SOL     OW36946   2.787   0.658   5.328  0.0383 -0.4107  0.2505
 8496SOL    HW136947   2.817   0.688   5.413  1.2247  0.0165 -0.3112
 8496SOL    HW236948   2.767   0.742   5.287  0.0858 -0.5481 -0.0579
 8497SOL     OW36949   0.827   2.207   7.058  0.1975  0.4419 -0.2295
 8497SOL    HW136950   0.776   2.181   6.981 -0.3083  0.5176  0.0801
 8497SOL    HW236951   0.891   2.259   7.009 -0.2557  2.3126  1.1575
 8498SOL     OW36952   0.539   2.833   6.182  0.1578 -0.7939  0.0457
 8498SOL    HW136953   0.524   2.880   6.100  2.4719 -1.1358 -0.5474
 8498SOL    HW236954   0.488   2.895   6.234 -0.3490 -0.7804 -0.4586
 8499SOL     OW36955   3.949   4.260   8.081 -0.1799  0.3537 -0.4048
 8499SOL    HW136956   4.010   4.294   8.015 -0.3064  4.1036  1.4630
 8499SOL    HW236957   3.879   4.325   8.083  0.3886  0.9976 -1.0694
 8500SOL     OW36958   0.961   3.137   3.237  0.0636 -0.2840 -0.0551
 8500SOL    HW136959   1.042   3.168   3.278 -0.4202  0.2767  0.4554
 8500SOL    HW236960   0.981   3.155   3.145 -0.2148  0.2400 -0.0089
 8501SOL     OW36961   4.231   2.542   3.794  0.4012  0.0842 -0.1730
 8501SOL    HW136962   4.315   2.497   3.782  1.7613  2.3744  0.8549
 8501SOL    HW236963   4.230   2.555   3.889 -0.5567  2.2977 -0.5042
 8502SOL     OW36964   4.597   3.147   3.813  0.3647  0.4221 -0.1014
 8502SOL    HW136965   4.550   3.228   3.834 -1.0460 -0.8094  1.5062
 8502SOL    HW236966   4.558   3.134   3.727 -0.9727  0.1670  0.5437
 8503SOL     OW36967   4.621   4.307   7.459 -0.3200 -0.5867 -0.2683
 8503SOL    HW136968   4.640   4.333   7.369 -0.3449  0.4228  0.0174
 8503SOL    HW236969   4.533   4.342   7.469 -0.1485 -0.1211 -0.3824
 8504SOL     OW36970   1.808   3.469   2.481  0.2373 -0.2985 -0.3962
 8504SOL    HW136971   1.758   3.453   2.401  2.0995  0.4372 -1.7063
 8504SOL    HW236972   1.750   3.527   2.528  2.8175 -0.0635  2.5016
 8505SOL     OW36973   4.304   1.718   4.476 -0.0057 -0.1291 -0.3821
 8505SOL    HW136974   4.270   1.661   4.408  1.5084  0.0514 -1.2744
 8505SOL    HW236975   4.319   1.798   4.425  3.0087 -1.3809 -1.4491
 8506SOL     OW36976   2.222   1.504   9.948 -0.1756  0.7936  0.5766
 8506SOL    HW136977   2.239   1.528  10.039 -1.7325 -0.9507  1.3442
 8506SOL    HW236978   2.136   1.463   9.957 -1.0484  2.2432 -1.0519
 8507SOL     OW36979   2.038   1.460  17.679 -0.4729  0.3880 -0.6000
 8507SOL    HW136980   2.059   1.491  17.591 -0.6758 -0.5528 -0.9843
 8507SOL    HW236981   1.949   1.427  17.665 -0.7632  1.2404 -0.7610
 8508SOL     OW36982   4.271   0.338  13.122  0.0159  0.0863 -0.0020
 8508SOL    HW136983   4.365   0.335  13.143 -0.2408  2.1130  1.4750
 8508SOL    HW236984   4.258   0.274  13.052  1.8540  0.9837 -1.1855
 8509SOL     OW36985   4.372   3.518   1.935  0.3410 -0.2165  0.1745
 8509SOL    HW136986   4.428   3.576   1.986  0.6370 -1.5357  1.3645
 8509SOL    HW236987   4.285   3.554   1.951  0.3905  0.2966 -0.7571
 8510SOL     OW36988   1.156   2.723  11.226 -0.2414 -0.3890  0.0251
 8510SOL    HW136989   1.213   2.696  11.155  2.2256  0.3273  1.7386
 8510SOL    HW236990   1.220   2.776  11.274  0.2515  1.1783 -2.4087
 8511SOL     OW36991   0.900   1.627   3.682 -0.4039  0.1010 -0.6160
 8511SOL    HW136992   0.819   1.583   3.655 -2.0436  1.9992  1.1433
 8511SOL    HW236993   0.959   1.553   3.666  0.0921  0.7681 -1.9115
 8512SOL     OW36994   0.110   4.079  14.583  0.2870  0.2947  0.1111
 8512SOL    HW136995   0.042   4.146  14.572 -1.5088 -1.2725  1.8667
 8512SOL    HW236996   0.176   4.131  14.629  0.5777  1.0265 -1.1038
 8513SOL     OW36997   4.461   4.287   3.331 -0.4312  0.8061 -0.1327
 8513SOL    HW136998   4.383   4.233   3.319 -1.0183  1.7826 -0.7130
 8513SOL    HW236999   4.446   4.368   3.283 -2.0839  0.2250 -0.5858
 8514SOL     OW37000   0.822   3.078  13.034  0.2316 -0.0186  0.1504
 8514SOL    HW137001   0.913   3.075  13.065 -0.5339 -2.1691  2.0993
 8514SOL    HW237002   0.779   3.134  13.099  0.4727  0.3500 -0.0058
 8515SOL     OW37003   1.348   0.714   4.319  0.3561 -0.4326  0.4680
 8515SOL    HW137004   1.396   0.756   4.248 -0.2506 -2.1141 -0.9435
 8515SOL    HW237005   1.412   0.705   4.389  1.5009  0.1187 -0.5173
 8516SOL     OW37006   2.959   0.368  17.640  0.0844  0.3398  0.6617
 8516SOL    HW137007   3.003   0.408  17.565  1.0389  2.4995  2.3690
 8516SOL    HW237008   3.035   0.342  17.691 -1.6631 -0.2345  2.9674
 8517SOL     OW37009   1.637   0.166   7.131  0.0692 -0.2983 -0.0588
 8517SOL    HW137010   1.656   0.143   7.041  0.4134  1.2274 -0.3707
 8517SOL    HW237011   1.562   0.224   7.117  0.3211 -0.2242 -1.0845
 8518SOL     OW37012   4.208   1.043   8.842 -0.0807 -0.1469  0.1591
 8518SOL    HW137013   4.223   1.082   8.928 -0.3111 -0.7861  0.4870
 8518SOL    HW237014   4.292   1.045   8.795 -0.4743 -1.9583 -0.6208
 8519SOL     OW37015   1.548   1.622   4.521  0.1896  0.6224 -0.4120
 8519SOL    HW137016   1.476   1.559   4.527  0.7041  0.0511 -0.2018
 8519SOL    HW237017   1.615   1.584   4.578 -1.1835 -2.7510 -1.0402
 8520SOL     OW37018   1.359   1.410   2.870  0.0175  0.0529  0.2105
 8520SOL    HW137019   1.302   1.335   2.887 -0.5005  0.4955  0.4564
 8520SOL    HW237020   1.322   1.481   2.922  1.3418  0.0640  1.1195
 8521SOL     OW37021   1.114   0.782   0.792 -0.0316 -0.4008  0.1322
 8521SOL    HW137022   1.090   0.693   0.817 -2.0549 -0.4997 -2.1055
 8521SOL    HW237023   1.144   0.820   0.874  2.1322 -1.2688 -0.2428
 8522SOL     OW37024   0.385   2.873  15.767  0.2119 -0.5993 -0.9299
 8522SOL    HW137025   0.365   2.953  15.816 -0.6625 -0.6772 -1.1607
 8522SOL    HW237026   0.431   2.914  15.694 -0.2626 -1.0107 -1.4562
 8523SOL     OW37027   3.060   1.491   3.524  0.7115 -0.0605  0.3758
 8523SOL    HW137028   3.130   1.467   3.462  0.3877 -1.0315  0.3781
 8523SOL    HW237029   3.100   1.569   3.562  1.0318  0.5542 -1.1962
 8524SOL     OW37030   3.485   3.793   8.929  0.1161  0.7489 -0.0232
 8524SOL    HW137031   3.410   3.745   8.892  1.6264 -0.1697 -1.9270
 8524SOL    HW237032   3.540   3.720   8.959 -0.4411  0.0579 -0.6687
 8525SOL     OW37033   3.965   3.948  10.018 -0.1378  0.2069 -0.7043
 8525SOL    HW137034   4.001   4.018  10.072  1.6667 -1.4616  0.2850
 8525SOL    HW237035   3.875   3.979  10.013 -0.0179  0.5593 -0.6421
 8526SOL     OW37036   3.824   2.285   7.329 -0.2954  0.2061  0.4524
 8526SOL    HW137037   3.769   2.326   7.263 -0.2111  1.6530  1.2847
 8526SOL    HW237038   3.822   2.346   7.403  1.6040  0.6836  0.1127
 8527SOL     OW37039   4.631   4.467  16.896 -0.3137  0.1633 -0.2592
 8527SOL    HW137040   4.536   4.475  16.905 -0.8166 -2.6006 -3.0859
 8527SOL    HW237041   4.655   4.511  16.978  1.8722 -1.5660  0.0195
 8528SOL     OW37042   4.339   2.947  11.512 -0.0745  0.5828 -0.0481
 8528SOL    HW137043   4.289   2.926  11.433 -2.7347 -0.3063  1.8827
 8528SOL    HW237044   4.277   2.920  11.579 -0.5875  2.5284  0.2733
 8529SOL     OW37045   1.384   2.769   4.353 -1.1342 -0.6330  0.2878
 8529SOL    HW137046   1.324   2.741   4.422 -0.9019 -1.9853 -0.0475
 8529SOL    HW237047   1.373   2.699   4.289  0.1286  0.8284 -1.5060
 8530SOL     OW37048   1.149   4.651  16.311 -0.1325 -0.1837  0.3659
 8530SOL    HW137049   1.087   4.604  16.254  0.1377  1.3629 -1.2243
 8530SOL    HW237050   1.225   4.595  16.293 -1.8643 -1.1221 -4.1097
 8531SOL     OW37051   3.065   1.248   3.973  0.2195  0.5112 -0.0292
 8531SOL    HW137052   3.043   1.289   3.889  1.0118 -0.9470 -0.9405
 8531SOL    HW237053   3.078   1.159   3.941  1.5976  1.1931 -1.3721
 8532SOL     OW37054   2.390   1.858   5.330  0.0191 -0.3481 -1.6312
 8532SOL    HW137055   2.369   1.851   5.237  1.5851 -0.6511 -1.9597
 8532SOL    HW237056   2.343   1.789   5.375  3.0628 -1.7959 -0.6314
 8533SOL     OW37057   3.322   0.653   1.827  0.2578  0.0704  0.0203
 8533SOL    HW137058   3.314   0.744   1.797 -1.5641 -0.2893 -0.5551
 8533SOL    HW237059   3.397   0.654   1.887 -0.2918  1.3468  0.6894
 8534SOL     OW37060   1.349   1.325  16.610 -0.3322  0.5501  0.8423
 8534SOL    HW137061   1.407   1.274  16.552  0.9481  1.9608  0.8763
 8534SOL    HW237062   1.264   1.294  16.580 -0.3976 -0.0233  1.6251
 8535SOL     OW37063   4.459   1.935   6.132 -0.2099  0.7562  0.3231
 8535SOL    HW137064   4.469   2.026   6.104  2.0430  0.2482 -0.5002
 8535SOL    HW237065   4.475   1.888   6.051  0.6302 -0.6534  1.3042
 8536SOL     OW37066   2.476   1.701  10.464 -0.6319  0.0879  0.1818
 8536SOL    HW137067   2.522   1.757  10.527  1.3618 -0.1865 -1.0375
 8536SOL    HW237068   2.525   1.620  10.447 -1.3393  0.3476 -3.0200
 8537SOL     OW37069   2.847   1.998   0.752  0.0613 -0.3910  0.1782
 8537SOL    HW137070   2.929   2.028   0.791 -0.5883  0.6079  0.7738
 8537SOL    HW237071   2.807   1.960   0.829  0.2840  2.5527  1.7561
 8538SOL     OW37072   2.860   2.826   6.695  0.4502  0.2221 -0.0047
 8538SOL    HW137073   2.940   2.808   6.645 -1.1342  0.9086 -2.8168
 8538SOL    HW237074   2.866   2.921   6.708  0.3223  0.0449  1.2576
 8539SOL     OW37075   4.717   4.368   3.454  0.5494  0.4628  0.3832
 8539SOL    HW137076   0.029   4.377   3.365  0.6732 -1.1437  0.2674
 8539SOL    HW237077   4.626   4.346   3.432  0.7040 -0.0485  0.2584
 8540SOL     OW37078   0.094   2.913  16.161  0.2418  0.5342  0.1440
 8540SOL    HW137079   0.066   3.001  16.135 -2.5992 -0.4665 -0.2039
 8540SOL    HW237080   0.025   2.892  16.225  0.3744  1.9669  0.7551
 8541SOL     OW37081   2.603   4.399   3.701  0.1457 -0.0727 -0.0687
 8541SOL    HW137082   2.689   4.379   3.739  0.7204  0.7234 -0.9721
 8541SOL    HW237083   2.555   4.440   3.773 -2.3771  0.9097 -2.3279
 8542SOL     OW37084   4.376   1.221   0.854  0.7026 -0.8811  0.1197
 8542SOL    HW137085   4.471   1.215   0.868  1.1705 -0.8940 -3.1278
 8542SOL    HW237086   4.351   1.188   0.941  1.0467 -0.9790  0.1818
 8543SOL     OW37087   0.383   0.689   7.916  0.0689  0.5237  0.9350
 8543SOL    HW137088   0.326   0.612   7.921  0.2188  0.3669  0.2944
 8543SOL    HW237089   0.367   0.718   7.826 -0.7202  0.9026  1.2020
 8544SOL     OW37090   3.716   3.257   5.172 -0.6546  0.2430 -0.0208
 8544SOL    HW137091   3.786   3.191   5.168 -0.5697  0.3671 -0.5545
 8544SOL    HW237092   3.672   3.235   5.254 -1.3739  1.9399  0.0423
 8545SOL     OW37093   3.182   2.442   2.328  0.2147 -0.1865 -0.2081
 8545SOL    HW137094   3.157   2.407   2.413 -0.5858 -0.8714 -0.7262
 8545SOL    HW237095   3.175   2.371   2.265  2.1967  0.2308 -0.9102
 8546SOL     OW37096   2.323   3.062   9.812  0.2631 -0.1147 -0.2159
 8546SOL    HW137097   2.239   3.087   9.773  0.3067 -1.2617 -1.0195
 8546SOL    HW237098   2.303   2.979   9.854  0.8645 -1.4110 -2.5087
 8547SOL     OW37099   3.911   2.370   8.874 -0.3018  0.4441  0.4891
 8547SOL    HW137100   3.931   2.417   8.793  1.7997  0.3760  0.9499
 8547SOL    HW237101   3.988   2.392   8.928 -0.1452 -0.3924  0.6178
 8548SOL     OW37102   2.421   1.315  10.029  0.2294  0.0323 -0.1109
 8548SOL    HW137103   2.431   1.334  10.122  0.7789 -1.2871  0.0981
 8548SOL    HW237104   2.388   1.398   9.995  1.2861  0.7320  0.5911
 8549SOL     OW37105   0.212   0.332   6.007 -0.2934 -0.4052 -0.0035
 8549SOL    HW137106   0.195   0.251   5.960 -0.6421 -0.0923 -0.4147
 8549SOL    HW237107   0.219   0.401   5.941  1.0966 -0.5561 -0.0120
 8550SOL     OW37108   1.584   0.270   4.407 -0.0157  0.0919  0.0797
 8550SOL    HW137109   1.592   0.179   4.438  1.9634 -0.0193 -0.7152
 8550SOL    HW237110   1.539   0.256   4.324  0.9267  2.7473 -0.8939
 8551SOL     OW37111   0.420   1.519   6.734  0.2000  0.1656  0.2075
 8551SOL    HW137112   0.500   1.548   6.691 -0.1257 -2.2006 -1.9642
 8551SOL    HW237113   0.376   1.604   6.742  0.7204  0.3019  1.6191
 8552SOL     OW37114   4.694   0.264   7.427  0.1992 -0.3437 -0.0002
 8552SOL    HW137115   4.606   0.237   7.403  0.9429 -2.7435 -0.0871
 8552SOL    HW237116   0.021   0.182   7.422  0.6688 -0.1226  0.8944
 8553SOL     OW37117   4.313   1.496   6.687  0.0950  0.0599 -0.0463
 8553SOL    HW137118   4.308   1.542   6.604 -0.2690 -0.9727 -0.5968
 8553SOL    HW237119   4.365   1.559   6.737  1.1398 -0.7754 -0.0580
 8554SOL     OW37120   0.942   0.151  12.970 -0.1417  0.0639  0.4475
 8554SOL    HW137121   0.846   0.153  12.977 -0.1622  1.0771  0.0096
 8554SOL    HW237122   0.948   0.202  12.889  0.8678 -0.8152 -0.0276
 8555SOL     OW37123   0.197   4.280   6.878  0.2023 -0.4229 -0.2441
 8555SOL    HW137124   0.149   4.226   6.940 -0.0974  0.6955  0.5031
 8555SOL    HW237125   0.233   4.340   6.943 -0.2214 -0.1842 -0.2289
 8556SOL     OW37126   0.036   1.153   2.230 -0.1008 -0.6452  0.3470
 8556SOL    HW137127   0.083   1.109   2.301  0.3107 -0.8051 -0.0216
 8556SOL    HW237128   4.679   1.102   2.221 -1.5441  1.7587 -0.5394
 8557SOL     OW37129   3.872   4.153   3.002  0.1946 -0.9369 -0.1924
 8557SOL    HW137130   3.797   4.099   2.976  0.8958 -1.5305 -0.9854
 8557SOL    HW237131   3.948   4.098   2.986  0.5735 -0.2171 -0.8357
 8558SOL     OW37132   1.395   0.703   4.718  0.1366  0.0710  0.0475
 8558SOL    HW137133   1.346   0.782   4.741 -1.0831 -1.1978  1.7667
 8558SOL    HW237134   1.465   0.690   4.782 -0.9581 -1.0056  1.0472
 8559SOL     OW37135   2.847   3.982  10.742 -0.8130  0.1062  0.3676
 8559SOL    HW137136   2.772   3.959  10.797  0.4595 -1.3369  1.5312
 8559SOL    HW237137   2.914   3.978  10.810 -2.4652 -0.2362  1.9814
 8560SOL     OW37138   3.577   0.702   7.004  0.3577  0.0033 -0.4819
 8560SOL    HW137139   3.551   0.622   6.960  0.4716  1.2814 -2.8596
 8560SOL    HW237140   3.636   0.729   6.934  1.2629  0.0874  0.3143
 8561SOL     OW37141   1.680   2.495   1.642 -0.2530 -0.0026 -0.5391
 8561SOL    HW137142   1.635   2.564   1.691 -1.4899 -0.8422 -0.5002
 8561SOL    HW237143   1.649   2.412   1.676  2.1462 -0.0001  1.7047
 8562SOL     OW37144   0.217   1.080   5.353 -0.4134 -0.4805 -0.3902
 8562SOL    HW137145   0.129   1.063   5.387 -0.6066  0.3326 -0.4985
 8562SOL    HW237146   0.259   0.993   5.357  0.6806  0.0635 -0.0010
 8563SOL     OW37147   0.041   1.935  11.965 -0.3882  0.1141 -0.4038
 8563SOL    HW137148   0.042   1.868  11.896  3.2322  1.5097 -1.7497
 8563SOL    HW237149   4.699   1.993  11.925  1.5016  2.3552 -0.2521
 8564SOL     OW37150   2.043   1.533   7.420 -0.0430  0.2236  0.4819
 8564SOL    HW137151   1.989   1.609   7.398  1.2031  0.9731  0.0701
 8564SOL    HW237152   2.116   1.544   7.360 -0.5959 -1.3353 -0.4601
 8565SOL     OW37153   3.480   3.607   5.261  0.4631  0.1058 -0.3804
 8565SOL    HW137154   3.438   3.653   5.333 -1.2713 -1.9254 -0.1010
 8565SOL    HW237155   3.534   3.543   5.308  0.1480 -0.0427 -0.2201
 8566SOL     OW37156   1.413   2.157   8.660  0.1598 -0.3025 -0.3455
 8566SOL    HW137157   1.375   2.128   8.744  0.8124 -1.2136 -0.3654
 8566SOL    HW237158   1.503   2.175   8.688  1.0829 -2.6239 -1.8869
 8567SOL     OW37159   1.259   2.467   5.856  0.1575 -0.3529  0.1701
 8567SOL    HW137160   1.175   2.439   5.894 -0.3830  1.4525  0.2778
 8567SOL    HW237161   1.272   2.541   5.915 -2.0816  1.4268 -1.5866
 8568SOL     OW37162   4.241   0.002  12.656  0.3499  0.1774 -0.0174
 8568SOL    HW137163   4.155   4.697  12.688 -0.6026  2.7724 -0.3649
 8568SOL    HW237164   4.299   4.694  12.726  0.7188 -0.2560 -0.5088
 8569SOL     OW37165   3.978   0.874  17.342 -0.8186 -0.4528  1.0283
 8569SOL    HW137166   3.888   0.846  17.359 -1.1849 -0.2086 -0.5750
 8569SOL    HW237167   3.971   0.909  17.254  0.0132 -0.5516  0.9251
 8570SOL     OW37168   2.441   3.758   3.956  0.1645 -0.2108 -0.0878
 8570SOL    HW137169   2.456   3.665   3.972  1.1031 -0.5128 -2.7057
 8570SOL    HW237170   2.371   3.784   4.016 -1.1530 -2.4220 -0.6471
 8571SOL     OW37171   4.411   1.481  14.432 -0.1161  0.5553  0.1636
 8571SOL    HW137172   4.445   1.557  14.384  2.7149 -1.9178 -1.7159
 8571SOL    HW237173   4.374   1.426  14.363 -2.3365  0.3200  1.5714
 8572SOL     OW37174   0.375   1.503   5.361  0.0354 -0.7381 -0.3198
 8572SOL    HW137175   0.438   1.535   5.297 -1.4149 -3.4220 -3.1008
 8572SOL    HW237176   0.394   1.409   5.365  0.7128 -0.6136 -0.6534
 8573SOL     OW37177   0.488   0.798   1.056  0.3707  0.3498  0.1432
 8573SOL    HW137178   0.499   0.731   1.123  2.2552  0.1506 -0.3641
 8573SOL    HW237179   0.555   0.785   0.989  0.6478  1.2255  0.2577
 8574SOL     OW37180   4.295   4.381  14.226 -0.0024  0.0478  0.7539
 8574SOL    HW137181   4.221   4.439  14.205  0.1167 -0.7076 -1.7088
 8574SOL    HW237182   4.363   4.448  14.234 -1.4311  1.6513 -0.4770
 8575SOL     OW37183   0.825   0.424   8.046  0.1973 -0.7324  0.4036
 8575SOL    HW137184   0.737   0.387   8.044 -0.1719  0.0988  1.7597
 8575SOL    HW237185   0.804   0.517   8.035  0.7003 -0.6707 -0.0582
 8576SOL     OW37186   0.995   4.708   8.421  0.5586  0.2947 -0.0718
 8576SOL    HW137187   0.975   0.039   8.497  0.6854 -1.5953  1.2822
 8576SOL    HW237188   0.978   0.055   8.357 -0.7809  1.2088  1.2740
 8577SOL     OW37189   4.123   1.216   5.429 -0.4566 -0.4995  0.0074
 8577SOL    HW137190   4.153   1.157   5.498 -1.2740  1.7741  2.2832
 8577SOL    HW237191   4.028   1.213   5.418 -0.6295  2.2927  0.6373
 8578SOL     OW37192   3.029   4.403   0.780  0.2447  0.4285  0.3979
 8578SOL    HW137193   3.006   4.493   0.756  0.7489  0.9566  1.9103
 8578SOL    HW237194   3.086   4.384   0.706 -1.0929 -1.0514 -0.2594
 8579SOL     OW37195   4.304   0.656   5.251  0.2143  0.3231 -0.1749
 8579SOL    HW137196   4.281   0.577   5.201  1.8732  0.2050 -0.7542
 8579SOL    HW237197   4.240   0.716   5.212 -1.8651 -0.9881  1.2593
 8580SOL     OW37198   2.638   0.054  12.506 -0.1278 -0.2224 -0.8494
 8580SOL    HW137199   2.685   0.043  12.423  2.5506 -0.5249  0.6979
 8580SOL    HW237200   2.659   0.143  12.532  1.0406 -1.3040  1.9383
 8581SOL     OW37201   3.039   0.531  13.340  0.2178 -0.3536 -0.4420
 8581SOL    HW137202   3.126   0.511  13.373  0.2812 -2.0628 -1.6522
 8581SOL    HW237203   2.975   0.490  13.398 -0.1801  2.6531  1.2206
 8582SOL     OW37204   2.333   3.011   9.391  0.7346  0.0200 -0.3074
 8582SOL    HW137205   2.420   2.994   9.355  0.5269  0.4043 -0.9957
 8582SOL    HW237206   2.336   2.963   9.473  0.7453 -1.3222 -1.1036
 8583SOL     OW37207   0.997   0.843   3.201  0.0093  0.1457 -0.0172
 8583SOL    HW137208   1.016   0.850   3.107  1.6205  0.7746  0.3629
 8583SOL    HW237209   0.960   0.929   3.218  0.7820  0.9029 -2.2066
 8584SOL     OW37210   1.497   2.449  10.793  0.2610 -0.3675  0.0850
 8584SOL    HW137211   1.410   2.411  10.783  0.0355 -0.2518  1.6050
 8584SOL    HW237212   1.544   2.367  10.779  0.0578 -0.6537  1.1523
 8585SOL     OW37213   3.196   0.828   5.547 -0.0502  0.3779 -0.3544
 8585SOL    HW137214   3.217   0.920   5.567 -0.6928  0.4295  0.0954
 8585SOL    HW237215   3.240   0.776   5.614  2.6395  0.6341 -1.9399
 8586SOL     OW37216   0.161   2.730   6.313  0.0062  0.0085  0.5878
 8586SOL    HW137217   0.183   2.823   6.313 -0.5500  0.1456  0.0416
 8586SOL    HW237218   0.139   2.719   6.220  0.5294  1.8883  0.2261
 8587SOL     OW37219   2.708   3.498   2.458 -0.5678  0.4191 -0.5175
 8587SOL    HW137220   2.653   3.451   2.521  0.7190  0.9094  0.9630
 8587SOL    HW237221   2.638   3.534   2.404 -1.3660 -1.3020 -0.6412
 8588SOL     OW37222   3.265   1.422   5.514 -0.3232  0.1903  0.3750
 8588SOL    HW137223   3.204   1.491   5.488 -0.3673  0.9078  2.4059
 8588SOL    HW237224   3.270   1.449   5.606  0.6755 -0.2148  0.4469
 8589SOL     OW37225   1.734   1.626   9.092  0.6245 -0.0787 -0.0111
 8589SOL    HW137226   1.654   1.575   9.084  0.3406  0.5227 -1.0718
 8589SOL    HW237227   1.696   1.687   9.156 -0.6340 -1.0365  0.1590
 8590SOL     OW37228   0.994   3.521  17.655 -0.1215 -0.0435 -0.1207
 8590SOL    HW137229   1.068   3.582  17.664  1.7481 -2.0322 -1.9435
 8590SOL    HW237230   0.927   3.577  17.617 -0.6755 -2.2555 -2.4074
 8591SOL     OW37231   2.823   1.799   6.315  0.3514  0.1617 -1.3801
 8591SOL    HW137232   2.884   1.725   6.318 -0.0474 -0.0375  1.8117
 8591SOL    HW237233   2.785   1.790   6.228 -1.9298  0.5450 -0.4033
 8592SOL     OW37234   0.306   0.880   8.467 -0.0858  0.6037  0.0108
 8592SOL    HW137235   0.245   0.950   8.444  1.8023  1.9504 -0.8760
 8592SOL    HW237236   0.268   0.813   8.410  0.1791 -0.8458  1.5547
 8593SOL     OW37237   4.165   4.178  11.837 -0.5215 -0.2872  0.3415
 8593SOL    HW137238   4.213   4.175  11.919  0.2643 -0.9035 -0.1324
 8593SOL    HW237239   4.128   4.090  11.845  0.0944 -0.6426 -0.6786
 8594SOL     OW37240   3.475   0.307  15.321 -0.1433  0.0812 -0.0658
 8594SOL    HW137241   3.542   0.253  15.363  1.1297  2.6573  1.2218
 8594SOL    HW237242   3.430   0.246  15.263  1.3673 -0.1480 -1.0255
 8595SOL     OW37243   3.402   0.844   6.770  0.5552  0.3600  0.6177
 8595SOL    HW137244   3.489   0.804   6.775  0.5536  0.4478  1.4441
 8595SOL    HW237245   3.412   0.915   6.707  1.5225  0.9284  1.4068
 8596SOL     OW37246   1.273   0.941   5.382  0.0750  0.2116 -0.1760
 8596SOL    HW137247   1.254   1.028   5.418 -3.8553 -1.2451  1.2542
 8596SOL    HW237248   1.322   0.907   5.457  1.5814 -1.3611 -1.9045
 8597SOL     OW37249   1.495   3.512  15.120  0.0916 -0.5778 -0.2689
 8597SOL    HW137250   1.550   3.582  15.155  0.0901 -0.7579  0.0908
 8597SOL    HW237251   1.427   3.499  15.186  0.6480  1.5368  0.7042
 8598SOL     OW37252   3.380   2.201   1.283 -0.2022 -0.0636  0.0032
 8598SOL    HW137253   3.427   2.133   1.236  1.8102  0.3689  1.3507
 8598SOL    HW237254   3.414   2.282   1.244 -2.6496 -0.3617 -2.7048
 8599SOL     OW37255   1.584   3.050   6.678  0.4178  0.0548  0.1383
 8599SOL    HW137256   1.581   3.079   6.769 -0.4138 -0.5888  0.3167
 8599SOL    HW237257   1.650   2.981   6.673 -0.7778 -0.9717 -1.4208
 8600SOL     OW37258   1.948   1.397   1.295 -0.4692 -0.6151  0.0000
 8600SOL    HW137259   1.966   1.463   1.228 -0.3087 -0.3259  0.3259
 8600SOL    HW237260   2.037   1.374   1.321 -0.0107  2.9869  1.6422
 8601SOL     OW37261   3.159   3.996   5.812  0.8398  0.5450  0.5133
 8601SOL    HW137262   3.077   3.949   5.828  0.0024  1.7046 -0.3550
 8601SOL    HW237263   3.133   4.071   5.865  1.3156 -0.0160  1.5412
 8602SOL     OW37264   2.798   2.560   8.509  0.4071  0.1064  0.4250
 8602SOL    HW137265   2.859   2.622   8.548 -0.6150  1.6243 -0.4061
 8602SOL    HW237266   2.708   2.579   8.534 -0.2321 -1.7475 -0.4117
 8603SOL     OW37267   0.472   4.106   3.058  0.1409 -0.1291  0.4438
 8603SOL    HW137268   0.482   4.168   2.986 -2.0576  2.0548  2.0096
 8603SOL    HW237269   0.378   4.090   3.054 -0.0043  1.5197 -2.3213
 8604SOL     OW37270   1.908   0.430   2.423  0.3692  0.5232 -0.1903
 8604SOL    HW137271   1.871   0.502   2.373 -2.2570 -1.1069 -0.5958
 8604SOL    HW237272   1.896   0.449   2.516 -1.0153 -0.6756 -0.1087
 8605SOL     OW37273   2.576   1.544   9.296  0.2176 -0.3844  0.1226
 8605SOL    HW137274   2.551   1.452   9.302 -0.3714 -0.3939 -2.6121
 8605SOL    HW237275   2.663   1.526   9.260  0.1655 -1.1002  0.3614
 8606SOL     OW37276   1.092   0.890   3.550 -0.2411  0.0283  0.2361
 8606SOL    HW137277   1.033   0.836   3.603  0.8465  1.1875  2.6143
 8606SOL    HW237278   1.114   0.834   3.475  1.4959 -0.4929  1.1444
 8607SOL     OW37279   0.675   2.764   1.971  0.0135  0.0998  0.2657
 8607SOL    HW137280   0.601   2.779   1.912 -1.7559 -1.1552  2.1619
 8607SOL    HW237281   0.675   2.839   2.031 -2.8583  0.8070 -0.6007
 8608SOL     OW37282   1.737   0.918   3.462 -0.5763  0.3537 -0.0819
 8608SOL    HW137283   1.684   0.883   3.533 -0.5490  0.4860  0.0059
 8608SOL    HW237284   1.704   0.868   3.388  0.5370  1.4041 -1.3020
 8609SOL     OW37285   0.824   2.042  17.661 -0.0480  0.1309  0.6806
 8609SOL    HW137286   0.911   2.069  17.692  0.3217  1.2103 -1.2998
 8609SOL    HW237287   0.769   2.120  17.666  0.4713  0.7084 -2.1895
 8610SOL     OW37288   0.897   1.087   2.575 -0.2750  0.1180  0.5036
 8610SOL    HW137289   0.823   1.138   2.543 -1.5123 -1.3223  1.0480
 8610SOL    HW237290   0.881   1.004   2.530  2.4095  0.7372 -1.6076
 8611SOL     OW37291   2.732   3.733   4.193  0.1606 -0.5230  0.3432
 8611SOL    HW137292   2.730   3.828   4.181  1.2992 -0.5319  0.0443
 8611SOL    HW237293   2.639   3.716   4.183 -0.3551  2.1927  0.4279
 8612SOL     OW37294   3.727   1.358   8.102 -0.2024  0.2553 -0.6399
 8612SOL    HW137295   3.742   1.432   8.161  1.7818 -1.8509  1.4616
 8612SOL    HW237296   3.633   1.342   8.107  0.3055 -2.8321 -1.0031
 8613SOL     OW37297   3.438   0.912  17.126  1.2017  0.4355 -0.2582
 8613SOL    HW137298   3.501   0.908  17.054  0.1073  4.4903 -1.4389
 8613SOL    HW237299   3.413   1.005  17.125  0.1544  0.1667  1.3576
 8614SOL     OW37300   2.839   4.116   5.258  0.5598 -0.0793 -0.6986
 8614SOL    HW137301   2.809   4.054   5.324  1.5174  3.0466  2.6817
 8614SOL    HW237302   2.795   4.081   5.180  1.8238  1.5996 -2.1680
 8615SOL     OW37303   1.580   2.030   2.752  0.2330 -0.4909 -0.7101
 8615SOL    HW137304   1.650   2.063   2.695 -0.1161 -1.5519 -1.7565
 8615SOL    HW237305   1.554   1.955   2.698  0.6837 -1.9236  1.0418
 8616SOL     OW37306   3.688   4.561   1.342 -0.1733 -0.0646  0.7534
 8616SOL    HW137307   3.652   4.482   1.301 -0.8155  0.9835 -0.7044
 8616SOL    HW237308   3.781   4.561   1.319 -0.9664  0.4945 -2.4582
 8617SOL     OW37309   4.007   0.818  12.690 -0.2172  0.0408  0.0000
 8617SOL    HW137310   4.064   0.847  12.761  0.2204  1.0447 -0.7507
 8617SOL    HW237311   4.047   0.868  12.618 -0.1733  0.7961  0.5524
 8618SOL     OW37312   2.115   3.789   5.973 -0.4772 -0.1350 -0.1915
 8618SOL    HW137313   2.157   3.857   5.922 -1.0055 -0.4242 -1.0095
 8618SOL    HW237314   2.044   3.840   6.013  2.0925  0.2064  3.9133
 8619SOL     OW37315   1.688   3.628  11.500  0.5153 -0.1623  0.0614
 8619SOL    HW137316   1.607   3.622  11.552  0.9853  1.9431  1.0343
 8619SOL    HW237317   1.651   3.594  11.419  0.4038 -0.2149  0.1331
 8620SOL     OW37318   3.280   0.338   9.383 -0.6029 -0.1666 -0.0000
 8620SOL    HW137319   3.219   0.334   9.456 -2.1838  0.1381 -1.3219
 8620SOL    HW237320   3.304   0.245   9.377  0.4306  0.1191 -0.3527
 8621SOL     OW37321   2.481   4.008   9.726 -0.0056 -0.1130 -0.0175
 8621SOL    HW137322   2.516   3.942   9.786  0.4727  0.2717  0.1279
 8621SOL    HW237323   2.387   3.993   9.729  0.2629 -0.9992  3.3407
 8622SOL     OW37324   3.662   1.779   4.899 -0.3861 -0.2477 -0.0085
 8622SOL    HW137325   3.693   1.777   4.989  0.1687 -1.4389 -0.2284
 8622SOL    HW237326   3.693   1.695   4.865 -3.1226 -1.5757  0.8590
 8623SOL     OW37327   2.519   0.773   4.368  0.0350  0.3737  0.1699
 8623SOL    HW137328   2.431   0.812   4.364 -0.2982 -0.2019  1.8245
 8623SOL    HW237329   2.533   0.767   4.273  0.5290 -0.7101  0.3094
 8624SOL     OW37330   0.796   0.969   8.309 -0.3424  0.4890 -0.1558
 8624SOL    HW137331   0.779   0.875   8.308  2.5065 -0.0430  1.0947
 8624SOL    HW237332   0.718   1.008   8.270  0.5251  0.2132 -2.1761
 8625SOL     OW37333   0.043   1.725  12.630  0.0733 -0.2835  0.1876
 8625SOL    HW137334   4.685   1.695  12.589  0.9844 -1.5703 -0.7108
 8625SOL    HW237335   0.020   1.817  12.641  0.0992 -0.0301 -1.8142
 8626SOL     OW37336   2.524   3.037   5.333 -0.3782 -0.3353 -0.4195
 8626SOL    HW137337   2.473   2.959   5.351 -2.4088  1.3013  0.9426
 8626SOL    HW237338   2.534   3.074   5.421 -1.1108 -0.5033 -0.2685
 8627SOL     OW37339   2.969   1.638  12.692 -0.3542  0.3475  0.4219
 8627SOL    HW137340   2.999   1.646  12.601 -3.8309  0.4737 -0.6968
 8627SOL    HW237341   2.880   1.607  12.678 -0.1760  0.6912 -1.4605
 8628SOL     OW37342   0.252   3.996  16.400 -0.3027 -0.1171 -0.0073
 8628SOL    HW137343   0.240   3.925  16.463 -0.7657 -0.5323 -0.5705
 8628SOL    HW237344   0.161   4.017  16.382 -0.5648 -1.6825 -0.4853
 8629SOL     OW37345   3.685   0.800   5.493 -0.0379  1.1221 -0.2585
 8629SOL    HW137346   3.614   0.803   5.429  1.0078 -0.3403 -1.4841
 8629SOL    HW237347   3.715   0.709   5.498  0.1694  1.3681  2.8432
 8630SOL     OW37348   2.937   3.859   5.781 -0.3509  0.4623 -0.8156
 8630SOL    HW137349   2.854   3.866   5.735 -0.7007  2.4958  0.0971
 8630SOL    HW237350   2.965   3.775   5.745  0.4495 -0.5746  2.1967
 8631SOL     OW37351   3.609   0.338  12.258  0.4785 -0.5791 -0.2662
 8631SOL    HW137352   3.667   0.407  12.292  0.8488 -1.8401  1.6561
 8631SOL    HW237353   3.530   0.349  12.311  0.5578 -1.3972  0.0101
 8632SOL     OW37354   1.642   1.668   6.831  0.1694 -0.3265 -0.3767
 8632SOL    HW137355   1.553   1.691   6.857  0.0443 -1.8673  0.6001
 8632SOL    HW237356   1.690   1.702   6.907  0.1332 -1.2565  0.0633
 8633SOL     OW37357   3.693   1.139   9.948  0.1019 -0.1199  0.9216
 8633SOL    HW137358   3.664   1.153   9.858  0.8760 -1.5081  0.4571
 8633SOL    HW237359   3.689   1.231   9.974 -0.6067 -0.0279  0.4867
 8634SOL     OW37360   2.280   2.940  11.306 -0.1369  0.0968  0.0800
 8634SOL    HW137361   2.190   2.921  11.335 -0.2188  2.7150  1.5163
 8634SOL    HW237362   2.272   2.913  11.215  0.3061  0.5074 -0.0760
 8635SOL     OW37363   4.468   3.291   6.002 -0.3895 -0.0114  0.2356
 8635SOL    HW137364   4.510   3.296   5.916  1.2894  0.4572  1.0724
 8635SOL    HW237365   4.539   3.295   6.066 -0.0418  0.2499 -0.1649
 8636SOL     OW37366   3.587   2.103   4.799  0.1627  0.2410  0.3243
 8636SOL    HW137367   3.552   2.066   4.718  0.6028  1.4332 -0.4115
 8636SOL    HW237368   3.551   2.037   4.858 -1.1980 -1.7723 -2.7420
 8637SOL     OW37369   3.531   1.414   2.701 -0.1696  0.5263 -0.2743
 8637SOL    HW137370   3.554   1.505   2.721 -0.9222 -0.1401  3.6123
 8637SOL    HW237371   3.548   1.404   2.607 -0.2770  1.5921 -0.4082
 8638SOL     OW37372   2.122   3.379  15.752 -0.7025  0.7758 -0.2943
 8638SOL    HW137373   2.064   3.437  15.702 -2.2270 -0.3264  0.2001
 8638SOL    HW237374   2.059   3.329  15.803  0.5404  1.4520  1.8963
 8639SOL     OW37375   1.953   4.460   1.834 -0.0364  0.2252  0.3389
 8639SOL    HW137376   1.932   4.548   1.802 -1.9993 -0.1851  0.5371
 8639SOL    HW237377   1.871   4.432   1.875 -0.8012  0.3349 -1.1159
 8640SOL     OW37378   2.228   1.388   8.866  0.2543  0.2886  0.3442
 8640SOL    HW137379   2.258   1.421   8.781 -0.3838  0.9203  0.3642
 8640SOL    HW237380   2.310   1.358   8.905  0.1833 -1.9296 -1.2580
 8641SOL     OW37381   3.377   3.718   5.477 -0.6040  0.0641 -0.1128
 8641SOL    HW137382   3.346   3.805   5.501 -3.2291 -1.1947  1.0782
 8641SOL    HW237383   3.332   3.662   5.541 -0.2214  1.0942  1.0512
 8642SOL     OW37384   4.051   0.202  12.355 -0.6110 -0.1408  0.5614
 8642SOL    HW137385   4.061   0.274  12.417  3.0258  0.7155 -1.0495
 8642SOL    HW237386   3.982   0.150  12.397 -0.4136  0.2386  1.3563
 8643SOL     OW37387   0.890   1.137  15.627 -0.4767 -0.0517 -0.7453
 8643SOL    HW137388   0.832   1.144  15.552 -0.9132 -2.8222 -0.6521
 8643SOL    HW237389   0.974   1.149  15.584 -0.4471 -0.0120 -0.6775
 8644SOL     OW37390   4.446   3.446   4.390  0.3315 -0.6041 -0.3511
 8644SOL    HW137391   4.425   3.356   4.415 -0.8911 -0.3426 -0.4155
 8644SOL    HW237392   4.527   3.460   4.439  0.1061  0.2921 -0.2296
 8645SOL     OW37393   2.720   1.249   2.629  0.9341  0.2930  0.0124
 8645SOL    HW137394   2.699   1.178   2.568 -1.6757  1.6187 -0.6010
 8645SOL    HW237395   2.643   1.305   2.631 -0.5193 -1.7088  0.7609
 8646SOL     OW37396   2.850   4.571   2.223 -0.1579  1.1465  0.4528
 8646SOL    HW137397   2.802   4.594   2.302 -0.3898  2.0331  0.0571
 8646SOL    HW237398   2.929   4.540   2.267  0.2222 -0.1507 -1.1363
 8647SOL     OW37399   1.969   2.902   9.533  0.5177  0.7316  0.0447
 8647SOL    HW137400   1.994   2.825   9.585 -2.4997  0.2649  0.8133
 8647SOL    HW237401   1.942   2.972   9.593 -0.5645 -0.5193  1.0311
 8648SOL     OW37402   1.761   1.027  13.055 -0.2810  0.6550 -0.8086
 8648SOL    HW137403   1.788   1.045  13.145 -0.2935 -2.4039 -0.1856
 8648SOL    HW237404   1.838   0.975  13.033 -0.3626 -0.5125  1.7136
 8649SOL     OW37405   4.707   4.190   6.182 -0.1259 -0.3238  0.0010
 8649SOL    HW137406   4.679   4.279   6.203  1.1469 -0.1832  1.1230
 8649SOL    HW237407   4.712   4.147   6.267 -0.5165  0.6656  0.5213
 8650SOL     OW37408   1.723   3.229   1.429 -0.6322  0.2183 -0.3674
 8650SOL    HW137409   1.741   3.317   1.396 -0.4248 -0.4391 -2.0231
 8650SOL    HW237410   1.739   3.240   1.523 -1.0930 -1.5811 -0.0821
 8651SOL     OW37411   1.385   2.822  12.381  0.2338  0.0295  0.1147
 8651SOL    HW137412   1.382   2.752  12.445 -0.0179 -0.0461  0.0199
 8651SOL    HW237413   1.291   2.834  12.368 -0.2076 -3.0951  0.4791
 8652SOL     OW37414   1.749   2.352   1.143  0.1240 -0.1158 -0.0759
 8652SOL    HW137415   1.756   2.334   1.237 -0.0283  0.5228  0.0562
 8652SOL    HW237416   1.785   2.441   1.150  0.7252 -0.5228  1.9582
 8653SOL     OW37417   3.997   2.194   8.126 -0.0359 -0.2585 -0.3937
 8653SOL    HW137418   3.912   2.149   8.127  0.1249 -0.5203  0.8325
 8653SOL    HW237419   4.029   2.171   8.039  0.9746 -1.5362  0.3284
 8654SOL     OW37420   4.077   0.801   5.160  0.3164  0.3974  0.6310
 8654SOL    HW137421   4.132   0.879   5.172  0.4101  0.4034  0.1568
 8654SOL    HW237422   4.014   0.793   5.232 -0.1017  0.5632  0.2816
 8655SOL     OW37423   4.378   2.880   0.984 -0.0804 -0.0157  0.0054
 8655SOL    HW137424   4.382   2.971   0.954  3.1097 -0.2166 -0.2144
 8655SOL    HW237425   4.296   2.885   1.033  1.3528 -0.7397  2.5217
 8656SOL     OW37426   4.499   2.655   5.603  0.0582 -0.0101 -0.2635
 8656SOL    HW137427   4.496   2.599   5.681  0.5861  0.9033  0.4265
 8656SOL    HW237428   4.515   2.740   5.645 -1.3117 -0.3164  0.8954
 8657SOL     OW37429   0.118   1.336   3.043  0.1171 -0.0176  0.8568
 8657SOL    HW137430   0.040   1.392   3.046  0.5002  0.5835 -0.3376
 8657SOL    HW237431   0.149   1.374   3.125 -2.4850  0.7392  1.4873
 8658SOL     OW37432   3.135   3.379  12.424 -0.3131  0.3528  0.3714
 8658SOL    HW137433   3.133   3.344  12.335  2.3197  0.4616  0.2713
 8658SOL    HW237434   3.061   3.440  12.428  0.0783  0.9700 -1.6911
 8659SOL     OW37435   1.321   3.948   4.275  0.5015 -0.2821  0.9801
 8659SOL    HW137436   1.366   3.865   4.285 -1.6133 -1.4247  1.0980
 8659SOL    HW237437   1.405   3.994   4.270  1.1489 -1.5719  0.0815
 8660SOL     OW37438   0.776   2.773   4.567 -0.0873 -0.2567  0.2242
 8660SOL    HW137439   0.783   2.856   4.615  0.7490  0.0023 -0.3476
 8660SOL    HW237440   0.850   2.720   4.599  1.2399  0.0045 -2.4739
 8661SOL     OW37441   1.289   3.689  15.941  0.4198  0.7883  0.3720
 8661SOL    HW137442   1.306   3.718  15.852 -1.0761 -1.0393 -0.5255
 8661SOL    HW237443   1.320   3.599  15.942 -4.0525 -0.7938 -0.1160
 8662SOL     OW37444   0.255   4.702  13.520  0.2567 -0.0673 -0.4948
 8662SOL    HW137445   0.228   4.619  13.560 -0.9534  1.0613  1.0146
 8662SOL    HW237446   0.238   4.677  13.429 -0.0710  1.1173 -0.7624
 8663SOL     OW37447   4.412   3.353   2.188  0.9550  0.2768  0.3021
 8663SOL    HW137448   4.410   3.383   2.098 -1.9083  0.8226  0.5469
 8663SOL    HW237449   4.495   3.384   2.224  0.9455 -0.2810  0.8075
 8664SOL     OW37450   3.344   3.289   6.440 -0.3231  0.0413 -0.4919
 8664SOL    HW137451   3.295   3.239   6.374 -0.5021 -0.3502 -0.0600
 8664SOL    HW237452   3.306   3.241   6.514  0.8637 -0.8009 -0.4291
 8665SOL     OW37453   4.171   2.593   7.066  0.0543 -0.0462  0.3539
 8665SOL    HW137454   4.246   2.552   7.109  0.0274  0.2022  0.6359
 8665SOL    HW237455   4.108   2.524   7.086  0.5160 -0.5130  0.2049
 8666SOL     OW37456   2.416   0.024   6.943 -0.1440 -0.1567 -0.5581
 8666SOL    HW137457   2.510   0.017   6.956 -0.2963  0.1356  0.7952
 8666SOL    HW237458   2.392   4.659   6.973 -3.0500  0.8294  0.0406
 8667SOL     OW37459   1.071   4.718   3.763  0.1537 -0.1569  0.9197
 8667SOL    HW137460   1.141   4.685   3.820  1.6974 -0.8993 -1.4014
 8667SOL    HW237461   1.122   0.011   3.684  1.5804 -0.4038  1.7760
 8668SOL     OW37462   2.137   4.368  16.805  0.1524 -0.4857  0.0832
 8668SOL    HW137463   2.104   4.455  16.827  0.0905 -0.0383 -1.7945
 8668SOL    HW237464   2.057   4.325  16.775 -1.9669  2.3592  1.6170
 8669SOL     OW37465   1.477   1.912   8.155 -0.2783  0.1618 -0.5595
 8669SOL    HW137466   1.464   2.006   8.144  0.3888  0.3130 -0.0862
 8669SOL    HW237467   1.478   1.921   8.250  2.0088  3.5389 -0.9027
 8670SOL     OW37468   2.960   0.477   1.576  0.1847 -0.0415  0.0780
 8670SOL    HW137469   3.043   0.470   1.623  0.7647  0.6128 -0.8376
 8670SOL    HW237470   2.970   0.399   1.521  3.6729  1.2744 -1.1874
 8671SOL     OW37471   4.111   1.064   5.707  0.1667 -0.6825  0.1941
 8671SOL    HW137472   4.099   1.061   5.802 -2.9359  0.4107 -0.1506
 8671SOL    HW237473   4.027   1.024   5.685 -0.7050 -0.2368  2.6501
 8672SOL     OW37474   4.102   2.966  13.684 -0.0971 -0.2576  0.3237
 8672SOL    HW137475   4.116   2.888  13.631 -0.6012 -1.4008  1.8924
 8672SOL    HW237476   4.164   2.959  13.757 -0.9655 -0.9642  0.9974
 8673SOL     OW37477   3.259   0.151   8.673 -0.0791 -0.2175  0.4496
 8673SOL    HW137478   3.314   0.213   8.721  0.5773  0.5511 -1.2874
 8673SOL    HW237479   3.316   0.133   8.598  0.5824  1.6999  0.4979
 8674SOL     OW37480   0.110   2.747   8.862 -0.4504 -0.1593 -0.3873
 8674SOL    HW137481   0.071   2.667   8.827 -0.5811 -0.7730  1.1549
 8674SOL    HW237482   0.126   2.795   8.781  0.6240 -2.1689 -1.3848
 8675SOL     OW37483   2.688   2.378   0.599 -0.3580  0.2490  0.0331
 8675SOL    HW137484   2.603   2.381   0.643 -0.5512  1.1382 -0.4093
 8675SOL    HW237485   2.743   2.424   0.663 -0.1488  1.5501 -1.0884
 8676SOL     OW37486   2.924   1.085   2.740 -0.2887 -0.0729  0.4252
 8676SOL    HW137487   2.997   1.122   2.790  0.0174 -0.5610  0.3331
 8676SOL    HW237488   2.887   1.165   2.702 -0.3404 -1.0170 -1.5421
 8677SOL     OW37489   3.733   1.027  15.591  0.0328  0.4051 -0.1142
 8677SOL    HW137490   3.693   1.081  15.659  0.7279 -0.2426  0.8037
 8677SOL    HW237491   3.704   0.939  15.615  0.4058  0.4605  0.5118
 8678SOL     OW37492   2.615   0.413  10.384  0.5304  0.4579 -0.3186
 8678SOL    HW137493   2.575   0.365  10.311 -2.9465  1.6628  0.7967
 8678SOL    HW237494   2.683   0.356  10.417  1.4990  2.5051  1.1805
 8679SOL     OW37495   3.593   2.183   2.561 -0.0577  0.7566  0.2807
 8679SOL    HW137496   3.672   2.175   2.509 -0.3286  0.7651 -0.1270
 8679SOL    HW237497   3.534   2.219   2.494  0.8214  1.3824 -0.1504
 8680SOL     OW37498   1.368   1.304   9.238 -0.6745 -0.2640 -0.2538
 8680SOL    HW137499   1.411   1.248   9.173 -0.3428 -1.9177  1.4080
 8680SOL    HW237500   1.277   1.306   9.206 -0.4774  3.3718 -0.5639
 8681SOL     OW37501   2.537   3.809   4.502 -0.3484  0.1238  0.0948
 8681SOL    HW137502   2.502   3.733   4.548  0.9925  0.2655  1.3358
 8681SOL    HW237503   2.462   3.825   4.445 -1.7414  2.1754  2.5583
 8682SOL     OW37504   2.223   1.807   1.835  0.4030 -0.2719 -0.2693
 8682SOL    HW137505   2.311   1.789   1.804  1.0067  1.0716  0.6525
 8682SOL    HW237506   2.183   1.721   1.829 -1.0536  0.4703 -1.2997
 8683SOL     OW37507   3.686   4.576   6.403  0.4676  0.0812  0.0329
 8683SOL    HW137508   3.660   4.642   6.467 -1.5827 -0.6004 -0.1037
 8683SOL    HW237509   3.667   4.620   6.321  0.3034 -0.3742 -0.1758
 8684SOL     OW37510   3.995   3.693  17.671  0.0853  0.0132 -0.2092
 8684SOL    HW137511   3.986   3.656   0.066  1.4490 -0.7092 -0.3721
 8684SOL    HW237512   4.044   3.628  17.620 -1.3343 -0.6609 -0.7281
 8685SOL     OW37513   1.880   4.606   7.930 -0.3608  0.5487  0.4508
 8685SOL    HW137514   1.862   4.612   7.836  1.2848  0.4307  0.1305
 8685SOL    HW237515   1.862   4.513   7.944  1.2853  0.3413  1.1524
 8686SOL     OW37516   0.729   4.618   4.566 -0.1837 -0.1469  0.2146
 8686SOL    HW137517   0.665   4.606   4.496 -0.2788  0.3584  0.2168
 8686SOL    HW237518   0.767   4.704   4.550 -2.0580  0.5045 -0.7418
 8687SOL     OW37519   1.695   0.881   6.333 -0.0649  0.4296 -0.0002
 8687SOL    HW137520   1.720   0.943   6.264  0.7067 -0.6208 -0.6798
 8687SOL    HW237521   1.755   0.809   6.312 -0.8786  0.5280 -2.7146
 8688SOL     OW37522   2.455   3.614  14.977  0.1330  0.6127 -0.0989
 8688SOL    HW137523   2.545   3.644  14.964 -0.2356  1.2010 -1.3475
 8688SOL    HW237524   2.445   3.544  14.913  0.9183 -0.6570  1.1814
 8689SOL     OW37525   2.856   3.352  10.359  0.3577 -0.7845 -0.1814
 8689SOL    HW137526   2.819   3.315  10.279 -0.5924 -0.3419  0.0551
 8689SOL    HW237527   2.866   3.273  10.412  0.0775 -1.3921 -1.0336
 8690SOL     OW37528   0.373   3.144   7.701  0.9368 -0.0147  0.6154
 8690SOL    HW137529   0.414   3.216   7.749  2.4634  0.1534 -0.9547
 8690SOL    HW237530   0.343   3.193   7.624  1.4267 -2.4998 -1.1535
 8691SOL     OW37531   2.626   4.472   2.012 -0.5706 -0.3037 -0.4488
 8691SOL    HW137532   2.553   4.488   1.952  0.4306 -4.0051 -2.7073
 8691SOL    HW237533   2.678   4.551   2.000 -0.2285 -0.6569 -1.3667
 8692SOL     OW37534   0.501   4.178   5.992 -0.6108  0.2373 -0.3886
 8692SOL    HW137535   0.406   4.181   6.002 -0.5170 -1.6174  1.0183
 8692SOL    HW237536   0.528   4.268   6.012 -0.1259 -0.1929  0.8575
 8693SOL     OW37537   4.307   2.675   5.116  0.3642  0.3238 -0.2476
 8693SOL    HW137538   4.330   2.635   5.200  1.2218  1.1421 -0.0917
 8693SOL    HW237539   4.394   2.678   5.076 -0.6145  1.8852 -2.2772
 8694SOL     OW37540   2.585   2.113   8.818 -0.4020  0.2315  0.5598
 8694SOL    HW137541   2.490   2.098   8.825 -0.5973  0.4867 -1.4502
 8694SOL    HW237542   2.613   2.172   8.888 -1.5304  1.1053  0.2754
 8695SOL     OW37543   2.496   2.131   2.261 -0.0652 -0.1178  0.1743
 8695SOL    HW137544   2.495   2.067   2.191 -1.2441 -0.8607  0.8615
 8695SOL    HW237545   2.589   2.147   2.277  0.1455 -0.3721 -0.8116
 8696SOL     OW37546   1.040   2.836  14.819 -0.0877 -0.4838 -0.1242
 8696SOL    HW137547   1.038   2.874  14.907  0.7874 -3.8686  1.3983
 8696SOL    HW237548   1.110   2.771  14.827 -0.7856 -1.2417 -0.2162
 8697SOL     OW37549   4.201   3.706   5.440 -0.4101  0.0675 -0.0453
 8697SOL    HW137550   4.274   3.719   5.379  0.8732  0.5822  1.5935
 8697SOL    HW237551   4.238   3.647   5.507 -0.4145 -0.1481 -0.2346
 8698SOL     OW37552   3.399   0.475   6.628  0.2743 -0.1215  0.4041
 8698SOL    HW137553   3.376   0.536   6.698  1.6230  0.0738  0.6687
 8698SOL    HW237554   3.418   0.538   6.558  2.3007 -1.0103  0.1492
 8699SOL     OW37555   1.919   4.392   5.271  0.0447  0.0649  0.9013
 8699SOL    HW137556   2.005   4.374   5.234 -0.6926 -2.8301  0.6008
 8699SOL    HW237557   1.922   4.488   5.278 -0.3378  0.2018 -0.8938
 8700SOL     OW37558   0.532   2.640   5.179  0.1348 -0.0907  0.4618
 8700SOL    HW137559   0.521   2.735   5.173 -1.6587 -0.4666 -2.0983
 8700SOL    HW237560   0.440   2.611   5.181 -0.3304  1.2741 -1.6014
 8701SOL     OW37561   1.226   4.312   6.293 -0.5262 -0.0114  0.2098
 8701SOL    HW137562   1.313   4.350   6.278 -0.0879 -1.3504 -0.5698
 8701SOL    HW237563   1.171   4.374   6.245  1.6721  0.6152 -1.4993
 8702SOL     OW37564   4.424   3.388   7.287  0.5178  0.0533  0.0274
 8702SOL    HW137565   4.445   3.317   7.347 -0.3809  0.5134  0.8855
 8702SOL    HW237566   4.389   3.445   7.355 -1.3122 -2.3767  1.1327
 8703SOL     OW37567   1.176   1.567   8.661 -0.6457 -0.4062  0.1598
 8703SOL    HW137568   1.238   1.513   8.711  0.7789 -1.5663 -2.8690
 8703SOL    HW237569   1.132   1.519   8.590  1.8434  0.4781 -1.9840
 8704SOL     OW37570   3.170   0.840  12.526 -0.0280 -0.4329  0.1929
 8704SOL    HW137571   3.083   0.867  12.497  0.4540 -1.3357 -2.0808
 8704SOL    HW237572   3.217   0.827  12.444 -1.4076  2.0635 -0.9767
 8705SOL     OW37573   1.996   1.243   5.323  0.0081  0.1378  0.2455
 8705SOL    HW137574   2.082   1.234   5.282 -0.2520 -1.5642  0.0635
 8705SOL    HW237575   2.002   1.175   5.390  2.7905  0.3069  0.1814
 8706SOL     OW37576   3.896   3.525   3.012 -0.4711 -0.5208 -0.4758
 8706SOL    HW137577   3.866   3.439   2.981 -0.4622 -0.4454 -0.6911
 8706SOL    HW237578   3.983   3.502   3.044 -1.9107 -4.5077  0.6705
 8707SOL     OW37579   3.676   0.724   1.606  0.3200 -0.0202  0.0743
 8707SOL    HW137580   3.698   0.791   1.670 -1.1977  0.4998  0.0517
 8707SOL    HW237581   3.740   0.741   1.537  1.2795  0.7594  1.1728
 8708SOL     OW37582   2.650   1.689   1.548 -0.1038 -0.5841  0.2703
 8708SOL    HW137583   2.703   1.613   1.569 -0.4556 -0.1920  2.6377
 8708SOL    HW237584   2.681   1.712   1.461 -0.4832 -4.0229 -0.7721
 8709SOL     OW37585   2.532   3.626   1.602  0.7464 -0.5168 -0.2535
 8709SOL    HW137586   2.458   3.590   1.651 -1.3997  3.9920 -0.1858
 8709SOL    HW237587   2.529   3.719   1.627  0.8116 -0.1270 -1.7081
 8710SOL     OW37588   0.013   1.046   2.774  0.5606 -0.4504 -0.1296
 8710SOL    HW137589   4.715   1.138   2.761 -1.0819 -1.0102 -1.4004
 8710SOL    HW237590   0.022   1.017   2.683 -0.7829  0.5285 -0.5663
 8711SOL     OW37591   4.432   0.632   2.446  0.3487  0.5931 -0.0646
 8711SOL    HW137592   4.347   0.649   2.406  0.9229  1.2520 -1.0141
 8711SOL    HW237593   4.402   0.596   2.530 -1.8576  4.5810  0.8512
 8712SOL     OW37594   2.403   0.695  12.723  0.6565 -0.0440  0.3443
 8712SOL    HW137595   2.362   0.701  12.809 -0.4591 -1.4814 -0.0882
 8712SOL    HW237596   2.345   0.744  12.666  0.2743 -1.0991 -0.1614
 8713SOL     OW37597   3.614   4.212   7.933  0.1192  0.2657 -0.0720
 8713SOL    HW137598   3.666   4.282   7.972  0.2941 -0.7949  1.5916
 8713SOL    HW237599   3.593   4.152   8.004  0.9274 -1.8647 -1.6323
 8714SOL     OW37600   3.827   2.916   7.684  0.0137 -0.3222 -0.0855
 8714SOL    HW137601   3.845   2.823   7.675 -0.8492 -0.3669 -1.3251
 8714SOL    HW237602   3.856   2.954   7.768  0.7817 -3.3112  0.9875
 8715SOL     OW37603   3.480   1.842   3.579  0.2703 -0.4149 -0.2676
 8715SOL    HW137604   3.448   1.891   3.655  2.0485 -2.5187  1.8424
 8715SOL    HW237605   3.401   1.818   3.531 -0.2093 -2.3063  1.4968
 8716SOL     OW37606   0.220   4.244   5.944 -0.7377  0.1985 -0.2076
 8716SOL    HW137607   0.264   4.329   5.929 -0.0531 -0.4002 -1.6321
 8716SOL    HW237608   0.129   4.265   5.924 -0.4766  2.2011  0.6399
 8717SOL     OW37609   1.947   3.592  11.440 -0.6746  0.0182 -0.2405
 8717SOL    HW137610   1.949   3.540  11.360  1.6435  0.3185 -0.3754
 8717SOL    HW237611   1.853   3.593  11.455 -0.4668 -1.9531  1.1644
 8718SOL     OW37612   0.901   0.262   8.525 -0.0460  0.3164  0.3301
 8718SOL    HW137613   0.940   0.349   8.512  0.2457  0.2755  0.9384
 8718SOL    HW237614   0.867   0.247   8.437 -1.4967 -3.0074  1.4604
 8719SOL     OW37615   2.069   0.105   2.470  0.6238 -0.0532  0.2463
 8719SOL    HW137616   2.099   0.188   2.507 -2.9113  0.3650  2.2411
 8719SOL    HW237617   2.154   0.078   2.436  0.5101 -1.1467  0.8171
 8720SOL     OW37618   1.483   1.604   8.802 -0.4084 -0.3700  0.4124
 8720SOL    HW137619   1.434   1.582   8.881 -0.1112  0.6319  0.8735
 8720SOL    HW237620   1.527   1.519   8.807 -2.2426 -1.3700 -0.5214
 8721SOL     OW37621   4.051   1.813  14.168 -0.1800 -0.3560 -0.0255
 8721SOL    HW137622   4.085   1.902  14.178 -0.5593 -0.1997 -0.1314
 8721SOL    HW237623   3.993   1.814  14.244 -1.1174 -2.9930 -0.6753
 8722SOL     OW37624   3.707   3.904  16.323  0.1403  0.3687 -0.2946
 8722SOL    HW137625   3.777   3.843  16.347  0.5177 -0.2019 -2.8707
 8722SOL    HW237626   3.662   3.927  16.404 -2.0070 -1.1816 -1.0256
 8723SOL     OW37627   3.802   4.634   9.737  0.1923  0.3964  0.4023
 8723SOL    HW137628   3.843   4.549   9.748 -2.2997 -0.7593  0.7219
 8723SOL    HW237629   3.720   4.622   9.785 -0.4213  0.9533 -0.5002
 8724SOL     OW37630   2.299   4.498   7.834 -0.2638 -0.1023  0.4049
 8724SOL    HW137631   2.275   4.490   7.926 -0.7726 -0.7533  0.2119
 8724SOL    HW237632   2.216   4.536   7.804 -1.0663 -1.1957  1.2669
 8725SOL     OW37633   3.037   0.884  14.600  0.3361 -0.2515  0.9843
 8725SOL    HW137634   3.051   0.872  14.694 -1.2448 -0.0631  1.2485
 8725SOL    HW237635   2.942   0.897  14.611  0.4209  3.4008 -2.5933
 8726SOL     OW37636   3.736   1.096   4.834  0.1642 -0.0214 -0.3408
 8726SOL    HW137637   3.682   1.152   4.889  0.4714 -0.5628  0.5093
 8726SOL    HW237638   3.753   1.145   4.754 -0.1827 -1.5114 -1.3389
 8727SOL     OW37639   3.966   4.409   3.702  0.2352 -0.0875  0.5745
 8727SOL    HW137640   3.915   4.490   3.699 -1.0382 -0.9013  0.2787
 8727SOL    HW237641   3.899   4.342   3.715  1.4983 -0.7089  3.8518
 8728SOL     OW37642   3.851   0.125   2.296  0.4574  0.0113  0.0610
 8728SOL    HW137643   3.813   0.060   2.236 -2.2534 -0.2497  2.0474
 8728SOL    HW237644   3.933   0.082   2.318  0.3723 -1.1414 -1.8840
 8729SOL     OW37645   3.118   0.755   8.930  0.7064 -0.5851  0.0539
 8729SOL    HW137646   3.125   0.767   9.025 -1.4215  0.8314  0.0482
 8729SOL    HW237647   3.185   0.690   8.913  0.6742 -0.6415  0.1394
 8730SOL     OW37648   3.078   0.864   2.900  0.1249 -0.6446  0.0237
 8730SOL    HW137649   3.158   0.812   2.903 -0.5868 -1.7927 -1.0092
 8730SOL    HW237650   3.082   0.900   2.812 -0.0371 -1.5518 -0.3475
 8731SOL     OW37651   4.561   1.530  17.392  0.0839  0.1749 -0.6934
 8731SOL    HW137652   4.562   1.547  17.487  1.9709 -2.1420 -0.3137
 8731SOL    HW237653   4.485   1.579  17.360 -1.6321 -0.9832  1.5741
 8732SOL     OW37654   1.441   2.090   1.717  0.2453  0.0638  0.2329
 8732SOL    HW137655   1.381   2.015   1.717  1.1280 -0.6454  2.4628
 8732SOL    HW237656   1.464   2.084   1.625  0.6752  0.6926  0.2963
 8733SOL     OW37657   3.130   4.658  16.039  0.0936  0.1941  0.0114
 8733SOL    HW137658   3.212   4.647  15.991  0.6659  1.1095  0.7865
 8733SOL    HW237659   3.107   0.027  16.029  0.2105  0.5408  2.7266
 8734SOL     OW37660   2.935   0.718   7.726 -0.8287  0.6588  0.1629
 8734SOL    HW137661   2.990   0.712   7.648  2.4242  2.6253  2.2368
 8734SOL    HW237662   2.869   0.781   7.696 -1.0825 -0.6704 -1.9960
 8735SOL     OW37663   4.324   1.745  16.927  0.5054  0.3774  0.3439
 8735SOL    HW137664   4.264   1.709  16.993 -1.0602  3.3503  0.5023
 8735SOL    HW237665   4.265   1.749  16.852 -1.1322 -0.7700  1.5710
 8736SOL     OW37666   2.346   2.398   2.009 -0.5435  0.3427 -0.9261
 8736SOL    HW137667   2.372   2.340   2.081 -3.0322  1.4606  0.8595
 8736SOL    HW237668   2.430   2.419   1.968  0.4054 -3.4089 -0.9024
 8737SOL     OW37669   1.641   3.561   5.267  0.0498  0.3936  0.5185
 8737SOL    HW137670   1.564   3.573   5.212  2.8203  0.4635 -3.3849
 8737SOL    HW237671   1.618   3.598   5.352  2.1813  0.4485  1.0785
 8738SOL     OW37672   0.726   0.059  10.980 -0.7269 -0.1200  0.1977
 8738SOL    HW137673   0.665   4.718  10.942 -0.4083 -1.1507  1.3918
 8738SOL    HW237674   0.711   0.045  11.073  0.1179  1.4011  0.5555
 8739SOL     OW37675   3.665   1.843   7.983 -0.0826  0.1281  0.7129
 8739SOL    HW137676   3.620   1.895   7.917  0.8590 -1.1105 -0.8991
 8739SOL    HW237677   3.756   1.872   7.980  0.0260 -0.0429  2.1762
 8740SOL     OW37678   3.587   1.991   7.769 -0.2472  0.2846  0.0321
 8740SOL    HW137679   3.605   1.913   7.717 -1.0487 -0.6130  1.1087
 8740SOL    HW237680   3.495   2.002   7.746  0.6620  3.0578 -2.1946
 8741SOL     OW37681   4.646   3.735  13.546  0.3840  0.1572 -0.3198
 8741SOL    HW137682   4.634   3.727  13.641 -2.2423  1.0542 -0.5748
 8741SOL    HW237683   4.590   3.810  13.525 -0.7624 -1.2058 -2.0882
 8742SOL     OW37684   1.640   3.722   1.289 -0.1698 -0.1713  0.0525
 8742SOL    HW137685   1.651   3.811   1.253  2.6570  0.0053  1.3402
 8742SOL    HW237686   1.546   3.731   1.304  0.1158  0.7606  1.2408
 8743SOL     OW37687   3.617   4.075   5.561 -0.2189 -0.1644 -0.8569
 8743SOL    HW137688   3.539   4.118   5.597  0.0518  2.0919 -3.0454
 8743SOL    HW237689   3.684   4.143   5.560  0.9879 -1.3119  0.7936
 8744SOL     OW37690   0.949   0.167  16.596 -0.1187  0.7937 -0.0670
 8744SOL    HW137691   0.882   0.129  16.540  0.2768 -2.2040  1.5062
 8744SOL    HW237692   0.990   0.083  16.617 -0.9693  0.5112  0.4364
 8745SOL     OW37693   3.410   0.135   7.046  0.1933  1.1577  0.6189
 8745SOL    HW137694   3.485   0.100   6.999 -0.8893 -0.7712  0.3230
 8745SOL    HW237695   3.379   0.056   7.090 -0.3290  0.8584 -0.2871
 8746SOL     OW37696   0.868   3.766   9.122 -0.3813  0.2698  0.3489
 8746SOL    HW137697   0.916   3.683   9.133  0.4976  0.8894  1.2232
 8746SOL    HW237698   0.792   3.757   9.180 -1.5752  2.6753 -0.8774
 8747SOL     OW37699   0.445   0.468   2.534  0.2400 -0.3452 -0.6988
 8747SOL    HW137700   0.353   0.454   2.555  0.0889  2.4243  0.4960
 8747SOL    HW237701   0.441   0.544   2.475 -1.1575  1.3386  1.5282
 8748SOL     OW37702   1.195   3.590   5.805 -0.2665 -0.8432  0.2822
 8748SOL    HW137703   1.242   3.665   5.770  0.0659 -1.3110 -0.2699
 8748SOL    HW237704   1.121   3.632   5.849 -1.6189 -2.6046 -0.2835
 8749SOL     OW37705   0.618   3.389  11.035 -0.3308 -0.1953  0.9054
 8749SOL    HW137706   0.628   3.447  11.110  0.2643 -1.9113  2.1678
 8749SOL    HW237707   0.569   3.316  11.074 -0.0125 -2.0984 -2.1988
 8750SOL     OW37708   2.072   0.400   1.969  0.9265  0.3729 -0.6649
 8750SOL    HW137709   2.112   0.364   2.049  0.4294 -0.8485 -0.9638
 8750SOL    HW237710   2.067   0.328   1.906  2.7310  1.3905 -1.9684
 8751SOL     OW37711   0.851   3.157   7.081 -0.2501  0.6622  0.2023
 8751SOL    HW137712   0.907   3.235   7.077  0.4372  0.1304 -0.5624
 8751SOL    HW237713   0.836   3.149   6.987 -0.0617 -0.0738  0.2361
 8752SOL     OW37714   3.583   1.818   6.628  0.2467 -0.1403 -0.3312
 8752SOL    HW137715   3.537   1.761   6.567 -0.4098  0.8316 -0.7430
 8752SOL    HW237716   3.529   1.827   6.706  1.4575  1.1834  0.3644
 8753SOL     OW37717   2.480   1.313   3.661  0.9972  0.5630 -0.2926
 8753SOL    HW137718   2.543   1.350   3.600  2.1823  1.8547  1.6970
 8753SOL    HW237719   2.401   1.353   3.626  0.5275  0.9967  1.2459
 8754SOL     OW37720   2.015   2.703   2.174 -0.1493 -0.7675  0.2082
 8754SOL    HW137721   2.045   2.783   2.131 -0.1216 -0.5884  0.5599
 8754SOL    HW237722   2.013   2.738   2.263 -0.5120  0.0866 -0.1293
 8755SOL     OW37723   1.394   1.283   7.811  0.1926 -0.0517 -0.0361
 8755SOL    HW137724   1.352   1.298   7.895  1.4931  2.0593  0.2339
 8755SOL    HW237725   1.311   1.287   7.763  0.6819  1.4283 -0.7769
 8756SOL     OW37726   3.547   4.482   3.807  0.2044 -0.0613 -0.4800
 8756SOL    HW137727   3.624   4.530   3.839 -2.0800  2.7884  0.7273
 8756SOL    HW237728   3.490   4.556   3.788 -1.1304 -1.2569 -1.1741
 8757SOL     OW37729   4.225   2.926   7.189 -0.4436  0.3325  0.1213
 8757SOL    HW137730   4.163   2.874   7.240  0.3213 -0.8110 -0.0913
 8757SOL    HW237731   4.199   3.018   7.195 -1.3557  0.0454  0.5613
 8758SOL     OW37732   1.491   0.671  16.682  0.8180 -0.0828  0.5692
 8758SOL    HW137733   1.527   0.636  16.764 -1.2842 -2.7494  0.3323
 8758SOL    HW237734   1.406   0.629  16.676  0.3553  0.6007  2.3485
 8759SOL     OW37735   0.285   1.677  15.024  0.2294  0.4341  0.3102
 8759SOL    HW137736   0.261   1.731  14.949  0.0528 -3.2638 -2.2858
 8759SOL    HW237737   0.196   1.670  15.059 -0.2561  3.8238 -0.1829
 8760SOL     OW37738   3.167   0.691   6.718  0.0028 -0.0249 -0.0863
 8760SOL    HW137739   3.198   0.642   6.795  3.3769  0.9084 -0.8674
 8760SOL    HW237740   3.232   0.760   6.708  2.2270 -1.9025  1.4256
 8761SOL     OW37741   3.596   2.389   5.229  0.1590  0.2751  0.0710
 8761SOL    HW137742   3.554   2.473   5.245  0.0152  0.2925 -0.4194
 8761SOL    HW237743   3.539   2.339   5.288  1.9740 -0.7529  0.9630
 8762SOL     OW37744   3.129   3.452   3.818  0.5234  0.2209  0.4879
 8762SOL    HW137745   3.080   3.389   3.870  1.8414  0.0013  1.4776
 8762SOL    HW237746   3.096   3.440   3.729  1.9517  2.1360 -0.2938
 8763SOL     OW37747   1.607   1.315   0.479  0.0154 -0.0725 -0.7218
 8763SOL    HW137748   1.657   1.243   0.516 -0.1357 -0.6899 -1.7086
 8763SOL    HW237749   1.672   1.351   0.419 -1.1841  1.6068 -0.9943
 8764SOL     OW37750   2.502   1.683   3.301  0.3573 -0.2659 -0.4340
 8764SOL    HW137751   2.443   1.702   3.228 -1.1020  1.2767  1.1563
 8764SOL    HW237752   2.563   1.621   3.260  0.8867  1.0548 -1.6257
 8765SOL     OW37753   2.425   0.294   6.956  0.6918  0.6248 -0.1616
 8765SOL    HW137754   2.470   0.309   6.873 -0.0840  1.5483 -0.4098
 8765SOL    HW237755   2.408   0.200   6.957 -2.4441  1.1374 -3.5251
 8766SOL     OW37756   4.189   2.422   4.713 -0.1406 -0.6187  0.4421
 8766SOL    HW137757   4.212   2.345   4.765  0.2125 -1.1520 -0.5053
 8766SOL    HW237758   4.275   2.434   4.673  0.2330  0.9923  1.7209
 8767SOL     OW37759   1.301   2.274   6.583 -0.2000 -0.2425  0.1531
 8767SOL    HW137760   1.249   2.237   6.512  0.2186 -1.5850  0.5330
 8767SOL    HW237761   1.333   2.353   6.540  2.1383  0.0752  2.4689
 8768SOL     OW37762   3.236   4.355  12.920 -0.0959 -0.5601  0.4054
 8768SOL    HW137763   3.278   4.292  12.978 -1.7529 -0.0065  2.2048
 8768SOL    HW237764   3.224   4.420  12.989  2.0012 -0.5807  0.7654
 8769SOL     OW37765   3.207   1.026   0.213 -0.0210  0.1666 -0.2463
 8769SOL    HW137766   3.148   0.965   0.257 -1.8389  2.0824  0.0171
 8769SOL    HW237767   3.206   1.097   0.278 -1.6932 -0.1431  0.0831
 8770SOL     OW37768   2.248   1.715  12.140 -0.8083  0.1727  0.1188
 8770SOL    HW137769   2.176   1.777  12.129 -0.4885  0.5660  0.2274
 8770SOL    HW237770   2.303   1.736  12.065  2.1144  1.5340  2.6214
 8771SOL     OW37771   0.671   2.671   3.371  0.4532 -0.3703 -0.4012
 8771SOL    HW137772   0.590   2.713   3.340  1.1820  1.9080  0.7406
 8771SOL    HW237773   0.726   2.715   3.306 -0.6788  0.9568 -0.4700
 8772SOL     OW37774   3.250   2.771   9.657  0.5430 -0.0936  0.1789
 8772SOL    HW137775   3.346   2.766   9.662  0.4294 -0.9573  1.3713
 8772SOL    HW237776   3.238   2.820   9.739  0.3316 -1.9611  1.2608
 8773SOL     OW37777   1.241   0.678   7.648  0.1209  0.1491 -0.7238
 8773SOL    HW137778   1.240   0.756   7.593  1.3423 -0.1335 -1.1451
 8773SOL    HW237779   1.209   0.718   7.728 -0.4657  0.0860 -0.9280
 8774SOL     OW37780   1.865   2.805   7.602  0.4694 -1.2717 -0.3573
 8774SOL    HW137781   1.953   2.828   7.631 -0.8074 -0.3493  2.7462
 8774SOL    HW237782   1.854   2.715   7.632 -0.5590  0.0382  3.1182
 8775SOL     OW37783   3.581   2.603  16.387 -0.5856  0.0644 -0.3248
 8775SOL    HW137784   3.592   2.621  16.294  0.6074 -0.4918 -0.2943
 8775SOL    HW237785   3.497   2.557  16.382  0.6111 -2.0797 -0.4860
 8776SOL     OW37786   1.886   0.075   3.762 -0.5126  0.4441 -0.0421
 8776SOL    HW137787   1.920   4.708   3.756 -1.6942 -0.3205  4.2583
 8776SOL    HW237788   1.831   0.079   3.841 -2.0527 -1.5057 -1.0096
 8777SOL     OW37789   3.991   3.790   2.679 -0.3229  0.5393  0.2969
 8777SOL    HW137790   3.915   3.762   2.731  0.1357 -1.3349 -0.0379
 8777SOL    HW237791   4.046   3.713   2.695 -1.4639 -0.4121 -0.3898
 8778SOL     OW37792   3.140   2.283   1.319  0.1274  0.3989 -0.7385
 8778SOL    HW137793   3.231   2.253   1.327  1.1808  3.8065  0.0290
 8778SOL    HW237794   3.117   2.239   1.237  1.1730 -1.1523 -0.1930
 8779SOL     OW37795   3.620   4.535   2.400  0.0722  0.1249  0.5108
 8779SOL    HW137796   3.550   4.600   2.399  0.7151  0.8018 -0.3240
 8779SOL    HW237797   3.674   4.565   2.327 -0.8904 -0.9328 -0.6254
 8780SOL     OW37798   0.742   0.743   1.305  0.3046 -0.0608  0.0169
 8780SOL    HW137799   0.660   0.707   1.272 -0.3871  1.2928  0.2904
 8780SOL    HW237800   0.795   0.702   1.236 -1.0277  0.9522 -1.5909
 8781SOL     OW37801   3.093   2.591   0.383  0.1264  0.0178  0.1972
 8781SOL    HW137802   3.081   2.601   0.478  1.4459 -1.2785  0.5001
 8781SOL    HW237803   3.178   2.630   0.366  0.0949 -1.4160 -3.3133
 8782SOL     OW37804   1.204   4.132   7.946  0.8003  0.8380  0.4374
 8782SOL    HW137805   1.165   4.200   7.891 -1.2576  0.7131  1.7531
 8782SOL    HW237806   1.152   4.130   8.026 -0.1779 -1.2835 -0.2598
 8783SOL     OW37807   1.442   3.938  10.252  0.1523 -0.5718  0.3650
 8783SOL    HW137808   1.460   3.845  10.263 -2.2031 -1.1641 -0.8765
 8783SOL    HW237809   1.475   3.960  10.339  0.0921  1.0675 -0.0180
 8784SOL     OW37810   4.581   4.446  13.475 -0.9680  0.0447 -0.2238
 8784SOL    HW137811   4.498   4.435  13.520 -0.2250  0.7041  1.3361
 8784SOL    HW237812   4.570   4.388  13.400 -0.0560 -2.0506  1.2641
 8785SOL     OW37813   2.824   1.810  16.054  0.8562  0.0860 -0.3335
 8785SOL    HW137814   2.740   1.805  16.008  0.3403  1.0158  0.5103
 8785SOL    HW237815   2.797   1.821  16.145  0.6516  0.3375 -0.4250
 8786SOL     OW37816   2.038   3.553   0.220 -0.6532  0.4737  0.0854
 8786SOL    HW137817   2.080   3.472   0.189  0.4557  1.7523 -1.7720
 8786SOL    HW237818   1.972   3.568   0.153  0.1802 -1.0429 -1.0796
 8787SOL     OW37819   1.233   2.869  15.517  0.1431  0.1345  0.1763
 8787SOL    HW137820   1.219   2.883  15.611 -1.6248 -4.4562  0.6159
 8787SOL    HW237821   1.294   2.940  15.495  0.1373  0.3441  0.8347
 8788SOL     OW37822   2.961   2.330   1.504 -0.1954  0.2381  0.0092
 8788SOL    HW137823   3.016   2.297   1.433 -2.4922  2.0228 -2.6313
 8788SOL    HW237824   3.030   2.370   1.557 -1.3465  1.4543  0.6155
 8789SOL     OW37825   1.678   1.219   3.920  0.2532  0.2199 -0.5276
 8789SOL    HW137826   1.774   1.225   3.916  0.2970 -0.9527 -1.1165
 8789SOL    HW237827   1.674   1.226   4.015 -0.3444 -2.2546 -0.3738
 8790SOL     OW37828   1.331   3.572   9.668  0.2749 -0.2502 -0.4643
 8790SOL    HW137829   1.280   3.564   9.587 -2.2799  0.1123  1.1093
 8790SOL    HW237830   1.272   3.516   9.719  0.2447 -0.7510 -1.0412
 8791SOL     OW37831   2.697   1.692  17.367  0.2245  0.0717  0.0874
 8791SOL    HW137832   2.734   1.776  17.395 -1.5113  0.8505  0.0783
 8791SOL    HW237833   2.772   1.652  17.323  1.0473  3.1676 -1.3247
 8792SOL     OW37834   4.216   2.969   5.625 -0.1038  0.0349 -0.1888
 8792SOL    HW137835   4.149   2.997   5.562  2.6150 -0.4662 -3.3497
 8792SOL    HW237836   4.164   2.893   5.651  1.3571 -0.8008  0.2609
 8793SOL     OW37837   4.131   3.373   4.676  0.0558  0.4167  0.0566
 8793SOL    HW137838   4.159   3.316   4.748 -0.8621 -0.1166 -0.0107
 8793SOL    HW237839   4.218   3.393   4.641 -0.4391  0.2536 -1.2450
 8794SOL     OW37840   4.191   3.592   0.467  1.0762  0.0701  0.2515
 8794SOL    HW137841   4.251   3.520   0.451  0.6807  0.2697 -2.0492
 8794SOL    HW237842   4.185   3.585   0.563  0.6330  0.9476  0.2872
 8795SOL     OW37843   0.713   0.818   3.155  0.4050 -0.0644  0.2941
 8795SOL    HW137844   0.783   0.761   3.187  0.0589 -0.4586  0.3443
 8795SOL    HW237845   0.756   0.903   3.157  0.2649 -0.0288  2.1695
 8796SOL     OW37846   3.117   2.898   2.357  0.6335  0.3276  0.1744
 8796SOL    HW137847   3.177   2.957   2.404  1.5464 -0.2213 -0.3160
 8796SOL    HW237848   3.080   2.856   2.434  0.7292  0.7048  0.4299
 8797SOL     OW37849   0.719   1.081   9.729  0.6441 -0.3522  0.2157
 8797SOL    HW137850   0.798   1.134   9.733 -0.9653  2.1551 -0.9396
 8797SOL    HW237851   0.748   1.024   9.658  0.2697  0.8239 -0.8749
 8798SOL     OW37852   2.308   1.538   6.583  0.0727  0.5259 -0.0278
 8798SOL    HW137853   2.267   1.458   6.616 -0.0958  1.5085  2.1113
 8798SOL    HW237854   2.243   1.567   6.519  0.2194  1.4601  0.2530
 8799SOL     OW37855   0.316   2.800   2.422 -0.3072  0.0853 -0.1370
 8799SOL    HW137856   0.306   2.861   2.496  0.4446  0.2915 -0.2011
 8799SOL    HW237857   0.308   2.868   2.355  1.2005  1.0654  0.6580
 8800SOL     OW37858   4.022   3.648   4.299  0.3168 -0.3130 -0.0390
 8800SOL    HW137859   4.045   3.688   4.215  1.2282 -2.1493 -0.6583
 8800SOL    HW237860   4.005   3.555   4.284 -1.3427 -0.4416  2.6181
 8801SOL     OW37861   0.906   1.241   7.949 -0.1878  0.0283  0.1459
 8801SOL    HW137862   0.937   1.325   7.983  1.5647  0.2260 -1.9702
 8801SOL    HW237863   0.904   1.188   8.028  0.3223  1.1507  0.9120
 8802SOL     OW37864   1.067   3.813   3.547  0.7022  0.3326  0.3607
 8802SOL    HW137865   1.013   3.888   3.521  1.6932  1.2250  0.8857
 8802SOL    HW237866   1.153   3.852   3.535 -0.1720  2.2669  0.4806
 8803SOL     OW37867   2.511   3.138   7.410 -0.1543 -0.2946  0.0126
 8803SOL    HW137868   2.593   3.113   7.453  0.0171  0.5705  0.1857
 8803SOL    HW237869   2.539   3.204   7.347 -0.2041  0.6369  0.9601
 8804SOL     OW37870   3.205   0.228   4.534  0.7110  0.2005  0.6908
 8804SOL    HW137871   3.120   0.205   4.571  0.6666 -0.7623 -0.0125
 8804SOL    HW237872   3.247   0.151   4.571  0.0018 -0.9420 -0.8608
 8805SOL     OW37873   1.183   4.128  11.767 -0.1096 -0.3959 -0.0191
 8805SOL    HW137874   1.198   4.217  11.736  1.8780 -0.9820 -0.7607
 8805SOL    HW237875   1.258   4.117  11.825 -0.0945  1.2096  0.2651
 8806SOL     OW37876   0.406   2.951   7.453  0.3617 -0.0437 -0.1630
 8806SOL    HW137877   0.315   2.921   7.458 -0.2037  1.2263 -2.5817
 8806SOL    HW237878   0.387   3.033   7.498  1.7267  0.8451 -1.1909
 8807SOL     OW37879   1.709   4.103  16.351 -0.4810  0.2146 -0.3900
 8807SOL    HW137880   1.791   4.147  16.375 -0.9089  1.4031 -1.1045
 8807SOL    HW237881   1.711   4.130  16.259 -2.3379  1.1915 -0.1482
 8808SOL     OW37882   1.503   2.024   9.470 -0.4141  0.0622 -0.0521
 8808SOL    HW137883   1.503   2.095   9.406 -0.1276 -1.3028 -1.5554
 8808SOL    HW237884   1.545   2.073   9.540 -2.7737 -0.4139  1.7033
 8809SOL     OW37885   0.428   2.474   0.501 -0.5348  0.0716 -0.4190
 8809SOL    HW137886   0.497   2.524   0.545 -1.4934 -0.8852  2.1520
 8809SOL    HW237887   0.349   2.504   0.546 -2.7685 -2.1483 -2.8677
 8810SOL     OW37888   1.407   2.072  16.689  0.0497  0.1049  0.0106
 8810SOL    HW137889   1.440   2.124  16.762  0.3128  1.0176 -0.7571
 8810SOL    HW237890   1.317   2.067  16.723  0.5544 -0.6800  1.2195
 8811SOL     OW37891   4.170   0.223  11.130  0.0158 -0.6749 -0.6349
 8811SOL    HW137892   4.164   0.310  11.091  0.5626 -0.5846 -0.5081
 8811SOL    HW237893   4.189   0.253  11.219 -1.9682 -3.3546  0.7207
 8812SOL     OW37894   0.132   3.180   3.981 -0.0222 -0.0684 -0.3338
 8812SOL    HW137895   0.176   3.215   3.903 -0.8087 -0.2473 -0.8588
 8812SOL    HW237896   0.049   3.153   3.942  0.0384  0.4303 -0.8123
 8813SOL     OW37897   1.275   2.024   7.701  0.0148 -0.2367 -0.1489
 8813SOL    HW137898   1.338   1.974   7.754  0.5155  1.1297  0.5427
 8813SOL    HW237899   1.261   2.106   7.748  2.1613  0.5991 -0.9421
 8814SOL     OW37900   1.906   1.413   9.126  0.1973  0.3458  0.2888
 8814SOL    HW137901   1.834   1.476   9.113 -0.6731 -0.6674  0.2429
 8814SOL    HW237902   1.941   1.406   9.037  2.6009 -0.8599  1.3280
 8815SOL     OW37903   1.123   1.175   7.799  0.1572 -0.2472 -0.2325
 8815SOL    HW137904   1.030   1.185   7.819 -0.0745  0.6789 -1.7687
 8815SOL    HW237905   1.126   1.084   7.828 -0.6614 -0.2697 -0.2216
 8816SOL     OW37906   3.133   0.176  17.352  0.2879  0.2543  0.1083
 8816SOL    HW137907   3.047   0.134  17.351  1.0323 -1.1661 -2.3055
 8816SOL    HW237908   3.132   0.252  17.293  2.0262  1.0159  1.0672
 8817SOL     OW37909   3.283   3.951   7.076  0.6582  0.4148 -0.4984
 8817SOL    HW137910   3.347   3.922   7.142 -1.2071  0.1087  1.1552
 8817SOL    HW237911   3.343   3.982   7.008  1.1489 -0.2547 -0.3802
 8818SOL     OW37912   1.436   3.144   4.790  0.2812 -0.1143 -0.2892
 8818SOL    HW137913   1.365   3.195   4.827  0.4877  0.7564 -1.1005
 8818SOL    HW237914   1.400   3.104   4.711 -0.8001 -0.7624  0.5359
 8819SOL     OW37915   2.431   0.938   6.283  0.2091 -0.5780  0.1715
 8819SOL    HW137916   2.482   0.933   6.202 -3.1648  1.4987 -2.0864
 8819SOL    HW237917   2.504   0.934   6.345 -0.9851 -1.8949  1.4598
 8820SOL     OW37918   1.681   2.471   9.596  0.0448  0.1534 -0.6786
 8820SOL    HW137919   1.714   2.558   9.617  1.0018  0.0699 -1.8116
 8820SOL    HW237920   1.586   2.475   9.586  0.1747  0.8346 -1.7062
 8821SOL     OW37921   1.475   4.014  11.661  0.6481 -0.6466  0.2842
 8821SOL    HW137922   1.560   3.975  11.644  0.5941 -0.4633 -0.3858
 8821SOL    HW237923   1.451   3.970  11.743 -0.6739 -0.6557 -0.1074
 8822SOL     OW37924   3.857   2.102   4.398 -0.5534  0.3799  0.3981
 8822SOL    HW137925   3.887   2.039   4.464  1.7800  0.1471 -0.8655
 8822SOL    HW237926   3.934   2.102   4.341 -0.6478  0.0336  0.2687
 8823SOL     OW37927   0.859   0.420   6.939 -0.3023  0.7714 -0.5248
 8823SOL    HW137928   0.909   0.497   6.911  0.0677  1.9298  3.3246
 8823SOL    HW237929   0.788   0.467   6.984 -1.0418 -1.5130  0.6521
 8824SOL     OW37930   2.174   4.241   8.267 -0.9372  0.3836 -0.1564
 8824SOL    HW137931   2.121   4.321   8.265  0.4146  1.3070  0.6600
 8824SOL    HW237932   2.179   4.221   8.360 -1.1019 -1.1536 -0.4896
 8825SOL     OW37933   3.575   4.626  15.415  0.5895  0.1433 -0.1187
 8825SOL    HW137934   3.562   4.633  15.510 -0.2906 -0.5682 -0.1861
 8825SOL    HW237935   3.628   4.547  15.413  1.2514  0.5118  2.3591
 8826SOL     OW37936   3.525   4.053   8.189  0.6527  0.6973  0.5891
 8826SOL    HW137937   3.598   3.991   8.194 -0.6155 -0.9060 -0.9377
 8826SOL    HW237938   3.467   4.021   8.258 -0.9859 -0.5756 -1.3966
 8827SOL     OW37939   1.750   1.762   8.148  0.0587 -0.4964 -0.0373
 8827SOL    HW137940   1.764   1.798   8.236 -0.4154  0.8687 -0.5327
 8827SOL    HW237941   1.657   1.780   8.140  0.6686  3.1062  1.1679
 8828SOL     OW37942   4.185   1.677   4.806  0.9243  0.0259 -0.1559
 8828SOL    HW137943   4.174   1.684   4.901  0.5447 -0.6209 -0.1519
 8828SOL    HW237944   4.170   1.770   4.787 -0.2276 -0.0534  0.3527
 8829SOL     OW37945   1.934   1.408   2.077 -0.7248  0.3105 -0.4619
 8829SOL    HW137946   2.019   1.450   2.094  0.2761 -1.7711 -0.3058
 8829SOL    HW237947   1.948   1.386   1.985 -2.4749 -0.3767 -0.5610
 8830SOL     OW37948   0.416   2.227   6.908 -0.4675 -0.5207 -0.0771
 8830SOL    HW137949   0.362   2.169   6.854 -1.5030 -1.2764  1.7912
 8830SOL    HW237950   0.486   2.244   6.845 -0.5884 -1.4113 -0.4441
 8831SOL     OW37951   4.586   4.039   8.306 -0.5187 -0.3436  0.1260
 8831SOL    HW137952   4.589   4.020   8.400  1.6725  0.4548  0.2210
 8831SOL    HW237953   4.602   4.133   8.318 -0.6364 -0.4465  1.0779
 8832SOL     OW37954   2.253   4.061   4.951  0.1406  0.2433 -0.1684
 8832SOL    HW137955   2.287   4.116   4.880 -0.7875  0.2692 -0.6001
 8832SOL    HW237956   2.296   3.981   4.923  0.2353  0.8567 -1.7926
 8833SOL     OW37957   0.358   0.733  12.012  0.0259 -0.7047 -0.1115
 8833SOL    HW137958   0.435   0.712  11.959 -0.6002 -0.7548 -0.9941
 8833SOL    HW237959   0.345   0.641  12.033 -1.1910 -0.2778  1.0621
 8834SOL     OW37960   2.294   2.772   4.941 -0.0168  0.5372 -0.0779
 8834SOL    HW137961   2.210   2.764   4.895 -1.0586 -1.6849  2.1784
 8834SOL    HW237962   2.285   2.858   4.983  0.9391  0.2552  0.6997
 8835SOL     OW37963   4.234   0.157   7.407  0.0738  0.6129 -0.8973
 8835SOL    HW137964   4.218   0.250   7.393  0.4078  1.1137  2.1452
 8835SOL    HW237965   4.282   0.124   7.331 -1.9239 -0.0171 -1.8878
 8836SOL     OW37966   0.706   3.101   0.895  0.3003  0.0378 -0.1777
 8836SOL    HW137967   0.749   3.075   0.814  1.7792 -1.0396  0.9516
 8836SOL    HW237968   0.776   3.127   0.954 -1.3331  1.0281  1.3193
 8837SOL     OW37969   2.135   3.937   4.617  0.4983 -0.1847 -0.3568
 8837SOL    HW137970   2.134   3.853   4.662  0.1208 -0.0147 -0.0462
 8837SOL    HW237971   2.083   3.999   4.668  0.8269 -1.9148  2.1104
 8838SOL     OW37972   3.742   2.550   6.281  0.5743  0.0413  0.6906
 8838SOL    HW137973   3.650   2.556   6.307  0.5748 -1.8018  1.1820
 8838SOL    HW237974   3.740   2.467   6.234  1.4686 -0.0857  0.8741
 8839SOL     OW37975   2.706   3.534  16.814  0.5069  0.6590  0.5475
 8839SOL    HW137976   2.629   3.579  16.779 -1.8427 -2.3635  1.8921
 8839SOL    HW237977   2.662   3.480  16.879  1.3306  0.1210  0.6618
 8840SOL     OW37978   4.514   2.536   8.578  0.1411 -0.4278 -0.4270
 8840SOL    HW137979   4.528   2.442   8.564  2.0946 -0.7489  3.5877
 8840SOL    HW237980   4.422   2.525   8.599 -0.0002  1.0700 -0.2813
 8841SOL     OW37981   0.344   0.837   5.297 -0.5680 -0.0061 -0.6016
 8841SOL    HW137982   0.388   0.785   5.363 -1.9366 -0.3901  0.0087
 8841SOL    HW237983   0.344   0.762   5.238  1.1088 -1.0929  0.8218
 8842SOL     OW37984   3.274   4.018   2.098 -0.0892  0.6309  0.0660
 8842SOL    HW137985   3.351   3.984   2.052 -1.7346 -3.1867  0.1407
 8842SOL    HW237986   3.308   4.018   2.187  0.2041 -2.0770 -0.0347
 8843SOL     OW37987   0.658   3.492   4.333  0.1374 -0.5559  0.2771
 8843SOL    HW137988   0.719   3.424   4.303 -0.5780 -1.8506  1.7843
 8843SOL    HW237989   0.684   3.565   4.277 -2.4448  1.2428  1.4106
 8844SOL     OW37990   1.115   3.495   8.838 -0.1389  0.4867  0.7941
 8844SOL    HW137991   1.111   3.410   8.794  0.2843  0.4534  0.8194
 8844SOL    HW237992   1.189   3.541   8.797 -0.9228  1.0822  0.0257
 8845SOL     OW37993   0.846   2.838   7.367  0.2635  0.3366  0.4654
 8845SOL    HW137994   0.889   2.919   7.395 -2.3647  2.5317 -1.9357
 8845SOL    HW237995   0.780   2.831   7.435  1.5560 -0.5725  1.6317
 8846SOL     OW37996   3.866   0.670   6.287  0.1405  0.1632  0.5859
 8846SOL    HW137997   3.824   0.605   6.230 -0.0508 -0.8093  1.8421
 8846SOL    HW237998   3.810   0.663   6.364 -0.8626  1.0793 -0.0671
 8847SOL     OW37999   4.308   3.011  13.865 -0.1356 -0.2765 -0.1837
 8847SOL    HW138000   4.358   3.074  13.916 -3.3562  1.5401  0.7886
 8847SOL    HW238001   4.383   2.964  13.830 -2.3387 -3.5852 -0.4324
 8848SOL     OW38002   3.953   0.028   4.173  0.2331 -0.3222 -0.1078
 8848SOL    HW138003   3.977   0.121   4.173  0.0102 -0.2662  0.8954
 8848SOL    HW238004   4.041   4.716   4.186  1.7073  3.4420  0.1065
 8849SOL     OW38005   1.753   1.782   7.887 -0.2297 -0.8886 -0.1185
 8849SOL    HW138006   1.782   1.759   7.975  1.1292 -1.1300 -0.6257
 8849SOL    HW238007   1.842   1.777   7.850 -0.4535  1.0841 -0.9188
 8850SOL     OW38008   0.716   4.434   5.542  0.1707  0.4674 -0.3161
 8850SOL    HW138009   0.641   4.375   5.537  0.3523  0.1701  0.4963
 8850SOL    HW238010   0.711   4.450   5.636  0.1722 -0.6310 -0.1315
 8851SOL     OW38011   1.753   4.255   2.517 -0.0103  0.6087  0.5496
 8851SOL    HW138012   1.817   4.185   2.508 -0.4693  0.0859  1.2562
 8851SOL    HW238013   1.816   4.325   2.529 -0.0918  0.9226 -0.9290
 8852SOL     OW38014   0.512   4.041   1.988 -0.1497 -0.2391  0.0906
 8852SOL    HW138015   0.491   4.085   1.905 -0.4087  0.2422  0.4126
 8852SOL    HW238016   0.607   4.032   1.980  0.0301  2.0718 -0.6506
 8853SOL     OW38017   0.481   0.834   4.436  0.4617  0.1925  0.5023
 8853SOL    HW138018   0.391   0.804   4.444  0.3831  0.2966 -0.0289
 8853SOL    HW238019   0.470   0.921   4.396  1.5635 -1.2532 -2.9250
 8854SOL     OW38020   1.776   1.526   6.187  0.0834  0.5614 -0.4814
 8854SOL    HW138021   1.798   1.578   6.264 -2.4183 -0.6615  1.0484
 8854SOL    HW238022   1.862   1.520   6.146 -0.0368  1.8369 -0.9376
 8855SOL     OW38023   4.717   2.348   1.994  0.0056  0.4049 -0.4395
 8855SOL    HW138024   4.699   2.390   2.078  1.1633  2.3387 -1.1482
 8855SOL    HW238025   4.662   2.270   1.998 -0.7304  1.0232  1.5472
 8856SOL     OW38026   0.347   0.462   4.437 -0.0738  0.2292 -0.1310
 8856SOL    HW138027   0.333   0.390   4.376  0.8477 -0.3930  0.3780
 8856SOL    HW238028   0.297   0.534   4.401  1.3214  1.9325  1.3341
 8857SOL     OW38029   1.891   3.440  10.379 -0.0402 -0.8210 -0.2603
 8857SOL    HW138030   1.824   3.415  10.442 -0.1762 -1.6572 -0.7310
 8857SOL    HW238031   1.852   3.520  10.343 -0.6751 -1.0120 -0.0004
 8858SOL     OW38032   3.453   3.598  14.682 -0.3059  0.5608 -0.4212
 8858SOL    HW138033   3.431   3.505  14.686  1.1082  0.2950  1.1456
 8858SOL    HW238034   3.487   3.597  14.592  1.6484 -0.3548  0.3462
 8859SOL     OW38035   1.200   0.068   5.716 -0.3858  0.1598  0.2311
 8859SOL    HW138036   1.194   0.031   5.628  1.7845 -0.5243  0.3774
 8859SOL    HW238037   1.222   0.160   5.699 -0.5108  0.9558  4.3922
 8860SOL     OW38038   0.961   1.225   7.044  0.2468 -0.4826  0.2405
 8860SOL    HW138039   1.047   1.248   7.009 -0.0744  0.9318  0.3846
 8860SOL    HW238040   0.949   1.302   7.100 -0.5612  0.3267 -1.0584
 8861SOL     OW38041   4.720   4.218   0.531 -0.2734 -0.3341 -0.0539
 8861SOL    HW138042   4.694   4.292   0.476  1.2129 -0.0416 -0.3686
 8861SOL    HW238043   4.638   4.201   0.576 -0.2356 -0.0298  0.1311
 8862SOL     OW38044   2.906   3.210   8.536  0.8836  0.0157  0.6187
 8862SOL    HW138045   2.859   3.151   8.478 -0.5999 -1.5687  3.4760
 8862SOL    HW238046   2.830   3.264   8.557  0.8770 -0.5073  1.9126
 8863SOL     OW38047   4.492   3.669   5.924  0.0241 -0.4073  0.1014
 8863SOL    HW138048   4.490   3.761   5.949 -1.9611  0.0133 -1.6276
 8863SOL    HW238049   4.412   3.635   5.962 -0.7080  0.1569 -0.9287
 8864SOL     OW38050   3.637   3.491   1.293 -0.0232 -0.3311 -0.0542
 8864SOL    HW138051   3.585   3.428   1.243 -3.3718  0.7550  2.0349
 8864SOL    HW238052   3.580   3.512   1.367 -1.1415 -0.5136 -0.8634
 8865SOL     OW38053   4.656   3.835   5.190  0.3174 -0.3466 -0.1657
 8865SOL    HW138054   4.667   3.754   5.239 -0.7749  0.4495  1.4019
 8865SOL    HW238055   0.025   3.863   5.190 -0.0380  0.8113  0.3564
 8866SOL     OW38056   2.122   4.204   4.170 -0.1354 -1.1878  0.1209
 8866SOL    HW138057   2.064   4.156   4.229 -0.1177 -0.3240  0.8596
 8866SOL    HW238058   2.201   4.205   4.224  0.9723 -1.3500 -1.5289
 8867SOL     OW38059   1.718   1.065  15.980  0.3299  0.0329  0.2974
 8867SOL    HW138060   1.791   1.125  15.994  1.6242 -0.9390 -2.3453
 8867SOL    HW238061   1.706   1.065  15.885 -2.3717 -1.4303  0.6359
 8868SOL     OW38062   3.623   2.885   3.344 -0.5934  0.4211 -0.2616
 8868SOL    HW138063   3.607   2.872   3.250  0.3326  2.6993 -0.7373
 8868SOL    HW238064   3.647   2.799   3.379 -2.0741  0.6575  1.3210
 8869SOL     OW38065   1.552   2.659   7.145 -0.2880 -0.4074 -0.1564
 8869SOL    HW138066   1.586   2.715   7.214 -0.8919  1.0987 -1.0706
 8869SOL    HW238067   1.576   2.575   7.183 -1.9012 -1.6524 -1.8632
 8870SOL     OW38068   2.111   0.046   7.322  0.2236 -0.2619 -0.6490
 8870SOL    HW138069   2.040   4.707   7.341 -0.4691  0.7564  0.0737
 8870SOL    HW238070   2.055   0.120   7.299 -0.6760 -0.1183  1.9740
 8871SOL     OW38071   4.401   4.055   1.499  0.0559  0.0365 -1.0460
 8871SOL    HW138072   4.341   4.005   1.444 -1.3776  0.7792 -0.1533
 8871SOL    HW238073   4.472   3.990   1.503 -1.7029 -1.5444  4.1866
 8872SOL     OW38074   1.582   2.327   0.686 -0.4770 -0.3095  0.4390
 8872SOL    HW138075   1.553   2.407   0.729 -0.2587 -0.0927  0.1837
 8872SOL    HW238076   1.578   2.267   0.761  1.0620  0.2900  1.0089
 8873SOL     OW38077   3.776   1.379   0.035 -0.1906 -0.1254  0.7521
 8873SOL    HW138078   3.869   1.356   0.026  0.2823  1.9068  0.3639
 8873SOL    HW238079   3.740   1.296   0.006  0.5402 -0.2710  0.2393
 8874SOL     OW38080   0.979   0.267  15.497 -0.3760 -0.2683 -0.9277
 8874SOL    HW138081   0.935   0.339  15.453 -1.2077  0.3802  0.9490
 8874SOL    HW238082   1.037   0.229  15.431 -0.2106 -3.3307  0.9942
 8875SOL     OW38083   1.582   1.376   3.681 -0.1940 -0.4734 -0.6853
 8875SOL    HW138084   1.531   1.426   3.745  2.3864  2.2305 -0.6910
 8875SOL    HW238085   1.600   1.300   3.736  1.0443 -0.4510 -1.0585
 8876SOL     OW38086   2.966   2.517   3.272  0.7088  0.2186  0.0188
 8876SOL    HW138087   2.874   2.522   3.248  0.9202 -1.3180 -1.1577
 8876SOL    HW238088   2.966   2.462   3.351  0.3845 -0.2838 -0.3338
 8877SOL     OW38089   2.997   4.514   5.209  0.3511  0.0506  0.1922
 8877SOL    HW138090   3.039   4.564   5.279 -2.2012  2.7237 -0.1922
 8877SOL    HW238091   2.913   4.496   5.252  1.0189  3.1321  2.7364
 8878SOL     OW38092   2.387   0.781   3.460  0.2268  0.1030  0.1561
 8878SOL    HW138093   2.372   0.785   3.365  0.2015 -2.1125  0.0598
 8878SOL    HW238094   2.354   0.865   3.493 -0.0421  1.1948 -2.9017
 8879SOL     OW38095   1.249   2.683   6.015  0.4049 -0.9071  0.7767
 8879SOL    HW138096   1.210   2.763   6.051  0.1727 -0.5882 -0.1852
 8879SOL    HW238097   1.229   2.633   6.094  2.2187  0.2868  2.0000
 8880SOL     OW38098   4.363   0.303   6.651 -0.1996  0.4044  0.2311
 8880SOL    HW138099   4.302   0.332   6.718 -1.2945 -1.2659 -0.0252
 8880SOL    HW238100   4.378   0.386   6.607  1.0959  1.0567  1.9237
 8881SOL     OW38101   2.124   0.205   9.975 -0.5749 -0.6150 -0.4155
 8881SOL    HW138102   2.076   0.284   9.949 -1.5597 -0.9814  0.2806
 8881SOL    HW238103   2.163   0.172   9.895 -0.0748  0.3381 -0.5739
 8882SOL     OW38104   1.968   4.361   9.477  0.0215  0.0707  0.4517
 8882SOL    HW138105   1.960   4.362   9.572 -0.9925  1.9524  0.3379
 8882SOL    HW238106   1.899   4.297   9.461 -1.9928  2.5489 -0.8107
 8883SOL     OW38107   3.423   3.129  13.157 -0.1769  0.0053  0.6256
 8883SOL    HW138108   3.365   3.202  13.136  1.8223  1.0405 -1.2226
 8883SOL    HW238109   3.389   3.067  13.092  2.1862  0.6782 -1.2225
 8884SOL     OW38110   0.408   2.579   8.224  0.2832 -0.1002  0.3088
 8884SOL    HW138111   0.369   2.540   8.302  1.0228 -1.2895  0.0844
 8884SOL    HW238112   0.347   2.647   8.195  0.1040  0.8753  2.9016
 8885SOL     OW38113   4.166   3.833   6.344 -0.1164  0.2216  0.3353
 8885SOL    HW138114   4.097   3.792   6.397 -0.6011 -0.4183 -0.7851
 8885SOL    HW238115   4.180   3.760   6.284  0.4106 -1.2456  2.2437
 8886SOL     OW38116   2.469   3.102   7.766  0.3992  0.1028 -0.3924
 8886SOL    HW138117   2.396   3.091   7.827  1.0127  0.0140  0.3218
 8886SOL    HW238118   2.416   3.103   7.686 -1.1569  0.9411  0.6350
 8887SOL     OW38119   3.762   1.623   3.362  0.3436  0.6777  0.2941
 8887SOL    HW138120   3.734   1.574   3.284 -1.8812 -2.0529  2.7620
 8887SOL    HW238121   3.775   1.714   3.335  0.1544 -0.0548 -2.2824
 8888SOL     OW38122   4.133   0.251   0.099 -0.2487  0.5867 -1.0441
 8888SOL    HW138123   4.143   0.198   0.020 -0.6620 -0.6112 -0.3016
 8888SOL    HW238124   4.206   0.312   0.093  1.0236 -0.8235  0.1957
 8889SOL     OW38125   3.969   0.623   0.515 -0.6750  0.0048 -0.4930
 8889SOL    HW138126   4.052   0.614   0.469 -0.4679 -1.2194  0.1055
 8889SOL    HW238127   4.005   0.648   0.600  0.1980 -1.6361 -0.3705
 8890SOL     OW38128   2.474   2.820   4.710 -0.3469  0.7774  0.3459
 8890SOL    HW138129   2.551   2.840   4.764  0.5366 -2.3167  0.2015
 8890SOL    HW238130   2.414   2.813   4.784 -0.9385 -0.8081 -0.2967
 8891SOL     OW38131   0.483   4.597   6.629  0.2753  0.6088  0.0647
 8891SOL    HW138132   0.467   4.519   6.577 -2.8065  1.7347 -0.6791
 8891SOL    HW238133   0.517   4.566   6.713 -0.9757 -0.0285  0.3370
 8892SOL     OW38134   1.751   4.314  10.056 -0.4409  0.1266 -0.2489
 8892SOL    HW138135   1.735   4.232  10.101  0.3542 -0.3361 -0.8132
 8892SOL    HW238136   1.796   4.361  10.127 -1.8027  0.6649  0.2562
 8893SOL     OW38137   0.626   2.178   4.363 -0.1254 -0.5144 -0.1180
 8893SOL    HW138138   0.633   2.110   4.430 -0.7153  1.4031  1.8834
 8893SOL    HW238139   0.625   2.122   4.285 -0.5493 -0.6626 -0.0073
 8894SOL     OW38140   3.242   2.113   4.334 -0.2703 -0.2687  0.1875
 8894SOL    HW138141   3.317   2.063   4.366  0.0192  0.3314  0.4444
 8894SOL    HW238142   3.180   2.097   4.406 -1.0570 -2.3900 -0.9749
 8895SOL     OW38143   2.104   0.355   9.330  0.3570  0.2022  0.0983
 8895SOL    HW138144   2.169   0.371   9.262 -0.3087  1.7840 -0.1550
 8895SOL    HW238145   2.152   0.383   9.408 -1.8833  1.0026  1.1816
 8896SOL     OW38146   3.660   0.847   9.912  0.3789 -0.4042 -0.1964
 8896SOL    HW138147   3.668   0.942   9.911 -0.0335 -0.3530  0.8308
 8896SOL    HW238148   3.565   0.836   9.906  0.1578  1.5472 -0.0516
 8897SOL     OW38149   1.736   1.246   1.112 -0.6830 -0.1930  0.6768
 8897SOL    HW138150   1.774   1.232   1.026  2.4522 -0.5796  2.0989
 8897SOL    HW238151   1.816   1.283   1.151  0.9234 -3.3741  0.3933
 8898SOL     OW38152   2.680   2.820   1.327 -0.4022  0.2343  0.1498
 8898SOL    HW138153   2.726   2.740   1.300  0.3360  0.4590  0.7700
 8898SOL    HW238154   2.607   2.816   1.265  1.3622 -1.2547 -1.8355
 8899SOL     OW38155   3.353   4.613   6.192  0.6101  0.2007 -0.0580
 8899SOL    HW138156   3.424   4.672   6.166  0.5705  0.6396  0.8318
 8899SOL    HW238157   3.305   4.585   6.114  1.1707 -0.0093 -0.3272
 8900SOL     OW38158   4.002   2.015   6.724 -0.9055 -0.0588 -0.4192
 8900SOL    HW138159   3.985   1.976   6.810  1.9761 -0.8529 -0.2134
 8900SOL    HW238160   4.070   1.962   6.684  0.3180  0.6236  0.7581
 8901SOL     OW38161   0.214   1.888   5.747 -0.2987 -0.0751  0.3418
 8901SOL    HW138162   0.209   1.983   5.755 -0.3045 -0.0204 -0.3000
 8901SOL    HW238163   0.167   1.873   5.665  1.2078 -0.2840 -0.4817
 8902SOL     OW38164   3.961   3.449  10.123 -0.3133 -0.3617 -0.5805
 8902SOL    HW138165   3.943   3.445  10.217 -1.0178 -0.4696 -0.7174
 8902SOL    HW238166   3.953   3.544  10.112  2.2760 -0.1833 -0.8313
 8903SOL     OW38167   0.780   3.701   1.210 -0.5081 -0.0688  0.6783
 8903SOL    HW138168   0.743   3.784   1.240 -1.5111 -0.5538  0.8050
 8903SOL    HW238169   0.811   3.672   1.295  1.9765 -1.8229 -0.8190
 8904SOL     OW38170   1.643   0.255  12.491  0.1130 -0.5200 -0.0183
 8904SOL    HW138171   1.556   0.215  12.486 -0.9012  1.7749 -0.3426
 8904SOL    HW238172   1.621   0.328  12.548 -0.8197 -0.2476 -0.7300
 8905SOL     OW38173   2.079   0.628   4.508  0.1340  0.2679  0.0351
 8905SOL    HW138174   2.146   0.621   4.577 -0.2791 -1.2843  0.2874
 8905SOL    HW238175   2.090   0.541   4.469  1.9952  0.9237 -0.9081
 8906SOL     OW38176   2.108   1.620   3.972 -0.2836  0.0272  0.5193
 8906SOL    HW138177   2.084   1.647   4.060 -2.5874  1.2051 -0.4800
 8906SOL    HW238178   2.183   1.678   3.963  0.8789 -1.8633 -2.1689
 8907SOL     OW38179   2.123   2.055   7.846 -0.4566 -0.1556 -0.0795
 8907SOL    HW138180   2.186   2.058   7.774  0.0267  1.3975  0.3865
 8907SOL    HW238181   2.184   2.010   7.904 -0.0085  0.8204  0.2202
 8908SOL     OW38182   1.242   2.880   5.284  0.6600 -0.7244  0.2237
 8908SOL    HW138183   1.289   2.806   5.248 -0.0109 -2.6226  3.2041
 8908SOL    HW238184   1.180   2.832   5.340  0.9533 -2.1307 -0.6696
 8909SOL     OW38185   4.428   0.851   3.592  0.1256  0.1073 -0.1016
 8909SOL    HW138186   4.333   0.843   3.584  0.1414  0.1022 -0.2832
 8909SOL    HW238187   4.461   0.775   3.639  2.1370  1.2903  0.3891
 8910SOL     OW38188   2.492   2.141  14.885 -0.2529  0.2105  0.1749
 8910SOL    HW138189   2.556   2.169  14.950 -0.4373  0.4161  0.2690
 8910SOL    HW238190   2.560   2.113  14.824 -1.8193  0.7505 -1.8375
 8911SOL     OW38191   4.017   1.775   5.974 -0.1375 -0.7489 -0.1896
 8911SOL    HW138192   3.955   1.787   6.045 -0.1284 -2.2916  0.0749
 8911SOL    HW238193   4.081   1.844   5.990 -2.4095  0.5422  3.2301
 8912SOL     OW38194   1.510   3.246  15.627 -0.3734  0.0287 -0.5915
 8912SOL    HW138195   1.440   3.199  15.581  0.6517  0.0185 -2.1493
 8912SOL    HW238196   1.550   3.286  15.549  3.6650  0.9508  1.9327
 8913SOL     OW38197   0.532   2.917   5.203 -0.4459  0.0164  0.0351
 8913SOL    HW138198   0.487   2.974   5.141  0.1834 -1.9916 -2.2497
 8913SOL    HW238199   0.602   2.972   5.239 -1.2762  1.2096 -0.1637
 8914SOL     OW38200   3.810   4.585   8.734  0.5614 -0.0348  0.3338
 8914SOL    HW138201   3.723   4.623   8.749  0.7841  1.4634 -2.1064
 8914SOL    HW238202   3.810   4.519   8.803  0.3328 -0.7853 -0.3898
 8915SOL     OW38203   2.215   3.438  14.058 -0.4485 -0.2240  0.5143
 8915SOL    HW138204   2.129   3.398  14.045  0.2045 -1.6585  0.6037
 8915SOL    HW238205   2.266   3.358  14.073 -0.4244 -0.8035 -2.7609
 8916SOL     OW38206   0.744   0.478   2.390  0.2559 -0.4871 -0.5514
 8916SOL    HW138207   0.714   0.485   2.300  0.4461  0.8419 -0.5057
 8916SOL    HW238208   0.714   0.388   2.404  1.1846 -0.9959 -1.8017
 8917SOL     OW38209   4.632   3.958   4.562  0.9961  0.1712  0.3320
 8917SOL    HW138210   4.640   3.945   4.467 -2.0257 -1.0584  0.2259
 8917SOL    HW238211   4.722   3.944   4.591  0.8492 -0.5113  0.4601
 8918SOL     OW38212   1.191   0.450  17.208 -0.3575 -0.1304 -0.6781
 8918SOL    HW138213   1.207   0.378  17.270 -1.8209 -0.3253 -0.5217
 8918SOL    HW238214   1.121   0.503  17.247 -1.2076 -0.9514 -1.0951
 8919SOL     OW38215   2.058   3.406   6.526  0.0792  0.8596 -0.0036
 8919SOL    HW138216   2.138   3.407   6.577  0.0937 -0.2722 -0.0212
 8919SOL    HW238217   2.003   3.345   6.575  2.7486  0.2040  2.1298
 8920SOL     OW38218   3.285   4.029   3.971 -0.1516  0.2778 -0.1235
 8920SOL    HW138219   3.336   4.098   3.930  0.8506  0.9322  2.2320
 8920SOL    HW238220   3.350   3.959   3.969 -0.6045 -0.1634  0.2739
 8921SOL     OW38221   0.681   4.578   1.844  0.0377 -0.2483 -0.4288
 8921SOL    HW138222   0.705   4.535   1.762  0.9061 -1.5571  0.5086
 8921SOL    HW238223   0.629   4.645   1.800  1.2098  1.1487  0.3206
 8922SOL     OW38224   4.439   1.127  11.683  0.0150 -0.4156 -0.2851
 8922SOL    HW138225   4.495   1.082  11.747 -0.7150  2.3903  2.3118
 8922SOL    HW238226   4.506   1.182  11.641  0.0987 -2.2524 -2.5552
 8923SOL     OW38227   3.449   3.618   9.978 -0.6126  0.1057 -0.0124
 8923SOL    HW138228   3.506   3.543   9.999  2.7570  1.7442 -3.4475
 8923SOL    HW238229   3.398   3.586   9.904  0.9819 -0.9724 -0.6518
 8924SOL     OW38230   2.378   2.250   9.286 -0.4426 -0.1499 -0.1545
 8924SOL    HW138231   2.341   2.323   9.335  0.1072 -0.2547  0.4226
 8924SOL    HW238232   2.421   2.297   9.214  0.1116 -0.0898  0.2104
 8925SOL     OW38233   3.616   4.203   4.220 -0.3436 -0.6460 -0.1570
 8925SOL    HW138234   3.674   4.234   4.150  0.6503 -2.7780 -0.2722
 8925SOL    HW238235   3.611   4.277   4.280  3.3932 -0.8555  0.4289
 8926SOL     OW38236   3.334   0.432  11.515  0.0358  0.5649 -0.0377
 8926SOL    HW138237   3.407   0.381  11.478 -0.5925  0.8678 -1.6989
 8926SOL    HW238238   3.385   0.504  11.551  1.2791  1.1280 -2.9303
 8927SOL     OW38239   3.440   1.009  14.591 -0.1056 -0.7642  0.3809
 8927SOL    HW138240   3.484   0.940  14.641  1.0029 -0.3379 -0.0268
 8927SOL    HW238241   3.446   1.081  14.653 -0.6122 -1.4777  1.2677
 8928SOL     OW38242   4.608   2.374   6.897 -0.2917 -0.8178 -0.1466
 8928SOL    HW138243   4.649   2.292   6.924  3.5072  0.9264 -0.6798
 8928SOL    HW238244   4.515   2.360   6.917  0.2059 -0.6049  2.2749
 8929SOL     OW38245   2.304   3.766   6.319  0.5143 -0.0757 -0.7804
 8929SOL    HW138246   2.239   3.832   6.341  1.0201  0.2925 -0.3731
 8929SOL    HW238247   2.349   3.799   6.242 -0.8595  0.4346 -1.3570
 8930SOL     OW38248   1.623   0.295   5.117  0.8302  0.0779 -0.3614
 8930SOL    HW138249   1.541   0.337   5.092  1.7809  1.7273 -0.6535
 8930SOL    HW238250   1.677   0.302   5.039  0.1594  3.1574 -0.5182
 8931SOL     OW38251   0.902   1.743   4.134 -0.1067  0.6266  0.0052
 8931SOL    HW138252   0.836   1.674   4.141  0.7941 -0.3703 -1.2784
 8931SOL    HW238253   0.875   1.776   4.049 -2.3309  0.8909  0.8047
 8932SOL     OW38254   2.465   1.821   5.919 -0.3420 -0.5213 -0.3010
 8932SOL    HW138255   2.494   1.888   5.982  0.2489 -0.1232 -0.9996
 8932SOL    HW238256   2.425   1.763   5.984 -1.7936 -0.5174 -1.2065
 8933SOL     OW38257   1.946   2.175   7.352 -0.6540 -0.6312 -0.7597
 8933SOL    HW138258   1.936   2.256   7.401 -0.4217 -0.4409 -1.0245
 8933SOL    HW238259   2.009   2.195   7.283  0.4689 -1.1940  0.0945
 8934SOL     OW38260   2.548   3.006   9.234 -0.2759 -0.6585 -0.2775
 8934SOL    HW138261   2.630   3.051   9.209 -0.6936  1.0008  1.3226
 8934SOL    HW238262   2.502   3.012   9.150  1.9094 -1.2491 -1.5255
 8935SOL     OW38263   1.203   1.468   6.545  0.4414 -0.1150  0.4575
 8935SOL    HW138264   1.261   1.461   6.621 -1.6562  0.7802  2.1421
 8935SOL    HW238265   1.243   1.406   6.485  0.1432 -0.4885  0.6454
 8936SOL     OW38266   3.440   3.317   6.009  0.0422 -0.0751 -0.0675
 8936SOL    HW138267   3.486   3.235   5.992  0.7399  0.7583 -2.1785
 8936SOL    HW238268   3.459   3.324   6.103  0.9280  2.0232 -0.4078
 8937SOL     OW38269   3.365   2.012   6.053 -0.2359 -0.3343 -0.2049
 8937SOL    HW138270   3.388   2.094   6.097 -1.5210  0.1260 -0.4064
 8937SOL    HW238271   3.413   2.029   5.972 -0.6037 -1.1865 -0.5993
 8938SOL     OW38272   3.362   3.716   2.527 -0.6083  0.1510 -0.1574
 8938SOL    HW138273   3.440   3.754   2.569 -0.4705 -0.1941 -0.1058
 8938SOL    HW238274   3.361   3.627   2.561 -1.7969  0.3593  0.3695
 8939SOL     OW38275   0.517   1.860   4.395  0.0606 -0.6260  0.6538
 8939SOL    HW138276   0.611   1.876   4.387 -0.4184  1.9079  0.0641
 8939SOL    HW238277   0.505   1.769   4.368  1.0445 -0.3787 -0.6181
 8940SOL     OW38278   2.061   1.549   1.071  0.4454 -0.2447  0.1485
 8940SOL    HW138279   1.995   1.559   1.002 -1.2045  0.7474  1.8971
 8940SOL    HW238280   2.113   1.628   1.057 -0.3887  0.8227  3.2678
 8941SOL     OW38281   4.418   0.948  15.063  0.7826 -0.0547  0.0461
 8941SOL    HW138282   4.372   0.872  15.028 -2.5286  0.9473  2.2518
 8941SOL    HW238283   4.489   0.899  15.104 -0.4389 -1.5751  0.3260
 8942SOL     OW38284   2.596   0.429  13.003 -0.0086 -0.7879  0.8726
 8942SOL    HW138285   2.519   0.457  13.053  0.8706 -0.7208  2.1657
 8942SOL    HW238286   2.549   0.431  12.919  0.9829 -3.2091  0.2505
 8943SOL     OW38287   0.775   2.549   6.571  0.2108  0.2127 -0.1247
 8943SOL    HW138288   0.730   2.607   6.510  1.7820  1.4119 -0.1592
 8943SOL    HW238289   0.825   2.610   6.626  0.3837 -0.2716  0.2599
 8944SOL     OW38290   1.817   4.626  14.269 -0.1047  0.2473  0.3595
 8944SOL    HW138291   1.795   4.545  14.314  1.2476 -0.6593 -0.6433
 8944SOL    HW238292   1.871   4.672  14.334  2.0861  1.0802 -2.0606
 8945SOL     OW38293   1.435   1.792   3.784  0.1022 -0.0769  0.0609
 8945SOL    HW138294   1.389   1.784   3.700  0.1897 -1.1107  0.1152
 8945SOL    HW238295   1.470   1.881   3.787  1.3362 -0.5705  0.0266
 8946SOL     OW38296   3.304   1.928   2.886  0.2623  0.3499  0.2112
 8946SOL    HW138297   3.298   2.016   2.923 -1.1761  1.4441 -2.6775
 8946SOL    HW238298   3.298   1.882   2.971  1.6043  0.4967  0.3891
 8947SOL     OW38299   1.139   2.238   7.836  0.2220 -1.1392 -0.0734
 8947SOL    HW138300   1.160   2.196   7.919  0.9854 -0.6561 -0.0255
 8947SOL    HW238301   1.115   2.330   7.848 -0.8158 -1.4653  0.3336
 8948SOL     OW38302   2.208   2.038   6.984 -0.1267  0.1079 -0.1691
 8948SOL    HW138303   2.191   1.973   6.915 -0.2707 -1.2026  1.1073
 8948SOL    HW238304   2.288   2.081   6.953  0.1882 -1.4451 -1.5149
 8949SOL     OW38305   4.570   1.800   3.166  0.0489 -0.0065  0.2819
 8949SOL    HW138306   4.651   1.805   3.217  1.0974 -0.0715 -1.3726
 8949SOL    HW238307   4.595   1.813   3.075  0.6581 -1.8658  0.1654
 8950SOL     OW38308   3.446   0.467   8.618 -0.0768 -0.3658 -0.0003
 8950SOL    HW138309   3.439   0.548   8.567  0.8843  0.4759  1.2161
 8950SOL    HW238310   3.442   0.398   8.552 -1.4663  0.0943 -0.4008
 8951SOL     OW38311   2.267   3.693   8.047 -0.3096  0.2116 -0.0999
 8951SOL    HW138312   2.288   3.786   8.054 -1.8572  0.4976  0.7069
 8951SOL    HW238313   2.302   3.665   8.132 -0.1408 -1.3704 -0.6856
 8952SOL     OW38314   2.845   0.608  16.440  0.5058 -0.5462 -0.2090
 8952SOL    HW138315   2.881   0.690  16.473  0.0521 -0.9386  1.2599
 8952SOL    HW238316   2.867   0.546  16.510 -1.4419 -0.6332  0.3201
 8953SOL     OW38317   0.193   2.825   5.512  0.5036  0.7299  0.0565
 8953SOL    HW138318   0.192   2.895   5.447 -2.0654  0.5044 -0.1437
 8953SOL    HW238319   0.145   2.865   5.585  0.7321  1.3186 -0.1218
 8954SOL     OW38320   1.539   0.136   6.271 -0.8565  0.1076  0.2554
 8954SOL    HW138321   1.553   0.050   6.230 -0.9624  0.8867 -1.4311
 8954SOL    HW238322   1.487   0.110   6.347  0.9583 -1.2350  1.0312
 8955SOL     OW38323   2.625   2.930   6.001  0.1241 -0.0054  0.1372
 8955SOL    HW138324   2.593   2.995   6.064 -0.8728  0.0156 -0.3833
 8955SOL    HW238325   2.553   2.867   6.011  0.6308 -0.8805 -1.9049
 8956SOL     OW38326   2.237   1.351   2.425 -0.2225  0.7197 -0.0940
 8956SOL    HW138327   2.284   1.427   2.459  2.0015 -0.4066 -0.6672
 8956SOL    HW238328   2.159   1.354   2.480  0.7632 -2.2125  1.4379
 8957SOL     OW38329   1.914   4.009   9.606 -0.1971  0.0862 -0.3155
 8957SOL    HW138330   1.901   3.925   9.651 -0.7324  0.3130 -0.0475
 8957SOL    HW238331   2.004   3.992   9.577  0.2155  2.5750 -0.4681
 8958SOL     OW38332   2.353   3.234  11.143 -0.0104 -0.0532  0.3926
 8958SOL    HW138333   2.427   3.265  11.092  1.3768 -1.2364  1.6718
 8958SOL    HW238334   2.305   3.176  11.084  0.9030  2.1197 -2.4426
 8959SOL     OW38335   3.898   0.729  15.124 -0.4023  0.4006 -0.3332
 8959SOL    HW138336   3.856   0.664  15.181 -0.5871  0.2331 -0.6578
 8959SOL    HW238337   3.986   0.691  15.117  0.3356  2.1928 -0.6512
 8960SOL     OW38338   3.346   2.640   2.212  0.5180  0.4512  0.0138
 8960SOL    HW138339   3.302   2.573   2.264  0.0958 -0.7559 -1.9134
 8960SOL    HW238340   3.285   2.712   2.230 -1.6510 -1.7012  1.2906
 8961SOL     OW38341   1.308   1.460   4.504  0.1390 -0.2630 -0.1029
 8961SOL    HW138342   1.242   1.402   4.467 -1.7492 -0.4892  3.6517
 8961SOL    HW238343   1.346   1.406   4.573 -0.9530 -0.4884  0.3239
 8962SOL     OW38344   2.613   2.650   4.318 -0.6583 -0.2233  0.2434
 8962SOL    HW138345   2.696   2.641   4.364  1.1634 -1.7857 -3.3312
 8962SOL    HW238346   2.627   2.732   4.271  0.1807 -1.5526 -1.8240
 8963SOL     OW38347   3.953   2.260  11.192  0.3854  0.0344  0.7345
 8963SOL    HW138348   4.037   2.262  11.238  1.5235  0.7964 -1.3676
 8963SOL    HW238349   3.972   2.335  11.136  2.9062 -0.1484  1.3320
 8964SOL     OW38350   2.271   2.490   8.984 -0.3433  0.1057 -0.2885
 8964SOL    HW138351   2.326   2.497   9.062 -4.3383  1.1154  2.4321
 8964SOL    HW238352   2.209   2.421   9.009 -0.5237  0.8545  1.3225
 8965SOL     OW38353   3.173   2.964  13.977 -0.3250 -0.1263  0.3157
 8965SOL    HW138354   3.173   3.059  13.965  2.7607  0.0434  1.6523
 8965SOL    HW238355   3.092   2.934  13.936  0.4843  0.3938 -1.6421
 8966SOL     OW38356   3.108   4.476  16.782  0.3145 -0.1421 -0.1230
 8966SOL    HW138357   3.166   4.507  16.713 -2.6346 -0.0274 -2.5737
 8966SOL    HW238358   3.026   4.518  16.755  0.5856  0.6431  0.2818
 8967SOL     OW38359   2.506   3.756  12.573 -0.3108  0.2730  0.0574
 8967SOL    HW138360   2.456   3.744  12.654  2.3151 -3.2748  1.2036
 8967SOL    HW238361   2.427   3.747  12.520  0.6767 -0.3508 -1.3040
 8968SOL     OW38362   1.994   3.515   8.264  0.5861  0.5104  0.1505
 8968SOL    HW138363   2.066   3.453   8.274 -0.4149 -0.4036  1.7259
 8968SOL    HW238364   1.915   3.461   8.272 -0.0132  1.3074 -0.3017
 8969SOL     OW38365   3.238   4.045   8.759 -0.1255  0.3507  0.4374
 8969SOL    HW138366   3.253   4.109   8.690 -0.7286  0.4077  0.3594
 8969SOL    HW238367   3.324   4.046   8.800  0.1335 -0.1272 -0.0874
 8970SOL     OW38368   4.344   2.284   8.989  0.5769 -0.0587  0.3619
 8970SOL    HW138369   4.359   2.190   8.998  1.5978  0.1199  0.5753
 8970SOL    HW238370   4.425   2.323   9.023  1.1603 -1.0068  0.0442
 8971SOL     OW38371   3.192   4.214   0.096  0.2878  0.1339  0.1737
 8971SOL    HW138372   3.175   4.299   0.136  0.7886 -0.5985  1.9323
 8971SOL    HW238373   3.107   4.194   0.055  0.6587  0.6408 -0.8423
 8972SOL     OW38374   1.619   1.805   3.195  0.3415  0.3140 -0.2096
 8972SOL    HW138375   1.635   1.828   3.286 -0.4836  1.2318 -0.2986
 8972SOL    HW238376   1.688   1.855   3.152  0.6776  0.7940  0.8982
 8973SOL     OW38377   2.168   3.458  16.025 -0.0598 -0.2320 -0.0212
 8973SOL    HW138378   2.155   3.415  15.941 -0.7878 -0.7106  0.3440
 8973SOL    HW238379   2.145   3.389  16.088  1.9358 -1.3541 -0.5062
 8974SOL     OW38380   0.740   3.360   6.060  0.0622 -0.0835  0.4998
 8974SOL    HW138381   0.777   3.448   6.052 -0.8338  0.3197  0.9116
 8974SOL    HW238382   0.805   3.313   6.007  0.5787 -1.2076  2.1320
 8975SOL     OW38383   0.291   2.096   6.717 -0.1566 -0.3985 -0.3291
 8975SOL    HW138384   0.265   2.030   6.653  0.9822  0.5047 -1.7431
 8975SOL    HW238385   0.279   2.173   6.662 -0.9261  0.1419  0.5888
 8976SOL     OW38386   2.722   3.783  14.561  0.0609  0.0641  0.4127
 8976SOL    HW138387   2.769   3.704  14.535 -1.7952 -1.6816  2.3274
 8976SOL    HW238388   2.635   3.781  14.522  1.1994  2.9976 -2.1995
 8977SOL     OW38389   2.267   2.296   8.027 -0.4121  0.1344  0.4103
 8977SOL    HW138390   2.359   2.273   8.044 -0.2391  0.0623 -0.6223
 8977SOL    HW238391   2.243   2.210   7.992  1.6182  0.3607 -1.5072
 8978SOL     OW38392   3.480   2.018   1.096  0.5560  0.3896 -0.4945
 8978SOL    HW138393   3.466   1.924   1.081 -2.4149  0.5595  1.2642
 8978SOL    HW238394   3.575   2.014   1.105  0.5609 -1.7516 -1.5000
 8979SOL     OW38395   2.222   1.134   1.434  0.9971  0.3359 -0.3695
 8979SOL    HW138396   2.297   1.096   1.481  0.1031 -1.3910 -0.3427
 8979SOL    HW238397   2.259   1.200   1.376  1.4842  0.5176  0.1448
 8980SOL     OW38398   2.548   0.133   3.473  0.0172  0.2350  0.1265
 8980SOL    HW138399   2.634   0.174   3.481  0.1128  0.0859 -0.1594
 8980SOL    HW238400   2.515   0.156   3.560 -1.8061 -0.5947 -0.3498
 8981SOL     OW38401   2.505   3.485   6.079  0.2506 -0.4161 -0.0256
 8981SOL    HW138402   2.427   3.474   6.132  0.7202 -0.2477  0.6888
 8981SOL    HW238403   2.497   3.579   6.061 -2.9254 -0.7087 -0.1916
 8982SOL     OW38404   2.730   1.956  10.316  0.5241  0.2072 -0.2334
 8982SOL    HW138405   2.803   2.000  10.271 -0.9775  1.6143 -1.2962
 8982SOL    HW238406   2.706   2.020  10.383  0.7374  0.3883 -0.3293
 8983SOL     OW38407   0.275   2.086   6.167 -0.8313 -0.0629 -0.1402
 8983SOL    HW138408   0.320   2.170   6.173  2.0465 -1.4227 -2.2159
 8983SOL    HW238409   0.241   2.103   6.079  1.5956  1.2741 -0.8124
 8984SOL     OW38410   1.033   0.660   3.836 -0.7695 -0.4106 -0.3491
 8984SOL    HW138411   0.955   0.673   3.889 -1.0798  3.5228 -1.7300
 8984SOL    HW238412   1.080   0.626   3.912 -0.2502 -1.6728 -1.2415
 8985SOL     OW38413   1.073   1.619   0.569 -0.3311  0.4021  0.0879
 8985SOL    HW138414   1.055   1.526   0.579  0.8853  0.1712  0.1698
 8985SOL    HW238415   0.993   1.660   0.602 -0.3111 -0.9838  1.8805
 8986SOL     OW38416   0.779   0.840   9.214 -0.4030  0.0897  0.2651
 8986SOL    HW138417   0.852   0.879   9.167  0.0176  0.4489  1.2180
 8986SOL    HW238418   0.705   0.868   9.161  0.2989  2.5667  0.6046
 8987SOL     OW38419   1.105   0.016   5.330  0.1111 -0.6640  0.3148
 8987SOL    HW138420   1.113   4.707   5.241 -0.2647  0.7047 -0.2050
 8987SOL    HW238421   1.013   4.719   5.347 -0.0972  1.6964  1.9706
 8988SOL     OW38422   3.385   1.544   0.625 -0.1298 -0.1624 -0.6053
 8988SOL    HW138423   3.338   1.584   0.551  0.9145  1.8613 -0.1664
 8988SOL    HW238424   3.332   1.577   0.697  0.1354 -3.0304  0.8962
 8989SOL     OW38425   2.681   3.633  11.367  0.0506 -0.6564  0.1276
 8989SOL    HW138426   2.675   3.641  11.272  1.4305 -1.7165 -0.0421
 8989SOL    HW238427   2.632   3.707  11.405  0.8696  0.0506 -0.1812
 8990SOL     OW38428   2.738   1.734   0.167  0.1252 -0.1737  0.3162
 8990SOL    HW138429   2.693   1.803   0.120  3.8136  1.6287 -0.5560
 8990SOL    HW238430   2.765   1.683   0.091 -1.1206 -0.8161  0.3161
 8991SOL     OW38431   0.198   3.101   3.484 -0.4417 -0.1291 -0.3564
 8991SOL    HW138432   0.115   3.136   3.452  0.7779  1.8437 -1.3767
 8991SOL    HW238433   0.245   3.103   3.401  1.3605  1.5125  0.6875
 8992SOL     OW38434   4.286   0.032   4.771 -0.1062  0.1559 -0.0665
 8992SOL    HW138435   4.286   0.038   4.675  0.4846 -0.2006 -0.0863
 8992SOL    HW238436   4.309   4.663   4.786  0.4502  0.1806 -0.7310
 8993SOL     OW38437   2.132   1.827   8.752 -0.6337 -0.0933 -0.1447
 8993SOL    HW138438   2.138   1.742   8.794  2.4123  1.4892  2.6851
 8993SOL    HW238439   2.210   1.873   8.782 -0.5964 -0.0246 -0.3461
 8994SOL     OW38440   2.249   2.707   2.370  0.3828 -0.0768  0.8117
 8994SOL    HW138441   2.210   2.709   2.283  0.2432 -1.8284  0.8484
 8994SOL    HW238442   2.179   2.726   2.433  0.4420  1.0204  0.5546
 8995SOL     OW38443   1.723   2.361  13.267  0.1263  0.2887  0.4363
 8995SOL    HW138444   1.803   2.309  13.273  1.0683  1.6346 -0.4127
 8995SOL    HW238445   1.763   2.448  13.269  0.7244 -0.0239  2.2360
 8996SOL     OW38446   0.042   1.051   0.370  0.1164 -0.0078 -0.3761
 8996SOL    HW138447   0.044   1.074   0.463  0.8920 -1.4016 -0.0373
 8996SOL    HW238448   0.028   0.956   0.368 -0.0764  0.0153 -0.0978
 8997SOL     OW38449   3.966   3.597   8.611 -0.4242  0.0075 -0.3880
 8997SOL    HW138450   3.960   3.518   8.558 -0.6075  0.1549 -0.5890
 8997SOL    HW238451   3.963   3.569   8.702 -1.5125 -1.0986 -0.7741
 8998SOL     OW38452   3.889   1.675   0.621 -0.0312 -0.0381  0.1248
 8998SOL    HW138453   3.895   1.753   0.567 -1.6064  0.9445  1.3690
 8998SOL    HW238454   3.798   1.650   0.604  1.1313 -2.3113 -2.7913
 8999SOL     OW38455   2.157   2.007  15.327 -0.1853 -0.0895 -0.5182
 8999SOL    HW138456   2.156   1.971  15.239 -0.1143  0.5543 -0.7810
 8999SOL    HW238457   2.139   1.935  15.387  0.0443 -1.4800 -2.1344
 9000SOL     OW38458   1.706   1.001   5.560 -0.0839  0.5032 -0.2463
 9000SOL    HW138459   1.659   0.917   5.561 -0.4670  0.7355  1.0914
 9000SOL    HW238460   1.690   1.039   5.474  0.3898  0.0618 -0.5261
 9001SOL     OW38461   4.544   3.500  13.046 -0.2941  0.4664 -0.6499
 9001SOL    HW138462   4.455   3.532  13.061 -1.8090 -2.6563 -3.1452
 9001SOL    HW238463   4.534   3.447  12.967  1.3538 -0.0287 -0.5155
 9002SOL     OW38464   2.408   2.089  15.428  0.3937 -0.0110  0.1220
 9002SOL    HW138465   2.451   2.005  15.443  2.2909  1.5559  3.5024
 9002SOL    HW238466   2.318   2.064  15.407  0.6649  0.5676 -1.7426
 9003SOL     OW38467   1.967   4.368   9.186  0.2129  0.1978  1.4761
 9003SOL    HW138468   1.938   4.375   9.277  1.1135 -0.7318  1.8366
 9003SOL    HW238469   2.007   4.281   9.178 -1.4198 -0.4589  0.5397
 9004SOL     OW38470   0.088   0.502   4.658  0.1649  0.1489 -0.6792
 9004SOL    HW138471   0.157   0.488   4.594  2.2811  1.1782  1.3577
 9004SOL    HW238472   0.074   0.595   4.639 -2.6731 -0.6135 -2.1685
 9005SOL     OW38473   0.632   1.795   8.584 -0.1843  0.2759 -0.5220
 9005SOL    HW138474   0.640   1.751   8.669  0.3806  0.6204 -0.4029
 9005SOL    HW238475   0.723   1.779   8.559  0.0174  0.3023  0.1983
 9006SOL     OW38476   1.052   3.861   1.347 -0.0103 -0.1326  0.2354
 9006SOL    HW138477   0.999   3.933   1.313 -0.7316 -0.9345 -0.3336
 9006SOL    HW238478   1.044   3.813   1.264 -0.3597  0.4967 -0.0973
 9007SOL     OW38479   4.137   4.217   7.468 -0.3029 -0.0389 -0.0552
 9007SOL    HW138480   4.105   4.261   7.390  0.5300  2.0467  0.7673
 9007SOL    HW238481   4.176   4.140   7.426 -0.2093  0.2513 -0.4982
 9008SOL     OW38482   4.316   2.400   7.915  0.3758  0.6623  0.0209
 9008SOL    HW138483   4.405   2.433   7.904 -0.0378  2.0345  0.9390
 9008SOL    HW238484   4.286   2.387   7.825 -1.7321 -2.2266  1.1316
 9009SOL     OW38485   2.918   4.177  16.411  0.8599 -0.6515  0.0864
 9009SOL    HW138486   2.944   4.268  16.396 -3.1165  0.4792 -0.1214
 9009SOL    HW238487   2.970   4.160  16.489  0.5626  1.1150  0.6738
 9010SOL     OW38488   0.553   2.540  17.458 -0.2661 -0.1126  0.5393
 9010SOL    HW138489   0.629   2.502  17.503  0.1403 -1.4268 -1.2914
 9010SOL    HW238490   0.509   2.529  17.543  2.0131 -1.4281  1.5620
 9011SOL     OW38491   4.583   0.469   5.403 -0.4363  0.3160  0.3210
 9011SOL    HW138492   4.659   0.425   5.440  0.4251  1.8263  0.3536
 9011SOL    HW238493   4.528   0.488   5.479 -0.1625  0.0367  0.5879
 9012SOL     OW38494   2.521   0.683   2.952 -0.5629 -0.6160  0.2449
 9012SOL    HW138495   2.533   0.627   2.875 -2.8429 -2.9797  1.5806
 9012SOL    HW238496   2.506   0.764   2.904 -0.4789 -1.6540 -1.5383
 9013SOL     OW38497   3.201   2.341   4.036  0.1571  0.5285  0.1404
 9013SOL    HW138498   3.228   2.278   4.103  1.0702 -1.3394 -1.9757
 9013SOL    HW238499   3.173   2.415   4.089  1.6660  1.2727 -0.0904
 9014SOL     OW38500   0.592   0.412   1.886 -0.1595  0.0957 -0.6294
 9014SOL    HW138501   0.514   0.402   1.830 -0.1387 -1.3649 -0.3939
 9014SOL    HW238502   0.658   0.371   1.830  0.9323 -0.3788  1.0203
 9015SOL     OW38503   2.191   3.755   5.161  0.8128  0.4766  0.7008
 9015SOL    HW138504   2.166   3.743   5.253 -3.5544 -0.0687 -0.5716
 9015SOL    HW238505   2.164   3.670   5.126 -1.0519  0.8516  1.2468
 9016SOL     OW38506   0.599   2.045  17.147  0.3158  0.6760  0.4487
 9016SOL    HW138507   0.682   1.999  17.162 -0.1814 -0.3314  0.0599
 9016SOL    HW238508   0.601   2.119  17.208 -2.3662  0.9863  0.1692
 9017SOL     OW38509   3.156   0.002  17.090  0.4090  0.6270 -0.2375
 9017SOL    HW138510   3.116   4.650  17.045 -0.3667  1.6863 -1.3019
 9017SOL    HW238511   3.115   0.004  17.176  1.3910 -0.1805  0.2466
 9018SOL     OW38512   1.312   1.399  11.512  0.1643  0.4763  0.6680
 9018SOL    HW138513   1.377   1.461  11.477  1.1352 -0.7204  0.3609
 9018SOL    HW238514   1.235   1.433  11.466  0.9209  1.2875  0.0001
 9019SOL     OW38515   0.899   2.950   2.785 -0.4652  0.4538 -0.5379
 9019SOL    HW138516   0.990   2.971   2.762 -1.4784  2.6597 -2.4978
 9019SOL    HW238517   0.863   3.035   2.813  0.4291  0.7513 -0.2836
 9020SOL     OW38518   4.129   0.262  15.771 -0.2038  0.2384  0.2078
 9020SOL    HW138519   4.170   0.196  15.827  0.5331  0.0193 -0.5793
 9020SOL    HW238520   4.204   0.307  15.731 -0.9702  0.7724 -0.6477
 9021SOL     OW38521   0.752   3.474  15.249  0.0214  0.3945  0.4747
 9021SOL    HW138522   0.824   3.492  15.309 -0.5409  1.6729  0.7685
 9021SOL    HW238523   0.712   3.394  15.283 -0.0199  0.1882 -0.0556
 9022SOL     OW38524   0.089   2.224   2.592  0.4728 -0.1526  0.8445
 9022SOL    HW138525   0.125   2.238   2.504  0.4124 -1.4759  0.5954
 9022SOL    HW238526   0.024   2.155   2.579  0.1244  0.5709 -1.2368
 9023SOL     OW38527   1.103   4.230   4.910  0.7491  0.1696  0.0916
 9023SOL    HW138528   1.131   4.273   4.990  2.3853 -1.9811  0.6462
 9023SOL    HW238529   1.123   4.141   4.938 -0.9002 -0.1153  0.3986
 9024SOL     OW38530   2.550   1.153   3.209  0.3345  0.4316  0.1127
 9024SOL    HW138531   2.484   1.147   3.278 -1.8689  1.6783 -1.8531
 9024SOL    HW238532   2.580   1.062   3.207 -3.6990 -0.9013  2.4429
 9025SOL     OW38533   3.233   0.333   2.972  0.3092 -0.6891 -0.1487
 9025SOL    HW138534   3.283   0.386   2.910 -0.6621  0.3111 -0.0697
 9025SOL    HW238535   3.305   0.272   2.991  0.5268 -0.2134  0.5704
 9026SOL     OW38536   2.469   4.390   5.151 -0.1398 -0.3018  0.1229
 9026SOL    HW138537   2.514   4.474   5.152 -0.0348 -0.3395 -1.3228
 9026SOL    HW238538   2.540   4.347   5.103  1.9908 -0.2823  3.2705
 9027SOL     OW38539   4.573   2.840   6.381 -0.0533  0.4899 -0.2575
 9027SOL    HW138540   4.648   2.832   6.441 -1.0841  0.7608  1.0658
 9027SOL    HW238541   4.573   2.936   6.386 -3.1063  0.5306 -1.0921
 9028SOL     OW38542   0.927   0.935  12.637  0.3306  0.9257  0.0679
 9028SOL    HW138543   0.860   0.994  12.603  1.5195  1.5730 -1.1561
 9028SOL    HW238544   0.878   0.853  12.630  1.9595  0.1160 -1.8191
 9029SOL     OW38545   2.940   0.497   4.563  0.7308 -0.3211 -0.2836
 9029SOL    HW138546   2.850   0.485   4.531 -0.3303  0.9503  2.2272
 9029SOL    HW238547   2.986   0.552   4.499 -1.7226  1.1962 -0.7524
 9030SOL     OW38548   4.089   4.024   2.577  0.3345 -0.1314  0.1668
 9030SOL    HW138549   4.057   4.102   2.622 -2.0402  0.8573 -3.2220
 9030SOL    HW238550   4.049   3.958   2.634 -0.3650 -0.0104 -0.1838
 9031SOL     OW38551   2.774   0.475   4.056 -0.1170 -1.1553  0.2100
 9031SOL    HW138552   2.859   0.505   4.026 -0.3694 -1.3109 -0.6604
 9031SOL    HW238553   2.725   0.517   3.985  0.9902  0.2499  0.2961
 9032SOL     OW38554   1.713   3.998   7.876  0.1887  0.2476  0.4631
 9032SOL    HW138555   1.662   4.078   7.887  0.4398  0.3730  0.6923
 9032SOL    HW238556   1.638   3.940   7.863  1.1370 -1.0309  0.7623
 9033SOL     OW38557   0.665   4.345   3.638 -0.7717 -0.1347 -0.0063
 9033SOL    HW138558   0.699   4.333   3.727 -2.0948 -1.7794  0.2791
 9033SOL    HW238559   0.591   4.285   3.645  1.0569 -2.5331 -1.0993
 9034SOL     OW38560   3.488   2.878   6.396 -0.1553  0.3129  0.0034
 9034SOL    HW138561   3.558   2.893   6.332  0.4943  0.9797  0.8614
 9034SOL    HW238562   3.536   2.879   6.479  1.4530 -0.5441 -0.9222
 9035SOL     OW38563   0.808   4.702   8.078  0.5640 -0.2133  0.0855
 9035SOL    HW138564   0.829   4.635   8.013  0.1968  0.4214 -0.6912
 9035SOL    HW238565   0.743   0.033   8.033 -0.4216 -2.6800 -1.4246
 9036SOL     OW38566   4.339   0.018   8.163 -0.4513 -0.3119 -0.5378
 9036SOL    HW138567   4.349   0.039   8.256 -0.5581 -2.3935 -0.0367
 9036SOL    HW238568   4.372   0.096   8.119 -2.8870  0.9503 -0.1228
 9037SOL     OW38569   1.924   2.657   9.810  0.1301 -0.5700  0.1615
 9037SOL    HW138570   1.830   2.644   9.810 -0.1156  1.2463 -1.4760
 9037SOL    HW238571   1.925   2.736   9.865  0.1015 -0.4773  0.0289
 9038SOL     OW38572   3.062   3.946   1.918  0.8329 -0.6048  0.6391
 9038SOL    HW138573   3.056   3.886   1.992 -0.3211 -2.0100 -0.5966
 9038SOL    HW238574   3.117   4.015   1.956 -0.5288  1.7105 -1.5868
 9039SOL     OW38575   1.747   0.568   8.518 -0.0624 -0.8699  0.2462
 9039SOL    HW138576   1.769   0.501   8.582  0.1292 -0.6063  0.4595
 9039SOL    HW238577   1.833   0.611   8.520 -1.2107  1.4619  0.3803
 9040SOL     OW38578   1.997   0.911   3.370 -1.2117 -0.1791 -0.0747
 9040SOL    HW138579   1.917   0.904   3.421 -0.3875 -0.3924  1.1804
 9040SOL    HW238580   2.053   0.934   3.444  0.5729 -0.2035 -1.4120
 9041SOL     OW38581   1.827   1.361   0.307  0.4601  0.6244  0.2632
 9041SOL    HW138582   1.816   1.343   0.214 -0.7271 -0.0637  0.5452
 9041SOL    HW238583   1.861   1.279   0.345  1.2582  1.7537  1.9990
 9042SOL     OW38584   3.738   3.004   7.438  0.2879  0.1203 -0.1521
 9042SOL    HW138585   3.754   2.974   7.528 -1.4468 -1.4450 -0.3684
 9042SOL    HW238586   3.643   3.009   7.442  0.3947  1.2484  1.1678
 9043SOL     OW38587   4.019   3.818  16.805 -0.4357  0.1195 -0.2297
 9043SOL    HW138588   3.927   3.799  16.822 -0.4157  0.4911  0.2973
 9043SOL    HW238589   4.047   3.865  16.883  0.0105 -0.3183 -0.1227
 9044SOL     OW38590   0.693   2.501   7.351 -0.1158  0.5848  0.2510
 9044SOL    HW138591   0.649   2.511   7.435 -3.9294  0.4731 -1.7246
 9044SOL    HW238592   0.623   2.531   7.293 -1.2839  0.7120  1.7343
 9045SOL     OW38593   4.014   0.596   6.855 -0.3229  0.1946  0.4550
 9045SOL    HW138594   4.080   0.663   6.834 -0.4216  0.4206  0.8621
 9045SOL    HW238595   4.012   0.537   6.779 -1.7164  0.4975  0.2619
 9046SOL     OW38596   2.201   0.498   9.984 -0.4778  0.3250 -0.1779
 9046SOL    HW138597   2.241   0.560  10.045  1.0293 -1.3238  0.4989
 9046SOL    HW238598   2.181   0.420  10.035 -2.6323 -0.0032 -1.5045
 9047SOL     OW38599   2.090   2.723   8.685 -0.2757  0.7076 -0.1004
 9047SOL    HW138600   2.035   2.790   8.727 -0.5784  1.0603 -1.0687
 9047SOL    HW238601   2.140   2.705   8.764  1.3365  1.1898 -1.0128
 9048SOL     OW38602   3.505   2.632   5.315  0.5580 -0.5942  0.2243
 9048SOL    HW138603   3.469   2.719   5.329  0.3905 -0.6114 -0.0860
 9048SOL    HW238604   3.593   2.664   5.334  1.1110 -0.8740 -1.8788
 9049SOL     OW38605   4.043   2.905  16.782 -0.6584 -0.0543  0.2072
 9049SOL    HW138606   4.100   2.903  16.705 -2.1926 -0.1238 -0.9137
 9049SOL    HW238607   4.056   2.816  16.813 -0.9181  0.6101  2.2800
 9050SOL     OW38608   3.542   3.776   7.215 -0.5140  0.3051 -0.3394
 9050SOL    HW138609   3.604   3.847   7.231  0.1503 -0.4516  0.4657
 9050SOL    HW238610   3.478   3.789   7.284 -0.9929 -1.5706 -0.4303
 9051SOL     OW38611   3.867   2.384   3.382  0.0918  0.1945 -0.1471
 9051SOL    HW138612   3.962   2.379   3.370 -0.1255 -1.4470 -1.1852
 9051SOL    HW238613   3.844   2.422   3.297  2.2926  1.8352 -0.0171
 9052SOL     OW38614   3.043   3.019   2.122 -0.5231  0.0792 -0.4819
 9052SOL    HW138615   3.021   3.102   2.165  0.7990 -0.6376  1.5586
 9052SOL    HW238616   3.058   2.970   2.203  0.8747  0.2257 -0.6511
 9053SOL     OW38617   1.162   0.031   6.740  0.6822  0.2882 -0.3734
 9053SOL    HW138618   1.093   0.014   6.805  0.7157  2.6209  0.2618
 9053SOL    HW238619   1.198   4.666   6.723 -1.5076 -0.9860  1.5045
 9054SOL     OW38620   0.191   0.497  10.553 -0.3650 -0.0040 -0.0256
 9054SOL    HW138621   0.196   0.419  10.498  3.6594  0.4642 -0.3267
 9054SOL    HW238622   0.264   0.552  10.526 -0.8143 -0.2832 -1.7728
 9055SOL     OW38623   4.338   3.352   5.324  0.0682  0.1536  0.4896
 9055SOL    HW138624   4.395   3.333   5.249 -2.2098  1.5353 -1.5718
 9055SOL    HW238625   4.398   3.391   5.387  2.3532 -3.6115  0.6465
 9056SOL     OW38626   3.704   0.887  16.982  0.1542 -0.5127 -0.3397
 9056SOL    HW138627   3.718   0.831  16.906 -0.9368  1.9139 -2.3497
 9056SOL    HW238628   3.774   0.852  17.038  0.5140  1.9682  0.7842
 9057SOL     OW38629   2.950   2.444   3.775  0.2075  0.0293  0.1674
 9057SOL    HW138630   2.976   2.352   3.787  0.5150 -0.0231 -0.8659
 9057SOL    HW238631   3.012   2.490   3.832  1.9401 -1.8180 -0.1871
 9058SOL     OW38632   0.863   0.432   5.242 -0.1475  0.8553 -0.2309
 9058SOL    HW138633   0.919   0.433   5.164  1.4124 -1.2012  0.8603
 9058SOL    HW238634   0.801   0.361   5.224  2.0022 -1.6313  2.1366
 9059SOL     OW38635   3.116   3.652   2.450  0.1396 -0.3236  0.1361
 9059SOL    HW138636   3.203   3.677   2.480  0.4747 -0.8921 -0.3509
 9059SOL    HW238637   3.062   3.695   2.516  0.3826  1.1530 -0.6377
 9060SOL     OW38638   3.111   3.436   6.873  0.1501 -0.3238 -0.3980
 9060SOL    HW138639   3.025   3.471   6.897 -0.0755  2.1674 -4.7904
 9060SOL    HW238640   3.100   3.429   6.779 -0.8450 -1.1928 -0.2171
 9061SOL     OW38641   1.017   4.484   2.164 -0.2807  0.1746  0.2911
 9061SOL    HW138642   0.947   4.520   2.219 -0.6060  0.4471 -0.3134
 9061SOL    HW238643   1.052   4.564   2.124 -1.7117  0.2644 -0.7543
 9062SOL     OW38644   3.131   4.458   8.247  0.6173  0.3414 -0.2950
 9062SOL    HW138645   3.201   4.455   8.313 -0.9278 -1.4696  1.2746
 9062SOL    HW238646   3.053   4.419   8.286  1.0822  1.9411  2.2286
 9063SOL     OW38647   1.676   4.170  10.317 -0.6089  0.2042  0.0970
 9063SOL    HW138648   1.618   4.201  10.247 -0.3103  1.2443  0.3194
 9063SOL    HW238649   1.627   4.109  10.372  0.5783 -0.1039  0.8145
 9064SOL     OW38650   4.199   0.113  12.102 -0.1604 -0.2546 -0.3668
 9064SOL    HW138651   4.154   0.149  12.178  3.3755  0.0081  1.6158
 9064SOL    HW238652   4.214   0.023  12.131 -0.3322 -0.3600 -0.6002
 9065SOL     OW38653   3.220   3.377   9.073 -0.4232 -0.4530  0.5777
 9065SOL    HW138654   3.165   3.339   9.005  1.0045  2.2762 -2.1292
 9065SOL    HW238655   3.304   3.340   9.046 -1.0229 -2.2149  1.1335
 9066SOL     OW38656   3.265   0.437  13.442  0.0520  0.3630  0.7336
 9066SOL    HW138657   3.266   0.463  13.534  2.8206  1.4228  0.3862
 9066SOL    HW238658   3.352   0.470  13.421  0.8144 -1.3577  1.1855
 9067SOL     OW38659   1.835   4.031   2.731  0.4638  0.1748  0.1256
 9067SOL    HW138660   1.858   4.109   2.781 -2.5769 -0.7376  3.0300
 9067SOL    HW238661   1.881   4.036   2.648 -0.7458  0.2418 -0.5342
 9068SOL     OW38662   0.069   0.293   2.059  0.3939  0.2150 -0.5199
 9068SOL    HW138663   0.108   0.210   2.086 -1.0308 -0.3609 -0.2185
 9068SOL    HW238664   0.038   0.265   1.973 -2.0067  0.4476  0.2534
 9069SOL     OW38665   3.839   1.534   4.919  0.6047  0.1359  0.1954
 9069SOL    HW138666   3.931   1.547   4.898  1.2385 -0.4806  2.6512
 9069SOL    HW238667   3.846   1.490   5.003  0.1375 -2.0954 -0.9218
 9070SOL     OW38668   3.817   4.188   6.756 -0.3195  0.0857 -0.4842
 9070SOL    HW138669   3.880   4.141   6.701 -0.8507 -1.5873  0.3261
 9070SOL    HW238670   3.734   4.188   6.708 -0.0741 -0.0088 -0.9075
 9071SOL     OW38671   0.543   3.671   9.703 -0.2203  0.6919  0.1976
 9071SOL    HW138672   0.616   3.732   9.695  2.6793 -3.1516 -2.6222
 9071SOL    HW238673   0.553   3.626   9.619 -1.0282  0.2594  0.3336
 9072SOL     OW38674   2.148   4.009   6.253 -0.6612 -0.4762 -0.2747
 9072SOL    HW138675   2.217   4.053   6.303  0.0527 -0.8706 -0.9098
 9072SOL    HW238676   2.172   4.040   6.166 -0.1718 -2.0573 -0.7086
 9073SOL     OW38677   1.000   0.001   6.943 -0.4135  0.2813 -0.0897
 9073SOL    HW138678   0.972   4.638   6.977 -1.2150 -0.0245 -1.5287
 9073SOL    HW238679   0.919   0.050   6.958  0.2093  1.2019  0.2275
 9074SOL     OW38680   0.672   2.309   6.419  0.7180 -0.0816  0.5159
 9074SOL    HW138681   0.630   2.386   6.380  0.8286 -2.2538 -3.8711
 9074SOL    HW238682   0.726   2.349   6.488  1.0706 -1.0480  0.7915
 9075SOL     OW38683   1.573   4.531   4.015  0.0622 -0.1756  0.1544
 9075SOL    HW138684   1.613   4.444   4.008  1.3642  0.4858 -0.5969
 9075SOL    HW238685   1.488   4.503   4.049 -0.5848 -0.8906 -2.0476
 9076SOL     OW38686   2.637   4.649   5.551  0.0534 -0.0950 -0.3585
 9076SOL    HW138687   2.729   4.663   5.531 -0.1714 -0.5329 -1.7115
 9076SOL    HW238688   2.587   4.707   5.493  0.0078 -0.0410 -0.2656
 9077SOL     OW38689   3.239   4.640   9.871 -0.1035 -0.5395 -0.0418
 9077SOL    HW138690   3.222   4.547   9.891 -1.1508 -0.4508 -0.4839
 9077SOL    HW238691   3.179   4.653   9.797 -1.0198  1.1941  1.0140
 9078SOL     OW38692   2.571   0.573   0.630  0.2227  0.3702 -0.9312
 9078SOL    HW138693   2.590   0.596   0.721 -2.1724  3.6965 -1.2370
 9078SOL    HW238694   2.479   0.549   0.641 -0.1112  1.6368 -0.9581
 9079SOL     OW38695   3.165   3.930   9.857  0.1210 -0.0766 -0.1434
 9079SOL    HW138696   3.218   3.915   9.935  0.2673  0.5037 -0.1294
 9079SOL    HW238697   3.115   3.851   9.835 -2.1270  0.2625  3.7424
 9080SOL     OW38698   3.058   2.678  14.052  0.0649 -0.4859  0.1908
 9080SOL    HW138699   3.083   2.662  13.961 -0.3939 -0.7978  0.1183
 9080SOL    HW238700   3.010   2.757  14.029  1.7043  0.7306  0.9702
 9081SOL     OW38701   4.400   4.500  15.873 -0.1221 -0.3236  0.1290
 9081SOL    HW138702   4.376   4.485  15.964 -0.3022  1.7940  0.4408
 9081SOL    HW238703   4.495   4.510  15.873 -0.1670  0.2794 -3.0489
 9082SOL     OW38704   4.142   1.814   6.396 -0.1025 -0.1440  0.1866
 9082SOL    HW138705   4.187   1.817   6.312  0.5626 -3.3684  0.4458
 9082SOL    HW238706   4.064   1.763   6.373  0.0884  0.1305 -1.0501
 9083SOL     OW38707   2.076   3.193   5.614 -0.2116  0.4673  0.2352
 9083SOL    HW138708   2.114   3.180   5.527 -0.5796  1.1911 -0.0249
 9083SOL    HW238709   2.155   3.198   5.669 -0.6474 -1.5206  1.0626
 9084SOL     OW38710   3.972   0.574   4.128  0.6863  0.0841 -0.4965
 9084SOL    HW138711   3.916   0.624   4.068  1.2441  1.7000  0.3332
 9084SOL    HW238712   3.940   0.592   4.216 -0.3783 -0.0681 -0.8484
 9085SOL     OW38713   0.510   0.688   8.499  0.0019 -0.1935  0.1124
 9085SOL    HW138714   0.465   0.770   8.480 -0.8896  0.1738  3.7827
 9085SOL    HW238715   0.440   0.622   8.495 -1.1674  1.0174  0.7706
 9086SOL     OW38716   0.917   2.410   4.241 -0.3381 -0.4275  0.2063
 9086SOL    HW138717   0.992   2.431   4.297 -0.1873  0.8235 -0.4756
 9086SOL    HW238718   0.922   2.316   4.226  4.0861 -0.4858  1.9709
 9087SOL     OW38719   3.329   2.216   7.861 -0.8836 -0.2306 -0.0001
 9087SOL    HW138720   3.265   2.284   7.839  0.1649  0.3587 -1.2709
 9087SOL    HW238721   3.407   2.273   7.854 -0.2106 -1.1785 -0.1901
 9088SOL     OW38722   3.531   2.285   8.249  0.7102  0.5673  0.1594
 9088SOL    HW138723   3.498   2.373   8.231 -3.3296 -1.2567 -1.2429
 9088SOL    HW238724   3.597   2.284   8.179 -1.8510 -1.0578 -2.2112
 9089SOL     OW38725   1.322   1.170   5.754  1.0063  0.1465  0.1890
 9089SOL    HW138726   1.287   1.227   5.822 -1.0722 -0.1855 -0.5910
 9089SOL    HW238727   1.415   1.186   5.765  0.4429  3.2435  0.4679
 9090SOL     OW38728   0.320   1.526  16.417  0.6353 -0.5717 -0.1038
 9090SOL    HW138729   0.269   1.602  16.389 -1.3731 -2.5904 -1.9274
 9090SOL    HW238730   0.386   1.527  16.348  2.0005  0.2136  1.2132
 9091SOL     OW38731   3.209   3.495  13.512  0.5858  0.1393  0.6011
 9091SOL    HW138732   3.243   3.568  13.461  0.6035  0.8765  1.6705
 9091SOL    HW238733   3.176   3.434  13.445 -0.5274 -1.6906  2.8055
 9092SOL     OW38734   3.254   1.986   8.003 -0.3456 -0.4422  0.2854
 9092SOL    HW138735   3.284   2.063   7.955 -1.1533  1.1041  2.2725
 9092SOL    HW238736   3.232   2.034   8.083 -1.2120 -0.8913  0.3174
 9093SOL     OW38737   4.069   0.045   3.157 -0.3876  0.2112 -0.6961
 9093SOL    HW138738   3.978   0.016   3.157 -0.7434  1.3391  0.4643
 9093SOL    HW238739   4.110   4.682   3.170 -2.6633 -0.6364  0.8401
 9094SOL     OW38740   3.630   1.641   0.503  0.3274 -0.2946 -0.1760
 9094SOL    HW138741   3.559   1.638   0.567 -0.9376 -1.2800 -1.6206
 9094SOL    HW238742   3.630   1.735   0.486 -0.3238 -0.4957 -1.2619
 9095SOL     OW38743   0.046   1.094  16.979  0.0823 -0.0513  0.0790
 9095SOL    HW138744   0.119   1.038  17.005 -0.7120 -1.0227  0.2039
 9095SOL    HW238745   4.700   1.038  16.941  0.2086 -0.2884  0.2021
 9096SOL     OW38746   0.622   0.235   4.709 -0.3805 -0.1496  0.1515
 9096SOL    HW138747   0.664   0.199   4.787  1.5723  1.3093 -0.2202
 9096SOL    HW238748   0.537   0.191   4.709 -0.2658 -0.3750  0.8174
 9097SOL     OW38749   3.726   4.549   0.761 -0.8109 -0.3257  0.2384
 9097SOL    HW138750   3.713   4.526   0.669 -0.1835  1.5322 -0.3040
 9097SOL    HW238751   3.762   4.468   0.797 -2.0089 -0.4988  1.0518
 9098SOL     OW38752   3.200   4.720   7.628  0.0620  0.3409 -0.3514
 9098SOL    HW138753   3.150   4.669   7.692  2.3885 -0.7256  0.5898
 9098SOL    HW238754   3.260   0.040   7.689 -1.5585 -0.8817  2.1362
 9099SOL     OW38755   4.018   2.783  13.375  0.1072  0.2762 -0.4623
 9099SOL    HW138756   4.112   2.764  13.373  0.0791  0.2051 -1.0149
 9099SOL    HW238757   3.979   2.696  13.386 -0.3775  0.4666 -0.6932
 9100SOL     OW38758   0.822   1.459   0.303  0.3803  0.0820  0.5251
 9100SOL    HW138759   0.820   1.538   0.355  0.4514 -0.9193  2.0423
 9100SOL    HW238760   0.759   1.478   0.234 -0.1352  1.1469  1.3021
 9101SOL     OW38761   1.044   2.527   5.672 -0.5120 -0.5154 -0.1498
 9101SOL    HW138762   1.135   2.510   5.696 -0.6857 -0.2962  0.6646
 9101SOL    HW238763   0.988   2.482   5.735 -0.4415 -1.3534 -0.6760
 9102SOL     OW38764   3.006   1.221  17.515 -0.5100  0.2599  0.0740
 9102SOL    HW138765   2.991   1.290  17.579  0.3623  1.1810 -0.7086
 9102SOL    HW238766   3.054   1.166  17.577 -2.1317 -2.6261 -1.2398
 9103SOL     OW38767   4.165   1.539  15.265 -0.1296  0.0900 -0.0649
 9103SOL    HW138768   4.117   1.616  15.294 -3.5075 -1.3794 -1.7324
 9103SOL    HW238769   4.255   1.563  15.288  0.5424  0.0401 -2.6560
 9104SOL     OW38770   3.583   2.801   3.066  0.2390  0.4106  0.0143
 9104SOL    HW138771   3.499   2.796   3.111  1.2164 -0.9660  1.6595
 9104SOL    HW238772   3.600   2.709   3.046 -1.2773  0.4743 -1.5985
 9105SOL     OW38773   0.774   2.562  11.653  0.2670  0.4263  0.0847
 9105SOL    HW138774   0.813   2.527  11.573 -0.9606 -0.1977 -0.2357
 9105SOL    HW238775   0.842   2.625  11.679  1.0985  0.4122 -2.0594
 9106SOL     OW38776   4.222   1.078  14.449  0.1913 -0.0068 -0.1205
 9106SOL    HW138777   4.196   0.988  14.430  0.0414 -0.5971  2.8673
 9106SOL    HW238778   4.285   1.066  14.520 -0.0177 -0.8559 -0.0774
 9107SOL     OW38779   2.276   0.687  11.060  0.4111  0.6681 -0.1805
 9107SOL    HW138780   2.309   0.740  10.987  0.4332  2.4255  1.1049
 9107SOL    HW238781   2.306   0.600  11.032 -0.4561  0.6037 -0.9261
 9108SOL     OW38782   0.913   3.122   7.389 -0.2543  0.4686  0.3192
 9108SOL    HW138783   0.921   3.128   7.294 -1.1710  1.0014  0.2751
 9108SOL    HW238784   0.970   3.194   7.416 -0.4181  1.3243 -1.6706
 9109SOL     OW38785   1.045   0.456   8.248 -0.5487 -0.0815 -0.2255
 9109SOL    HW138786   0.955   0.436   8.223 -0.8846 -0.4514  1.3072
 9109SOL    HW238787   1.021   0.480   8.337 -1.0540 -2.4063  0.2828
 9110SOL     OW38788   3.018   0.377   6.004 -0.2269 -0.2318  0.3566
 9110SOL    HW138789   3.022   0.430   6.084 -1.7243  1.7277 -0.8472
 9110SOL    HW238790   2.928   0.398   5.977  0.1230  2.6202  1.4333
 9111SOL     OW38791   1.616   0.494   3.229  0.4328  0.1409  0.0364
 9111SOL    HW138792   1.530   0.460   3.206  0.9751 -0.9449 -0.4510
 9111SOL    HW238793   1.594   0.518   3.318 -0.0553 -1.2798  0.2923
 9112SOL     OW38794   0.902   4.682   2.758 -0.2980  0.4869  0.0060
 9112SOL    HW138795   0.931   4.719   2.675  1.5758  0.0512  0.4742
 9112SOL    HW238796   0.894   0.032   2.820 -0.3864  2.0605 -1.8343
 9113SOL     OW38797   0.501   3.070   6.026  0.0962 -0.7108  0.2984
 9113SOL    HW138798   0.530   3.073   5.935  0.4344  1.8416  0.4835
 9113SOL    HW238799   0.551   3.138   6.070  0.0794  0.4508 -1.4694
 9114SOL     OW38800   2.268   2.089   0.919  0.2337  0.1024 -0.3686
 9114SOL    HW138801   2.222   2.113   0.839 -1.0923 -1.4440 -0.0635
 9114SOL    HW238802   2.299   2.174   0.951 -1.8963  0.2186  1.3491
 9115SOL     OW38803   0.651   2.720   8.674  0.3322  0.3733  0.8144
 9115SOL    HW138804   0.664   2.647   8.614  0.9135  1.7889 -0.8062
 9115SOL    HW238805   0.567   2.704   8.716 -0.4530  0.7860 -0.5927
 9116SOL     OW38806   2.328   4.443  14.926 -0.0745  0.4301  0.1226
 9116SOL    HW138807   2.368   4.471  15.008  1.9522 -0.3331 -0.6085
 9116SOL    HW238808   2.329   4.350  14.949 -0.6298 -0.0990 -1.9563
 9117SOL     OW38809   3.918   2.520   0.924 -0.0848  0.1470 -0.6059
 9117SOL    HW138810   3.876   2.585   0.980  2.6994 -0.7063  2.4895
 9117SOL    HW238811   3.854   2.517   0.853 -0.5235  2.0186 -0.2871
 9118SOL     OW38812   0.440   3.632   7.205  0.5901 -0.3435 -0.0694
 9118SOL    HW138813   0.351   3.666   7.209  0.8010 -0.1434  3.5276
 9118SOL    HW238814   0.437   3.558   7.144  2.1809 -0.7024  0.2728
 9119SOL     OW38815   0.866   3.727   3.272  0.0241  0.2244  0.1618
 9119SOL    HW138816   0.811   3.743   3.349 -0.0919 -1.4512  0.4276
 9119SOL    HW238817   0.888   3.814   3.240 -0.7590  0.1059 -0.7053
 9120SOL     OW38818   2.412   3.435   3.754 -0.9108  0.1565 -0.7952
 9120SOL    HW138819   2.342   3.464   3.813 -1.4132  1.1521 -1.8967
 9120SOL    HW238820   2.424   3.342   3.774  0.8199  0.7834  1.0951
 9121SOL     OW38821   1.939   4.270   5.775  0.1673 -0.5250  0.0952
 9121SOL    HW138822   1.925   4.356   5.735 -0.4601  0.5622  2.6563
 9121SOL    HW238823   1.980   4.224   5.701 -0.2765 -0.9132  0.0919
 9122SOL     OW38824   2.517   2.981   8.594  0.2216  0.5136  0.0979
 9122SOL    HW138825   2.441   2.995   8.651  0.1249 -1.1319  0.3488
 9122SOL    HW238826   2.530   2.887   8.596 -0.9378  0.3819  1.5543
 9123SOL     OW38827   1.817   2.880   2.321  0.4109  0.2441 -0.1789
 9123SOL    HW138828   1.739   2.857   2.270  0.3927 -1.2955  0.5420
 9123SOL    HW238829   1.784   2.965   2.352 -1.9001 -1.2577  1.5043
 9124SOL     OW38830   1.800   1.760   5.819 -0.0005 -0.6039  0.0718
 9124SOL    HW138831   1.728   1.822   5.820  0.4465 -0.0821 -0.0295
 9124SOL    HW238832   1.849   1.819   5.877 -2.8662  1.1033  0.7049
 9125SOL     OW38833   4.134   2.248   6.935 -0.0633  0.0462 -0.0050
 9125SOL    HW138834   4.079   2.169   6.941 -1.3957  0.8347 -2.1498
 9125SOL    HW238835   4.110   2.307   7.006  1.1268  1.3040 -0.6586
 9126SOL     OW38836   1.788   0.564   2.047 -0.0941  0.0405 -0.7661
 9126SOL    HW138837   1.843   0.639   2.069 -0.6239  0.4833 -0.9238
 9126SOL    HW238838   1.752   0.532   2.130 -1.1709 -1.4918 -1.8311
 9127SOL     OW38839   4.543   0.768   7.966  0.1357 -0.0686  0.7369
 9127SOL    HW138840   4.618   0.802   8.014 -1.0513  1.9874  1.1162
 9127SOL    HW238841   4.482   0.842   7.969  0.4747  0.2468 -0.2417
 9128SOL     OW38842   3.648   1.277   5.002  0.2682  0.2239 -0.1019
 9128SOL    HW138843   3.737   1.287   5.034  1.1826 -2.6166 -1.7842
 9128SOL    HW238844   3.595   1.331   5.060 -1.1485 -0.8934 -0.3496
 9129SOL     OW38845   3.515   1.022   8.181 -0.3256  0.1811 -0.3953
 9129SOL    HW138846   3.539   1.103   8.137  2.0840 -0.9460 -1.1728
 9129SOL    HW238847   3.437   1.004   8.127 -0.4073  3.5139 -1.3657
 9130SOL     OW38848   4.493   2.474   6.558  0.2322 -0.2185  0.4365
 9130SOL    HW138849   4.556   2.406   6.585 -0.9270 -0.3764  2.6559
 9130SOL    HW238850   4.419   2.416   6.578 -0.2484  0.3772  0.3751
 9131SOL     OW38851   1.622   3.102   3.566  0.2123 -0.0193 -0.3453
 9131SOL    HW138852   1.539   3.081   3.523  0.7336 -3.7516  0.4567
 9131SOL    HW238853   1.655   3.160   3.497 -3.5023  1.7431 -0.6102
 9132SOL     OW38854   2.711   2.129   5.463 -0.0752 -0.0767 -0.3385
 9132SOL    HW138855   2.620   2.131   5.434  0.4433 -1.4885 -2.1296
 9132SOL    HW238856   2.710   2.200   5.526  0.0500  0.8374 -1.3576
 9133SOL     OW38857   3.347   1.658  11.925  0.1416 -0.0442  0.3013
 9133SOL    HW138858   3.420   1.597  11.932  0.6447  0.5592  0.3686
 9133SOL    HW238859   3.284   1.624  11.988 -0.3543 -1.8668 -1.2154
 9134SOL     OW38860   4.428   3.627   6.539  0.2262 -0.0719 -0.6491
 9134SOL    HW138861   4.381   3.549   6.509  0.7652 -0.2355 -1.0884
 9134SOL    HW238862   4.459   3.661   6.455  2.1903 -0.1951  0.0226
 9135SOL     OW38863   3.452   1.904   4.982 -0.2938  0.1116 -0.5929
 9135SOL    HW138864   3.448   1.900   5.077 -1.2848 -0.7271 -0.6679
 9135SOL    HW238865   3.514   1.834   4.962 -0.2152  0.0730 -0.2195
 9136SOL     OW38866   0.394   1.786   6.664  0.3474  0.7565 -0.0807
 9136SOL    HW138867   0.478   1.794   6.621 -0.1191  1.9700 -0.7629
 9136SOL    HW238868   0.336   1.816   6.594 -0.7705 -0.1758  0.4231
 9137SOL     OW38869   3.335   1.961   7.474 -0.0509  0.1930 -0.0072
 9137SOL    HW138870   3.413   1.965   7.418  0.9019 -0.2701  1.2859
 9137SOL    HW238871   3.320   2.055   7.482  1.0910  0.2080  2.1590
 9138SOL     OW38872   1.312   4.400   5.660  0.6488  0.1253  0.4056
 9138SOL    HW138873   1.407   4.414   5.655  0.7879 -0.4184  1.6493
 9138SOL    HW238874   1.276   4.481   5.624  3.0386  0.6020 -0.9748
 9139SOL     OW38875   0.837   2.026  15.289 -0.0521  0.1414  0.4827
 9139SOL    HW138876   0.832   1.943  15.336 -0.9838 -0.7444 -1.1380
 9139SOL    HW238877   0.931   2.038  15.286 -0.1509  0.8578  0.2772
 9140SOL     OW38878   3.352   0.510  10.451 -0.3901 -0.3786 -0.7360
 9140SOL    HW138879   3.260   0.486  10.460 -0.8627  1.0734 -1.7024
 9140SOL    HW238880   3.386   0.426  10.421  1.7052  0.1854  0.0354
 9141SOL     OW38881   4.015   0.652   1.689 -0.4676  0.8259 -0.1045
 9141SOL    HW138882   4.032   0.558   1.681  1.1169  1.0247  1.1136
 9141SOL    HW238883   3.969   0.656   1.605 -0.6872  0.9733  0.0224
 9142SOL     OW38884   1.003   2.432  15.283  0.7769 -0.7231 -1.0671
 9142SOL    HW138885   1.078   2.382  15.312  0.4110  1.1180  3.0075
 9142SOL    HW238886   1.030   2.458  15.195  1.4801 -0.7520 -0.8615
 9143SOL     OW38887   0.876   1.551   2.518 -0.1988  0.3386  0.4269
 9143SOL    HW138888   0.858   1.618   2.585 -0.4229  0.6587  0.0461
 9143SOL    HW238889   0.940   1.589   2.458  0.2754  1.3760  1.5809
 9144SOL     OW38890   4.518   1.025   2.205  0.1144 -0.0883  0.3608
 9144SOL    HW138891   4.450   1.050   2.267 -0.6455 -1.9583  0.2800
 9144SOL    HW238892   4.546   0.946   2.251  0.5310 -1.0016 -1.4265
 9145SOL     OW38893   1.076   3.489   4.154  0.6546  0.2406  0.0566
 9145SOL    HW138894   1.081   3.435   4.075  1.4027  0.7856 -0.2675
 9145SOL    HW238895   1.052   3.576   4.120  0.6878  0.0068 -0.5571
 9146SOL     OW38896   3.081   3.826   8.659  0.1128 -0.2808  0.0185
 9146SOL    HW138897   3.079   3.831   8.564 -0.5768  2.6567  0.1874
 9146SOL    HW238898   3.101   3.918   8.681 -2.0351 -0.2798  1.9012
 9147SOL     OW38899   0.096   1.044   3.298  0.7743  0.2900 -0.2301
 9147SOL    HW138900   0.055   1.116   3.346 -0.1509 -1.3626  1.4673
 9147SOL    HW238901   0.027   0.979   3.314 -0.8075  1.8508 -0.7829
 9148SOL     OW38902   3.235   1.206   7.821  0.2680  0.1704  0.0137
 9148SOL    HW138903   3.258   1.293   7.854  0.7625  0.1657 -0.3245
 9148SOL    HW238904   3.143   1.209   7.794  0.4675 -0.9879 -0.8070
 9149SOL     OW38905   1.286   0.208   7.645 -0.1259 -0.1927  0.1343
 9149SOL    HW138906   1.229   0.276   7.679 -0.1522  0.2249 -0.7577
 9149SOL    HW238907   1.231   0.130   7.642 -0.6040  0.0345  2.4716
 9150SOL     OW38908   0.323   3.071   3.226  0.2226 -0.8222 -0.2802
 9150SOL    HW138909   0.357   3.160   3.214 -1.7459  0.0623  0.7959
 9150SOL    HW238910   0.260   3.054   3.157 -0.6954 -0.8644  0.5738
 9151SOL     OW38911   4.597   2.958  11.181 -0.0182 -0.1629 -0.1668
 9151SOL    HW138912   4.599   3.003  11.265 -1.1858  1.8586 -1.2172
 9151SOL    HW238913   4.682   2.994  11.156  0.2377  0.7813  2.0683
 9152SOL     OW38914   0.466   1.377   2.389  0.3360 -0.1481  0.2844
 9152SOL    HW138915   0.377   1.352   2.366  0.2169  1.3491 -0.8259
 9152SOL    HW238916   0.438   1.461   2.424  0.5435  0.8738 -2.0291
 9153SOL     OW38917   0.951   2.548   8.824  0.7184  0.2805  0.4506
 9153SOL    HW138918   0.893   2.474   8.841 -1.0897  1.3583 -1.0265
 9153SOL    HW238919   0.924   2.615   8.887  0.1549  0.2699  0.2148
 9154SOL     OW38920   3.485   2.327   7.542 -0.5766 -0.4317  0.4984
 9154SOL    HW138921   3.486   2.351   7.635  4.8194  0.2927  0.2175
 9154SOL    HW238922   3.402   2.279   7.549 -0.4689 -0.6899 -0.0474
 9155SOL     OW38923   0.768   3.969   1.897 -0.2836  0.1532 -0.7119
 9155SOL    HW138924   0.731   3.944   1.812  0.8840 -0.0858 -1.1445
 9155SOL    HW238925   0.834   4.028   1.861  1.3875 -0.6082  1.1353
 9156SOL     OW38926   3.051   2.972   5.151  0.2258  0.3860 -0.0348
 9156SOL    HW138927   3.026   2.881   5.166  0.0605  0.4738  0.2215
 9156SOL    HW238928   3.085   2.999   5.236  0.8681  0.8432 -0.4416
 9157SOL     OW38929   3.789   1.324  16.906 -0.0270  0.8638  0.4147
 9157SOL    HW138930   3.768   1.263  16.976  2.6951 -2.0327 -1.2969
 9157SOL    HW238931   3.704   1.341  16.866 -0.3633 -0.1389  0.7279
 9158SOL     OW38932   2.820   2.103   1.592  0.1844  0.2811  1.0899
 9158SOL    HW138933   2.873   2.182   1.580  1.3844 -0.4719  1.3307
 9158SOL    HW238934   2.878   2.037   1.631  0.7598 -0.1166 -0.4364
 9159SOL     OW38935   4.257   0.712   6.719  0.5782 -0.0566  0.3708
 9159SOL    HW138936   4.345   0.732   6.751 -0.6518  4.5317  0.7690
 9159SOL    HW238937   4.288   0.665   6.642  3.6567  1.0868  0.9107
 9160SOL     OW38938   3.947   3.027   7.944 -0.2976 -0.4499 -0.4756
 9160SOL    HW138939   3.862   3.040   7.987 -1.6773 -2.2652 -2.6289
 9160SOL    HW238940   3.972   3.115   7.917  0.3131 -0.2541  0.7252
 9161SOL     OW38941   2.888   1.817  16.533  0.5730  0.4614  0.5370
 9161SOL    HW138942   2.971   1.852  16.501 -0.3316  1.5213 -0.6305
 9161SOL    HW238943   2.900   1.846  16.623  0.6816  0.1237  0.6312
 9162SOL     OW38944   1.854   0.089  16.253  0.0491  0.1690  0.0493
 9162SOL    HW138945   1.865   0.183  16.270 -0.0198  0.8109 -3.6379
 9162SOL    HW238946   1.780   0.082  16.193 -0.2019 -1.5427  0.5695
 9163SOL     OW38947   1.538   4.428   1.039 -0.3397  0.3128 -0.1663
 9163SOL    HW138948   1.556   4.337   1.015 -0.8761  0.2301 -0.2570
 9163SOL    HW238949   1.588   4.408   1.119  0.0811  1.4421 -0.1443
 9164SOL     OW38950   1.274   3.935   1.481 -0.5547 -0.1195  0.1830
 9164SOL    HW138951   1.342   3.909   1.418 -0.1139 -0.5823  0.8373
 9164SOL    HW238952   1.195   3.913   1.431  0.5035 -0.0595 -1.5218
 9165SOL     OW38953   0.680   3.746   3.570 -0.1065  0.3577  0.0442
 9165SOL    HW138954   0.694   3.652   3.577  0.1309  0.4017  0.1774
 9165SOL    HW238955   0.608   3.779   3.624  2.2921  0.1023  3.3791
 9166SOL     OW38956   2.370   1.730   7.728 -0.1956 -0.4147 -0.2383
 9166SOL    HW138957   2.301   1.672   7.759 -0.0786 -1.5100 -2.0473
 9166SOL    HW238958   2.350   1.730   7.634  0.3766  0.2096 -0.3640
 9167SOL     OW38959   2.691   2.624  16.281  0.4445 -0.7641 -0.0327
 9167SOL    HW138960   2.740   2.566  16.339  0.4509  0.3441  1.0461
 9167SOL    HW238961   2.750   2.628  16.206 -0.1886 -0.5734 -0.5315
 9168SOL     OW38962   3.643   2.357   4.788  0.7569  0.0776 -0.0005
 9168SOL    HW138963   3.722   2.355   4.733  2.0117  1.6369  1.7401
 9168SOL    HW238964   3.632   2.262   4.781 -2.0884  0.5326 -1.6695
 9169SOL     OW38965   2.305   2.140   5.596 -0.4902  0.4794  0.1539
 9169SOL    HW138966   2.373   2.119   5.532 -0.4595  0.6005  0.1473
 9169SOL    HW238967   2.278   2.051   5.621 -3.1154  1.8484  2.1421
 9170SOL     OW38968   2.713   0.974   6.215 -0.3870  0.1855 -0.2292
 9170SOL    HW138969   2.725   1.065   6.244  0.7028 -0.3362  0.9931
 9170SOL    HW238970   2.728   0.995   6.123  0.4947 -0.6620 -0.2729
 9171SOL     OW38971   3.100   3.605  10.535  0.0593  0.5132  0.3568
 9171SOL    HW138972   3.096   3.579  10.627  2.6578  0.8138  0.5443
 9171SOL    HW238973   3.019   3.656  10.532  0.0767  0.5818  1.0488
 9172SOL     OW38974   4.482   3.794   6.292  0.9416  0.2619  0.0653
 9172SOL    HW138975   4.543   3.858   6.255  0.6341  0.3731 -0.2475
 9172SOL    HW238976   4.396   3.825   6.264 -0.5806 -1.8864  2.2906
 9173SOL     OW38977   1.066   2.824  12.697 -0.0153  0.1566  0.3091
 9173SOL    HW138978   1.086   2.835  12.790 -0.4423  1.3621  0.2587
 9173SOL    HW238979   1.021   2.740  12.703 -0.8807  0.4513 -2.1766
 9174SOL     OW38980   0.849   2.282  10.039 -0.4821 -0.1795  0.3002
 9174SOL    HW138981   0.921   2.284  10.102 -1.0568 -1.6833  0.9968
 9174SOL    HW238982   0.870   2.369  10.004 -1.5763  0.0341  0.1897
 9175SOL     OW38983   2.404   2.667   6.639 -0.4919 -0.3109 -0.1317
 9175SOL    HW138984   2.453   2.717   6.573 -0.1713  2.1598  1.9992
 9175SOL    HW238985   2.472   2.640   6.700 -0.6052 -0.3287 -0.0154
 9176SOL     OW38986   1.303   3.712   5.441 -0.6063 -0.0515 -0.6737
 9176SOL    HW138987   1.215   3.678   5.458 -0.5655  0.2325  0.1210
 9176SOL    HW238988   1.323   3.755   5.524  0.8912  0.0260 -1.0710
 9177SOL     OW38989   2.386   3.727  12.838 -0.1297 -0.1449 -0.2276
 9177SOL    HW138990   2.350   3.805  12.881  1.1864  0.5160 -0.3151
 9177SOL    HW238991   2.347   3.659  12.893  1.5898 -1.8442 -1.1106
 9178SOL     OW38992   1.071   2.800   3.306 -0.1102 -0.6640 -0.4774
 9178SOL    HW138993   0.989   2.767   3.271 -1.0132  0.2598  0.7617
 9178SOL    HW238994   1.078   2.888   3.269  0.3271 -1.2322 -1.7221
 9179SOL     OW38995   0.326   2.123  16.565 -0.0768  0.0696 -0.1091
 9179SOL    HW138996   0.395   2.150  16.625  1.1945  0.7314 -1.8854
 9179SOL    HW238997   0.367   2.142  16.480  0.0947  2.8211  0.5625
 9180SOL     OW38998   0.220   4.573   9.277 -0.7948  0.4517  0.0255
 9180SOL    HW138999   0.265   4.642   9.228 -1.6105 -1.1663 -2.9735
 9180SOL    HW239000   0.148   4.624   9.313 -0.7434  0.4189  0.1768
 9181SOL     OW39001   2.246   1.596   5.445  0.3420 -0.4088  0.4268
 9181SOL    HW139002   2.186   1.553   5.384  0.0913 -0.8588  0.9851
 9181SOL    HW239003   2.263   1.533   5.515  0.6301  0.6636  1.3184
 9182SOL     OW39004   1.280   0.631   2.744 -0.0335 -0.3728 -0.0041
 9182SOL    HW139005   1.315   0.716   2.718  0.3194 -0.3592  0.5029
 9182SOL    HW239006   1.356   0.572   2.749  0.1107 -0.1347  0.6499
 9183SOL     OW39007   3.506   3.102  11.030  0.2665  0.3568  0.7084
 9183SOL    HW139008   3.578   3.056  10.988 -1.4475 -2.1876  0.6083
 9183SOL    HW239009   3.513   3.185  10.983 -2.5524  0.0167 -0.3089
 9184SOL     OW39010   2.330   4.282   4.836  0.2099  0.3690  0.1556
 9184SOL    HW139011   2.404   4.238   4.795  0.8592 -0.7778  2.5510
 9184SOL    HW239012   2.371   4.359   4.875  1.2610 -0.7312  1.2171
 9185SOL     OW39013   3.773   1.328   1.405 -0.1030 -0.0582  0.0105
 9185SOL    HW139014   3.854   1.296   1.444 -0.6742 -0.7202  0.6493
 9185SOL    HW239015   3.803   1.356   1.319 -0.4392 -1.0161 -0.4226
 9186SOL     OW39016   2.796   2.589   4.729  0.2078  0.1315 -0.6252
 9186SOL    HW139017   2.716   2.569   4.778  0.7670 -0.1706  0.1598
 9186SOL    HW239018   2.858   2.609   4.799 -1.7080 -0.1253  1.1451
 9187SOL     OW39019   3.340   3.947   8.379 -0.5371  0.4655 -0.5297
 9187SOL    HW139020   3.386   3.964   8.461  1.6261  0.2879 -1.7034
 9187SOL    HW239021   3.259   3.997   8.391 -0.2211  1.0536 -0.8283
 9188SOL     OW39022   2.522   3.781   6.920 -0.4094  0.2389 -0.1123
 9188SOL    HW139023   2.466   3.735   6.983  0.3446 -2.1177 -1.1397
 9188SOL    HW239024   2.593   3.813   6.976  0.6479 -2.2480 -0.0310
 9189SOL     OW39025   0.695   2.738   2.548 -0.1695  0.3991  0.3323
 9189SOL    HW139026   0.773   2.787   2.575 -0.4003  1.7406 -1.4462
 9189SOL    HW239027   0.714   2.711   2.458 -1.3572  0.6675 -0.0034
 9190SOL     OW39028   4.685   3.647   9.216 -0.1884 -0.1992  0.0276
 9190SOL    HW139029   0.046   3.627   9.174 -0.9680 -1.1405 -1.0703
 9190SOL    HW239030   4.654   3.559   9.238 -1.0745  0.1043 -0.0212
 9191SOL     OW39031   3.397   3.695   0.211 -0.3505  0.0680  0.5023
 9191SOL    HW139032   3.388   3.782   0.172 -0.4832 -0.6706 -1.1110
 9191SOL    HW239033   3.477   3.699   0.263  0.2579  1.1674 -0.5360
 9192SOL     OW39034   2.588   2.334   6.915 -0.3964  0.1786  0.6423
 9192SOL    HW139035   2.626   2.290   6.990 -0.7928  0.2575  0.8891
 9192SOL    HW239036   2.558   2.414   6.957  0.3497  0.8806 -0.1583
 9193SOL     OW39037   0.923   1.560   5.031 -0.2749 -0.4263 -0.0857
 9193SOL    HW139038   0.983   1.628   5.000  2.5436 -3.2050 -0.7581
 9193SOL    HW239039   0.879   1.597   5.107 -1.6925 -0.2848 -0.9762
 9194SOL     OW39040   1.798   3.845  13.162 -0.3401  0.0115 -0.1372
 9194SOL    HW139041   1.876   3.802  13.126 -0.5587 -0.3722 -0.1573
 9194SOL    HW239042   1.767   3.874  13.076  2.1188  2.8399 -0.0533
 9195SOL     OW39043   4.075   3.928  11.802  0.0675  0.4158 -0.6752
 9195SOL    HW139044   4.088   3.834  11.788 -2.1817 -0.0862  0.6215
 9195SOL    HW239045   4.082   3.954  11.710 -0.9912 -2.6842 -1.6212
 9196SOL     OW39046   1.707   3.333   6.805  0.1112  0.2452  0.2094
 9196SOL    HW139047   1.645   3.391   6.761 -0.6870 -0.8932 -0.1587
 9196SOL    HW239048   1.731   3.390   6.879  0.7793 -0.4159  0.5017
 9197SOL     OW39049   4.574   3.093  16.537  0.1378 -0.1170 -0.0119
 9197SOL    HW139050   4.581   3.041  16.457  0.3254 -1.9986  1.2249
 9197SOL    HW239051   4.578   3.023  16.602  2.4381 -0.3875 -0.4463
 9198SOL     OW39052   1.474   0.529   2.389  0.1967  0.1651  0.4249
 9198SOL    HW139053   1.391   0.535   2.342  0.0631  1.1972  0.7933
 9198SOL    HW239054   1.477   0.434   2.396 -0.3859  0.1115 -0.1226
 9199SOL     OW39055   0.949   3.616  16.930 -0.2612 -0.0730 -0.0339
 9199SOL    HW139056   0.897   3.539  16.909 -0.8150  0.3932 -0.3781
 9199SOL    HW239057   0.997   3.614  16.847 -1.6839  0.1796 -0.8601
 9200SOL     OW39058   0.318   1.539   7.185  0.1154  0.4748 -0.0693
 9200SOL    HW139059   0.382   1.583   7.241 -0.5441  2.9335 -1.2727
 9200SOL    HW239060   0.370   1.518   7.108  0.3220  1.1906 -0.1273
 9201SOL     OW39061   3.368   0.060  12.366  0.2485 -0.2529 -0.0897
 9201SOL    HW139062   3.285   0.051  12.414 -0.2098 -0.1722 -0.8622
 9201SOL    HW239063   3.392   0.142  12.410  2.5222 -1.0091  0.0695
 9202SOL     OW39064   2.418   1.578   1.681 -0.8528  0.2347  0.1480
 9202SOL    HW139065   2.492   1.611   1.630 -0.2407 -1.1290  0.1380
 9202SOL    HW239066   2.355   1.565   1.609 -0.4689 -1.8696  0.1884
 9203SOL     OW39067   2.280   0.544  17.213  0.2011 -0.8891  0.0181
 9203SOL    HW139068   2.267   0.636  17.190 -0.8977 -0.2828  2.9441
 9203SOL    HW239069   2.230   0.554  17.295  1.3663  1.5627  0.4278
 9204SOL     OW39070   1.855   2.715  12.169 -0.4469  0.6370 -0.0638
 9204SOL    HW139071   1.773   2.705  12.121 -0.4585  2.8789 -0.4878
 9204SOL    HW239072   1.885   2.801  12.140 -0.9487  0.3774 -1.3338
 9205SOL     OW39073   4.095   1.499  16.643  0.1975  0.0940 -0.6353
 9205SOL    HW139074   4.040   1.530  16.571  1.2304  2.9580 -0.1753
 9205SOL    HW239075   4.182   1.513  16.607  0.2413 -1.3983 -1.0876
 9206SOL     OW39076   2.721   2.760  16.561  1.0239  0.4226 -0.0003
 9206SOL    HW139077   2.799   2.724  16.605 -1.3764 -2.8595  1.5499
 9206SOL    HW239078   2.681   2.679  16.531  1.2160  0.6419 -0.8413
 9207SOL     OW39079   2.256   1.551   7.258 -0.0712  0.3697 -0.6747
 9207SOL    HW139080   2.289   1.636   7.288 -0.6028  0.7959 -1.2809
 9207SOL    HW239081   2.298   1.547   7.171  1.6699 -4.6629  0.4025
 9208SOL     OW39082   2.344   4.087   6.435  0.5836  0.2122  0.7101
 9208SOL    HW139083   2.404   4.067   6.506  0.7642  0.4722  0.6302
 9208SOL    HW239084   2.393   4.146   6.377  0.4807 -1.8031 -1.4313
 9209SOL     OW39085   3.784   1.589   7.107 -0.1216  0.3056 -0.1553
 9209SOL    HW139086   3.813   1.656   7.046  2.1396  0.7655  1.4594
 9209SOL    HW239087   3.765   1.513   7.051  0.5293 -0.3346  0.4934
 9210SOL     OW39088   4.329   3.495  12.412 -0.1387 -0.1858  0.3754
 9210SOL    HW139089   4.328   3.420  12.353 -0.1533 -0.4810  0.7496
 9210SOL    HW239090   4.326   3.571  12.353 -1.1873  0.0387  0.7247
 9211SOL     OW39091   2.896   1.443  15.010  0.3153 -0.3924  0.0472
 9211SOL    HW139092   2.870   1.352  14.994 -0.6099  0.1916 -1.8156
 9211SOL    HW239093   2.941   1.476  14.932 -0.0368 -1.8769 -0.7846
 9212SOL     OW39094   3.052   0.490  17.418  0.7721 -0.2090 -0.1941
 9212SOL    HW139095   3.111   0.447  17.356 -1.5056 -2.2814 -0.9386
 9212SOL    HW239096   2.989   0.536  17.363 -1.6222  0.9062  3.4720
 9213SOL     OW39097   4.256   3.600   4.485 -0.1817  0.4411  0.2051
 9213SOL    HW139098   4.332   3.545   4.464 -4.2430 -4.4591 -1.7851
 9213SOL    HW239099   4.199   3.598   4.408 -1.3670  0.0586  1.0892
 9214SOL     OW39100   4.164   1.164   7.901 -0.3565 -0.7430  0.5714
 9214SOL    HW139101   4.098   1.190   7.965 -0.0905  1.8067 -0.1837
 9214SOL    HW239102   4.107   1.155   7.825 -1.2793 -0.2741  1.2076
 9215SOL     OW39103   1.928   0.513   6.521 -0.0212 -0.1758 -1.0575
 9215SOL    HW139104   1.978   0.592   6.540 -2.3604  1.3285 -1.1189
 9215SOL    HW239105   1.926   0.471   6.606 -3.1053  2.9573  0.4212
 9216SOL     OW39106   4.710   2.360  14.888 -0.7154  0.2823 -0.0790
 9216SOL    HW139107   4.716   2.451  14.917  0.6456  0.3632 -0.6184
 9216SOL    HW239108   4.621   2.330  14.905 -1.0627  0.7007 -1.1826
 9217SOL     OW39109   4.362   1.609   6.450  0.2468  0.4354  0.3462
 9217SOL    HW139110   4.321   1.622   6.364 -0.2929 -1.0712  0.3721
 9217SOL    HW239111   4.431   1.552   6.416 -1.4052 -2.1349  1.3215
 9218SOL     OW39112   3.528   3.301  16.720  0.1135 -0.4972  0.0536
 9218SOL    HW139113   3.532   3.388  16.679  3.3085 -0.2068  0.8983
 9218SOL    HW239114   3.552   3.322  16.811 -0.7411 -1.2622  0.4524
 9219SOL     OW39115   0.833   0.283   6.348 -0.4817 -0.1580 -0.5968
 9219SOL    HW139116   0.922   0.251   6.357 -1.0412 -1.3981  0.5213
 9219SOL    HW239117   0.840   0.363   6.402 -4.1340 -0.7971  0.8196
 9220SOL     OW39118   1.309   2.186   1.006 -0.4226  0.1260  0.8115
 9220SOL    HW139119   1.308   2.215   1.097 -1.3679  1.5537  0.3549
 9220SOL    HW239120   1.402   2.166   0.998 -0.2439  1.5411 -0.6256
 9221SOL     OW39121   1.022   2.626   7.386  0.1794  0.0237  0.3794
 9221SOL    HW139122   0.956   2.694   7.370  0.3550 -0.1223 -0.9595
 9221SOL    HW239123   0.972   2.546   7.406  0.5728  0.2647  2.3326
 9222SOL     OW39124   3.181   4.185   7.618  0.2262 -0.2692  0.3941
 9222SOL    HW139125   3.250   4.118   7.622  1.8709  1.4098  0.6408
 9222SOL    HW239126   3.182   4.216   7.709 -2.4506 -2.6675  1.2084
 9223SOL     OW39127   0.124   0.302   4.862  0.5829 -0.8696 -0.4446
 9223SOL    HW139128   0.046   0.258   4.894 -1.5789  2.6432 -0.8701
 9223SOL    HW239129   0.085   0.372   4.810 -1.1420 -0.5746  1.2455
 9224SOL     OW39130   2.990   0.122   8.462 -0.3142  0.4876  0.2917
 9224SOL    HW139131   2.910   0.170   8.484 -2.6741 -3.3986  0.1132
 9224SOL    HW239132   3.024   0.095   8.547  0.1334  0.2119  0.0231
 9225SOL     OW39133   0.386   3.762   2.830 -0.5386  0.5366 -0.5318
 9225SOL    HW139134   0.387   3.830   2.763 -1.6623  0.8849 -0.1871
 9225SOL    HW239135   0.313   3.792   2.884 -1.4936  0.2977 -1.6758
 9226SOL     OW39136   1.738   0.876   1.890  0.0309  0.5877  0.4864
 9226SOL    HW139137   1.754   0.840   1.977  0.2353  2.1506  1.0886
 9226SOL    HW239138   1.666   0.936   1.910 -2.2561 -2.4271  1.3442
 9227SOL     OW39139   2.282   1.869   3.951 -0.2517  0.9667 -0.1997
 9227SOL    HW139140   2.317   1.912   4.029  1.5585  1.2058 -1.1225
 9227SOL    HW239141   2.358   1.841   3.898 -2.1373 -0.7244 -2.0289
 9228SOL     OW39142   3.540   2.289  10.456  0.1622 -0.7410 -0.3559
 9228SOL    HW139143   3.502   2.261  10.373 -1.3800  0.0809  0.0459
 9228SOL    HW239144   3.546   2.384  10.444 -0.8474 -0.9376 -2.3920
 9229SOL     OW39145   2.761   3.868   3.800  0.2254  0.3007 -0.1021
 9229SOL    HW139146   2.854   3.887   3.813  0.2021 -0.8994  1.8450
 9229SOL    HW239147   2.756   3.786   3.851  0.6665  1.2045  1.3931
 9230SOL     OW39148   3.400   0.808   3.316  0.0855  0.5474  0.0218
 9230SOL    HW139149   3.478   0.860   3.299  0.2302  0.3811  0.1745
 9230SOL    HW239150   3.431   0.719   3.295 -0.5320 -0.1466  2.0848
 9231SOL     OW39151   1.429   0.032   2.234 -0.0350  0.5181 -0.3886
 9231SOL    HW139152   1.408   0.009   2.143 -0.1746  2.2270 -0.8006
 9231SOL    HW239153   1.446   4.667   2.267  0.1324  0.5040 -0.5145
 9232SOL     OW39154   2.568   3.893   1.144 -0.0994 -0.3584 -0.2970
 9232SOL    HW139155   2.633   3.868   1.210  0.0982  0.9204  0.0093
 9232SOL    HW239156   2.559   3.989   1.141  0.1448 -0.4079 -3.0216
 9233SOL     OW39157   1.945   2.606   8.430  0.1100 -0.1001  1.0734
 9233SOL    HW139158   2.009   2.538   8.452  1.7077  1.5733  1.6514
 9233SOL    HW239159   1.979   2.634   8.345  0.8596 -0.0269  1.3905
 9234SOL     OW39160   2.063   0.212  10.352 -0.3118  0.8031 -0.8335
 9234SOL    HW139161   2.116   0.291  10.351  1.8874 -0.6691 -0.2873
 9234SOL    HW239162   2.113   0.146  10.305 -1.9752  0.8923 -2.7451
 9235SOL     OW39163   2.901   2.372   7.132 -0.0004 -0.3336 -0.1933
 9235SOL    HW139164   2.877   2.435   7.064  0.3949  2.8706  2.5793
 9235SOL    HW239165   2.859   2.289   7.112  1.7706 -2.0246  3.1277
 9236SOL     OW39166   4.335   0.026  15.381 -0.0703  0.1202  0.3815
 9236SOL    HW139167   4.363   4.684  15.445  0.3732  1.2502  1.3229
 9236SOL    HW239168   4.316   4.692  15.306  0.9403  1.5255 -0.9428
 9237SOL     OW39169   1.653   4.371   1.312  0.1724 -0.1531  0.5989
 9237SOL    HW139170   1.600   4.304   1.268 -0.1913  1.3300 -1.2052
 9237SOL    HW239171   1.729   4.321   1.341 -0.7676 -1.2296  1.2503
 9238SOL     OW39172   1.733   1.276   2.684 -0.1050 -0.1545  0.1511
 9238SOL    HW139173   1.768   1.220   2.753 -1.7327 -2.5646 -1.0145
 9238SOL    HW239174   1.686   1.341   2.736 -0.5859 -0.1158 -0.3347
 9239SOL     OW39175   1.003   2.470   3.042  0.1405 -0.1085  0.6938
 9239SOL    HW139176   1.069   2.508   2.983  1.8525 -0.2474  2.5261
 9239SOL    HW239177   0.939   2.542   3.039  0.7823  0.4132 -0.2886
 9240SOL     OW39178   3.526   4.551   8.494 -0.4463  0.2512  0.1289
 9240SOL    HW139179   3.527   4.584   8.405  0.0273 -0.9132 -0.3059
 9240SOL    HW239180   3.596   4.485   8.490  0.7020  1.4093  1.2167
 9241SOL     OW39181   2.254   0.307  12.681  0.0761 -0.1012 -0.0567
 9241SOL    HW139182   2.159   0.305  12.675  0.1503 -1.1515 -0.8381
 9241SOL    HW239183   2.271   0.268  12.595  2.9390 -1.6092  1.2039
 9242SOL     OW39184   0.004   3.904   8.865 -0.0610  0.2051 -0.3100
 9242SOL    HW139185   0.009   3.989   8.908 -0.6502  0.4203 -0.6752
 9242SOL    HW239186   4.704   3.919   8.773  2.9432 -1.0118 -1.2441
 9243SOL     OW39187   3.715   4.706  11.038  0.4358  0.5461  0.9949
 9243SOL    HW139188   3.656   0.053  11.066 -0.5430  0.1246 -0.0314
 9243SOL    HW239189   3.748   4.664  11.118  3.0228 -0.4453 -0.5860
 9244SOL     OW39190   3.874   1.091  10.994  0.1860  0.2021 -0.1694
 9244SOL    HW139191   3.781   1.099  10.971  0.2426 -2.1269 -1.2371
 9244SOL    HW239192   3.913   1.072  10.908 -0.0135  0.2210 -0.2628
 9245SOL     OW39193   0.996   3.331  12.276 -0.5688  0.4969  0.2018
 9245SOL    HW139194   0.992   3.297  12.365 -0.6205 -0.8518 -0.3140
 9245SOL    HW239195   0.931   3.288  12.222  0.1099 -0.2846  0.0145
 9246SOL     OW39196   4.069   0.315  16.497  0.5642 -0.3969 -0.6706
 9246SOL    HW139197   3.974   0.332  16.496  0.8204  1.1231  0.4704
 9246SOL    HW239198   4.068   0.298  16.592 -2.4817 -1.2921 -0.8634
 9247SOL     OW39199   1.943   2.880   2.841  0.4300  0.0986 -0.6798
 9247SOL    HW139200   1.930   2.796   2.885  2.3691  0.2399  0.1601
 9247SOL    HW239201   1.909   2.860   2.754  0.4908 -0.0076 -0.6782
 9248SOL     OW39202   3.586   2.096   3.472  0.0959 -0.1662  0.3884
 9248SOL    HW139203   3.517   2.087   3.537  0.2481 -1.9496  0.3148
 9248SOL    HW239204   3.627   2.009   3.472 -2.8055 -1.5325 -0.1244
 9249SOL     OW39205   0.436   2.921   9.014 -0.2244 -0.1193  0.1483
 9249SOL    HW139206   0.424   2.854   9.081 -0.2105  0.4654  0.7402
 9249SOL    HW239207   0.355   2.971   9.026 -0.3853 -0.1836 -0.6669
 9250SOL     OW39208   2.341   1.035   7.845 -0.1623  0.6752 -0.2426
 9250SOL    HW139209   2.321   1.074   7.760 -1.2732  0.3375 -0.1404
 9250SOL    HW239210   2.271   1.075   7.897  0.9015  1.2839  0.7137
 9251SOL     OW39211   2.004   1.352   9.997 -0.2307 -0.0708  0.4541
 9251SOL    HW139212   1.989   1.309  10.082 -0.0744 -1.3076 -0.1384
 9251SOL    HW239213   1.915   1.346   9.963 -0.4937  3.4018  0.5257
 9252SOL     OW39214   3.648   1.101   2.711 -0.4226  0.3734  0.2884
 9252SOL    HW139215   3.667   1.098   2.617 -0.8935  2.1656  0.1406
 9252SOL    HW239216   3.581   1.168   2.719 -0.6399 -0.0682  2.1731
 9253SOL     OW39217   0.293   3.935   8.923 -0.1894 -0.0304 -0.0647
 9253SOL    HW139218   0.199   3.923   8.910 -0.2326  1.4446 -1.0540
 9253SOL    HW239219   0.312   3.877   8.997  1.2158  2.8372  1.8448
 9254SOL     OW39220   4.192   0.173   2.941  0.1145  0.5108 -0.1615
 9254SOL    HW139221   4.164   0.119   3.015 -1.2504  0.9058 -0.3883
 9254SOL    HW239222   4.157   0.260   2.962  0.5103  1.0760 -1.8139
 9255SOL     OW39223   0.109   2.369   4.083  0.1203 -0.3274  0.3783
 9255SOL    HW139224   0.015   2.355   4.099  0.2967 -1.1788  0.6686
 9255SOL    HW239225   0.121   2.413   3.999  0.2651 -2.4664 -0.7210
 9256SOL     OW39226   0.216   0.830   4.692 -0.2714 -0.1572  0.0219
 9256SOL    HW139227   0.122   0.831   4.710  0.0516  3.6612  1.4433
 9256SOL    HW239228   0.213   0.824   4.597 -0.8661  0.8060 -0.0154
 9257SOL     OW39229   3.253   0.935   0.659 -0.0597  0.1659  0.2569
 9257SOL    HW139230   3.337   0.966   0.625 -0.5836  0.3083 -0.8790
 9257SOL    HW239231   3.274   0.844   0.679 -2.8239 -0.3940  0.5408
 9258SOL     OW39232   0.951   4.021   6.676 -0.6314 -0.1292  0.1763
 9258SOL    HW139233   1.014   4.054   6.612 -1.6791 -0.5755 -1.0706
 9258SOL    HW239234   0.866   4.055   6.650 -0.6829 -0.6337 -0.2951
 9259SOL     OW39235   4.197   2.125  16.924 -0.0104 -0.2613 -0.4607
 9259SOL    HW139236   4.223   2.123  16.832  3.5819 -2.6814  0.6212
 9259SOL    HW239237   4.280   2.126  16.972 -1.6024  0.1456  2.2503
 9260SOL     OW39238   2.518   1.835   7.031  0.6367  0.6963  0.1943
 9260SOL    HW139239   2.490   1.762   6.976  2.9221  0.2053 -0.3199
 9260SOL    HW239240   2.564   1.892   6.969  0.6218 -1.2005 -1.5552
 9261SOL     OW39241   2.333   0.242   4.606 -0.0995  0.1067  0.2094
 9261SOL    HW139242   2.382   0.290   4.539  1.0375 -2.5717 -0.8734
 9261SOL    HW239243   2.258   0.207   4.557 -1.3324  2.7735  0.1848
 9262SOL     OW39244   1.551   3.567   1.592  0.2789  0.3632 -1.0693
 9262SOL    HW139245   1.545   3.486   1.643  0.8621  0.0998 -1.4166
 9262SOL    HW239246   1.477   3.555   1.533  0.8691 -0.0598 -1.7170
 9263SOL     OW39247   1.825   4.300  10.535 -0.2621  0.6127 -0.3256
 9263SOL    HW139248   1.806   4.394  10.536 -1.5850  0.3172  1.6446
 9263SOL    HW239249   1.737   4.263  10.538 -0.1591  0.4231  0.2508
 9264SOL     OW39250   3.514   4.479   0.920 -0.2547 -0.1483 -0.2032
 9264SOL    HW139251   3.489   4.395   0.880 -1.1856  1.2786 -2.6369
 9264SOL    HW239252   3.592   4.507   0.872  2.1299 -0.9205  3.2595
 9265SOL     OW39253   1.054   1.841   7.344  0.5565 -0.1192  0.4163
 9265SOL    HW139254   1.048   1.903   7.271 -1.0259 -2.6095 -1.5524
 9265SOL    HW239255   1.038   1.906   7.412 -1.2269 -0.5096  0.3753
 9266SOL     OW39256   0.538   4.303   8.450  0.3334 -0.3115 -0.1985
 9266SOL    HW139257   0.615   4.269   8.404 -0.1077  1.5654 -2.2885
 9266SOL    HW239258   0.565   4.279   8.539  0.1456 -0.7485 -0.2574
 9267SOL     OW39259   1.028   0.946   4.965  0.2079 -0.3561 -0.1482
 9267SOL    HW139260   0.976   0.926   5.042  2.3360  0.1629  1.4344
 9267SOL    HW239261   1.067   0.859   4.951  2.2275  0.6391 -0.7885
 9268SOL     OW39262   0.658   3.252   9.524  0.5145 -0.1957  0.0972
 9268SOL    HW139263   0.581   3.205   9.491 -1.4592  1.7046  1.9561
 9268SOL    HW239264   0.713   3.177   9.545  0.2054 -0.2825  0.6048
 9269SOL     OW39265   3.454   3.143   7.297 -0.3982  0.1142 -0.3072
 9269SOL    HW139266   3.492   3.105   7.217  0.7518  0.0877  0.2552
 9269SOL    HW239267   3.366   3.108   7.285  0.4396 -2.5664  1.2593
 9270SOL     OW39268   1.735   4.638  12.615  0.2791 -0.2336  0.3945
 9270SOL    HW139269   1.732   4.549  12.580 -1.3818 -0.5093  1.2131
 9270SOL    HW239270   1.718   4.628  12.709  0.5109  2.3746  0.7280
 9271SOL     OW39271   2.013   1.819   2.782  0.3717  0.7585 -0.2928
 9271SOL    HW139272   2.108   1.809   2.772  0.5181  1.2304  0.5805
 9271SOL    HW239273   1.988   1.808   2.691 -2.3416  0.8088  0.4676
 9272SOL     OW39274   2.918   0.026  12.880 -0.7077 -0.1801  0.3328
 9272SOL    HW139275   2.829   0.061  12.889  0.0031  2.1482 -1.7364
 9272SOL    HW239276   2.955   0.087  12.817 -0.2809 -0.5785  0.1957
 9273SOL     OW39277   1.895   2.262   6.727 -0.5991  0.0083 -0.3259
 9273SOL    HW139278   1.843   2.237   6.803  0.7961 -1.5038  0.1169
 9273SOL    HW239279   1.948   2.334   6.762 -0.3790  0.2001 -1.0433
 9274SOL     OW39280   4.117   0.213   3.923  0.1219  0.0140  0.3074
 9274SOL    HW139281   4.081   0.174   3.844  1.5587 -0.7669  0.0329
 9274SOL    HW239282   4.198   0.252   3.891 -1.2724  1.3932 -1.5345
 9275SOL     OW39283   3.894   2.271   2.996  0.0766 -0.0929  0.7715
 9275SOL    HW139284   3.825   2.287   2.932  1.4156  0.3221 -0.5746
 9275SOL    HW239285   3.895   2.351   3.049 -0.4204  0.4256 -0.0079
 9276SOL     OW39286   3.063   2.600   4.019  0.1274 -0.0690 -0.2961
 9276SOL    HW139287   3.022   2.583   4.104 -2.6650 -0.5706 -1.7456
 9276SOL    HW239288   3.032   2.686   3.992  1.3621  1.2300  2.4135
 9277SOL     OW39289   2.127   3.938   3.025  0.2916  0.3582 -0.0482
 9277SOL    HW139290   2.074   4.014   3.050  1.0460  0.7027  0.5244
 9277SOL    HW239291   2.152   3.925   3.117 -0.4479  0.3780  0.1611
 9278SOL     OW39292   0.831   1.055   3.164 -0.5907 -0.3076  0.1533
 9278SOL    HW139293   0.793   1.082   3.080  1.4688  0.3225 -0.5715
 9278SOL    HW239294   0.768   1.091   3.227  0.6619  0.4997  0.9549
 9279SOL     OW39295   4.065   0.658   7.421  0.4407 -0.1552 -0.3655
 9279SOL    HW139296   4.026   0.737   7.386  0.2714  0.1054  0.4191
 9279SOL    HW239297   4.143   0.703   7.453  0.9413 -0.2824 -1.3870
 9280SOL     OW39298   0.189   0.147   8.179  0.1164  0.2269 -0.0543
 9280SOL    HW139299   0.112   0.131   8.125  0.7216 -1.1345 -0.5177
 9280SOL    HW239300   0.255   0.101   8.127  1.8829  0.4524  1.9535
 9281SOL     OW39301   3.368   4.601   0.655 -0.5282  0.5829  0.6589
 9281SOL    HW139302   3.287   4.616   0.703  1.0569  3.0814  2.5492
 9281SOL    HW239303   3.401   4.522   0.699  0.2946  1.2006  1.1631
 9282SOL     OW39304   4.218   0.772   4.538 -0.1817 -0.3607  0.2965
 9282SOL    HW139305   4.256   0.694   4.579 -0.8580 -0.9947 -0.2854
 9282SOL    HW239306   4.216   0.750   4.444  0.5701  0.3222  0.1184
 9283SOL     OW39307   4.171   1.962  15.660 -0.1871  0.8126  0.4333
 9283SOL    HW139308   4.115   1.951  15.583  0.9774  1.0951 -0.4669
 9283SOL    HW239309   4.125   2.031  15.708 -3.6695  0.6260 -2.5946
 9284SOL     OW39310   3.217   3.436   5.860 -0.3192 -0.5095 -0.1381
 9284SOL    HW139311   3.206   3.385   5.779  0.2889 -0.7517 -0.0664
 9284SOL    HW239312   3.287   3.391   5.907  0.9933 -0.8903 -2.4430
 9285SOL     OW39313   0.143   2.176   3.217 -0.0575 -0.0085  0.1687
 9285SOL    HW139314   0.155   2.117   3.143 -0.5164 -1.9617  1.6561
 9285SOL    HW239315   0.134   2.257   3.167 -2.2315  0.6964  1.6638
 9286SOL     OW39316   0.796   4.331   4.584 -0.2871 -0.6248 -0.1494
 9286SOL    HW139317   0.809   4.311   4.492  3.0373  0.0230  0.1635
 9286SOL    HW239318   0.739   4.407   4.594 -0.4093 -0.5223 -1.7521
 9287SOL     OW39319   0.985   3.416   2.241 -0.0441  0.7708  0.3776
 9287SOL    HW139320   0.939   3.498   2.255 -0.9932  0.4392 -0.8387
 9287SOL    HW239321   1.039   3.444   2.168 -0.1350 -0.1710 -0.0510
 9288SOL     OW39322   3.853   2.701   5.938  0.0414  0.0816  0.3151
 9288SOL    HW139323   3.871   2.657   6.022  0.6416  2.8950  1.6508
 9288SOL    HW239324   3.934   2.686   5.889 -0.6033  2.0722 -1.3416
 9289SOL     OW39325   4.465   0.096   5.024 -0.1226 -0.1987 -0.1505
 9289SOL    HW139326   4.472   0.189   5.046 -2.6658 -0.0317 -0.0801
 9289SOL    HW239327   4.437   0.101   4.932  2.5861 -0.9223 -1.0197
 9290SOL     OW39328   0.098   1.085   0.636 -0.0468 -0.2161  0.4989
 9290SOL    HW139329   0.069   1.049   0.719  3.0866 -0.4455  1.4937
 9290SOL    HW239330   0.176   1.033   0.618 -0.8744 -0.6810 -1.7531
 9291SOL     OW39331   0.145   3.932   7.218 -0.0623  0.0074  0.0415
 9291SOL    HW139332   0.238   3.951   7.229 -0.6482  0.7794  3.4732
 9291SOL    HW239333   0.143   3.836   7.217 -2.5781  0.0578  0.1894
 9292SOL     OW39334   3.002   1.620   3.802  0.3671 -0.5735  0.0362
 9292SOL    HW139335   2.964   1.700   3.839 -1.6024 -1.3878 -0.2231
 9292SOL    HW239336   2.966   1.634   3.714  1.9818  0.0024 -0.5415
 9293SOL     OW39337   2.395   3.529  16.938 -0.2951  0.1386  0.4815
 9293SOL    HW139338   2.454   3.556  17.009 -1.0732  2.2670  0.3123
 9293SOL    HW239339   2.332   3.494  17.000 -2.2693  2.7909 -0.0050
 9294SOL     OW39340   1.065   0.919   5.937  0.2040 -0.3738 -0.1535
 9294SOL    HW139341   1.082   0.883   6.024  0.0461 -2.2622 -0.8833
 9294SOL    HW239342   1.008   0.854   5.895 -0.7570  0.6253 -0.4002
 9295SOL     OW39343   2.841   1.621   9.186  0.0802 -0.1008 -0.2641
 9295SOL    HW139344   2.847   1.712   9.158  0.0170 -0.6727 -2.0921
 9295SOL    HW239345   2.804   1.585   9.106 -0.0855  0.6391 -0.5188
 9296SOL     OW39346   2.964   0.233   1.898 -0.1321  0.4680 -0.2730
 9296SOL    HW139347   2.973   0.327   1.917  1.0115  0.6190 -1.5796
 9296SOL    HW239348   2.878   0.241   1.857 -0.4723  1.1214  0.5747
 9297SOL     OW39349   2.080   1.149   6.343  0.4332  0.1019  0.7095
 9297SOL    HW139350   2.097   1.142   6.249 -0.1786 -3.4213  0.8646
 9297SOL    HW239351   2.159   1.193   6.374  1.0995 -0.7718  0.2338
 9298SOL     OW39352   2.119   2.710   8.149 -0.2830 -0.2324 -0.2340
 9298SOL    HW139353   2.041   2.704   8.094 -0.1310  2.4886 -0.7808
 9298SOL    HW239354   2.181   2.664   8.093 -0.0992  2.8710 -2.5663
 9299SOL     OW39355   4.312   1.979   8.129  0.3642  0.2911  0.2486
 9299SOL    HW139356   4.254   2.038   8.081  2.5072  0.2274 -2.4498
 9299SOL    HW239357   4.248   1.924   8.174 -0.1838  1.1820  0.5715
 9300SOL     OW39358   2.891   2.201   5.276  0.2861 -0.0833 -0.2241
 9300SOL    HW139359   2.829   2.165   5.339 -1.3509 -1.3924 -2.5849
 9300SOL    HW239360   2.859   2.152   5.200  1.1402 -1.1033  0.0728
 9301SOL     OW39361   3.592   0.275  10.327 -0.6183  0.6608 -0.0430
 9301SOL    HW139362   3.517   0.247  10.380 -1.1253  2.3640  0.1279
 9301SOL    HW239363   3.619   0.190  10.292 -0.1373  0.4245  0.8927
 9302SOL     OW39364   2.170   3.064   5.371 -0.2725 -0.6386 -0.5063
 9302SOL    HW139365   2.114   2.986   5.374  0.1617 -0.9565 -0.6249
 9302SOL    HW239366   2.248   3.031   5.326 -1.6262 -3.2894 -0.9298
 9303SOL     OW39367   2.303   3.554  13.811 -0.1132 -0.2795  0.3970
 9303SOL    HW139368   2.323   3.587  13.899  1.0989  0.2552 -0.0901
 9303SOL    HW239369   2.208   3.561  13.824 -0.3417  0.8142 -1.8648
 9304SOL     OW39370   1.647   0.450   8.288  0.0630  0.5720  0.1356
 9304SOL    HW139371   1.623   0.523   8.231  0.6077  0.3215 -0.4250
 9304SOL    HW239372   1.680   0.495   8.366 -0.2855  0.1845  0.5067
 9305SOL     OW39373   1.835   1.963   5.544 -0.6283  0.4203  0.0512
 9305SOL    HW139374   1.827   1.936   5.636  0.8729  0.6827  0.2532
 9305SOL    HW239375   1.753   1.925   5.512 -1.2690  1.1228  0.8549
 9306SOL     OW39376   1.328   0.579   6.340 -0.0078  0.5558 -0.0560
 9306SOL    HW139377   1.361   0.626   6.264 -0.5474 -0.3334 -0.8343
 9306SOL    HW239378   1.414   0.555   6.375 -0.6614 -1.0933  0.4289
 9307SOL     OW39379   0.592   4.619  10.778  0.5310 -0.5262 -0.3242
 9307SOL    HW139380   0.637   4.600  10.695  0.8992 -0.0358 -0.2368
 9307SOL    HW239381   0.505   4.589  10.750  0.3825 -0.5103  0.1225
 9308SOL     OW39382   0.134   1.901   5.259 -0.3426 -0.3929  0.2640
 9308SOL    HW139383   0.175   1.863   5.337  0.3150  0.7851  0.5011
 9308SOL    HW239384   0.212   1.947   5.227 -0.1454 -0.3741  0.7738
 9309SOL     OW39385   1.477   0.145   7.998 -0.9516 -0.4777  0.2223
 9309SOL    HW139386   1.505   0.067   7.951  0.5803  0.4209 -0.3595
 9309SOL    HW239387   1.412   0.105   8.056 -1.8527 -0.4032 -0.7389
 9310SOL     OW39388   1.205   2.978   3.742 -0.6707  0.1085 -0.9002
 9310SOL    HW139389   1.270   3.017   3.684 -0.0367  0.3197 -0.0451
 9310SOL    HW239390   1.252   2.904   3.781 -1.3651 -0.5980 -1.4027
 9311SOL     OW39391   3.335   4.598   6.464  0.3605  0.0173 -0.1826
 9311SOL    HW139392   3.350   4.590   6.370 -0.6020 -0.0866 -0.3274
 9311SOL    HW239393   3.283   4.678   6.472  1.6039  0.6843  1.2580
 9312SOL     OW39394   3.386   1.354   0.928  0.3226  0.0347 -0.0562
 9312SOL    HW139395   3.337   1.434   0.910 -2.2948 -1.5561  0.1051
 9312SOL    HW239396   3.320   1.311   0.981  0.9317  0.1292  0.7776
 9313SOL     OW39397   1.234   4.345  13.923  0.5442  0.1179 -0.6235
 9313SOL    HW139398   1.278   4.388  13.997  0.6722 -0.8592 -0.1301
 9313SOL    HW239399   1.157   4.401  13.927  1.1022  0.8294  0.2956
 9314SOL     OW39400   0.100   0.674   3.959 -0.0596 -0.0522  0.1461
 9314SOL    HW139401   0.093   0.650   3.867  0.3824  2.1004 -0.4425
 9314SOL    HW239402   0.191   0.649   3.972 -0.1161 -0.6949 -0.7581
 9315SOL     OW39403   4.130   1.542   2.350 -0.2458 -0.2674 -0.2169
 9315SOL    HW139404   4.176   1.458   2.356  1.0809  0.3644 -1.6651
 9315SOL    HW239405   4.156   1.576   2.436 -1.8815  0.5043 -0.0384
 9316SOL     OW39406   1.347   3.086   4.283 -0.1207  0.0744 -0.0642
 9316SOL    HW139407   1.373   3.001   4.317 -1.2092  0.2794  1.3035
 9316SOL    HW239408   1.322   3.130   4.365 -2.1396 -2.1163  0.4904
 9317SOL     OW39409   2.822   2.430   2.994 -0.0006 -0.1389 -0.2890
 9317SOL    HW139410   2.904   2.442   2.946  0.2190  2.2355  0.6724
 9317SOL    HW239411   2.821   2.337   3.020  0.0496  0.0725  0.4841
 9318SOL     OW39412   2.235   1.659   9.199  0.3360 -0.2753 -0.5204
 9318SOL    HW139413   2.320   1.655   9.154  0.9084  1.5573  0.4058
 9318SOL    HW239414   2.260   1.659   9.292 -3.9530 -3.4776  0.6274
 9319SOL     OW39415   2.570   3.024   2.744  0.0724 -0.0769 -0.2406
 9319SOL    HW139416   2.596   2.936   2.773  0.1251  0.2866  0.8083
 9319SOL    HW239417   2.541   3.019   2.653  0.3127 -0.5016 -0.2958
 9320SOL     OW39418   0.609   3.413   8.509 -0.3048  0.1473 -0.6168
 9320SOL    HW139419   0.598   3.367   8.592 -3.1132  1.6435 -0.1385
 9320SOL    HW239420   0.664   3.352   8.460 -0.3333 -0.2741 -0.1230
 9321SOL     OW39421   3.156   3.072  17.378 -0.0395 -0.7092  0.3784
 9321SOL    HW139422   3.227   3.098  17.320  0.2127  1.5432  1.6865
 9321SOL    HW239423   3.093   3.038  17.314 -1.0063 -0.4441  1.1930
 9322SOL     OW39424   0.053   3.371   3.188 -0.1863 -0.4360 -0.1703
 9322SOL    HW139425   0.025   3.379   3.280 -0.0349 -1.1791 -0.0597
 9322SOL    HW239426   0.143   3.347   3.208  0.2263  0.2596 -1.2172
 9323SOL     OW39427   4.676   2.670   2.434  0.6367 -0.1777  0.4302
 9323SOL    HW139428   4.711   2.758   2.418  0.9877 -0.1463  1.3693
 9323SOL    HW239429   4.585   2.688   2.457  0.5413  0.7836 -0.6705
 9324SOL     OW39430   3.463   3.343  16.366 -0.3196  1.0803 -0.4628
 9324SOL    HW139431   3.401   3.339  16.294 -0.8265  0.6362 -0.0040
 9324SOL    HW239432   3.522   3.270  16.349  1.2081  1.9316  1.1858
 9325SOL     OW39433   3.915   0.075   6.290  0.5048 -0.2761  0.3592
 9325SOL    HW139434   3.945   0.163   6.267 -1.7004  0.5059  0.4412
 9325SOL    HW239435   3.995   0.045   6.334  1.2366 -0.6326 -1.2208
 9326SOL     OW39436   2.796   3.120   7.567  0.2548  0.5129 -0.6974
 9326SOL    HW139437   2.798   3.214   7.552  0.8266  0.6335  0.1225
 9326SOL    HW239438   2.887   3.104   7.595 -0.2881  0.8179  1.2711
 9327SOL     OW39439   2.892   0.177   5.467  0.1949  0.0462 -0.0449
 9327SOL    HW139440   2.968   0.133   5.429 -0.3993 -0.2520 -0.8835
 9327SOL    HW239441   2.901   0.251   5.407  2.5946  0.3929  0.7313
 9328SOL     OW39442   1.767   3.137   2.438  0.0750  0.0023  0.0455
 9328SOL    HW139443   1.732   3.197   2.372 -0.2761  1.5754  1.6827
 9328SOL    HW239444   1.862   3.148   2.433 -0.0834  0.7455 -1.1928
 9329SOL     OW39445   2.852   2.056   9.623 -0.3754  0.2859  0.1072
 9329SOL    HW139446   2.874   1.983   9.565  1.3334 -0.4795  1.7476
 9329SOL    HW239447   2.834   2.011   9.705  0.2101 -2.4999 -1.2875
 9330SOL     OW39448   3.048   2.991  15.398 -0.1841  0.3590 -0.3633
 9330SOL    HW139449   3.096   3.065  15.361 -2.5575  1.7289 -0.6796
 9330SOL    HW239450   3.096   2.986  15.480 -2.2722 -0.0748  0.8231
 9331SOL     OW39451   1.506   0.818   6.520  0.2099  0.7800  0.2976
 9331SOL    HW139452   1.414   0.844   6.513 -0.2340 -1.7845 -3.4548
 9331SOL    HW239453   1.554   0.875   6.460  0.3518  0.1917 -0.1449
 9332SOL     OW39454   3.692   1.248  14.960  0.2617 -0.5229 -0.1401
 9332SOL    HW139455   3.783   1.277  14.952  0.5051 -0.9926  0.8702
 9332SOL    HW239456   3.695   1.220  15.052 -1.9734  1.2073  0.4510
 9333SOL     OW39457   1.933   2.434   6.954 -0.1156 -0.0464  0.6778
 9333SOL    HW139458   1.859   2.449   7.012 -1.0033  0.8067 -0.6578
 9333SOL    HW239459   1.972   2.362   7.004  0.8956  1.2923  1.8013
 9334SOL     OW39460   1.712   4.169  16.094 -0.0476  0.1269 -0.8785
 9334SOL    HW139461   1.685   4.117  16.018 -1.6539 -1.0488  0.4894
 9334SOL    HW239462   1.805   4.185  16.083  0.2672 -0.3226  1.1206
 9335SOL     OW39463   2.603   4.045   2.836  0.5636  0.5330 -0.0609
 9335SOL    HW139464   2.617   4.081   2.924  1.1878  0.6548 -0.2064
 9335SOL    HW239465   2.508   4.051   2.842  0.6294 -0.5917  2.4088
 9336SOL     OW39466   2.117   2.967   6.148 -0.3614 -0.2171  0.1123
 9336SOL    HW139467   2.045   2.919   6.107  0.7381 -0.5523 -1.4041
 9336SOL    HW239468   2.104   3.057   6.118 -1.6072  0.4394  2.5868
 9337SOL     OW39469   1.030   3.226   1.805 -0.2802  0.1374  0.1512
 9337SOL    HW139470   1.061   3.169   1.875 -0.8798  1.3845  1.4066
 9337SOL    HW239471   0.946   3.250   1.842  0.4060  2.1745  0.3495
 9338SOL     OW39472   1.033   2.950  15.357  0.3943  0.4412 -0.3031
 9338SOL    HW139473   1.104   2.892  15.383  0.6558  1.2577  0.8269
 9338SOL    HW239474   1.068   3.036  15.383  2.3867 -0.6486  0.6317
 9339SOL     OW39475   1.950   2.849  13.548 -0.7285 -0.3689 -0.2270
 9339SOL    HW139476   1.868   2.879  13.587 -1.2212 -0.6181 -1.0576
 9339SOL    HW239477   1.990   2.817  13.628 -0.6320  2.6841  0.9473
 9340SOL     OW39478   3.789   2.484   4.359  0.2348  0.0909  0.0318
 9340SOL    HW139479   3.738   2.446   4.287 -0.6223 -0.1722  0.7857
 9340SOL    HW239480   3.753   2.573   4.359 -0.3181 -0.1422  1.5553
 9341SOL     OW39481   0.859   2.066   8.902  0.2417  0.1291 -0.7912
 9341SOL    HW139482   0.838   2.159   8.888  2.1850  0.6107 -0.4864
 9341SOL    HW239483   0.811   2.044   8.981 -0.5131 -0.3542 -1.3855
 9342SOL     OW39484   0.264   2.509   8.472 -0.3392 -0.1419 -0.0445
 9342SOL    HW139485   0.193   2.559   8.433 -1.6625 -1.3767  0.7977
 9342SOL    HW239486   0.233   2.425   8.437  0.8665 -0.9985  0.9522
 9343SOL     OW39487   0.680   0.489  17.202  0.3954 -0.6894 -0.0794
 9343SOL    HW139488   0.614   0.555  17.182  1.9575  0.9673  0.1860
 9343SOL    HW239489   0.705   0.473  17.110  1.3977  1.5081 -0.1924
 9344SOL     OW39490   0.905   0.121   4.555 -0.1103  0.1569 -0.0704
 9344SOL    HW139491   0.888   0.170   4.475  0.5200  0.4520 -0.0273
 9344SOL    HW239492   0.872   0.176   4.626 -1.3344 -0.2037 -0.3593
 9345SOL     OW39493   0.322   3.027   8.744  0.3895 -0.3024  0.0756
 9345SOL    HW139494   0.338   2.934   8.764  0.9670 -0.5384 -1.4701
 9345SOL    HW239495   0.283   3.059   8.825  1.2078 -3.1685  1.5958
 9346SOL     OW39496   1.792   0.262  13.781 -0.3248 -0.3317 -0.7877
 9346SOL    HW139497   1.800   0.325  13.710  0.8424  0.0209 -0.3456
 9346SOL    HW239498   1.766   0.182  13.736 -2.4755  1.0896 -2.0393
 9347SOL     OW39499   4.074   2.087   4.201  0.6238  0.1343  0.0627
 9347SOL    HW139500   4.078   2.168   4.151  1.8370 -0.2348 -0.4429
 9347SOL    HW239501   4.058   2.030   4.125  1.4606 -1.0856  0.7902
 9348SOL     OW39502   3.361   2.120   5.310  0.5205 -0.1242  0.8680
 9348SOL    HW139503   3.415   2.130   5.389  1.0213 -0.3892  0.5540
 9348SOL    HW239504   3.272   2.138   5.339  0.5926 -1.6125  2.0768
 9349SOL     OW39505   4.097   3.460   3.197 -0.2805  0.2713  0.5772
 9349SOL    HW139506   4.095   3.463   3.293 -0.7749  1.9798  0.5137
 9349SOL    HW239507   4.157   3.386   3.187  1.4517  1.1331  4.4950
 9350SOL     OW39508   1.655   3.597   2.144 -0.1386  0.0367 -0.9577
 9350SOL    HW139509   1.721   3.666   2.139 -0.1142  0.1004  0.1085
 9350SOL    HW239510   1.579   3.653   2.157  0.5536  0.7911 -0.2050
 9351SOL     OW39511   2.398   1.522   4.055  0.3358 -0.3611 -0.2430
 9351SOL    HW139512   2.405   1.573   3.974 -1.5936  1.4277  0.7222
 9351SOL    HW239513   2.492   1.515   4.072  0.4005  1.4596  0.1509
 9352SOL     OW39514   2.887   0.815   1.813  0.7390 -0.0614  0.5771
 9352SOL    HW139515   2.954   0.783   1.872  0.5325 -1.9527 -0.2221
 9352SOL    HW239516   2.943   0.853   1.745 -0.3131 -0.6667 -0.6341
 9353SOL     OW39517   1.246   2.657   7.597 -0.3639  0.1419  0.1567
 9353SOL    HW139518   1.246   2.576   7.647  0.4992 -0.2603 -0.5020
 9353SOL    HW239519   1.330   2.642   7.554 -0.5837  1.3331 -0.7145
 9354SOL     OW39520   1.544   4.497   2.313  0.2517  0.0680  0.3057
 9354SOL    HW139521   1.521   4.409   2.344 -2.7241  0.6446 -0.2087
 9354SOL    HW239522   1.591   4.539   2.385 -0.8285  1.0992  0.4027
 9355SOL     OW39523   2.991   2.896   0.809 -0.3060  0.4227 -0.3846
 9355SOL    HW139524   3.053   2.968   0.799  0.7388 -0.2234  1.3833
 9355SOL    HW239525   2.940   2.893   0.729 -0.7038 -0.4311 -0.0963
 9356SOL     OW39526   4.099   2.717   2.833  0.4789  0.1019 -0.2406
 9356SOL    HW139527   4.010   2.693   2.860  0.3426  2.4817  1.3695
 9356SOL    HW239528   4.086   2.743   2.741 -1.0583  0.5315  0.0889
 9357SOL     OW39529   4.461   4.122  14.566 -0.3085 -0.0626  0.6137
 9357SOL    HW139530   4.471   4.030  14.591  0.2887 -0.1219  0.1563
 9357SOL    HW239531   4.424   4.107  14.479  1.2939 -1.2901  0.1377
 9358SOL     OW39532   3.310   0.693   5.747 -0.0711 -0.7441 -0.5989
 9358SOL    HW139533   3.312   0.602   5.717 -2.9587 -0.4058 -1.8939
 9358SOL    HW239534   3.403   0.709   5.759 -0.5804  2.4664 -1.0971
 9359SOL     OW39535   3.340   3.627   9.166 -0.0022  0.2670  0.9544
 9359SOL    HW139536   3.326   3.669   9.081 -0.5866  0.3557  1.0925
 9359SOL    HW239537   3.291   3.545   9.153  0.5818  0.1973 -0.8101
 9360SOL     OW39538   1.934   3.144   7.508  0.0832 -0.2933 -0.4469
 9360SOL    HW139539   1.845   3.137   7.543 -0.2341 -0.0409 -1.2130
 9360SOL    HW239540   1.979   3.155   7.592 -1.5946 -0.2710  0.4404
 9361SOL     OW39541   4.335   3.144  14.812  0.4201 -0.6218  0.4985
 9361SOL    HW139542   4.251   3.098  14.812  0.0835 -0.0354 -1.7345
 9361SOL    HW239543   4.312   3.221  14.759  1.9377  0.2479  1.1004
 9362SOL     OW39544   1.403   0.001  13.616  0.2011 -0.1135  0.4159
 9362SOL    HW139545   1.380   0.086  13.580  1.5619 -1.8587 -4.5198
 9362SOL    HW239546   1.339   4.714  13.686 -0.3272 -0.3873 -0.1050
 9363SOL     OW39547   0.597   0.909  11.103  0.0857  0.1496  0.0215
 9363SOL    HW139548   0.528   0.855  11.064  0.0892  0.0864  0.1028
 9363SOL    HW239549   0.550   0.960  11.169 -0.7711 -0.2479 -0.2832
 9364SOL     OW39550   2.127   4.651   7.620  0.2381  0.4129  0.5893
 9364SOL    HW139551   2.219   4.657   7.596  0.3141 -0.7502  0.6069
 9364SOL    HW239552   2.108   0.022   7.629  0.1531  0.5476 -1.0101
 9365SOL     OW39553   4.702   1.179   4.819  0.6141 -0.1601 -0.1506
 9365SOL    HW139554   0.000   1.263   4.859  2.5222 -0.0591 -1.3315
 9365SOL    HW239555   4.620   1.156   4.863  0.7352  0.9000  0.6098
 9366SOL     OW39556   3.295   3.557   2.202  0.3253 -0.7414  0.0745
 9366SOL    HW139557   3.376   3.510   2.222 -0.1632 -2.1538 -1.2322
 9366SOL    HW239558   3.265   3.587   2.288 -1.5527 -1.6931 -0.2453
 9367SOL     OW39559   3.955   1.865   5.052 -0.0145  0.0527 -0.2037
 9367SOL    HW139560   3.987   1.776   5.067  0.1630  0.3137  0.9661
 9367SOL    HW239561   3.917   1.896   5.134  1.2030  1.2737 -0.1014
 9368SOL     OW39562   3.150   2.831   6.051  0.6859 -0.9919 -0.1016
 9368SOL    HW139563   3.147   2.846   6.145 -1.7949 -0.1066 -0.3066
 9368SOL    HW239564   3.233   2.785   6.044  0.7473 -0.6209 -1.9134
 9369SOL     OW39565   3.003   1.578  12.950 -0.1834  0.0004 -0.6445
 9369SOL    HW139566   3.041   1.653  12.997  0.6135 -1.0213  0.3312
 9369SOL    HW239567   3.012   1.612  12.861 -1.1076  1.8843 -0.0232
 9370SOL     OW39568   2.507   2.507   8.783  0.4154 -0.1651 -0.0434
 9370SOL    HW139569   2.428   2.501   8.838  0.9084 -0.7747  0.5944
 9370SOL    HW239570   2.559   2.565   8.839 -2.0884  1.6952  0.3658
 9371SOL     OW39571   3.818   0.836   6.914  0.3059  0.0158 -0.6007
 9371SOL    HW139572   3.837   0.876   6.998 -0.5125 -1.0462  0.0911
 9371SOL    HW239573   3.867   0.754   6.918 -1.0633 -0.7618  0.0894
 9372SOL     OW39574   0.926   2.132   2.346 -0.0054 -0.1305 -0.2384
 9372SOL    HW139575   0.832   2.142   2.329  0.1552  3.5246  0.9463
 9372SOL    HW239576   0.958   2.221   2.335 -1.8708  0.7523  1.3233
 9373SOL     OW39577   0.068   1.091   7.152 -0.0897  0.2407 -0.4833
 9373SOL    HW139578   0.115   1.098   7.235  0.6610  0.7561 -0.9566
 9373SOL    HW239579   4.703   1.113   7.182 -0.1365  0.2149 -0.6003
 9374SOL     OW39580   0.470   1.871   6.189  0.2703 -0.5904  0.4580
 9374SOL    HW139581   0.404   1.940   6.183  0.3461 -0.6141 -0.5404
 9374SOL    HW239582   0.454   1.813   6.115  0.1009 -2.2938  1.8067
 9375SOL     OW39583   3.491   4.484  14.120  0.3068  0.1507  0.5226
 9375SOL    HW139584   3.535   4.401  14.102  1.2425  0.7721 -0.0658
 9375SOL    HW239585   3.401   4.461  14.095  0.5276  1.3409 -1.4047
 9376SOL     OW39586   1.466   1.954  17.131  0.3765  0.3480 -0.0146
 9376SOL    HW139587   1.440   1.997  17.212 -0.0967  1.2149 -0.6264
 9376SOL    HW239588   1.562   1.947  17.131  0.4181  0.9652  1.1527
 9377SOL     OW39589   3.799   3.737  16.554 -0.4467  0.2646  0.0805
 9377SOL    HW139590   3.852   3.667  16.516 -2.5110 -0.8249 -0.8114
 9377SOL    HW239591   3.716   3.724  16.508 -0.0526 -0.2521 -0.4857
 9378SOL     OW39592   2.360   2.880   8.363 -0.0247 -0.3377  0.6289
 9378SOL    HW139593   2.394   2.920   8.444  1.7019  0.5293 -0.5312
 9378SOL    HW239594   2.319   2.802   8.401 -0.1697 -1.3184 -1.5550
 9379SOL     OW39595   0.363   4.680   5.497 -0.3523 -0.1627 -0.0066
 9379SOL    HW139596   0.288   4.670   5.556 -1.6376 -1.5793 -1.8788
 9379SOL    HW239597   0.416   0.009   5.557  1.6577 -0.7660 -1.2449
 9380SOL     OW39598   1.267   2.670   6.969 -0.3033  0.1917 -0.0445
 9380SOL    HW139599   1.173   2.691   6.963 -0.7215 -2.2425 -1.6771
 9380SOL    HW239600   1.276   2.657   7.064  2.0654  2.5248  0.0299
 9381SOL     OW39601   3.869   3.419  11.843 -0.0024 -0.2216  0.2460
 9381SOL    HW139602   3.922   3.400  11.765  1.7434  2.2480  0.8203
 9381SOL    HW239603   3.787   3.388  11.806  0.7558  0.6044 -2.1283
 9382SOL     OW39604   0.151   3.633   8.532  0.3078  0.3433 -0.1018
 9382SOL    HW139605   0.163   3.723   8.564  0.8269  0.1918  0.1386
 9382SOL    HW239606   0.059   3.639   8.505 -0.0207 -4.5048  0.0252
 9383SOL     OW39607   4.430   3.044  12.706 -0.4778  0.3158 -0.1204
 9383SOL    HW139608   4.374   3.112  12.668 -1.4901  0.1104  1.0080
 9383SOL    HW239609   4.420   3.056  12.800  2.3429 -0.8642  0.3241
 9384SOL     OW39610   1.952   1.546  10.307 -0.1579 -0.2677 -0.1997
 9384SOL    HW139611   1.962   1.627  10.356 -0.0998  0.2608 -1.0899
 9384SOL    HW239612   1.967   1.484  10.379  0.3257 -0.1750 -0.2201
 9385SOL     OW39613   1.898   2.394   1.821 -0.0789 -0.4321 -0.3339
 9385SOL    HW139614   1.865   2.465   1.767  0.9563  0.9092  0.7895
 9385SOL    HW239615   1.819   2.380   1.873 -0.7677  1.3245 -0.9150
 9386SOL     OW39616   2.913   1.223   6.663 -0.0418 -0.0014  0.2836
 9386SOL    HW139617   2.854   1.160   6.706  0.3668 -0.0214  0.8136
 9386SOL    HW239618   2.894   1.301   6.716 -0.7338  0.5263 -0.7299
 9387SOL     OW39619   2.586   1.314   1.259  0.1173 -0.0836  0.4238
 9387SOL    HW139620   2.553   1.280   1.176  3.3236 -2.1305 -0.0195
 9387SOL    HW239621   2.603   1.401   1.224 -0.6453  0.7688  2.1578
 9388SOL     OW39622   2.194   2.108   3.569  0.5273  0.1234  0.5994
 9388SOL    HW139623   2.223   2.174   3.506 -0.8319  1.6948  1.6231
 9388SOL    HW239624   2.193   2.028   3.517  1.0897 -1.5319  3.1204
 9389SOL     OW39625   3.132   1.732  17.173  0.0346 -0.2121 -0.1102
 9389SOL    HW139626   3.159   1.800  17.111  0.1592  0.0873  0.2762
 9389SOL    HW239627   3.212   1.720  17.224 -0.0297  0.7448  0.2028
 9390SOL     OW39628   1.532   0.284   6.678  0.1683  0.0495  0.4012
 9390SOL    HW139629   1.459   0.326   6.632  1.5381  1.1079 -0.8200
 9390SOL    HW239630   1.547   0.336   6.757  1.0746  1.5248 -0.7344
 9391SOL     OW39631   2.787   2.291   9.506 -0.2840 -0.0510 -0.2573
 9391SOL    HW139632   2.824   2.209   9.539 -2.5095 -1.3175 -0.8908
 9391SOL    HW239633   2.693   2.274   9.497 -0.0097 -2.5008  1.6471
 9392SOL     OW39634   0.961   3.393   7.305 -0.0524  0.0745  0.2338
 9392SOL    HW139635   1.002   3.445   7.374 -0.6902  2.2716 -1.0386
 9392SOL    HW239636   1.007   3.442   7.237  1.5504 -1.2560  0.3472
 9393SOL     OW39637   2.468   0.966   3.948 -0.5845  0.2366  0.0017
 9393SOL    HW139638   2.498   1.055   3.961 -0.7792  0.1921  0.7669
 9393SOL    HW239639   2.512   0.943   3.866  1.9000  2.0623  0.8385
 9394SOL     OW39640   1.647   2.918   9.762  0.4070 -0.0561 -0.1712
 9394SOL    HW139641   1.667   2.869   9.682  2.7651 -0.7761  0.8501
 9394SOL    HW239642   1.613   2.998   9.724  2.3207  1.2375  0.8623
 9395SOL     OW39643   4.336   3.107   2.627  0.4476 -0.3616 -0.1828
 9395SOL    HW139644   4.329   3.034   2.688 -1.4675 -0.8983 -1.0378
 9395SOL    HW239645   4.260   3.090   2.572  0.3554  0.7289 -0.4014
 9396SOL     OW39646   0.349   4.217   8.161  0.6562 -0.3614  0.2182
 9396SOL    HW139647   0.337   4.190   8.070  1.1523 -2.2092  0.7106
 9396SOL    HW239648   0.278   4.186   8.216  0.1078 -0.7858 -0.7291
 9397SOL     OW39649   4.393   4.666   0.594 -0.4784 -0.7353  0.0993
 9397SOL    HW139650   4.450   4.609   0.646  2.7501  1.4361 -1.0766
 9397SOL    HW239651   4.360   4.606   0.527 -0.2421 -1.3996  0.5785
 9398SOL     OW39652   4.069   3.183  14.730 -0.3469 -0.3274 -0.1435
 9398SOL    HW139653   4.047   3.264  14.685  1.6964  0.6471  0.6415
 9398SOL    HW239654   3.990   3.173  14.784  2.3059 -1.1994  3.5919
 9399SOL     OW39655   0.596   2.211  15.892  0.0298 -0.2055 -0.0772
 9399SOL    HW139656   0.506   2.204  15.859  0.2669  1.6450 -1.1225
 9399SOL    HW239657   0.628   2.267  15.822  0.0367 -1.8948 -1.4283
 9400SOL     OW39658   3.516   0.358  10.691  0.3739 -1.0243 -0.4546
 9400SOL    HW139659   3.439   0.382  10.640  0.1724 -0.8942 -0.0867
 9400SOL    HW239660   3.511   0.416  10.767 -0.2582 -1.2502 -0.3280
 9401SOL     OW39661   4.490   3.245  13.308  0.4428 -0.1429 -0.4800
 9401SOL    HW139662   4.404   3.202  13.305 -0.5426  1.8254 -0.4278
 9401SOL    HW239663   4.533   3.171  13.351  0.9184  1.1783  1.3026
 9402SOL     OW39664   2.553   1.604   9.881  0.3223 -0.4651 -0.2296
 9402SOL    HW139665   2.564   1.671   9.813  2.1101  1.0289  1.5512
 9402SOL    HW239666   2.468   1.628   9.917  1.2937  0.4549  1.4170
 9403SOL     OW39667   2.763   4.431   3.062  0.2782  0.5857 -0.1236
 9403SOL    HW139668   2.728   4.342   3.050 -2.9055  1.5868  1.8754
 9403SOL    HW239669   2.683   4.480   3.081 -1.9982 -3.0214 -0.2831
 9404SOL     OW39670   2.381   2.343   5.768 -0.0526 -0.5157 -0.0612
 9404SOL    HW139671   2.438   2.401   5.717 -0.0621  0.1366  0.6759
 9404SOL    HW239672   2.360   2.273   5.706 -3.0070  0.5005 -0.2150
 9405SOL     OW39673   4.121   2.025  12.231 -0.1063 -0.7798 -0.2070
 9405SOL    HW139674   4.061   2.039  12.158  0.2694 -1.3311 -0.6210
 9405SOL    HW239675   4.093   2.085  12.301  2.0278 -0.7273  0.6304
 9406SOL     OW39676   3.585   3.322   4.457 -0.0092  0.3461  0.3781
 9406SOL    HW139677   3.648   3.310   4.528 -0.3625 -2.4541  0.2315
 9406SOL    HW239678   3.611   3.411   4.432  2.6117 -0.2575  1.0311
 9407SOL     OW39679   2.102   2.815   1.819 -0.1548  0.2634 -0.4592
 9407SOL    HW139680   2.013   2.825   1.784 -1.6305 -0.3838  3.0443
 9407SOL    HW239681   2.090   2.859   1.904 -0.3942  0.2287 -0.4756
 9408SOL     OW39682   4.567   0.144   6.846  0.3523  0.0394  0.4117
 9408SOL    HW139683   4.636   0.151   6.780  2.3737  0.3083  2.5410
 9408SOL    HW239684   4.485   0.122   6.802 -0.3634  0.2315  1.6483
 9409SOL     OW39685   3.145   0.733   6.394  0.3462 -0.3624  0.2635
 9409SOL    HW139686   3.057   0.694   6.396 -0.3140  1.0731 -0.3745
 9409SOL    HW239687   3.138   0.789   6.317 -0.6324 -1.2693 -0.3112
 9410SOL     OW39688   3.210   1.065  14.454  0.4142  0.9867  0.2981
 9410SOL    HW139689   3.290   1.050  14.503 -0.2946  1.0812  1.4686
 9410SOL    HW239690   3.142   1.009  14.492  0.0169 -0.0894 -1.9789
 9411SOL     OW39691   1.745   0.938   7.706 -0.2396 -0.6199  0.4041
 9411SOL    HW139692   1.697   1.015   7.675 -0.5153 -0.6762  0.6889
 9411SOL    HW239693   1.830   0.972   7.734 -0.4806 -0.1180  0.5201
 9412SOL     OW39694   1.117   2.962   6.109 -0.0878 -0.1427 -0.0228
 9412SOL    HW139695   1.113   2.986   6.202  2.0279 -0.0636  0.0566
 9412SOL    HW239696   1.022   2.955   6.102 -0.5082  4.3402  1.0152
 9413SOL     OW39697   2.150   2.724  11.108 -0.3150  0.2601 -0.2520
 9413SOL    HW139698   2.155   2.680  11.192 -1.2031  0.7959  0.0873
 9413SOL    HW239699   2.204   2.667  11.054 -1.3830 -0.4203 -0.6089
 9414SOL     OW39700   0.605   1.322   4.526  0.0509  0.1548 -0.3634
 9414SOL    HW139701   0.627   1.229   4.533 -0.6233  0.0902  0.9143
 9414SOL    HW239702   0.586   1.324   4.619  1.9014 -1.4910  0.0459
 9415SOL     OW39703   2.852   3.527   5.868  0.5497  0.1773 -0.0834
 9415SOL    HW139704   2.893   3.518   5.954  0.7746  4.4242  0.2516
 9415SOL    HW239705   2.759   3.502   5.870  0.8951 -1.1145 -0.3216
 9416SOL     OW39706   4.302   0.885   7.132  0.0346 -0.1988 -0.5054
 9416SOL    HW139707   4.280   0.792   7.141  0.9739 -0.4999 -1.2822
 9416SOL    HW239708   4.306   0.921   7.220 -2.3215 -1.6192  0.1930
 9417SOL     OW39709   4.113   1.476   9.128 -0.9639 -0.0527  0.3619
 9417SOL    HW139710   4.166   1.521   9.194  1.2570 -2.9199  0.5589
 9417SOL    HW239711   4.121   1.385   9.156 -1.9396  0.2175  1.5013
 9418SOL     OW39712   3.333   1.103   4.061  0.4632 -0.1295  0.2686
 9418SOL    HW139713   3.244   1.086   4.029 -0.0240  1.5331  0.7528
 9418SOL    HW239714   3.375   1.041   4.001  1.3898  0.3298  0.4603
 9419SOL     OW39715   2.164   3.079  12.141 -0.6081  0.4549  0.0196
 9419SOL    HW139716   2.158   3.145  12.071 -2.4378 -0.7304 -0.9333
 9419SOL    HW239717   2.259   3.079  12.154 -0.4858 -0.0003 -0.8519
 9420SOL     OW39718   0.134   1.134   9.100 -0.1378  0.4322 -0.2522
 9420SOL    HW139719   0.186   1.159   9.024  2.0638 -0.3589  0.9777
 9420SOL    HW239720   0.069   1.074   9.062 -0.3387  1.8169 -2.0609
 9421SOL     OW39721   4.287   1.300   2.348  0.5066  0.2106  0.1795
 9421SOL    HW139722   4.242   1.275   2.267 -1.0256  1.3659  0.6671
 9421SOL    HW239723   4.298   1.214   2.387  1.8616  0.4848  0.4138
 9422SOL     OW39724   3.510   2.143  16.831  0.0269 -0.7101 -0.3172
 9422SOL    HW139725   3.449   2.080  16.871  0.9602 -1.6761 -0.4204
 9422SOL    HW239726   3.551   2.165  16.915 -3.2697 -0.7671  1.3160
 9423SOL     OW39727   2.680   4.076  10.537 -0.2688 -0.5976 -0.0228
 9423SOL    HW139728   2.743   4.058  10.606 -2.2610 -0.4025  1.8548
 9423SOL    HW239729   2.638   3.990  10.540 -0.2768 -0.5226  2.3104
 9424SOL     OW39730   1.032   0.843   2.932 -0.2515  0.4716 -0.5700
 9424SOL    HW139731   0.948   0.812   2.898 -0.7294 -0.5950  1.6285
 9424SOL    HW239732   1.064   0.898   2.860  0.6734  1.8391  0.8899
 9425SOL     OW39733   4.146   1.551   6.903 -0.5618  0.3642 -0.4067
 9425SOL    HW139734   4.188   1.524   6.821 -0.9110 -0.4740 -0.3052
 9425SOL    HW239735   4.089   1.623   6.874 -2.7731 -1.8508 -1.5440
 9426SOL     OW39736   2.636   1.440   4.321 -0.2079  0.1354 -0.7283
 9426SOL    HW139737   2.713   1.428   4.265  0.1296 -0.9622 -0.0282
 9426SOL    HW239738   2.661   1.497   4.394 -0.6260 -2.0257  1.1006
 9427SOL     OW39739   3.298   0.513   9.183  0.3765 -0.1386  0.2843
 9427SOL    HW139740   3.284   0.456   9.259  0.7540 -0.6874 -0.0651
 9427SOL    HW239741   3.248   0.477   9.110 -0.6737 -0.4832  1.1777
 9428SOL     OW39742   3.526   1.474  11.914 -0.2922 -0.3087 -0.4222
 9428SOL    HW139743   3.491   1.385  11.913 -1.1027 -0.0563  2.8999
 9428SOL    HW239744   3.605   1.467  11.861 -0.5939  0.6696 -0.9985
 9429SOL     OW39745   2.824   3.934   8.464 -0.1329  0.0684  0.4049
 9429SOL    HW139746   2.785   3.853   8.497  2.6923 -0.7300  1.7975
 9429SOL    HW239747   2.758   3.953   8.398  0.3510 -1.8237 -0.6261
 9430SOL     OW39748   4.102   0.373   1.907  0.2270  0.2603 -0.5378
 9430SOL    HW139749   4.008   0.393   1.906  0.8430  3.2785  1.2388
 9430SOL    HW239750   4.107   0.340   1.996  2.9491  1.1261 -0.3534
 9431SOL     OW39751   4.677   1.333  11.879  0.7145 -0.1771 -0.1008
 9431SOL    HW139752   4.716   1.247  11.894 -0.0548 -0.6501 -0.8782
 9431SOL    HW239753   4.610   1.347  11.945  0.8300 -0.4674  0.0787
 9432SOL     OW39754   0.478   3.242   2.392  0.2554 -0.4765  0.4623
 9432SOL    HW139755   0.437   3.322   2.426 -0.2036 -0.8740  0.8423
 9432SOL    HW239756   0.567   3.238   2.428 -0.0854  2.8629  1.6779
 9433SOL     OW39757   3.838   2.286  14.411 -0.1845 -0.9020  0.4885
 9433SOL    HW139758   3.753   2.256  14.380  0.1351  1.9492 -3.0890
 9433SOL    HW239759   3.818   2.351  14.478 -0.3166  2.2239 -2.5705
 9434SOL     OW39760   2.347   0.812  12.990  0.4352 -0.6537 -0.3178
 9434SOL    HW139761   2.331   0.899  12.953  1.0938 -1.3532 -2.2320
 9434SOL    HW239762   2.440   0.809  12.967  1.0126  1.5710  1.6983
 9435SOL     OW39763   2.523   2.830   3.338 -0.5906  0.6230 -0.7125
 9435SOL    HW139764   2.504   2.908   3.388 -0.5121 -0.3330  0.8001
 9435SOL    HW239765   2.614   2.844   3.313 -0.0084 -0.7651  0.5842
 9436SOL     OW39766   2.609   3.095   0.131  0.2916  0.1953 -0.4937
 9436SOL    HW139767   2.700   3.099   0.102 -0.1408 -2.0224 -2.1367
 9436SOL    HW239768   2.609   3.012   0.179  1.6489  0.8587  0.6223
 9437SOL     OW39769   3.502   1.065   5.327 -0.0620 -0.4537  0.0194
 9437SOL    HW139770   3.461   0.981   5.349  1.2310 -1.2880 -0.7181
 9437SOL    HW239771   3.553   1.047   5.248 -0.4491  0.2450 -0.3861
 9438SOL     OW39772   2.279   1.661   9.463 -0.2165  0.0524 -0.1882
 9438SOL    HW139773   2.280   1.757   9.467  2.2987 -0.0309  0.9333
 9438SOL    HW239774   2.247   1.646   9.552 -2.2656  3.9131 -0.2809
 9439SOL     OW39775   1.053   4.666   2.481 -0.0597 -0.4516 -0.3700
 9439SOL    HW139776   1.148   4.661   2.485 -0.0469  0.1905  0.0015
 9439SOL    HW239777   1.039   0.033   2.453 -0.1840 -0.3177  0.1178
 9440SOL     OW39778   1.557   2.650  11.124  0.2742  0.5060 -0.5675
 9440SOL    HW139779   1.475   2.677  11.081  1.3459  0.7660 -2.4416
 9440SOL    HW239780   1.532   2.572  11.174 -1.3057  1.5274  0.2305
 9441SOL     OW39781   2.708   0.274  17.615  0.3645  0.3513 -0.0039
 9441SOL    HW139782   2.692   0.221   0.001 -2.1095  3.6614  1.6746
 9441SOL    HW239783   2.798   0.302  17.630 -0.3812  1.5844  2.0910
 9442SOL     OW39784   1.318   2.152  12.590 -0.4609  0.3493 -0.6939
 9442SOL    HW139785   1.390   2.128  12.647  0.1117  1.4129 -0.9537
 9442SOL    HW239786   1.353   2.233  12.553 -0.7836  1.5047  1.5204
 9443SOL     OW39787   2.518   2.725   9.741  0.0280 -0.5011 -0.0143
 9443SOL    HW139788   2.593   2.667   9.730  2.2666  2.2371  1.0178
 9443SOL    HW239789   2.465   2.674   9.803  0.3574 -0.3102  0.4264
 9444SOL     OW39790   4.623   0.113  13.322 -0.4307 -0.3332 -0.2374
 9444SOL    HW139791   4.640   0.054  13.248  1.9875  0.2381 -0.1269
 9444SOL    HW239792   4.582   0.183  13.271 -1.7161 -0.2148  0.9484
 9445SOL     OW39793   1.233   2.373   0.101  0.3811  0.4317  0.2938
 9445SOL    HW139794   1.285   2.426   0.041  3.5651 -1.9536  0.9566
 9445SOL    HW239795   1.281   2.376   0.183  2.0340 -0.6669 -0.6431
 9446SOL     OW39796   4.041   2.571   5.112  0.6431  0.2426 -0.0341
 9446SOL    HW139797   4.029   2.546   5.020  0.2828  1.0623 -0.2088
 9446SOL    HW239798   4.130   2.606   5.114  0.5888  0.4473 -1.3667
 9447SOL     OW39799   3.451   0.979  11.634 -0.6679  0.1326  0.3367
 9447SOL    HW139800   3.467   1.069  11.663  2.6456  0.0643 -1.2048
 9447SOL    HW239801   3.356   0.979  11.629 -0.6445  1.1326 -0.2289
 9448SOL     OW39802   1.516   1.161  16.469 -0.2913  0.3467  0.7366
 9448SOL    HW139803   1.524   1.111  16.388  4.1280  3.2397 -0.5588
 9448SOL    HW239804   1.467   1.097  16.521 -1.9290 -1.6204 -3.2534
 9449SOL     OW39805   0.128   3.669   4.303 -0.0381  0.2066  0.1747
 9449SOL    HW139806   0.179   3.739   4.263 -0.0740  0.7575  1.0978
 9449SOL    HW239807   0.037   3.691   4.288 -0.3312 -0.5169  0.8558
 9450SOL     OW39808   1.141   1.089   4.498 -0.1559 -0.1075  0.2094
 9450SOL    HW139809   1.142   1.161   4.435 -1.4406  0.0192  0.3480
 9450SOL    HW239810   1.089   1.134   4.565  0.5785  0.9051  0.1081
 9451SOL     OW39811   3.016   2.677   0.136 -0.1958  0.5370 -0.2441
 9451SOL    HW139812   3.037   2.643   0.223 -1.0565 -0.3573 -0.3892
 9451SOL    HW239813   3.069   2.757   0.139 -0.6994  0.8724 -0.0602
 9452SOL     OW39814   2.770   1.751  11.167  0.4608 -0.3061  0.2358
 9452SOL    HW139815   2.779   1.771  11.260 -0.5041  1.4190 -0.0468
 9452SOL    HW239816   2.849   1.796  11.137 -0.0693  0.7640  0.4528
 9453SOL     OW39817   2.812   3.349   2.749 -0.2022 -0.3423  0.3781
 9453SOL    HW139818   2.735   3.391   2.787 -0.6285 -0.4446 -0.3684
 9453SOL    HW239819   2.844   3.294   2.820 -3.1203 -0.2817  1.7114
 9454SOL     OW39820   0.306   1.562   7.675 -0.1162 -0.4492  0.8736
 9454SOL    HW139821   0.279   1.595   7.760 -1.2607 -2.4228  1.2780
 9454SOL    HW239822   0.296   1.639   7.619  2.1230 -1.4905 -1.0051
 9455SOL     OW39823   2.750   2.163  10.909  0.0522 -0.1789 -0.6135
 9455SOL    HW139824   2.789   2.229  10.852  0.9897  1.5134  2.0106
 9455SOL    HW239825   2.828   2.148  10.962  0.2139 -0.1005 -0.8302
 9456SOL     OW39826   4.416   2.372  16.950 -0.0202  0.0474  0.0714
 9456SOL    HW139827   4.498   2.325  16.939 -0.4643 -0.4294 -1.2027
 9456SOL    HW239828   4.396   2.401  16.861  0.9111  1.1875  0.2243
 9457SOL     OW39829   1.509   4.398  11.708  0.2459 -0.0573 -0.0710
 9457SOL    HW139830   1.481   4.422  11.619  2.8378  2.6512 -0.1563
 9457SOL    HW239831   1.508   4.478  11.761 -2.8190 -0.2850  0.2054
 9458SOL     OW39832   2.751   3.258   6.700  0.1587  0.4306  0.6023
 9458SOL    HW139833   2.778   3.256   6.608  0.7538  0.1739  0.7857
 9458SOL    HW239834   2.760   3.352   6.715 -1.9256  0.3641  2.3488
 9459SOL     OW39835   0.960   1.379  10.869  0.3223  0.8571  0.2422
 9459SOL    HW139836   1.015   1.412  10.941 -0.7103 -0.0632  1.4514
 9459SOL    HW239837   0.985   1.438  10.798 -0.8252 -1.3189 -1.9732
 9460SOL     OW39838   2.639   0.532  10.913  0.1211 -0.4167 -0.6891
 9460SOL    HW139839   2.680   0.486  10.840  1.3876  1.7619 -1.3515
 9460SOL    HW239840   2.570   0.582  10.868 -1.7033  0.3501  2.9805
 9461SOL     OW39841   2.877   1.459   7.802  0.3655  0.5993 -0.1124
 9461SOL    HW139842   2.922   1.503   7.874  1.5575 -0.8679  0.0394
 9461SOL    HW239843   2.794   1.502   7.822 -1.0456 -1.6522 -1.2427
 9462SOL     OW39844   1.125   0.787  11.499  0.2784  0.5945 -0.6563
 9462SOL    HW139845   1.175   0.865  11.523  1.1242 -1.0217  2.8738
 9462SOL    HW239846   1.044   0.804  11.547  0.9915  1.6731  0.1869
 9463SOL     OW39847   1.201   0.919  11.190 -0.5729 -0.0022 -0.1288
 9463SOL    HW139848   1.231   0.930  11.100  0.2056  1.5495  0.3296
 9463SOL    HW239849   1.214   1.004  11.232 -1.5825  0.2027 -0.2189
 9464SOL     OW39850   4.311   0.311   4.627  0.3607 -0.0733  0.0706
 9464SOL    HW139851   4.269   0.397   4.635 -2.4156 -1.4042 -0.4050
 9464SOL    HW239852   4.261   0.262   4.691  0.1272  0.3375  0.2030
 9465SOL     OW39853   4.479   1.623   6.879  0.8467 -0.2120 -0.5289
 9465SOL    HW139854   4.501   1.602   6.970  0.0869 -0.3715 -0.3843
 9465SOL    HW239855   4.509   1.714   6.884  0.2012 -0.0345  0.1562
 9466SOL     OW39856   1.840   1.954   2.986  0.4382 -0.1637 -0.1351
 9466SOL    HW139857   1.905   1.977   3.051  0.8395 -1.3648 -0.1102
 9466SOL    HW239858   1.893   1.919   2.914  0.3850 -1.2099  0.3363
 9467SOL     OW39859   0.422   0.543   4.759  0.7551  0.1648  0.3450
 9467SOL    HW139860   0.493   0.601   4.730  0.1879 -1.1354 -3.6595
 9467SOL    HW239861   0.352   0.569   4.700  0.1879 -1.6310  0.2360
 9468SOL     OW39862   3.762   3.587   6.563  0.1650 -0.8091  0.4883
 9468SOL    HW139863   3.730   3.609   6.650 -1.3728 -0.3857 -0.1925
 9468SOL    HW239864   3.806   3.506   6.587  0.8279 -0.1506  1.4901
 9469SOL     OW39865   4.104   3.358  13.362 -0.1284 -0.0439 -0.1663
 9469SOL    HW139866   4.158   3.281  13.381 -2.0444 -2.0369 -2.7447
 9469SOL    HW239867   4.066   3.367  13.449  1.0159  1.0114  0.2243
 9470SOL     OW39868   0.822   2.980   7.797 -0.0564 -0.0553 -0.0532
 9470SOL    HW139869   0.849   3.045   7.860 -0.3278 -1.2457  1.2962
 9470SOL    HW239870   0.726   2.984   7.807 -0.3834 -2.2693 -2.3363
 9471SOL     OW39871   0.464   3.842   2.194 -0.3818  0.6292 -0.0454
 9471SOL    HW139872   0.510   3.788   2.129 -1.9815 -0.4354 -0.2971
 9471SOL    HW239873   0.471   3.923   2.144  0.1621  0.8349  0.3579
 9472SOL     OW39874   3.710   0.801  17.305  0.0422 -0.3179 -0.7730
 9472SOL    HW139875   3.661   0.854  17.243 -1.9576 -0.2092  0.9041
 9472SOL    HW239876   3.659   0.723  17.326  0.6716 -0.8455 -1.2065
 9473SOL     OW39877   1.456   1.766   6.992 -0.8221  0.4112 -0.4524
 9473SOL    HW139878   1.450   1.772   7.088  0.7966  1.7788 -0.4275
 9473SOL    HW239879   1.363   1.778   6.974 -1.2742 -0.5289  1.2007
 9474SOL     OW39880   3.891   4.678  11.527  0.4951  0.0839 -0.3523
 9474SOL    HW139881   3.953   4.627  11.580 -1.3379  1.4466  3.0585
 9474SOL    HW239882   3.807   4.648  11.561  1.6034 -1.1005  1.3997
 9475SOL     OW39883   4.306   0.935   8.216  0.2285 -0.4505 -0.5453
 9475SOL    HW139884   4.245   0.999   8.251  0.8632  0.4884 -1.1740
 9475SOL    HW239885   4.363   0.909   8.289  1.3404 -0.1089 -1.2886
 9476SOL     OW39886   0.091   3.022   2.460 -0.0779  0.4806  0.7807
 9476SOL    HW139887   0.162   3.027   2.524  0.8088  2.0199 -0.3160
 9476SOL    HW239888   0.015   3.036   2.516 -0.5009  0.5741  0.1883
 9477SOL     OW39889   1.411   1.592   1.780  0.0128 -0.0567 -0.1411
 9477SOL    HW139890   1.435   1.544   1.701  0.7073  0.3440 -0.1697
 9477SOL    HW239891   1.346   1.531   1.815 -2.6390  1.2351 -2.8389
 9478SOL     OW39892   4.145   0.400   8.090  0.0576  0.1149  0.2977
 9478SOL    HW139893   4.138   0.495   8.099 -0.1130  0.1395 -0.0614
 9478SOL    HW239894   4.141   0.365   8.178 -0.8583 -0.3622  0.0711
 9479SOL     OW39895   2.245   4.665   8.213 -0.5521 -0.8879 -0.0265
 9479SOL    HW139896   2.160   4.622   8.209  0.2954 -2.5808  0.1058
 9479SOL    HW239897   2.282   4.617   8.288  0.4090 -0.9069 -0.5097
 9480SOL     OW39898   2.749   3.211   4.870  0.0226  0.0543 -0.0160
 9480SOL    HW139899   2.743   3.126   4.915 -2.0653  0.1609 -0.1318
 9480SOL    HW239900   2.815   3.199   4.801 -1.9775 -0.4933 -1.8152
 9481SOL     OW39901   0.595   4.356  17.098  0.0354 -0.0446  0.0775
 9481SOL    HW139902   0.608   4.399  17.183  1.1570  2.5616 -1.3793
 9481SOL    HW239903   0.661   4.405  17.048  1.9361  0.1071  2.7508
 9482SOL     OW39904   4.260   4.170   2.415  0.0079  0.0709 -0.6963
 9482SOL    HW139905   4.186   4.126   2.457 -0.0878  0.7333 -0.1900
 9482SOL    HW239906   4.234   4.148   2.325 -0.5227 -2.0789 -0.0292
 9483SOL     OW39907   2.046   2.829   3.310  0.7070 -0.3339 -0.6931
 9483SOL    HW139908   2.025   2.892   3.241 -0.9113  2.6031  2.5188
 9483SOL    HW239909   2.135   2.811   3.277  0.1754 -2.7754 -0.8400
 9484SOL     OW39910   4.599   0.998   7.654  0.0601  0.2109 -0.4703
 9484SOL    HW139911   4.664   1.014   7.723 -1.2680 -0.1359  0.8572
 9484SOL    HW239912   4.569   0.910   7.680 -1.1127  0.9916  0.7874
 9485SOL     OW39913   3.438   0.012   3.363 -0.0719 -0.0950  0.0248
 9485SOL    HW139914   3.355   0.015   3.410  0.1097  0.3450  0.3118
 9485SOL    HW239915   3.500   0.053   3.423 -0.2547 -2.4672  1.8392
 9486SOL     OW39916   3.008   1.110   6.446 -0.1065  0.0896 -0.2739
 9486SOL    HW139917   2.923   1.070   6.427  0.1543 -0.5909 -0.0328
 9486SOL    HW239918   2.985   1.152   6.529  1.7209  1.0728 -0.2813
 9487SOL     OW39919   1.378   2.284   8.426 -0.0565  0.2835 -0.4469
 9487SOL    HW139920   1.379   2.243   8.513 -1.0211  0.3295 -0.4157
 9487SOL    HW239921   1.433   2.361   8.437 -0.1853  0.6561 -2.4403
 9488SOL     OW39922   0.334   2.974   6.338  0.2110 -0.1831  0.8586
 9488SOL    HW139923   0.353   2.957   6.430  0.7990  0.1195  0.7888
 9488SOL    HW239924   0.252   3.023   6.346  2.3180  3.2054  1.6836
 9489SOL     OW39925   2.334   4.267   7.620 -0.2268 -0.5538  0.0519
 9489SOL    HW139926   2.302   4.350   7.654 -1.5803 -0.8670 -0.4535
 9489SOL    HW239927   2.338   4.292   7.528 -0.4979  0.2374  0.2530
 9490SOL     OW39928   1.708   3.544   8.469  0.4712 -0.1810  0.0912
 9490SOL    HW139929   1.622   3.579   8.491  0.2201 -1.0182  0.4605
 9490SOL    HW239930   1.722   3.602   8.395 -0.4537 -0.1929 -0.1016
 9491SOL     OW39931   4.303   2.721   6.394  0.7174  0.3129 -0.3204
 9491SOL    HW139932   4.301   2.707   6.489  0.6891  2.2780 -0.0300
 9491SOL    HW239933   4.392   2.758   6.391  1.3306 -1.0877  0.6773
 9492SOL     OW39934   3.432   4.227   7.224 -0.4370  0.2776  0.1016
 9492SOL    HW139935   3.343   4.206   7.194 -0.0066 -2.7676  0.9417
 9492SOL    HW239936   3.412   4.286   7.297 -1.5668  1.8132 -1.4511
 9493SOL     OW39937   2.111   2.097   4.021  0.6978  0.1144 -0.1719
 9493SOL    HW139938   2.172   2.029   3.990  0.9046 -0.5668  1.7241
 9493SOL    HW239939   2.148   2.108   4.108  1.7814 -0.7663 -0.5025
 9494SOL     OW39940   0.531   0.201  12.808  0.0753  0.6092 -0.2922
 9494SOL    HW139941   0.497   0.116  12.782  2.1939 -0.1885 -0.4650
 9494SOL    HW239942   0.587   0.166  12.877  0.8986  1.0930 -0.7166
 9495SOL     OW39943   3.825   3.052   7.002  0.3841 -0.4077 -0.0213
 9495SOL    HW139944   3.832   3.143   6.974 -1.0731 -0.2920 -0.0214
 9495SOL    HW239945   3.898   3.044   7.063  0.0203 -4.3516 -0.1164
 9496SOL     OW39946   1.248   0.899   6.571 -0.5243  0.5766  0.2610
 9496SOL    HW139947   1.193   0.840   6.520 -0.0901  0.3819  0.0203
 9496SOL    HW239948   1.193   0.920   6.646 -0.9617  0.7989 -0.1220
 9497SOL     OW39949   2.024   2.346  14.344  0.0863  0.6844  0.0556
 9497SOL    HW139950   2.057   2.395  14.269 -0.1817 -0.8920 -1.0945
 9497SOL    HW239951   2.106   2.296  14.350 -0.0710  0.4046 -0.1483
 9498SOL     OW39952   2.189   0.074   4.065 -0.1058 -0.2616  0.2035
 9498SOL    HW139953   2.243   0.092   4.142 -0.7043  2.8627 -0.0939
 9498SOL    HW239954   2.130   0.149   4.069 -0.8399 -0.7629 -1.3045
 9499SOL     OW39955   2.843   1.549  16.440 -0.5515 -0.2422 -0.0363
 9499SOL    HW139956   2.829   1.635  16.480 -2.3112 -0.2890 -0.5518
 9499SOL    HW239957   2.755   1.512  16.451 -0.2769 -0.8388  0.1370
 9500SOL     OW39958   2.290   1.112   9.457 -0.0858  0.3442  0.2330
 9500SOL    HW139959   2.362   1.111   9.519  1.4588 -1.2308 -1.5867
 9500SOL    HW239960   2.305   1.204   9.434  3.3485 -0.4674 -0.7490
 9501SOL     OW39961   0.866   1.257   4.410 -0.7586 -0.6772 -0.0364
 9501SOL    HW139962   0.785   1.302   4.429  0.2743  0.1233  2.4140
 9501SOL    HW239963   0.898   1.259   4.500  0.0364  0.5588 -0.3453
 9502SOL     OW39964   1.845   3.162  11.785  0.1879 -0.2984 -0.3198
 9502SOL    HW139965   1.875   3.173  11.875  1.1928  0.0512 -0.6967
 9502SOL    HW239966   1.851   3.067  11.774  1.3675 -0.3911  1.1641
 9503SOL     OW39967   0.940   3.129   1.079 -0.1949  0.1596  0.1581
 9503SOL    HW139968   0.951   3.043   1.120  1.1307 -0.7611 -2.1657
 9503SOL    HW239969   0.867   3.166   1.129 -0.5253 -0.3609  0.0639
 9504SOL     OW39970   2.744   0.314   3.329  0.5057  0.6177 -0.1767
 9504SOL    HW139971   2.783   0.379   3.271 -1.3287 -0.0481 -2.1595
 9504SOL    HW239972   2.681   0.371   3.373  1.3520  1.2330  0.2470
 9505SOL     OW39973   3.621   1.733   8.510  0.2239  0.3327  0.1946
 9505SOL    HW139974   3.536   1.773   8.529  0.3059  0.8071 -0.4187
 9505SOL    HW239975   3.629   1.771   8.423 -1.0024  2.2828  0.9376
 9506SOL     OW39976   2.575   1.786   4.241 -0.8469 -0.5794 -0.2961
 9506SOL    HW139977   2.552   1.722   4.309  0.1544 -0.3522  0.2559
 9506SOL    HW239978   2.627   1.735   4.179 -1.0762  1.1654 -1.9232
 9507SOL     OW39979   1.819   1.278   5.579  0.2670  0.2573  0.1002
 9507SOL    HW139980   1.749   1.246   5.521  1.0246 -1.5525  0.1951
 9507SOL    HW239981   1.873   1.332   5.522 -1.3468 -0.1317 -1.7854
 9508SOL     OW39982   0.928   0.034   5.718  0.9970 -0.1126 -0.5627
 9508SOL    HW139983   1.011   0.009   5.758  0.1745  0.2762  1.4011
 9508SOL    HW239984   0.940   0.127   5.697  3.0325 -0.6783 -1.8938
 9509SOL     OW39985   1.626   2.123   3.001 -0.1917  0.3833  0.3057
 9509SOL    HW139986   1.595   2.095   2.914  1.2280 -0.7054  0.1516
 9509SOL    HW239987   1.717   2.098   2.986  0.3297  1.1972  2.1934
 9510SOL     OW39988   2.183   3.072   4.606  0.1496  0.1542  0.2372
 9510SOL    HW139989   2.107   3.075   4.548  0.5673 -1.2248 -0.3830
 9510SOL    HW239990   2.243   3.020   4.552  0.6417 -0.1413  1.0593
 9511SOL     OW39991   3.451   2.259  11.202 -0.2559  0.1093  0.3277
 9511SOL    HW139992   3.401   2.238  11.123 -0.8059 -0.9914  0.9611
 9511SOL    HW239993   3.374   2.290  11.251 -1.5661 -1.5403 -0.6564
 9512SOL     OW39994   1.236   1.338   3.676  0.7104  0.6959 -0.2270
 9512SOL    HW139995   1.290   1.261   3.657  1.1907  1.6930 -2.8944
 9512SOL    HW239996   1.290   1.404   3.719 -2.0294  2.7715  0.0944
 9513SOL     OW39997   3.116   2.894  13.208  0.3863  0.6684 -0.4706
 9513SOL    HW139998   3.090   2.814  13.253 -1.4493  1.0197 -0.9024
 9513SOL    HW239999   3.196   2.907  13.259 -1.0336  0.2254  1.8510
 9514SOL     OW40000   3.009   2.556   7.295 -0.3514  0.2377 -0.2770
 9514SOL    HW140001   2.953   2.566   7.372 -0.1513  0.2042 -0.1279
 9514SOL    HW240002   2.961   2.485   7.253 -0.1649  0.4773 -0.8912
 9515SOL     OW40003   3.830   1.229   9.154  0.0109 -0.3647  0.0208
 9515SOL    HW140004   3.824   1.143   9.111  1.2420 -0.0057 -0.8844
 9515SOL    HW240005   3.914   1.212   9.197  0.4001  0.1806 -0.5194
 9516SOL     OW40006   3.089   2.213   9.691 -0.0145  0.5761 -0.0649
 9516SOL    HW140007   3.075   2.196   9.784  0.4152  0.8182  0.0434
 9516SOL    HW240008   3.010   2.177   9.652  0.6478 -3.6397  2.4464
 9517SOL     OW40009   3.390   3.023   2.377  0.4557  0.1108  0.0042
 9517SOL    HW140010   3.407   3.071   2.458  1.0355  0.5112 -0.3548
 9517SOL    HW240011   3.344   3.083   2.318 -0.5730  1.0979  1.8193
 9518SOL     OW40012   4.528   2.222   7.493  0.9803 -0.7341  0.0538
 9518SOL    HW140013   4.622   2.234   7.507  0.7070 -1.4365  2.6094
 9518SOL    HW240014   4.504   2.308   7.528 -0.1761 -0.8888 -0.3902
 9519SOL     OW40015   4.402   1.382   9.201 -0.0926 -0.0643  1.0493
 9519SOL    HW140016   4.396   1.475   9.179 -2.0959 -0.4911 -0.1806
 9519SOL    HW240017   4.483   1.386   9.251  0.6246 -1.4133 -0.0108
 9520SOL     OW40018   4.480   2.466   7.554  0.5540  0.2275  0.0097
 9520SOL    HW140019   4.407   2.521   7.526  0.9843 -0.6181 -2.7508
 9520SOL    HW240020   4.552   2.523   7.527 -0.3396 -0.2869 -3.4016
 9521SOL     OW40021   2.266   3.008   8.765  0.0964 -0.2612 -0.0965
 9521SOL    HW140022   2.215   3.074   8.720 -1.3843 -1.5044 -0.2444
 9521SOL    HW240023   2.195   2.946   8.781  1.6414 -2.0272  0.0031
 9522SOL     OW40024   0.223   4.365   8.988 -0.7337  0.1619  0.5744
 9522SOL    HW140025   0.168   4.290   9.009 -2.3465  0.9248 -0.8906
 9522SOL    HW240026   0.147   4.420   8.966 -1.0663 -0.5566 -0.0437
 9523SOL     OW40027   0.739   2.531   9.150 -0.1032 -0.3190  0.1234
 9523SOL    HW140028   0.672   2.571   9.093 -1.1791 -0.5234  1.2406
 9523SOL    HW240029   0.795   2.606   9.169 -0.7916  0.0334  0.7698
 9524SOL     OW40030   3.946   1.166   8.081 -0.0634  0.1459 -0.2589
 9524SOL    HW140031   3.925   1.175   8.174 -3.2752 -1.5338 -0.8104
 9524SOL    HW240032   3.870   1.215   8.047  1.8812  0.2003 -4.5602
 9525SOL     OW40033   2.193   1.719  10.629  0.6800  0.1749  0.2605
 9525SOL    HW140034   2.259   1.711  10.561  0.9736  0.2955  0.5279
 9525SOL    HW240035   2.206   1.636  10.674 -0.6965  0.7146  1.6740
 9526SOL     OW40036   0.590   1.732  13.193 -0.0489  0.2616  0.5264
 9526SOL    HW140037   0.608   1.821  13.224  1.7270  0.0772 -0.0082
 9526SOL    HW240038   0.528   1.738  13.119  2.2965 -1.5861 -1.5698
 9527SOL     OW40039   4.241   2.402   3.408  0.0604  0.6736 -0.0624
 9527SOL    HW140040   4.187   2.403   3.329 -1.8942  0.9826  1.2625
 9527SOL    HW240041   4.237   2.495   3.431 -0.9949  0.2003  1.6782
 9528SOL     OW40042   1.299   3.172   6.699  0.5905  0.2908 -0.1614
 9528SOL    HW140043   1.250   3.113   6.757 -1.0510  2.6883  0.8703
 9528SOL    HW240044   1.337   3.099   6.649 -1.5781 -0.1607 -1.1628
 9529SOL     OW40045   3.444   0.312   1.367 -0.1171 -0.4670 -0.0143
 9529SOL    HW140046   3.457   0.223   1.336  2.6653  0.0356 -0.3364
 9529SOL    HW240047   3.470   0.302   1.458  1.9897 -1.2842 -0.7052
 9530SOL     OW40048   0.824   1.939   9.827  0.5870  0.0511 -0.0512
 9530SOL    HW140049   0.748   1.888   9.801 -0.1782  2.7004 -3.0345
 9530SOL    HW240050   0.795   2.028   9.806  0.0770 -0.1539 -0.2161
 9531SOL     OW40051   1.664   1.319   7.856  0.1251 -0.1351 -0.1963
 9531SOL    HW140052   1.653   1.225   7.872  1.8153 -0.5788 -1.6721
 9531SOL    HW240053   1.573   1.340   7.835 -0.7090 -1.3578  2.3054
 9532SOL     OW40054   1.982   3.330   3.861 -0.3918  0.1994  0.0201
 9532SOL    HW140055   2.049   3.347   3.927  0.2697 -0.0241 -0.6031
 9532SOL    HW240056   1.901   3.350   3.908 -0.5273  0.6782 -0.4157
 9533SOL     OW40057   2.689   2.015   6.463 -0.0304 -0.1900 -0.6618
 9533SOL    HW140058   2.735   2.077   6.520  1.5186 -0.9404 -1.1053
 9533SOL    HW240059   2.748   1.940   6.453 -2.2679 -1.9425 -0.8909
 9534SOL     OW40060   3.934   3.637   9.804  0.0930 -0.7240  0.1620
 9534SOL    HW140061   4.025   3.618   9.828  0.7525 -0.4353 -2.1225
 9534SOL    HW240062   3.909   3.548   9.779 -3.0065  0.0365  0.5477
 9535SOL     OW40063   3.452   3.643   6.465  0.4451  0.2458 -0.5694
 9535SOL    HW140064   3.366   3.603   6.472  0.2997  0.9213  1.4052
 9535SOL    HW240065   3.426   3.714   6.406  0.1011  0.3201 -0.3230
 9536SOL     OW40066   3.782   2.677   8.193  0.7961 -0.2371  0.8386
 9536SOL    HW140067   3.742   2.761   8.218 -1.3777 -1.0485  0.0472
 9536SOL    HW240068   3.738   2.614   8.250  0.0485 -0.0000  0.5183
 9537SOL     OW40069   4.650   0.331   9.443 -0.3936 -0.1115  0.1558
 9537SOL    HW140070   4.557   0.321   9.422 -0.5812 -1.3646  1.5519
 9537SOL    HW240071   4.692   0.249   9.416  2.6080  1.8415 -1.0117
 9538SOL     OW40072   3.725   1.434   3.171  0.0459  0.5870 -0.3927
 9538SOL    HW140073   3.798   1.396   3.123  0.5973 -2.0547  2.5199
 9538SOL    HW240074   3.653   1.409   3.113  0.7340  1.9740 -1.8412
 9539SOL     OW40075   3.431   0.399   7.005  0.0246  0.3072  0.6333
 9539SOL    HW140076   3.486   0.431   7.077 -2.2512  0.8993  2.0972
 9539SOL    HW240077   3.401   0.312   7.030 -1.1868  1.0537  1.7243
 9540SOL     OW40078   1.502   0.903   2.269 -0.1317  0.2397 -0.1155
 9540SOL    HW140079   1.510   0.952   2.188  0.0941 -0.0452 -0.2654
 9540SOL    HW240080   1.578   0.934   2.318 -0.7817  0.0846  0.9923
 9541SOL     OW40081   0.571   0.772  17.515 -0.2321 -0.2917 -0.7125
 9541SOL    HW140082   0.485   0.786  17.476 -0.8108 -1.5094  0.1275
 9541SOL    HW240083   0.553   0.815  17.598 -0.1964 -0.6114 -0.5373
 9542SOL     OW40084   3.442   1.041   7.772 -0.4213  0.4977 -0.1173
 9542SOL    HW140085   3.478   1.092   7.699  0.6572 -1.1403 -0.7168
 9542SOL    HW240086   3.388   1.114   7.803 -0.1850 -0.6455  3.0208
 9543SOL     OW40087   3.060   4.720  10.079  0.6071  0.3309 -0.0270
 9543SOL    HW140088   3.108   0.002   9.996 -0.7658 -2.1071 -0.9679
 9543SOL    HW240089   3.084   0.083  10.114 -1.7980  1.2060 -0.5244
 9544SOL     OW40090   1.508   3.415   9.016 -0.5724 -0.2103  0.3198
 9544SOL    HW140091   1.427   3.462   9.038 -0.4901 -0.5474  1.3416
 9544SOL    HW240092   1.472   3.328   9.002 -5.1968  1.5189  1.3952
 9545SOL     OW40093   1.269   2.805   2.275 -0.3541 -0.0723  0.7367
 9545SOL    HW140094   1.257   2.748   2.199  1.9860  1.1351 -0.5238
 9545SOL    HW240095   1.270   2.749   2.353 -0.9794  2.1133  2.3016
 9546SOL     OW40096   2.397   2.641   1.627  0.1746 -0.3116  0.3404
 9546SOL    HW140097   2.413   2.590   1.547  0.7830  0.0049  0.2588
 9546SOL    HW240098   2.425   2.731   1.608 -1.2162 -0.0636 -0.4809
 9547SOL     OW40099   1.399   1.350  11.132 -0.1758 -0.4426 -0.6886
 9547SOL    HW140100   1.349   1.301  11.198 -2.4217  1.7598 -0.7359
 9547SOL    HW240101   1.351   1.333  11.051  1.1381 -0.9566 -1.3490
 9548SOL     OW40102   1.051   0.572   6.239 -0.0693  0.4150  0.2334
 9548SOL    HW140103   1.131   0.526   6.264 -0.8745  0.4835  2.9601
 9548SOL    HW240104   1.047   0.571   6.144 -0.9185  0.1027  0.2669
 9549SOL     OW40105   1.224   3.571   6.895  0.4276  0.0826  0.0222
 9549SOL    HW140106   1.196   3.531   6.813  3.5626 -0.4524 -0.7951
 9549SOL    HW240107   1.261   3.653   6.861 -2.0016  0.8570 -0.6980
 9550SOL     OW40108   0.735   0.005   5.912  0.3307 -0.2196 -0.2616
 9550SOL    HW140109   0.796   4.715   5.839 -0.9797  1.1955 -1.6050
 9550SOL    HW240110   0.732   0.101   5.914 -0.2286 -0.2690  0.7620
 9551SOL     OW40111   2.318   2.792   9.562  0.2652  0.2793 -0.0847
 9551SOL    HW140112   2.397   2.764   9.608 -0.5418  0.1850  1.2246
 9551SOL    HW240113   2.261   2.803   9.637  0.5392  0.8327  0.0407
 9552SOL     OW40114   3.001   2.328   0.339  0.3264  0.4077  0.1368
 9552SOL    HW140115   3.033   2.418   0.348  1.3833  0.0237  0.2424
 9552SOL    HW240116   3.022   2.285   0.422 -0.5669 -0.2354  0.0300
 9553SOL     OW40117   4.175   2.413   7.677  0.1605  0.0564  0.1922
 9553SOL    HW140118   4.128   2.457   7.606  2.5544  1.3201 -0.6376
 9553SOL    HW240119   4.159   2.325   7.644  0.6036 -0.1580  0.5467
 9554SOL     OW40120   1.052   3.880  13.982 -0.2359 -0.5435  0.3888
 9554SOL    HW140121   1.101   3.943  13.929  0.0987 -3.2049 -2.4137
 9554SOL    HW240122   0.966   3.895  13.945 -0.2506 -0.8253  0.3119
 9555SOL     OW40123   4.527   4.634   6.971  0.3973  0.2094  0.2165
 9555SOL    HW140124   4.518   0.006   6.978  1.8386  0.2151  1.7588
 9555SOL    HW240125   4.617   4.627   6.938  0.0221  0.5714 -0.8787
 9556SOL     OW40126   4.580   2.191  11.655  0.3394 -0.0805 -0.1499
 9556SOL    HW140127   4.610   2.100  11.653  1.1916  0.1711  0.8568
 9556SOL    HW240128   4.530   2.209  11.576  0.0020  0.7085  0.2442
 9557SOL     OW40129   2.160   1.594   9.699 -0.2006 -0.1088  0.2281
 9557SOL    HW140130   2.191   1.581   9.788 -0.0190  2.6407  0.5673
 9557SOL    HW240131   2.077   1.639   9.716 -0.5097 -1.7254  2.9485
 9558SOL     OW40132   1.975   4.242  14.260  0.2073 -0.2246  0.0407
 9558SOL    HW140133   1.910   4.306  14.290 -0.0719 -0.9734  1.0190
 9558SOL    HW240134   2.022   4.223  14.341  1.8524  0.1800 -0.8067
 9559SOL     OW40135   0.861   3.601  14.371 -0.1915 -0.1832  0.3072
 9559SOL    HW140136   0.933   3.573  14.314  2.0842  4.5525  0.8741
 9559SOL    HW240137   0.784   3.577  14.320  0.6056  0.9480 -1.4525
 9560SOL     OW40138   0.830   4.642   0.772 -0.2089  0.1276 -0.0755
 9560SOL    HW140139   0.848   4.550   0.791 -1.1414  0.2096  1.2199
 9560SOL    HW240140   0.884   4.659   0.694  0.0888 -1.0788 -0.1323
 9561SOL     OW40141   1.278   3.633  11.024  0.2416  0.2752 -0.7724
 9561SOL    HW140142   1.264   3.724  10.998  0.3467  1.1668  2.3122
 9561SOL    HW240143   1.186   3.608  11.029  0.8007 -1.8774 -1.5709
 9562SOL     OW40144   1.538   1.080  11.874  0.3054 -0.1525  0.0434
 9562SOL    HW140145   1.474   1.128  11.927 -0.5304 -1.5393  0.3053
 9562SOL    HW240146   1.516   1.132  11.797  1.2581  1.3906  0.8077
 9563SOL     OW40147   3.827   1.671   6.830 -0.3815  0.0193  0.3649
 9563SOL    HW140148   3.798   1.710   6.748 -0.8417 -0.4096  0.3247
 9563SOL    HW240149   3.816   1.749   6.885  0.0808  1.1395 -1.1415
 9564SOL     OW40150   2.082   2.178   0.283 -0.4497  0.0667  0.1755
 9564SOL    HW140151   2.145   2.250   0.285 -0.7685  0.3684 -0.6872
 9564SOL    HW240152   2.055   2.157   0.373 -1.0752  1.0405  0.2231
 9565SOL     OW40153   0.837   1.824  16.058 -0.5759 -0.4874  0.6122
 9565SOL    HW140154   0.892   1.807  16.135  3.0079  3.9831 -0.8996
 9565SOL    HW240155   0.868   1.757  15.997  0.5211  0.3421  0.2560
   4.72261   4.72261  17.69246
