Membrane in water
40155
    1TCq1    O1    1   2.970   3.034  10.247  0.0890  0.4658  0.7173
    1TCq1    C1    2   2.974   2.903  10.285 -0.1911 -0.3817 -0.1950
    1TCq1    O2    3   2.896   2.820  10.236  0.2808  0.9463  0.4725
    1TCq1    C2    4   3.034   2.878  10.419 -0.2505  0.2180  0.7326
    1TCq1    C3    5   3.155   2.935  10.456 -0.1351 -0.6335  0.7029
    1TCq1    C4    6   3.192   2.927  10.588  0.5216 -0.1311  0.2598
    1TCq1    C5    7   3.123   2.852  10.686  0.3706 -0.6572 -0.3050
    1TCq1    C6    8   3.001   2.798  10.644  0.2328  0.5020  0.8161
    1TCq1    C7    9   2.955   2.809  10.512 -0.1638  0.0889 -0.4857
    1TCq1    C8   10   2.914   2.738  10.743 -0.2132 -0.0003 -0.2691
    1TCq1    O4   11   2.967   2.686  10.838 -0.0009  0.5938 -0.2998
    1TCq1    C9   12   3.302   2.996  10.648  0.6719 -0.0260  0.2731
    1TCq1    O5   13   3.387   3.047  10.567 -0.3262  0.1933  0.0278
    1TCq1    O6   14   3.297   3.035  10.768 -0.0007  0.6217  0.2559
    1TCq1    H1   15   2.986   3.099  10.319  1.9877 -1.1141  1.7337
    1TCq1    H2   16   3.209   3.010  10.400 -2.6647  1.2698  0.8291
    1TCq1    H3   17   3.168   2.832  10.782  1.7776  2.0864 -0.3988
    1TCq1    H4   18   2.866   2.756  10.482 -0.0386 -1.0400  1.1684
    2MPD2     C   19   2.455   2.603  10.959 -0.6055 -0.5651  0.1571
    2MPD2    C1   20   2.580   2.624  11.019 -0.0984 -0.3194 -0.0868
    2MPD2    C2   21   2.689   2.671  10.942  0.0230 -0.1390 -0.3179
    2MPD2    C3   22   2.675   2.698  10.806 -0.4532  0.0747 -0.1395
    2MPD2    C4   23   2.553   2.688  10.748  0.2711 -0.0342  0.6266
    2MPD2    C5   24   2.447   2.647  10.826  0.7358 -0.3202  0.2550
    2MPD2     H   25   2.788   2.672  10.986 -0.7512 -2.2608  1.4808
    2MPD2    H1   26   2.536   2.709  10.643  1.4114 -1.2570  0.2060
    2MPD2    H2   27   2.367   2.567  11.011 -0.7207 -1.1350 -0.4259
    2MPD2    H3   28   2.346   2.648  10.786  1.8126  0.8979 -2.4217
    2MPD2     N   29   2.781   2.738  10.718  0.1732  0.9403 -0.3484
    2MPD2    H5   30   2.755   2.800  10.642  1.2051 -0.7699 -2.1077
    2MPD2    N1   31   2.604   2.600  11.157  0.3462 -0.6205  0.0297
    2MPD2    H7   32   2.675   2.658  11.201  1.1871 -2.3713  0.9475
    3TCq1    O1   33   1.590   3.938  12.146  0.0462  0.1000 -0.0326
    3TCq1    C1   34   1.621   4.050  12.085  0.0522 -0.3198  0.2121
    3TCq1    O2   35   1.689   4.143  12.133 -0.0933 -0.6934  0.0731
    3TCq1    C2   36   1.542   4.065  11.961  0.2172  0.3647 -0.6053
    3TCq1    C3   37   1.472   3.962  11.903  0.5303 -0.6166 -0.3880
    3TCq1    C4   38   1.466   3.966  11.759 -0.1463 -0.8207 -1.1086
    3TCq1    C5   39   1.512   4.071  11.688 -0.2851  0.1087 -0.1770
    3TCq1    C6   40   1.566   4.175  11.754 -0.0658 -0.0329 -0.0119
    3TCq1    C7   41   1.585   4.168  11.885  0.1847  0.7013 -0.0704
    3TCq1    C8   42   1.662   4.262  11.686  0.4080  0.2721 -0.0645
    3TCq1    O4   43   1.752   4.317  11.750  0.3424  0.9989 -0.0535
    3TCq1    C9   44   1.428   3.849  11.686 -0.1543 -0.7168  0.5216
    3TCq1    O5   45   1.384   3.755  11.751  0.2377  0.2150 -0.0754
    3TCq1    O6   46   1.445   3.856  11.560 -0.0098  0.2881 -0.2626
    3TCq1    H1   47   1.500   3.905  12.123  0.6105 -3.1543  2.2513
    3TCq1    H2   48   1.456   3.870  11.958  3.1528  0.3212  2.0034
    3TCq1    H3   49   1.530   4.065  11.581  0.0395 -0.9068 -0.0581
    3TCq1    H4   50   1.641   4.251  11.924  0.9382  0.1508  0.0135
    4MPD2     C   51   1.873   4.386  11.240  0.0862  0.3639 -0.5509
    4MPD2    C1   52   1.741   4.385  11.220  0.2850  0.2379  0.1576
    4MPD2    C2   53   1.659   4.361  11.328 -0.4667  0.1804 -0.0506
    4MPD2    C3   54   1.716   4.336  11.455  0.1597 -0.1171 -0.1694
    4MPD2    C4   55   1.852   4.335  11.473  0.6263  0.2693  0.3843
    4MPD2    C5   56   1.924   4.366  11.364 -0.4792  0.0281  0.0165
    4MPD2     H   57   1.551   4.350  11.317 -0.9014  2.5350  1.7597
    4MPD2    H1   58   1.900   4.331  11.570  1.3861  2.5041  0.1027
    4MPD2    H2   59   1.947   4.398  11.161  1.0887  1.7167  0.5923
    4MPD2    H3   60   2.032   4.373  11.376 -0.0403 -3.6119 -1.7377
    4MPD2     N   61   1.628   4.284  11.553  0.3003 -0.4234 -0.4749
    4MPD2    H5   62   1.535   4.273  11.515 -0.3818 -0.9050  1.3579
    4MPD2    N1   63   1.671   4.397  11.095 -0.2071  0.4291 -0.2515
    4MPD2    H7   64   1.572   4.416  11.101 -0.5572 -1.0008 -1.3579
    5TCq1    O1   65   2.718   1.160  12.006  0.5998  0.0920 -0.3085
    5TCq1    C1   66   2.714   1.120  11.877 -0.1737  0.3582 -0.1878
    5TCq1    O2   67   2.787   1.144  11.786 -1.1670 -0.4806 -0.3550
    5TCq1    C2   68   2.611   1.024  11.864 -0.6474 -0.4284 -0.9004
    5TCq1    C3   69   2.487   1.066  11.915 -0.2677 -0.1209  0.2950
    5TCq1    C4   70   2.378   0.987  11.895 -0.1472  0.0758 -0.5241
    5TCq1    C5   71   2.384   0.879  11.818  0.2705 -0.5551  0.1133
    5TCq1    C6   72   2.506   0.843  11.764  0.3300 -0.6653  0.7064
    5TCq1    C7   73   2.623   0.912  11.789  0.1902 -0.0987  1.2958
    5TCq1    C8   74   2.514   0.736  11.666 -0.9831  0.0183  0.2115
    5TCq1    O4   75   2.617   0.670  11.660  0.3932  0.3570 -0.5276
    5TCq1    C9   76   2.259   1.026  11.962  0.1177 -0.0054 -0.0495
    5TCq1    O5   77   2.151   0.979  11.916 -0.5026 -0.0566 -0.2401
    5TCq1    O6   78   2.265   1.094  12.073  0.1675  0.0379  0.0064
    5TCq1    H1   79   2.651   1.116  12.063  2.2553 -1.6406  0.2772
    5TCq1    H2   80   2.475   1.165  11.956 -1.7555  0.5989 -1.8915
    5TCq1    H3   81   2.302   0.808  11.816  0.0509 -0.2703 -1.3301
    5TCq1    H4   82   2.713   0.892  11.731 -1.3849 -3.6700  0.0805
    6MPD2     C   83   2.215   0.667  11.478 -0.7035 -0.1467  1.2055
    6MPD2    C1   84   2.340   0.641  11.518 -0.4107  0.4290  0.4684
    6MPD2    C2   85   2.415   0.537  11.471  0.5266 -0.0343 -0.0945
    6MPD2    C3   86   2.359   0.446  11.383 -0.4047 -0.3243 -0.1453
    6MPD2    C4   87   2.234   0.465  11.347 -0.6176 -0.4276  0.0196
    6MPD2    C5   88   2.166   0.573  11.397  0.2926  0.5329  0.7952
    6MPD2     H   89   2.513   0.521  11.513  0.7011  1.7747  0.1925
    6MPD2    H1   90   2.185   0.393  11.282 -1.0293  0.5348 -0.7419
    6MPD2    H2   91   2.145   0.742  11.514  0.3304  1.4579 -0.1837
    6MPD2    H3   92   2.065   0.588  11.359  0.1671  0.3270  1.0476
    6MPD2     N   93   2.435   0.341  11.329  0.0181  0.4587 -0.3660
    6MPD2    H5   94   2.527   0.329  11.371 -0.1453  1.4387  0.2797
    6MPD2    N1   95   2.389   0.735  11.609 -0.1822 -0.6945 -0.2565
    6MPD2    H7   96   2.324   0.808  11.634  1.2190  0.6280 -0.5104
    7TCq1    O1   97   4.411   0.579  12.947  0.2483  0.2424  0.1342
    7TCq1    C1   98   4.375   0.448  12.944  0.2368  0.6463 -0.1992
    7TCq1    O2   99   4.343   0.382  12.844 -0.2649  0.2211 -0.0020
    7TCq1    C2  100   4.396   0.405  13.075  0.1867  0.0396 -0.8588
    7TCq1    C3  101   4.314   0.460  13.171  0.5341  0.2310 -0.4134
    7TCq1    C4  102   4.297   0.393  13.291  0.5727  0.2331  0.5676
    7TCq1    C5  103   4.348   0.268  13.310 -0.9007 -0.5102 -0.4675
    7TCq1    C6  104   4.425   0.216  13.214  0.3946 -0.2754 -0.4813
    7TCq1    C7  105   4.449   0.282  13.098  0.2537 -0.1638  0.5324
    7TCq1    C8  106   4.509   0.100  13.231  0.6900 -0.1107 -0.1100
    7TCq1    O4  107   4.462   0.016  13.306  0.6499  0.4264  0.6411
    7TCq1    C9  108   4.203   0.446  13.384 -0.1905 -0.1801  0.0644
    7TCq1    O5  109   4.118   0.534  13.338 -0.5371  0.1147  0.0634
    7TCq1    O6  110   4.188   0.390  13.498  0.2739 -0.4881 -0.4604
    7TCq1    H1  111   4.451   0.605  13.032 -0.9475  2.4185  0.0280
    7TCq1    H2  112   4.255   0.549  13.153  1.6894  0.7762 -1.5250
    7TCq1    H3  113   4.315   0.209  13.394  1.8858  0.0500  1.0351
    7TCq1    H4  114   4.504   0.244  13.013 -1.7332  1.4258 -1.4810
    8MPD2     C  115   0.240   4.578  13.230  0.2143  0.7163  0.9142
    8MPD2    C1  116   0.125   4.546  13.290 -0.8432  0.0960 -0.0465
    8MPD2    C2  117   0.019   4.632  13.273  0.2524  0.2442 -0.1865
    8MPD2    C3  118   0.021   0.019  13.194  0.3239 -0.4897  0.1023
    8MPD2    C4  119   0.143   0.041  13.127  0.1071  0.2264  1.0826
    8MPD2    C5  120   0.251   4.684  13.151  1.0033 -0.7769 -1.0374
    8MPD2     H  121   4.652   4.605  13.323  1.2392 -0.7705  1.0745
    8MPD2    H1  122   0.157   0.129  13.065  0.2009 -0.0241  0.7507
    8MPD2    H2  123   0.325   4.512  13.231 -1.1525 -1.0476 -0.2381
    8MPD2    H3  124   0.349   4.703  13.108  0.9680  0.2661 -0.6634
    8MPD2     N  125   4.633   0.106  13.173 -0.1778  0.2935  1.1371
    8MPD2    H5  126   4.648   0.190  13.118 -0.4327 -1.4814 -1.6459
    8MPD2    N1  127   0.125   4.420  13.358 -0.9817 -0.2984 -0.1633
    8MPD2    H7  128   0.212   4.370  13.368 -0.3052  0.5632 -1.8265
    9TCq1    O1  129   3.085   3.050  10.913  0.8430 -0.4288 -0.0317
    9TCq1    C1  130   3.031   3.141  10.999 -0.5202  0.1880  0.2616
    9TCq1    O2  131   2.921   3.139  11.055 -0.2565 -0.7070  0.1291
    9TCq1    C2  132   3.143   3.211  11.061 -0.0288 -0.1290  0.2474
    9TCq1    C3  133   3.275   3.185  11.031 -0.2482  0.6779  0.1766
    9TCq1    C4  134   3.363   3.285  11.057 -0.6329 -0.3121  0.1418
    9TCq1    C5  135   3.332   3.401  11.111 -0.2115 -0.4403  0.3357
    9TCq1    C6  136   3.199   3.416  11.155  0.4312  0.3093 -0.3010
    9TCq1    C7  137   3.109   3.325  11.125 -0.3072  0.7524 -0.6131
    9TCq1    C8  138   3.161   3.552  11.171 -0.0113  0.3155  0.1551
    9TCq1    O4  139   3.233   3.643  11.140 -0.4092  0.1352 -0.6099
    9TCq1    C9  140   3.499   3.258  11.023 -0.1000 -0.2838  0.2620
    9TCq1    O5  141   3.575   3.316  11.105 -0.6319 -0.1952 -0.0784
    9TCq1    O6  142   3.531   3.152  10.960 -0.3469 -0.0373 -0.0676
    9TCq1    H1  143   3.169   3.080  10.874  1.2124 -0.9697  0.3515
    9TCq1    H2  144   3.307   3.089  10.990  0.0597  0.2186  1.4949
    9TCq1    H3  145   3.398   3.485  11.127 -0.7345 -0.1157  0.8210
    9TCq1    H4  146   3.003   3.338  11.138 -0.4280 -0.9077  0.1091
   10MPD2     C  147   2.995   3.810  11.209  1.1869  0.7284  0.3333
   10MPD2    C1  148   2.963   3.687  11.255  0.3254  1.2063  0.0863
   10MPD2    C2  149   2.850   3.671  11.330  0.0403 -0.1006 -0.3164
   10MPD2    C3  150   2.777   3.777  11.375  0.0208 -0.1004 -0.3090
   10MPD2    C4  151   2.815   3.901  11.325 -0.2172 -0.4878 -0.3001
   10MPD2    C5  152   2.921   3.913  11.240  0.7501 -0.5971 -0.5605
   10MPD2     H  153   2.821   3.568  11.346  0.2038 -0.0425  0.3509
   10MPD2    H1  154   2.771   3.992  11.364  1.9108  0.7238 -0.7223
   10MPD2    H2  155   3.081   3.823  11.145  0.4278 -0.0145 -0.8317
   10MPD2    H3  156   2.941   4.017  11.218  1.7543 -0.6108  0.2855
   10MPD2     N  157   2.672   3.762  11.463  0.4794 -0.1095  0.2206
   10MPD2    H5  158   2.633   3.847  11.504 -0.7307 -1.5249  2.0078
   10MPD2    N1  159   3.043   3.569  11.236  0.2557  0.8684 -0.1115
   10MPD2    H7  160   3.010   3.484  11.280  2.3148  0.1216 -0.0137
   11TCq1    O1  161   3.789   3.438  13.914 -0.0130 -0.4875 -0.1131
   11TCq1    C1  162   3.836   3.504  14.019  0.0132  0.3490 -0.1594
   11TCq1    O2  163   3.957   3.522  14.045 -0.3138 -0.6296 -0.0777
   11TCq1    C2  164   3.737   3.594  14.071 -0.4280 -0.0919  0.5361
   11TCq1    C3  165   3.770   3.729  14.076 -0.2802  0.7229  0.1232
   11TCq1    C4  166   3.671   3.817  14.096 -0.0961 -0.1439 -0.3286
   11TCq1    C5  167   3.545   3.783  14.135  0.1244 -0.1592  0.0634
   11TCq1    C6  168   3.525   3.651  14.134  0.5064 -0.6780 -0.7459
   11TCq1    C7  169   3.612   3.545  14.103 -0.3063  0.2405  0.6311
   11TCq1    C8  170   3.388   3.621  14.157 -0.3197  0.2964 -0.0191
   11TCq1    O4  171   3.327   3.686  14.236  0.4581  0.0291 -0.5408
   11TCq1    C9  172   3.702   3.952  14.068  0.4356  0.1213 -0.4280
   11TCq1    O5  173   3.606   4.040  14.082  0.1831 -0.4273  0.4469
   11TCq1    O6  174   3.795   3.974  13.986 -0.1126  0.5596  0.2167
   11TCq1    H1  175   3.707   3.478  13.877  0.9912 -0.4450 -2.2940
   11TCq1    H2  176   3.863   3.758  14.027  0.9034 -1.2231  1.2344
   11TCq1    H3  177   3.472   3.864  14.140  2.4719  2.0315 -1.1581
   11TCq1    H4  178   3.595   3.439  14.119 -1.3541  0.1346 -1.2270
   12MPD2     C  179   3.114   3.535  14.092 -0.2568 -0.5880  0.1264
   12MPD2    C1  180   3.227   3.478  14.036  0.7234 -0.7613 -0.2448
   12MPD2    C2  181   3.213   3.388  13.930  0.0689 -0.3750  0.1960
   12MPD2    C3  182   3.086   3.353  13.882 -0.6039  0.4199 -0.1121
   12MPD2    C4  183   2.979   3.420  13.939  0.5544  0.4901  0.4398
   12MPD2    C5  184   2.992   3.509  14.043  0.1460 -0.6719 -0.8709
   12MPD2     H  185   3.302   3.340  13.891 -1.1133 -0.5025 -2.3474
   12MPD2    H1  186   2.878   3.399  13.905  0.1826 -1.1265  2.4881
   12MPD2    H2  187   3.122   3.613  14.167 -0.1904 -1.7237  1.3056
   12MPD2    H3  188   2.910   3.572  14.076  0.0603 -2.0986  1.6162
   12MPD2     N  189   3.062   3.254  13.786 -0.2870 -0.0138 -0.0548
   12MPD2    H5  190   2.968   3.254  13.747  0.1902 -1.8971 -1.2129
   12MPD2    N1  191   3.354   3.517  14.065  0.3743 -0.6617  0.7735
   12MPD2    H7  192   3.429   3.468  14.017  0.5343 -0.5381  0.8924
   13TCq1    O1  193   2.648   2.874  10.468 -0.5562 -0.4961 -0.7357
   13TCq1    C1  194   2.634   2.990  10.542 -0.7027 -0.3349  0.6887
   13TCq1    O2  195   2.687   3.004  10.650 -0.2292  0.0783 -0.3748
   13TCq1    C2  196   2.489   3.013  10.514 -0.1677  0.2548  0.0903
   13TCq1    C3  197   2.455   3.043  10.385  0.2276  0.3676 -0.4962
   13TCq1    C4  198   2.317   3.064  10.357 -1.0610  0.0029 -0.0480
   13TCq1    C5  199   2.224   3.058  10.448  0.3480 -0.5336 -0.0395
   13TCq1    C6  200   2.268   3.047  10.577 -1.1727 -0.4436  0.1194
   13TCq1    C7  201   2.402   3.029  10.610 -0.1090  0.5505  0.1360
   13TCq1    C8  202   2.174   3.075  10.683  0.8413 -0.7404 -0.9117
   13TCq1    O4  203   2.221   3.104  10.793 -0.1810  0.0884  0.2108
   13TCq1    C9  204   2.280   3.103  10.221 -0.2048 -0.3099 -0.5414
   13TCq1    O5  205   2.157   3.125  10.192  0.0836  0.0917  0.3163
   13TCq1    O6  206   2.376   3.151  10.151  0.1774 -0.1153  0.0016
   13TCq1    H1  207   2.602   2.870  10.382 -0.1560  0.0175 -0.9763
   13TCq1    H2  208   2.533   3.055  10.311  0.2442  2.5560 -0.1375
   13TCq1    H3  209   2.121   3.073  10.416  0.0421 -1.5279  0.4561
   13TCq1    H4  210   2.435   3.048  10.712  1.6729 -2.5215  0.1436
   14MPD2     C  211   1.817   2.987  10.670  0.4215 -0.3561 -0.5307
   14MPD2    C1  212   1.927   3.044  10.724 -0.5745  0.3383  0.6334
   14MPD2    C2  213   1.925   3.093  10.843 -0.1716 -0.1097  0.1260
   14MPD2    C3  214   1.815   3.084  10.923  0.3062 -0.2277 -0.2278
   14MPD2    C4  215   1.706   3.018  10.878 -0.4068  0.5520 -0.6218
   14MPD2    C5  216   1.701   2.981  10.743 -0.3213  0.0139 -0.9195
   14MPD2     H  217   2.007   3.158  10.871 -2.2995  2.7783 -0.3894
   14MPD2    H1  218   1.613   2.999  10.930 -0.2059 -1.4107 -1.0024
   14MPD2    H2  219   1.806   2.951  10.568  1.9039  0.8884 -1.1216
   14MPD2    H3  220   1.608   2.935  10.712 -1.3550 -0.1354  2.3455
   14MPD2     N  221   1.821   3.131  11.056  0.0648  0.2754  0.1134
   14MPD2    H5  222   1.901   3.187  11.082  0.6477 -1.0849  1.2416
   14MPD2    N1  223   2.046   3.041  10.638 -0.2273  0.5487 -0.3054
   14MPD2    H7  224   2.031   3.001  10.546  1.2683  0.0436 -0.3199
   15TCq1    O1  225   4.177   2.902   2.123 -0.3561 -0.1421  0.0934
   15TCq1    C1  226   4.073   2.981   2.143 -0.1642  0.5097 -0.0235
   15TCq1    O2  227   4.042   3.019   2.256  0.7291 -0.1647  0.0668
   15TCq1    C2  228   4.006   3.005   2.019 -0.4463 -0.0056  0.3362
   15TCq1    C3  229   3.953   3.131   2.010 -0.6411  0.5299 -0.4189
   15TCq1    C4  230   3.882   3.151   1.897 -0.7773 -0.8077  0.2644
   15TCq1    C5  231   3.847   3.051   1.815 -0.6644  0.0920  0.2176
   15TCq1    C6  232   3.895   2.920   1.831 -0.1278 -0.1750  0.5187
   15TCq1    C7  233   3.983   2.896   1.931 -0.1155  0.3340 -0.1653
   15TCq1    C8  234   3.890   2.815   1.730 -0.2531 -0.4328  0.4275
   15TCq1    O4  235   3.941   2.708   1.760  0.3167  0.1548 -0.0743
   15TCq1    C9  236   3.834   3.278   1.864 -0.5377  0.0119  0.3750
   15TCq1    O5  237   3.813   3.290   1.740 -0.1527  0.4482 -0.2801
   15TCq1    O6  238   3.834   3.369   1.948  0.3374 -0.3254 -0.0945
   15TCq1    H1  239   4.205   2.902   2.029  1.1024 -0.3978  0.5265
   15TCq1    H2  240   3.966   3.209   2.085 -0.7619  0.4502 -0.3160
   15TCq1    H3  241   3.787   3.070   1.726 -0.5488 -0.2237  0.0716
   15TCq1    H4  242   4.024   2.796   1.941 -1.3832 -0.3449 -1.5941
   16MPD2     C  243   3.764   2.837   1.372  0.0813  0.2805  0.3220
   16MPD2    C1  244   3.842   2.789   1.478  0.0924 -0.2188 -0.6799
   16MPD2    C2  245   3.919   2.679   1.461 -0.1221 -0.3230  1.1387
   16MPD2    C3  246   3.918   2.617   1.334  0.6774  0.1612  0.3215
   16MPD2    C4  247   3.849   2.674   1.230  0.1134 -0.1221 -0.9394
   16MPD2    C5  248   3.767   2.775   1.251 -0.3492  0.1889  0.4113
   16MPD2     H  249   3.980   2.642   1.543 -0.2414 -1.4053  0.7489
   16MPD2    H1  250   3.856   2.637   1.128  0.4568 -1.6066 -0.3853
   16MPD2    H2  251   3.703   2.927   1.379 -2.1832 -1.3923  1.9423
   16MPD2    H3  252   3.722   2.829   1.168 -2.4137  0.7622  1.9118
   16MPD2     N  253   4.016   2.516   1.306  0.2713  0.0463  0.1582
   16MPD2    H5  254   4.076   2.493   1.385 -1.2044  0.0541  1.2908
   16MPD2    N1  255   3.844   2.862   1.606 -0.3659 -0.5159  0.9283
   16MPD2    H7  256   3.784   2.944   1.615 -1.2679 -1.1389  0.6545
   17TCq1    O1  257   1.906   2.708  10.336 -0.3819  0.4176 -0.1279
   17TCq1    C1  258   1.980   2.818  10.327  0.1990  0.3270 -0.2953
   17TCq1    O2  259   1.983   2.896  10.419 -0.1170 -0.0798  0.1061
   17TCq1    C2  260   2.100   2.766  10.276  1.2116  0.0290  0.4616
   17TCq1    C3  261   2.150   2.815  10.162 -0.1465  0.1149 -0.4321
   17TCq1    C4  262   2.275   2.775  10.120 -0.8812  0.3139 -0.5004
   17TCq1    C5  263   2.342   2.681  10.189  0.3687  0.5202 -0.5066
   17TCq1    C6  264   2.279   2.625  10.301 -0.1366 -0.4592 -0.3418
   17TCq1    C7  265   2.157   2.666  10.345  0.1215 -0.2153 -0.4236
   17TCq1    C8  266   2.351   2.548  10.392  0.0953 -0.1766 -0.5602
   17TCq1    O4  267   2.286   2.476  10.465 -0.7370  0.8225 -0.4575
   17TCq1    C9  268   2.331   2.830  10.002 -0.0443 -0.2496  0.1245
   17TCq1    O5  269   2.455   2.808   9.985 -0.8082  0.5500 -0.2676
   17TCq1    O6  270   2.270   2.934   9.962  0.5606 -0.7986  0.0068
   17TCq1    H1  271   1.922   2.640  10.266  3.7555  1.0485  0.1917
   17TCq1    H2  272   2.097   2.889  10.103 -2.4879 -0.2616  1.2221
   17TCq1    H3  273   2.437   2.649  10.148  1.1969  0.8161  1.1721
   17TCq1    H4  274   2.104   2.629  10.431  0.1030 -0.5510 -0.5775
   18MPD2     C  275   2.557   2.382  10.525  0.4369  0.1367  0.4530
   18MPD2    C1  276   2.579   2.472  10.425 -1.0030 -0.5877 -1.1089
   18MPD2    C2  277   2.709   2.504  10.405 -0.3518  0.1525 -0.8376
   18MPD2    C3  278   2.813   2.443  10.469 -1.0821 -0.7014 -0.4492
   18MPD2    C4  279   2.784   2.351  10.563 -0.7502 -0.0237 -0.6371
   18MPD2    C5  280   2.650   2.324  10.601 -0.3423  0.0882 -0.3773
   18MPD2     H  281   2.723   2.575  10.324  0.0653  0.7645 -0.2315
   18MPD2    H1  282   2.860   2.291  10.612 -1.8589 -0.9368 -0.0246
   18MPD2    H2  283   2.456   2.366  10.561  0.4207 -0.2753  0.2301
   18MPD2    H3  284   2.624   2.248  10.674 -0.8956 -0.4286 -1.1080
   18MPD2     N  285   2.940   2.478  10.423  0.0370 -0.0392  0.3679
   18MPD2    H5  286   2.945   2.521  10.331  2.2302  0.7679  0.8629
   18MPD2    N1  287   2.482   2.550  10.360  0.2586 -0.3486  0.6346
   18MPD2    H7  288   2.512   2.615  10.288  0.4159 -0.4256  0.6311
   19TMC2    C1  289   3.737   3.332  13.541  0.1990 -0.3087 -0.3485
   19TMC2    C2  290   3.628   3.413  13.557  0.0921 -0.5031 -0.4391
   19TMC2    C3  291   3.516   3.349  13.608  0.1960 -0.1464  0.5035
   19TMC2    C4  292   3.736   3.192  13.563 -0.2024 -0.8711  0.0330
   19TMC2    C5  293   3.622   3.133  13.606  0.2299  0.5797  0.0729
   19TMC2    C6  294   3.513   3.215  13.629 -0.1138  0.4748 -0.0474
   19TMC2     C  295   3.860   3.406  13.540  0.1255  0.1435  0.8191
   19TMC2     O  296   3.852   3.527  13.544  0.0044 -0.1413 -0.0105
   19TMC2     H  297   3.629   3.512  13.514  1.0167 -0.2336  0.1911
   19TMC2    H1  298   3.823   3.133  13.536  0.0476  0.5966 -2.3897
   19TMC2    H2  299   3.415   3.181  13.660  0.1839  0.2028  0.6030
   19TMC2    C7  300   3.627   2.992  13.644  1.0177  0.1335  0.4128
   19TMC2    C8  301   3.387   3.411  13.598 -0.3813  0.2205  0.0989
   19TMC2    O1  302   3.707   2.927  13.581 -0.3264 -0.7279 -0.3196
   19TMC2    O2  303   3.298   3.368  13.526 -0.3984 -0.0755 -0.3083
   19TMC2    O5  304   3.405   3.542  13.612  0.2250 -0.5092  0.2498
   19TMC2    H5  305   3.472   3.551  13.683  0.2604  1.7564 -0.0836
   20MPD2     C  306   4.139   3.497  13.569  0.2513 -0.1858  0.3575
   20MPD2    C1  307   4.102   3.368  13.595  0.1884  1.3324 -0.0018
   20MPD2    C2  308   4.193   3.281  13.657  0.6767 -0.0474  0.1061
   20MPD2    C3  309   4.316   3.332  13.708 -0.1036  0.4064  0.5924
   20MPD2    C4  310   4.356   3.462  13.674  0.0333 -0.4436  0.2957
   20MPD2    C5  311   4.267   3.538  13.601  0.3472  0.2732 -0.0138
   20MPD2     H  312   4.175   3.174  13.665 -0.0089  0.1816  1.5545
   20MPD2    H1  313   4.437   3.509  13.729 -1.6660  1.2036  1.4095
   20MPD2    H2  314   4.080   3.567  13.511  0.3092 -0.9132 -0.5906
   20MPD2    H3  315   4.299   3.636  13.567 -2.1781  1.7933  1.9774
   20MPD2     N  316   4.409   3.259  13.790  0.6954  0.3867  1.4366
   20MPD2    H5  317   4.501   3.301  13.797  0.4015  0.8989  2.1772
   20MPD2    N1  318   3.970   3.320  13.571 -0.1623  0.4147  0.1810
   20MPD2    H7  319   3.949   3.222  13.586  0.3097 -0.0127 -1.9410
   21MPD2     C  320   1.650   3.581  13.840  0.1709 -0.6533  0.0669
   21MPD2    C1  321   1.679   3.472  13.921 -0.0389  0.2506  0.4283
   21MPD2    C2  322   1.610   3.449  14.036  0.0360  0.0279 -0.0831
   21MPD2    C3  323   1.516   3.535  14.079  0.2338 -0.0345 -0.7849
   21MPD2    C4  324   1.480   3.637  13.998  0.6315  0.0181  0.2560
   21MPD2    C5  325   1.543   3.655  13.877  0.1236 -0.3683  0.6455
   21MPD2     H  326   1.639   3.362  14.094  1.9587  1.6613  1.3974
   21MPD2    H1  327   1.402   3.709  14.022  0.4646  0.5002 -1.7386
   21MPD2    H2  328   1.706   3.611  13.752  1.6334 -0.4925  1.0466
   21MPD2    H3  329   1.505   3.739  13.820  1.2354 -2.3805 -3.1138
   21MPD2     N  330   1.470   3.527  14.218 -0.1171  0.4432 -0.1024
   21MPD2    H5  331   1.385   3.578  14.239  0.8536  2.0971 -0.2347
   21MPD2    N1  332   1.789   3.383  13.894 -0.4134  0.1934 -0.0785
   21MPD2    H7  333   1.796   3.302  13.955  5.1040  1.2127  0.6091
   22TCq2    C1  334   1.511   3.446  14.318 -0.3285  0.2092 -0.8345
   22TCq2    O2  335   1.611   3.371  14.316  0.1806  0.1820  0.3064
   22TCq2    C2  336   1.441   3.455  14.441 -0.3984  0.3525 -0.1975
   22TCq2    C3  337   1.523   3.411  14.547  0.0895 -0.3386  0.6305
   22TCq2    C4  338   1.473   3.441  14.675  0.3139  0.2514  0.4379
   22TCq2    C5  339   1.372   3.526  14.692  0.1224 -0.0284  0.3289
   22TCq2    C6  340   1.296   3.563  14.578 -0.1758 -0.6354 -0.0713
   22TCq2    C7  341   1.329   3.530  14.455 -0.2036 -0.1934  0.1643
   22TCq2    C8  342   1.169   3.615  14.605  0.8553 -0.2948  0.5996
   22TCq2    O4  343   1.114   3.624  14.715  0.3861 -0.8316  0.0121
   22TCq2    C9  344   1.528   3.380  14.789 -0.1596  0.1773  0.4444
   22TCq2    O5  345   1.607   3.286  14.772  0.2649 -0.0415  0.6128
   22TCq2    O6  346   1.522   3.459  14.885 -0.8697 -0.0415  0.2405
   22TCq2    H2  347   1.605   3.342  14.534  0.3213  0.3238 -1.4464
   22TCq2    H3  348   1.337   3.543  14.793 -0.7120 -0.9511  0.1901
   22TCq2    H4  349   1.254   3.533  14.377  1.6704  0.5462 -1.6134
   23MPD2     C  350   3.367   0.082  14.258  0.0691  0.6070 -0.4824
   23MPD2    C1  351   3.258   0.130  14.327  0.4129  0.3212 -1.1035
   23MPD2    C2  352   3.173   0.219  14.258  0.0925 -0.0501 -0.0429
   23MPD2    C3  353   3.187   0.250  14.124  0.1454 -0.4110 -0.2215
   23MPD2    C4  354   3.296   0.201  14.061  0.1535 -0.1244 -0.0820
   23MPD2    C5  355   3.383   0.117  14.127  0.0752  0.0669  0.6492
   23MPD2     H  356   3.081   0.251  14.306 -0.1495  0.2947 -0.7312
   23MPD2    H1  357   3.304   0.231  13.957 -0.2208  2.1057  0.5452
   23MPD2    H2  358   3.450   0.028  14.302  0.3081  1.0910 -0.3461
   23MPD2    H3  359   3.480   0.087  14.091 -0.2755  0.7146 -0.8524
   23MPD2     N  360   3.092   0.331  14.056 -0.1413  0.1605 -0.7088
   23MPD2    H5  361   3.098   0.344  13.955  0.3024 -2.0713 -0.9760
   23MPD2    N1  362   3.234   0.102  14.458  0.0291  0.6896  0.0514
   23MPD2    H7  363   3.150   0.145  14.493 -0.2962 -0.3508  0.5553
   24TCq2    C1  364   2.993   0.410  14.113  0.2231 -0.5464  0.3454
   24TCq2    O2  365   2.998   0.463  14.224 -0.8273 -0.1425 -1.1544
   24TCq2    C2  366   2.882   0.451  14.025  0.8243  0.2125 -0.2698
   24TCq2    C3  367   2.831   0.582  14.029 -0.2437  0.5546  0.0588
   24TCq2    C4  368   2.715   0.613  13.966 -0.1095 -0.1018  0.4721
   24TCq2    C5  369   2.655   0.524  13.883 -0.2477  0.8933  0.3762
   24TCq2    C6  370   2.719   0.402  13.865 -0.4077 -0.0074 -0.5640
   24TCq2    C7  371   2.832   0.366  13.932 -1.1359 -0.6865 -0.2602
   24TCq2    C8  372   2.646   0.292  13.806 -0.1288 -0.1763 -0.1250
   24TCq2    O4  373   2.718   0.199  13.772 -0.1771 -0.0312  0.1565
   24TCq2    C9  374   2.668   0.745  13.971 -0.4796 -0.1328 -0.3576
   24TCq2    O5  375   2.748   0.837  14.004 -0.2049 -0.0660 -0.0945
   24TCq2    O6  376   2.562   0.763  13.915  0.0328  0.2196  0.2197
   24TCq2    H2  377   2.876   0.656  14.095  1.7600 -0.3783 -0.2652
   24TCq2    H3  378   2.579   0.550  13.809  1.6648 -0.2439 -1.9878
   24TCq2    H4  379   2.878   0.268  13.927 -0.1869 -0.2941  0.6388
   25TMC2    C1  380   1.802   1.935  11.159 -0.1624  0.2601 -0.9063
   25TMC2    C2  381   1.876   2.045  11.117 -0.0794  0.6995  0.1911
   25TMC2    C3  382   1.935   2.134  11.208 -0.3322 -0.0099  0.4256
   25TMC2    C4  383   1.783   1.911  11.294 -0.0774  0.0867  0.0709
   25TMC2    C5  384   1.834   2.003  11.381 -0.1149 -0.2085  0.3835
   25TMC2    C6  385   1.916   2.111  11.345  0.5280 -0.4453 -0.2333
   25TMC2     C  386   1.775   1.834  11.056 -0.0303 -0.1293 -0.0610
   25TMC2     O  387   1.780   1.872  10.942  0.0736 -0.0140  0.4371
   25TMC2     H  388   1.885   2.066  11.011  0.2904 -1.0291 -0.1206
   25TMC2    H1  389   1.723   1.828  11.331  0.1842  0.2835  0.9400
   25TMC2    H2  390   1.952   2.178  11.422  0.8469 -0.2925 -0.5115
   25TMC2    C7  391   1.804   1.998  11.523  0.0056  0.2483 -0.3366
   25TMC2    C8  392   1.981   2.263  11.162  0.2256 -0.0964  0.2313
   25TMC2    O1  393   1.856   2.086  11.589  0.1293 -0.3567  0.6837
   25TMC2    O2  394   1.971   2.359  11.237 -1.0631  0.3842  0.0489
   25TMC2    O5  395   2.096   2.238  11.094  0.1014 -0.0152 -0.1685
   25TMC2    H5  396   2.108   2.147  11.058 -2.5060 -0.4716  0.0698
   26MPD2     C  397   1.776   1.349  10.899  0.1701 -0.3630  0.8041
   26MPD2    C1  398   1.758   1.353  11.034  0.7796 -0.4590 -0.2602
   26MPD2    C2  399   1.744   1.473  11.097  0.0834  0.4871  0.2961
   26MPD2    C3  400   1.761   1.589  11.030 -0.4585 -0.4532 -0.3411
   26MPD2    C4  401   1.790   1.580  10.899  0.2110 -0.6812  0.3817
   26MPD2    C5  402   1.781   1.466  10.826 -0.0759 -0.1526  0.8455
   26MPD2     H  403   1.736   1.473  11.205 -0.5108  0.0853  0.2498
   26MPD2    H1  404   1.806   1.670  10.840 -1.8176 -0.7763 -0.3233
   26MPD2    H2  405   1.775   1.253  10.849  1.6861  1.4036 -2.6154
   26MPD2    H3  406   1.800   1.465  10.719 -0.7614 -1.6924  0.7405
   26MPD2     N  407   1.764   1.709  11.105 -0.0670  0.6004 -0.4213
   26MPD2    H5  408   1.760   1.695  11.206 -4.1923  1.7124 -0.4329
   26MPD2    N1  409   1.737   1.227  11.102 -0.0651  0.1729  0.0313
   26MPD2    H7  410   1.769   1.142  11.057 -0.0987  1.0508 -1.6689
   27TMC2    C1  411   0.801   4.271  11.703 -0.1116 -0.6509  0.5008
   27TMC2    C2  412   0.750   4.302  11.580 -0.8679  0.8136 -0.4293
   27TMC2    C3  413   0.745   4.430  11.540  0.1483 -0.0416  0.2719
   27TMC2    C4  414   0.835   4.374  11.787 -0.0873 -0.0464 -0.4130
   27TMC2    C5  415   0.825   4.502  11.744  0.4724 -0.1357  0.9231
   27TMC2    C6  416   0.784   4.533  11.620 -0.0815  0.1009 -0.1557
   27TMC2     C  417   0.772   4.132  11.751 -0.1761 -0.3663 -0.3525
   27TMC2     O  418   0.802   4.034  11.687  0.0967 -0.4517 -0.3268
   27TMC2     H  419   0.716   4.218  11.520  1.9820 -2.0206  1.9759
   27TMC2    H1  420   0.875   4.349  11.885  1.2567  1.9117 -0.4445
   27TMC2    H2  421   0.800   4.634  11.585  1.7305 -0.2101 -0.2159
   27TMC2    C7  422   0.788   4.595  11.849  0.6309  0.5443 -0.3676
   27TMC2    C8  423   0.686   4.441  11.410  0.5757 -0.5804  0.3227
   27TMC2    O1  424   0.767   4.528  11.952  0.0419  0.4294  0.0168
   27TMC2    O2  425   0.650   4.344  11.345  0.4518 -0.1682  0.6218
   27TMC2    O5  426   0.692   4.568  11.365 -1.2766  0.6511  0.3394
   27TMC2    H5  427   0.693   4.639  11.431 -1.9553  2.3691 -1.4921
   28MPD2     C  428   0.559   3.850  12.120 -0.1556 -0.5034 -0.6829
   28MPD2    C1  429   0.523   3.980  12.142 -0.4372 -0.1625 -0.5982
   28MPD2    C2  430   0.592   4.072  12.060  0.4067  0.1400 -0.1235
   28MPD2    C3  431   0.671   4.034  11.954 -0.6056 -0.4378 -0.0584
   28MPD2    C4  432   0.695   3.899  11.937  0.2834 -0.1256  0.3539
   28MPD2    C5  433   0.644   3.808  12.023 -0.0950 -0.0009  0.3332
   28MPD2     H  434   0.565   4.177  12.071  1.6140  0.6012 -1.6750
   28MPD2    H1  435   0.755   3.859  11.857  0.8586  1.4310 -0.0030
   28MPD2    H2  436   0.504   3.774  12.176  0.8621  0.2027  1.2691
   28MPD2    H3  437   0.651   3.701  12.012 -1.2215 -0.0740  0.3362
   28MPD2     N  438   0.704   4.141  11.868  0.1483  0.8390 -0.0990
   28MPD2    H5  439   0.676   4.235  11.894 -1.5161  0.1054  0.7667
   28MPD2    N1  440   0.431   4.008  12.240 -0.2123  0.5144  0.1008
   28MPD2    H7  441   0.401   3.932  12.300  0.3765 -0.2060 -0.5230
   29MPD2     C  442   0.188   1.769  14.179 -0.1545 -0.5806 -0.4221
   29MPD2    C1  443   0.316   1.744  14.233  0.0148 -0.6074 -0.1721
   29MPD2    C2  444   0.399   1.851  14.249 -0.2478  0.1403  0.8971
   29MPD2    C3  445   0.362   1.977  14.215  0.6329  0.2793 -0.3482
   29MPD2    C4  446   0.232   2.003  14.173 -0.1308  0.1186  0.7046
   29MPD2    C5  447   0.148   1.893  14.155 -0.3533  0.5049 -0.4459
   29MPD2     H  448   0.499   1.840  14.291  1.0333  1.0318 -1.8657
   29MPD2    H1  449   0.202   2.106  14.158 -1.5223 -0.5489 -1.1385
   29MPD2    H2  450   0.122   1.689  14.148  1.2211 -1.1915 -1.7967
   29MPD2    H3  451   0.052   1.912  14.109 -0.9959 -0.6476  0.4124
   29MPD2     N  452   0.438   2.099  14.231  0.1359  0.3160 -0.4155
   29MPD2    H5  453   0.394   2.186  14.204 -0.9091 -0.0080  0.2593
   29MPD2    N1  454   0.356   1.609  14.265 -0.6658  0.0075 -0.0821
   29MPD2    H7  455   0.452   1.605  14.297 -1.3591 -0.5392  1.8770
   30TCq2    C1  456   0.566   2.112  14.265 -0.4560  0.3914  0.2951
   30TCq2    O2  457   0.659   2.033  14.264 -0.1011 -0.0564 -0.6407
   30TCq2    C2  458   0.591   2.255  14.269  0.2967 -0.1395 -0.1055
   30TCq2    C3  459   0.486   2.344  14.298  0.2963 -0.8880  0.7049
   30TCq2    C4  460   0.517   2.474  14.288  0.4305 -0.1130 -0.0644
   30TCq2    C5  461   0.639   2.519  14.240  0.1459 -0.6911  0.6920
   30TCq2    C6  462   0.739   2.430  14.211  0.1571  0.4449 -0.4440
   30TCq2    C7  463   0.716   2.297  14.235 -0.6863 -0.0981  0.1282
   30TCq2    C8  464   0.869   2.476  14.164 -0.3447  0.2464 -0.6584
   30TCq2    O4  465   0.936   2.386  14.114  0.3257 -0.6143  0.1111
   30TCq2    C9  466   0.420   2.577  14.336  0.0858  0.5269  0.3999
   30TCq2    O5  467   0.318   2.538  14.395 -0.4778  0.3395  0.7572
   30TCq2    O6  468   0.443   2.698  14.294 -0.5427  0.2457  0.4402
   30TCq2    H2  469   0.391   2.305  14.332  0.5353 -0.9156  1.3563
   30TCq2    H3  470   0.653   2.625  14.227  3.5946 -0.7641  3.5678
   30TCq2    H4  471   0.797   2.227  14.219  0.2073  1.3907 -1.9904
   31MPD2     C  472   3.298   1.023  14.671 -0.1030 -0.5579  0.6241
   31MPD2    C1  473   3.179   1.043  14.604  0.4656  0.0536 -0.0735
   31MPD2    C2  474   3.069   1.004  14.669  0.5157 -0.2415 -0.0488
   31MPD2    C3  475   3.073   0.934  14.786  0.3384  0.1655  1.0214
   31MPD2    C4  476   3.191   0.916  14.855  0.5881  0.2213 -0.4858
   31MPD2    C5  477   3.304   0.966  14.796  0.0252 -0.3185  0.6192
   31MPD2     H  478   2.974   1.037  14.630  0.1250 -0.2204  0.9112
   31MPD2    H1  479   3.203   0.861  14.948  1.6228  0.6747 -0.3503
   31MPD2    H2  480   3.396   1.057  14.639 -1.1964  0.0329 -2.0919
   31MPD2    H3  481   3.398   0.962  14.851  0.8898  0.8465 -0.7822
   31MPD2     N  482   2.958   0.881  14.840 -0.1687 -0.3194 -0.6493
   31MPD2    H5  483   2.967   0.812  14.913 -0.4977  0.1450 -0.1656
   31MPD2    N1  484   3.174   1.112  14.479 -0.1832  0.0712 -0.3317
   31MPD2    H7  485   3.264   1.149  14.451  0.7924 -1.8511  0.2059
   32TCq2    C1  486   2.833   0.879  14.793 -0.8541 -0.0558  0.1336
   32TCq2    O2  487   2.783   0.935  14.695  0.0376 -0.2792  0.7522
   32TCq2    C2  488   2.745   0.824  14.896 -0.1754 -0.4702  0.6885
   32TCq2    C3  489   2.620   0.786  14.859 -0.2357  0.3929  0.1054
   32TCq2    C4  490   2.538   0.712  14.946 -0.3041 -0.7435  0.0244
   32TCq2    C5  491   2.585   0.688  15.069  0.5357  0.1507 -0.2698
   32TCq2    C6  492   2.706   0.736  15.112  0.0338 -0.3372 -0.2328
   32TCq2    C7  493   2.787   0.804  15.026  0.1793  0.9036 -0.4943
   32TCq2    C8  494   2.747   0.714  15.249  0.5317 -0.0682  0.2060
   32TCq2    O4  495   2.868   0.725  15.266  0.4621 -0.2070 -0.6276
   32TCq2    C9  496   2.421   0.643  14.894  0.5769  0.7537  0.0886
   32TCq2    O5  497   2.394   0.539  14.960  0.3743 -0.6095  0.1385
   32TCq2    O6  498   2.394   0.671  14.771 -0.4190 -0.2917 -0.1271
   32TCq2    H2  499   2.581   0.813  14.761 -2.1671  0.4785  0.8947
   32TCq2    H3  500   2.531   0.614  15.127 -1.5498  1.2188 -0.8641
   32TCq2    H4  501   2.870   0.859  15.070  1.2304 -2.0325  1.2323
   33MPD2     C  502   3.435   3.033  10.108 -0.8698 -0.4047  0.2438
   33MPD2    C1  503   3.325   2.957  10.095 -0.9568  0.4059 -0.8947
   33MPD2    C2  504   3.231   2.994   9.999 -0.1045  0.3340 -0.3207
   33MPD2    C3  505   3.246   3.112   9.927 -0.1408 -0.1338 -0.4248
   33MPD2    C4  506   3.363   3.183   9.936  0.4573  0.7161 -0.4285
   33MPD2    C5  507   3.448   3.150  10.035  0.8797 -0.0769 -0.0674
   33MPD2     H  508   3.140   2.937   9.985  0.6989 -0.9632 -0.3033
   33MPD2    H1  509   3.384   3.280   9.893  2.9728  1.5317  2.6397
   33MPD2    H2  510   3.519   3.004  10.170  0.0027  0.4215 -0.5402
   33MPD2    H3  511   3.540   3.207  10.037 -0.3466  1.8679  0.5744
   33MPD2     N  512   3.142   3.161   9.832  0.5351 -0.0247 -0.2358
   33MPD2    H5  513   3.163   3.250   9.789 -1.7563 -0.8983 -3.1731
   33MPD2    N1  514   3.326   2.832  10.162  0.1953 -0.2002 -0.5308
   33MPD2    H7  515   3.394   2.809  10.233 -0.1310 -2.2283 -0.8709
   34TCq2    C1  516   3.019   3.104   9.817 -0.3596  0.5186  0.5446
   34TCq2    O2  517   2.956   3.013   9.871  0.0875  0.1223  0.2445
   34TCq2    C2  518   2.929   3.169   9.723 -0.3825  0.4055  0.4808
   34TCq2    C3  519   2.792   3.146   9.720 -0.5205  0.0120 -0.3879
   34TCq2    C4  520   2.717   3.235   9.656 -0.4585 -0.0597 -1.1339
   34TCq2    C5  521   2.764   3.347   9.593  0.9056  0.1962 -0.0866
   34TCq2    C6  522   2.901   3.357   9.583 -0.3048  0.5787 -0.3430
   34TCq2    C7  523   2.987   3.273   9.650 -0.2363 -0.1848  1.1247
   34TCq2    C8  524   2.968   3.466   9.518  0.5156 -0.3815 -0.5025
   34TCq2    O4  525   3.085   3.477   9.524 -0.6181  0.1028 -0.2019
   34TCq2    C9  526   2.579   3.214   9.676 -0.1092  0.4486 -0.5803
   34TCq2    O5  527   2.537   3.121   9.749 -0.2456  0.5607  0.2968
   34TCq2    O6  528   2.503   3.298   9.627 -0.3387  0.0558  0.2094
   34TCq2    H2  529   2.750   3.069   9.784 -0.0561  0.5725  0.6014
   34TCq2    H3  530   2.695   3.402   9.530  0.5798  0.1182  0.1987
   34TCq2    H4  531   3.091   3.271   9.622  0.1772  1.2894  2.5221
   35MPD2     C  532   0.357   4.701  11.603  0.0369 -0.0593  0.1816
   35MPD2    C1  533   0.347   4.571  11.659 -1.0015 -0.5236  0.0998
   35MPD2    C2  534   0.261   4.476  11.594  0.0311 -0.5472  0.4814
   35MPD2    C3  535   0.175   4.503  11.495  0.3484 -0.3961 -0.2428
   35MPD2    C4  536   0.182   4.632  11.448  0.6299 -0.0535  0.5573
   35MPD2    C5  537   0.267   0.003  11.498  0.0078  0.6707  0.8035
   35MPD2     H  538   0.272   4.374  11.630 -1.6779 -0.1688  2.0329
   35MPD2    H1  539   0.119   4.657  11.364 -0.6604  0.5993  1.7326
   35MPD2    H2  540   0.422   0.049  11.651  3.4791 -3.0617  0.0565
   35MPD2    H3  541   0.255   0.103  11.459 -1.4226 -0.3787 -1.4984
   35MPD2     N  542   0.084   4.407  11.451  0.9086  0.0851  0.1494
   35MPD2    H5  543   0.083   4.316  11.496  0.1448  0.4725  0.9121
   35MPD2    N1  544   0.434   4.542  11.770 -0.5814  0.4721 -0.5017
   35MPD2    H7  545   0.510   4.604  11.795  2.2713 -2.8818 -0.7527
   36TCq2    C1  546   4.702   4.427  11.360  0.5367 -0.9207 -1.1599
   36TCq2    O2  547   4.663   4.534  11.316 -0.2296 -0.1526  0.0338
   36TCq2    C2  548   4.617   4.311  11.333  0.3512  0.1685  0.4080
   36TCq2    C3  549   4.491   4.334  11.300 -0.1782  0.3210 -0.6949
   36TCq2    C4  550   4.407   4.233  11.279 -0.5253 -0.4909  0.0879
   36TCq2    C5  551   4.448   4.103  11.286  0.2011 -0.1469  0.2255
   36TCq2    C6  552   4.578   4.079  11.317 -0.4841  0.3634  0.1757
   36TCq2    C7  553   4.662   4.181  11.347 -1.0420 -0.0960  0.3231
   36TCq2    C8  554   4.599   3.964  11.401 -0.3361 -0.4263  0.0256
   36TCq2    O4  555   4.497   3.911  11.439  0.1968 -0.1762  0.1993
   36TCq2    C9  556   4.265   4.262  11.270  0.2568 -0.9320 -0.1439
   36TCq2    O5  557   4.180   4.174  11.245 -0.4824  0.5417  0.2118
   36TCq2    O6  558   4.224   4.382  11.293 -0.4685  0.1530 -0.5449
   36TCq2    H2  559   4.450   4.434  11.291  2.5329  1.4169 -1.1155
   36TCq2    H3  560   4.382   4.021  11.258 -0.7428  0.5022  0.5206
   36TCq2    H4  561   0.044   4.167  11.357 -1.1153 -0.8804  0.0117
   37TMC2    C1  562   1.817   4.714  11.374 -0.1983  0.6335 -0.6560
   37TMC2    C2  563   1.808   0.006  11.235  0.0908  0.5708  0.3672
   37TMC2    C3  564   1.929   4.724  11.166 -0.5103  0.3799  0.3368
   37TMC2    C4  565   1.929   4.688  11.439  0.3740  0.0992  0.1878
   37TMC2    C5  566   2.043   4.681  11.363  0.2087 -0.3833 -0.3299
   37TMC2    C6  567   2.050   4.695  11.223 -0.2774  0.5276 -0.9607
   37TMC2     C  568   1.689   4.715  11.443  0.1526 -0.3909 -0.1215
   37TMC2     O  569   1.590   0.010  11.375  0.4533 -0.3441  0.0968
   37TMC2     H  570   1.713   0.026  11.187 -0.3034 -2.8609 -0.3307
   37TMC2    H1  571   1.931   4.701  11.547 -2.1811 -0.9640  0.3723
   37TMC2    H2  572   2.140   4.707  11.163 -0.1339  2.3735 -0.3680
   37TMC2    C7  573   2.164   4.720  11.440 -0.1980  0.2967 -0.0191
   37TMC2    C8  574   1.921   0.059  11.033 -0.6184 -0.5009  0.6987
   37TMC2    O1  575   2.148   0.060  11.544 -0.6861  0.0359 -0.1480
   37TMC2    O2  576   1.827   0.135  11.002  0.3235 -0.1015 -0.2483
   37TMC2    O5  577   1.990   4.704  10.946 -0.3830  0.0471 -0.0982
   37TMC2    H5  578   2.044   4.632  10.986  0.8216  1.0276  0.0638
   38MPD2     C  579   1.407   0.009  11.877  0.2405  0.1639  0.5599
   38MPD2    C1  580   1.538   4.697  11.903 -0.6568  0.5450 -0.0100
   38MPD2    C2  581   1.631   4.692  11.803 -0.0721  0.1683  1.0743
   38MPD2    C3  582   1.606   4.722  11.674 -0.4773  0.0807  0.3455
   38MPD2    C4  583   1.475   0.031  11.648  0.0513 -0.0567 -0.3344
   38MPD2    C5  584   1.376   0.033  11.743  0.2862  0.0852  1.3790
   38MPD2     H  585   1.724   4.648  11.836  0.0499  0.3714  1.0020
   38MPD2    H1  586   1.439   0.061  11.550 -0.9202  0.2727  0.1229
   38MPD2    H2  587   1.324   0.006  11.947 -1.1604 -2.4957 -1.2402
   38MPD2    H3  588   1.273   0.061  11.721  1.2328  1.0535 -1.7659
   38MPD2     N  589   1.707   4.708  11.579  0.2261 -0.0047 -0.1897
   38MPD2    H5  590   1.804   4.693  11.605  0.2652 -0.1824 -0.4439
   38MPD2    N1  591   1.579   4.658  12.032 -0.1144 -0.1006  0.7949
   38MPD2    H7  592   1.676   4.645  12.055 -0.0073  1.4821  1.1993
   39MPD2     C  593   4.543   1.854   1.237  0.0839 -0.0537  0.0676
   39MPD2    C1  594   4.510   1.980   1.282 -0.9565  0.3753 -0.0911
   39MPD2    C2  595   4.379   1.997   1.328 -0.3376  0.2940  0.3429
   39MPD2    C3  596   4.284   1.900   1.310  0.1482 -0.2109  0.2429
   39MPD2    C4  597   4.325   1.773   1.266  0.4014  0.8985  0.0564
   39MPD2    C5  598   4.455   1.749   1.232  0.4914  0.5415 -0.8860
   39MPD2     H  599   4.341   2.086   1.378 -3.7506 -1.1002  0.2072
   39MPD2    H1  600   4.254   1.693   1.247 -0.5826  1.1918  2.4869
   39MPD2    H2  601   4.641   1.820   1.206  0.2067  0.0504  0.3407
   39MPD2    H3  602   4.488   1.650   1.203  1.3257  0.4433  0.4016
   39MPD2     N  603   4.141   1.925   1.326 -0.0214 -0.7632  0.3078
   39MPD2    H5  604   4.085   1.847   1.295  0.7956 -0.6754 -1.3687
   39MPD2    N1  605   4.610   2.068   1.297 -0.0590 -0.0305  0.9889
   39MPD2    H7  606   4.690   2.047   1.238  0.1598 -0.4565  1.4342
   40TCq2    C1  607   4.617   2.159   1.399 -0.2739  0.2977  0.1255
   40TCq2    O2  608   4.534   2.190   1.483  0.2967 -0.7692  0.3462
   40TCq2    C2  609   0.017   2.223   1.402  0.0107  0.1470  0.8550
   40TCq2    C3  610   0.122   2.166   1.341  0.4053 -0.8334 -0.8110
   40TCq2    C4  611   0.247   2.211   1.376 -0.2762 -0.0222  0.1788
   40TCq2    C5  612   0.259   2.305   1.475  0.0827  0.7288  0.5521
   40TCq2    C6  613   0.153   2.352   1.538 -0.0044 -0.1576  0.0413
   40TCq2    C7  614   0.024   2.313   1.507 -0.5890  0.0907  0.0698
   40TCq2    C8  615   0.174   2.482   1.608  0.4862  0.2243 -0.3095
   40TCq2    O4  616   0.082   2.518   1.683 -0.2756 -0.3410 -0.3173
   40TCq2    C9  617   0.361   2.149   1.320 -0.1685 -0.3894 -0.1383
   40TCq2    O5  618   0.343   2.088   1.212  0.0736 -0.2311  0.4469
   40TCq2    O6  619   0.471   2.197   1.354 -0.6458 -0.1181 -0.0099
   40TCq2    H2  620   0.114   2.105   1.251 -1.9267 -0.7280 -0.6840
   40TCq2    H3  621   0.361   2.329   1.506 -0.0355  0.6665  0.9981
   40TCq2    H4  622   4.666   2.359   1.559  1.7043 -0.9706  4.6335
   41TMC2    C1  623   4.149   4.454  14.031 -0.9244 -0.3590 -0.3783
   41TMC2    C2  624   4.169   4.592  14.057  0.1242 -0.2676  0.8814
   41TMC2    C3  625   4.109   4.685  13.983  0.2755  0.2943  0.5791
   41TMC2    C4  626   4.088   4.410  13.911  0.3430  0.1860  0.2253
   41TMC2    C5  627   4.049   4.515  13.830  0.2884 -0.4558 -0.4738
   41TMC2    C6  628   4.055   4.648  13.861  0.1270 -0.0854 -0.5478
   41TMC2     C  629   4.159   4.356  14.139 -0.1733  0.1033  0.0043
   41TMC2     O  630   4.154   4.237  14.104  0.3641 -0.2676  0.8971
   41TMC2     H  631   4.202   4.632  14.153 -1.8789  3.0512  0.1705
   41TMC2    H1  632   4.065   4.306  13.893 -1.8881  0.5036  1.1429
   41TMC2    H2  633   4.017   0.005  13.802  2.1445 -0.8521 -2.9156
   41TMC2    C7  634   3.989   4.482  13.701  0.6923 -0.0841 -0.0114
   41TMC2    C8  635   4.070   0.081  14.054 -0.6724 -0.4172  0.9591
   41TMC2    O1  636   3.955   4.362  13.695 -0.4820 -0.0325 -0.3825
   41TMC2    O2  637   4.033   0.068  14.171 -1.1166 -0.4258 -0.2027
   41TMC2    O5  638   4.167   0.170  14.018  0.1137 -0.0712  0.1781
   41TMC2    H5  639   4.190   0.154  13.924 -1.7389  1.9589 -0.6213
   42MPD2     C  640   4.165   4.222  14.414 -0.0349 -0.1055  0.6196
   42MPD2    C1  641   4.098   4.342  14.382 -0.3120 -0.1332  0.4196
   42MPD2    C2  642   4.006   4.391  14.471  0.6122 -0.5844  1.2088
   42MPD2    C3  643   3.983   4.328  14.595  0.1329  1.3096  0.1616
   42MPD2    C4  644   4.063   4.217  14.630  0.3714  0.3489  0.5635
   42MPD2    C5  645   4.147   4.163  14.533  0.1368 -0.2940 -0.2662
   42MPD2     H  646   3.947   4.475  14.437 -0.4086 -1.5836  0.5090
   42MPD2    H1  647   4.064   4.180  14.732 -1.8127 -2.2398 -0.3593
   42MPD2    H2  648   4.235   4.178  14.345  0.3194 -0.5294  1.2487
   42MPD2    H3  649   4.202   4.077  14.570  0.0705  0.0511  0.6329
   42MPD2     N  650   3.888   4.374  14.690 -0.2510  0.1717 -0.2850
   42MPD2    H5  651   3.893   4.312  14.770  1.0516 -1.4720 -1.6422
   42MPD2    N1  652   4.115   4.406  14.253  0.2038  0.0596 -0.2239
   42MPD2    H7  653   4.064   4.491  14.234 -1.6795 -0.8434  0.7535
   43MPD2     C  654   0.526   3.473  17.502 -0.4207  0.7228  0.3243
   43MPD2    C1  655   0.602   3.400  17.585  0.6429  0.5448 -0.4220
   43MPD2    C2  656   0.674   3.456  17.691  0.0658  0.2347  0.2379
   43MPD2    C3  657   0.671   3.595   0.008 -0.2105  0.2194 -0.8559
   43MPD2    C4  658   0.600   3.673  17.616  0.2241  0.0900  0.0849
   43MPD2    C5  659   0.524   3.610  17.521 -0.0744 -0.6458 -0.2772
   43MPD2     H  660   0.733   3.391   0.053 -2.3040 -1.9765  0.1686
   43MPD2    H1  661   0.613   3.780  17.628 -3.3632  0.4896  0.3273
   43MPD2    H2  662   0.451   3.437  17.433  0.4225 -1.4869  0.5634
   43MPD2    H3  663   0.457   3.658  17.451 -1.2107  0.3096  1.4426
   43MPD2     N  664   0.737   3.664   0.110 -0.3923 -0.1027 -0.3831
   43MPD2    H5  665   0.728   3.765   0.102 -4.4360 -0.4781 -0.5345
   43MPD2    N1  666   0.593   3.256  17.570  0.5328 -0.2729  0.0106
   43MPD2    H7  667   0.636   3.203  17.645 -2.6070 -1.8675  0.6781
   44TCq2    C1  668   0.744   4.019   0.450  0.7572  0.1602 -0.0857
   44TCq2    O2  669   0.740   4.089   0.348  0.2225  0.4849  0.6722
   44TCq2    C2  670   0.812   3.890   0.437  1.0374  0.1620 -0.0776
   44TCq2    C3  671   0.876   3.833   0.549  0.3000  0.5166 -0.7169
   44TCq2    C4  672   0.927   3.704   0.537  0.8669 -0.4757 -0.4043
   44TCq2    C5  673   0.916   3.631   0.423  0.5892 -0.7679  0.8589
   44TCq2    C6  674   0.846   3.694   0.320 -0.1734  0.0385 -0.1077
   44TCq2    C7  675   0.806   3.827   0.313  0.1650 -0.0574 -0.1872
   44TCq2    C8  676   0.813   3.609   0.207  0.0797 -0.3472  0.9597
   44TCq2    O4  677   0.851   3.494   0.212  0.3008  0.2495  0.1127
   44TCq2    C9  678   0.979   3.639   0.655 -0.2017  0.6950  0.3030
   44TCq2    O5  679   1.035   3.528   0.653  0.0639 -0.0121 -0.4671
   44TCq2    O6  680   0.941   3.695   0.758  0.2667  0.5718  0.4441
   44TCq2    H2  681   0.895   3.880   0.645  1.5149 -2.3391  0.4285
   44TCq2    H3  682   0.936   3.524   0.421  0.2285 -0.7920 -2.8393
   44TCq2    H4  683   0.767   3.868   0.221 -0.0916 -0.2683 -0.1706
   45TMC2    C1  684   1.610   3.888  10.213 -0.1060  0.1385  0.7179
   45TMC2    C2  685   1.544   3.879  10.328  0.1107  0.5820  0.6954
   45TMC2    C3  686   1.511   4.000  10.383 -0.0637 -0.3239 -0.0152
   45TMC2    C4  687   1.663   4.007  10.169  0.4088  0.2381 -0.0057
   45TMC2    C5  688   1.608   4.120  10.215  0.1467  0.0475 -0.0086
   45TMC2    C6  689   1.528   4.125  10.320 -0.5284  0.4470 -0.5979
   45TMC2     C  690   1.556   3.804  10.112 -0.4404  0.2200 -0.8140
   45TMC2     O  691   1.515   3.694  10.142  0.5198 -0.9151 -0.2923
   45TMC2     H  692   1.509   3.779  10.354  0.2865  0.2895 -0.1733
   45TMC2    H1  693   1.728   4.011  10.083  0.2789 -1.8514 -0.1976
   45TMC2    H2  694   1.495   4.218  10.364 -2.9999 -0.6318 -0.1372
   45TMC2    C7  695   1.601   4.223  10.111  0.4063 -0.0934 -0.4635
   45TMC2    C8  696   1.465   4.004  10.522 -0.5582 -0.3377  0.4395
   45TMC2    O1  697   1.592   4.168  10.003 -0.6421  0.3674  0.2815
   45TMC2    O2  698   1.517   4.066  10.616 -0.2156 -0.3649 -0.4752
   45TMC2    O5  699   1.387   3.893  10.531 -0.6235  0.1594 -0.4023
   45TMC2    H5  700   1.341   3.869  10.448  0.6564 -0.3520 -0.9625
   46MPD2     C  701   1.394   3.708   9.872 -0.5115  0.5311  0.6252
   46MPD2    C1  702   1.438   3.834   9.891 -0.9632 -0.0940  0.4014
   46MPD2    C2  703   1.386   3.937   9.809  0.0867 -0.0357  0.0186
   46MPD2    C3  704   1.301   3.901   9.698 -0.3928 -1.0790 -0.0089
   46MPD2    C4  705   1.273   3.769   9.678 -0.3578  0.0429  0.6411
   46MPD2    C5  706   1.317   3.679   9.767  0.0012 -0.3887 -0.2690
   46MPD2     H  707   1.406   4.040   9.834  0.5765  0.6346 -3.0630
   46MPD2    H1  708   1.217   3.728   9.595 -0.2726  1.2257  0.0065
   46MPD2    H2  709   1.426   3.627   9.937  0.7941  1.4001  1.0875
   46MPD2    H3  710   1.289   3.577   9.741 -1.7169 -0.0842  0.4091
   46MPD2     N  711   1.233   4.005   9.619  0.3382 -0.0672  0.3753
   46MPD2    H5  712   1.241   4.100   9.652 -2.0238  0.4058 -0.3934
   46MPD2    N1  713   1.516   3.876  10.000 -0.1389  0.4352  0.0651
   46MPD2    H7  714   1.538   3.975  10.002 -0.4757  0.5236 -0.6602
   47TMC2    C1  715   3.438   0.838   9.065  0.5966  0.5017  0.3063
   47TMC2    C2  716   3.476   0.822   8.934  0.5297 -0.4267  0.5759
   47TMC2    C3  717   3.407   0.889   8.834  0.8204 -0.0607  0.3205
   47TMC2    C4  718   3.334   0.913   9.096 -0.5070  0.5097  0.2758
   47TMC2    C5  719   3.250   0.968   8.998 -0.0590  0.2855 -0.1344
   47TMC2    C6  720   3.284   0.953   8.862 -0.0636  0.3059 -0.2522
   47TMC2     C  721   3.543   0.843   9.160  0.2859  0.0332 -0.5346
   47TMC2     O  722   3.530   0.912   9.255  0.3945  0.1723 -0.1561
   47TMC2     H  723   3.567   0.771   8.905  2.5180  2.0658  2.4475
   47TMC2    H1  724   3.314   0.939   9.200  0.8143  1.9211  0.1737
   47TMC2    H2  725   3.213   0.983   8.786 -0.5080 -0.3817 -0.1088
   47TMC2    C7  726   3.123   1.024   9.036 -0.8146  0.0845 -0.7065
   47TMC2    C8  727   3.433   0.843   8.703  0.0092  0.2712 -0.1745
   47TMC2    O1  728   3.046   1.082   8.958 -0.8221 -0.0659 -0.5286
   47TMC2    O2  729   3.506   0.750   8.672  0.3600  0.3430  0.6687
   47TMC2    O5  730   3.390   0.929   8.608 -0.2058  0.2371  0.1623
   47TMC2    H5  731   3.332   1.002   8.641 -0.0213  0.1983  0.5684
   48MPD2     C  732   3.808   0.823   9.285 -0.5700 -0.6951 -0.5463
   48MPD2    C1  733   3.759   0.731   9.206 -0.4089  0.2919 -0.4905
   48MPD2    C2  734   3.834   0.617   9.174  0.1098  0.1316 -0.7223
   48MPD2    C3  735   3.942   0.584   9.247 -0.1278  0.3619  0.2639
   48MPD2    C4  736   3.991   0.669   9.343 -0.1703 -0.6969  0.1352
   48MPD2    C5  737   3.924   0.791   9.355  0.2862 -0.5667  0.3268
   48MPD2     H  738   3.792   0.543   9.107  0.1800 -2.0334  1.6281
   48MPD2    H1  739   4.087   0.658   9.390 -1.5215  1.3359  3.3579
   48MPD2    H2  740   3.754   0.914   9.306  0.8604 -0.0487  0.3458
   48MPD2    H3  741   3.952   0.872   9.422 -0.7042  0.0937 -0.0478
   48MPD2     N  742   3.993   0.450   9.219  0.6668  0.0277  0.2318
   48MPD2    H5  743   3.943   0.393   9.151 -0.5633  0.4676  0.7839
   48MPD2    N1  744   3.640   0.747   9.134 -0.2457  0.4215 -0.0311
   48MPD2    H7  745   3.624   0.677   9.062 -0.0946  0.9785 -0.6079
   49MPD2     C  746   1.396   1.730   9.878  0.3358 -0.6762  0.3701
   49MPD2    C1  747   1.480   1.723   9.989  0.0420  0.2612  0.3355
   49MPD2    C2  748   1.505   1.842  10.055  0.2109  0.1491 -0.3953
   49MPD2    C3  749   1.465   1.965  10.006 -0.4906  0.2956  0.4512
   49MPD2    C4  750   1.393   1.971   9.888  1.0944  0.7310 -0.0704
   49MPD2    C5  751   1.355   1.851   9.827 -0.1530 -1.0049  0.1874
   49MPD2     H  752   1.578   1.852  10.134 -0.5631 -1.4871  0.5339
   49MPD2    H1  753   1.371   2.067   9.841  2.1271  1.9605  1.9667
   49MPD2    H2  754   1.376   1.640   9.821  1.5888 -0.5110 -0.3214
   49MPD2    H3  755   1.300   1.857   9.734 -0.1896  0.6990  0.3180
   49MPD2     N  756   1.495   2.086  10.072 -0.2828  0.2971  0.1398
   49MPD2    H5  757   1.471   2.166  10.014 -0.1748  0.5859  0.4969
   49MPD2    N1  758   1.540   1.604  10.042 -0.1330  0.6482  0.4414
   49MPD2    H7  759   1.573   1.613  10.138  0.7141  0.2446  0.1803
   50TCq2    C1  760   1.534   1.482   9.980  0.4800  0.0367  0.0249
   50TCq2    O2  761   1.505   1.458   9.863  0.0859  1.0947 -0.3648
   50TCq2    C2  762   1.581   1.360  10.056 -0.6907 -0.3334 -0.3833
   50TCq2    C3  763   1.601   1.252   9.973  0.5961 -0.1932 -0.0948
   50TCq2    C4  764   1.678   1.153  10.017  0.3217  0.2670 -0.3935
   50TCq2    C5  765   1.734   1.156  10.138  0.2267  0.1001  0.4938
   50TCq2    C6  766   1.726   1.271  10.214 -0.1608  0.9338  0.7437
   50TCq2    C7  767   1.645   1.373  10.177 -1.0857  0.1730  0.0502
   50TCq2    C8  768   1.792   1.291  10.340  0.3794  0.1456  0.4000
   50TCq2    O4  769   1.750   1.378  10.416  0.1682 -0.3050  0.1713
   50TCq2    C9  770   1.726   1.058   9.913  0.2345 -0.1900  0.4155
   50TCq2    O5  771   1.682   1.074   9.793 -0.0649  0.5108 -1.0208
   50TCq2    O6  772   1.805   0.970   9.951 -0.2666  0.1926  0.2918
   50TCq2    H2  773   1.567   1.242   9.871  0.5112  2.3818 -0.3317
   50TCq2    H3  774   1.795   1.074  10.173 -0.7517 -0.2489  1.3584
   50TCq2    H4  775   1.641   1.461  10.239 -2.5117  0.1049  0.0646
   51MPD2     C  776   1.702   1.961   0.294 -0.1990 -0.5109 -0.2621
   51MPD2    C1  777   1.786   1.953   0.403 -0.0250  0.5905 -0.5872
   51MPD2    C2  778   1.762   2.044   0.509  0.0962  0.1778  0.1880
   51MPD2    C3  779   1.650   2.124   0.502  0.6859 -0.5442  0.1614
   51MPD2    C4  780   1.568   2.122   0.395  0.6490  0.2298 -0.1666
   51MPD2    C5  781   1.591   2.040   0.287 -0.1090 -0.0767 -0.7305
   51MPD2     H  782   1.828   2.036   0.595  1.2957  1.3042 -0.6352
   51MPD2    H1  783   1.488   2.194   0.388  0.5428  0.3598  2.4593
   51MPD2    H2  784   1.702   1.881   0.221  0.3590  0.9098 -1.8111
   51MPD2    H3  785   1.517   2.033   0.208 -1.1335  2.2323  0.0095
   51MPD2     N  786   1.623   2.222   0.598 -0.1630 -0.1228 -0.2991
   51MPD2    H5  787   1.535   2.267   0.577  0.6511  2.0140  0.8357
   51MPD2    N1  788   1.893   1.867   0.410  0.2603  0.3845  0.9325
   51MPD2    H7  789   1.950   1.865   0.494 -0.3830 -0.1600  1.3595
   52TCq2    C1  790   1.698   2.256   0.710 -0.3833 -1.6020  0.7833
   52TCq2    O2  791   1.800   2.200   0.747 -0.1267 -0.3072 -0.9303
   52TCq2    C2  792   1.645   2.368   0.790  0.3938 -0.4499  0.5993
   52TCq2    C3  793   1.547   2.449   0.735 -0.2379  0.0082  0.9862
   52TCq2    C4  794   1.537   2.581   0.780  0.2446 -0.4132 -0.2442
   52TCq2    C5  795   1.609   2.617   0.893  0.8088  0.1841  0.3409
   52TCq2    C6  796   1.700   2.528   0.955 -0.0802 -0.0520  0.1994
   52TCq2    C7  797   1.713   2.401   0.898 -0.8310 -0.3207  0.6228
   52TCq2    C8  798   1.787   2.571   1.069 -0.8292  0.1612 -0.2356
   52TCq2    O4  799   1.788   2.689   1.085 -0.2473 -0.1696  0.4122
   52TCq2    C9  800   1.441   2.674   0.716  0.2044  0.0329  0.3566
   52TCq2    O5  801   1.377   2.628   0.621 -0.4245  0.7317 -0.5417
   52TCq2    O6  802   1.433   2.788   0.770  0.0202 -0.3251  0.1679
   52TCq2    H2  803   1.476   2.416   0.660  0.9075  0.2461 -0.1908
   52TCq2    H3  804   1.606   2.720   0.926 -0.3375  0.4220 -0.4719
   52TCq2    H4  805   1.779   2.321   0.928  2.7348  2.8911  1.3247
   53TMC2    C1  806   2.628   0.147  11.975  0.6401  0.5207  0.2271
   53TMC2    C2  807   2.691   0.107  12.091 -0.2315  0.8498  0.1154
   53TMC2    C3  808   2.627   0.119  12.206 -0.1361 -0.1516 -0.1502
   53TMC2    C4  809   2.512   0.220  11.979 -0.0831 -0.0566  0.0075
   53TMC2    C5  810   2.459   0.235  12.102  0.0719  0.5242 -0.5659
   53TMC2    C6  811   2.514   0.189  12.225 -0.0626  0.1234 -0.2682
   53TMC2     C  812   2.657   0.079  11.853 -0.2542 -0.8950  0.1437
   53TMC2     O  813   2.764   0.028  11.830 -0.0731 -0.4946 -0.1115
   53TMC2     H  814   2.766   0.030  12.079 -2.3534 -0.8503 -2.2452
   53TMC2    H1  815   2.480   0.276  11.893  0.5882  1.5773  0.8273
   53TMC2    H2  816   2.472   0.214  12.322  1.7931 -2.1645  1.1229
   53TMC2    C7  817   2.314   0.269  12.093  0.0396  0.1234  0.2496
   53TMC2    C8  818   2.706   0.101  12.325  0.0350  0.4214  0.0809
   53TMC2    O1  819   2.269   0.265  11.977  0.3447 -0.2978 -0.7066
   53TMC2    O2  820   2.664   0.033  12.420  0.1304  0.0525  0.7306
   53TMC2    O5  821   2.834   0.125  12.309  0.6488  0.1809  0.3205
   53TMC2    H5  822   2.841   0.195  12.240 -2.1799  0.8106  0.6811
   54MPD2     C  823   2.637   4.624  11.606  0.5377 -0.5924  0.3619
   54MPD2    C1  824   2.535   4.708  11.663 -0.1918 -0.3118 -1.4295
   54MPD2    C2  825   2.414   4.710  11.595  0.0415  0.2949 -0.4793
   54MPD2    C3  826   2.390   4.630  11.487  0.4546 -0.1315  0.3901
   54MPD2    C4  827   2.494   4.548  11.442 -0.3157  0.0745 -0.1574
   54MPD2    C5  828   2.613   4.544  11.496  0.2263 -0.4656 -0.2707
   54MPD2     H  829   2.338   0.054  11.630 -0.8974  0.0483 -2.0568
   54MPD2    H1  830   2.479   4.490  11.352 -2.5011 -1.8126  1.4294
   54MPD2    H2  831   2.734   4.607  11.650  2.4002  2.1500 -2.6373
   54MPD2    H3  832   2.694   4.504  11.436  0.7372  0.5861 -0.2917
   54MPD2     N  833   2.268   4.637  11.410  0.4290  0.4071  0.0373
   54MPD2    H5  834   2.248   4.563  11.344 -0.2072  0.9441 -0.3749
   54MPD2    N1  835   2.545   0.067  11.780 -0.3564  0.5290  0.0702
   54MPD2    H7  836   2.459   0.114  11.806 -1.6034 -1.7481  0.0620
   55MPD2     C  837   3.032   3.564   0.294  0.4198  0.4347  0.3113
   55MPD2    C1  838   3.035   3.427   0.265  0.4836 -0.1230 -0.3119
   55MPD2    C2  839   2.964   3.350   0.351  0.6843 -0.0221 -0.9233
   55MPD2    C3  840   2.883   3.400   0.454 -0.3738  0.8297  0.0311
   55MPD2    C4  841   2.891   3.528   0.489  0.3859  0.2952  0.1944
   55MPD2    C5  842   2.972   3.612   0.413 -0.3676 -0.0304  0.3501
   55MPD2     H  843   2.953   3.244   0.332  0.8977 -0.5814  2.0715
   55MPD2    H1  844   2.841   3.570   0.576  0.4840 -1.3319  1.0510
   55MPD2    H2  845   3.074   3.653   0.247  0.1342 -0.4635 -1.6509
   55MPD2    H3  846   3.004   3.712   0.440 -0.6545  0.4656 -1.1793
   55MPD2     N  847   2.786   3.315   0.505 -0.3359 -0.2249  0.2686
   55MPD2    H5  848   2.781   3.218   0.474  0.9625 -0.0076 -0.5829
   55MPD2    N1  849   3.110   3.374   0.160 -0.5928 -0.1274 -0.7488
   55MPD2    H7  850   3.139   3.445   0.094  3.0434  0.6188  1.6704
   56TCq2    C1  851   3.130   3.244   0.131 -0.1713  0.0160 -0.2273
   56TCq2    O2  852   3.099   3.144   0.199 -0.3594  0.4455  0.2310
   56TCq2    C2  853   3.166   3.222  17.694 -0.0377 -0.1556  0.8907
   56TCq2    C3  854   3.146   3.327  17.599 -0.1487  0.0859 -0.0968
   56TCq2    C4  855   3.177   3.295  17.466 -0.1663 -0.4216  0.7076
   56TCq2    C5  856   3.191   3.168  17.425 -0.3191 -0.5378  0.6656
   56TCq2    C6  857   3.194   3.068  17.516 -0.0647  0.2889  0.3558
   56TCq2    C7  858   3.185   3.098  17.650  0.0758 -0.9003 -0.4038
   56TCq2    C8  859   3.230   2.933  17.467 -0.7440 -0.3696  0.3560
   56TCq2    O4  860   3.268   2.914  17.353  0.2325 -0.3149  0.1294
   56TCq2    C9  861   3.156   3.410  17.376 -1.3410  0.0926  0.4937
   56TCq2    O5  862   3.190   3.393  17.255 -0.1441  0.0636  0.5037
   56TCq2    O6  863   3.122   3.519  17.432 -0.2457  0.5702  0.1543
   56TCq2    H2  864   3.127   3.430  17.624 -1.5683 -0.5023  1.2951
   56TCq2    H3  865   3.199   3.150  17.319  1.2003  0.0376  0.6798
   56TCq2    H4  866   3.196   3.022   0.024 -2.8130  0.8031  1.7475
   57TMC2    C1  867   2.486   3.418  13.381 -0.6792  0.1406 -0.7378
   57TMC2    C2  868   2.531   3.346  13.491  0.7792  0.2943  0.6826
   57TMC2    C3  869   2.650   3.380  13.542 -0.2483 -0.0361 -0.6235
   57TMC2    C4  870   2.563   3.524  13.338  0.2910 -0.2888  0.0212
   57TMC2    C5  871   2.679   3.555  13.399 -0.1280 -0.3783 -0.1349
   57TMC2    C6  872   2.725   3.484  13.501  0.6265 -0.2212  0.2678
   57TMC2     C  873   2.365   3.373  13.325  0.4256  0.8525 -1.1487
   57TMC2     O  874   2.294   3.315  13.403  0.1114 -0.3007  0.4583
   57TMC2     H  875   2.473   3.264  13.531 -0.6168  0.4839 -0.9230
   57TMC2    H1  876   2.532   3.584  13.254 -0.1797 -1.6029 -0.7477
   57TMC2    H2  877   2.828   3.488  13.534  0.8775 -0.2854 -0.4901
   57TMC2    C7  878   2.769   3.608  13.304 -0.5876  0.3212  0.2169
   57TMC2    C8  879   2.712   3.287  13.635  0.1969  0.4275  0.2332
   57TMC2    O1  880   2.737   3.701  13.231 -0.3997  0.2118  0.1269
   57TMC2    O2  881   2.814   3.315  13.696  0.1909 -0.1587  0.0158
   57TMC2    O5  882   2.682   3.161  13.611 -0.2945  0.0712 -0.7480
   57TMC2    H5  883   2.598   3.154  13.560 -0.2492  0.3542 -0.8639
   58MPD2     C  884   1.948   3.559  13.097 -0.2829  0.1617  0.3150
   58MPD2    C1  885   1.986   3.547  13.229  0.0869 -0.0025  0.3870
   58MPD2    C2  886   2.108   3.499  13.261 -0.8145  0.5074  0.1125
   58MPD2    C3  887   2.198   3.460  13.165  0.0162 -0.4023  0.9026
   58MPD2    C4  888   2.161   3.466  13.032 -0.5869  0.2173 -0.3228
   58MPD2    C5  889   2.033   3.507  12.997 -0.1349 -0.4427  0.0788
   58MPD2     H  890   2.138   3.497  13.365  1.7733 -0.7307 -0.6408
   58MPD2    H1  891   2.237   3.452  12.956  0.0128 -1.8047  0.6475
   58MPD2    H2  892   1.853   3.601  13.066 -1.5757 -1.8836  1.4589
   58MPD2    H3  893   2.009   3.514  12.891  4.4567 -1.5790 -1.0267
   58MPD2     N  894   2.331   3.436  13.206 -0.2768 -0.0410 -0.4849
   58MPD2    H5  895   2.400   3.474  13.142  1.2162 -1.0684  0.5338
   58MPD2    N1  896   1.909   3.602  13.333  0.0476 -0.1364 -0.1334
   58MPD2    H7  897   1.949   3.600  13.427  1.9016  0.9507 -0.9034
   59MPD2     C  898   0.042   3.557  13.079  0.2310  0.1664 -0.2553
   59MPD2    C1  899   0.105   3.616  12.966  0.1653 -0.6489 -0.2013
   59MPD2    C2  900   0.187   3.729  12.983  0.9255  0.0186  0.0917
   59MPD2    C3  901   0.217   3.766  13.111 -0.8011  0.2831  0.4604
   59MPD2    C4  902   0.163   3.698  13.221 -0.3517 -0.4688  0.0511
   59MPD2    C5  903   0.078   3.599  13.206  0.4303  0.0036 -0.0404
   59MPD2     H  904   0.236   3.783  12.903 -0.1807 -0.9483 -1.2393
   59MPD2    H1  905   0.183   3.723  13.325 -1.2402  0.6578 -0.0382
   59MPD2    H2  906   4.704   3.469  13.077  0.4730 -0.0349  0.6579
   59MPD2    H3  907   0.042   3.544  13.291 -2.2422 -0.0126 -1.1923
   59MPD2     N  908   0.304   3.878  13.135 -0.0609 -0.1174  0.5674
   59MPD2    H5  909   0.309   3.897  13.235 -2.9109 -1.3774  0.9446
   59MPD2    N1  910   0.076   3.559  12.836  0.6982 -0.0272 -0.4881
   59MPD2    H7  911   0.006   3.485  12.840 -0.3914  0.9382 -1.9389
   60TCq2    C1  912   0.113   3.610  12.719 -0.1292  0.3446 -0.8828
   60TCq2    O2  913   0.197   3.691  12.688  0.1359  0.1461  0.0984
   60TCq2    C2  914   0.059   3.534  12.604 -0.3061 -0.0445  0.3139
   60TCq2    C3  915   4.694   3.439  12.627  0.0062  0.4981 -0.0922
   60TCq2    C4  916   4.673   3.344  12.532  0.4202 -0.0339  0.4514
   60TCq2    C5  917   0.009   3.355  12.414  0.1452  0.2917  0.4668
   60TCq2    C6  918   0.103   3.454  12.393 -0.3978  0.3172 -0.3453
   60TCq2    C7  919   0.133   3.540  12.491 -0.2480  0.2879  0.7703
   60TCq2    C8  920   0.170   3.463  12.268  0.8258  0.5248 -0.0048
   60TCq2    O4  921   0.182   3.360  12.202  0.4532  0.2049  0.5494
   60TCq2    C9  922   4.586   3.234  12.551 -0.3097  0.6183 -0.1993
   60TCq2    O5  923   4.537   3.222  12.663 -0.2072  0.5033 -0.0521
   60TCq2    O6  924   4.588   3.145  12.464  0.2105 -0.4955 -0.0148
   60TCq2    H2  925   4.631   3.435  12.715 -2.7781 -2.1554 -2.1692
   60TCq2    H3  926   4.713   3.290  12.330 -1.5469  0.2384  0.9455
   60TCq2    H4  927   0.209   3.615  12.475  2.4543 -2.3253  1.2463
   61MPD2     C  928   3.831   0.173  14.585  0.1613 -1.2809 -0.5965
   61MPD2    C1  929   3.911   0.290  14.597 -0.6571  0.1896  0.5316
   61MPD2    C2  930   3.876   0.398  14.521 -0.9649 -0.5017  0.2027
   61MPD2    C3  931   3.755   0.398  14.452 -0.1319 -0.1901 -0.7839
   61MPD2    C4  932   3.675   0.284  14.446 -0.3824  0.4926  1.0292
   61MPD2    C5  933   3.713   0.168  14.508  0.4354 -0.2009 -0.1312
   61MPD2     H  934   3.933   0.490  14.528 -1.3798 -0.0757 -1.9758
   61MPD2    H1  935   3.592   0.289  14.376  0.9497 -0.8271 -0.6360
   61MPD2    H2  936   3.864   0.079  14.628  0.4561 -1.4387 -1.1765
   61MPD2    H3  937   3.654   0.078  14.496  1.8195 -1.2553  0.8346
   61MPD2     N  938   3.713   0.516  14.383 -0.0871  0.3046 -0.4793
   61MPD2    H5  939   3.616   0.519  14.354  0.1864  0.4859 -1.3591
   61MPD2    N1  940   4.026   0.306  14.678 -1.1746 -0.1217  0.0991
   61MPD2    H7  941   4.067   0.399  14.681 -3.7099  1.0650 -1.6860
   62TCq2    C1  942   4.065   0.213  14.769 -0.6243  0.2512 -0.4308
   62TCq2    O2  943   4.030   0.094  14.780 -0.1029  0.0631  0.0429
   62TCq2    C2  944   4.133   0.273  14.880  0.0747  0.0238  0.1920
   62TCq2    C3  945   4.208   0.190  14.964  0.6103 -0.0696 -0.5025
   62TCq2    C4  946   4.264   0.241  15.078 -0.3094 -0.0523 -0.0738
   62TCq2    C5  947   4.238   0.368  15.115 -0.6707 -0.4274  0.4324
   62TCq2    C6  948   4.159   0.446  15.041  0.5292 -0.5093 -0.0602
   62TCq2    C7  949   4.116   0.404  14.917  0.3030  0.2518 -0.2280
   62TCq2    C8  950   4.131   0.581  15.083 -0.0239 -0.0279  0.3946
   62TCq2    O4  951   4.111   0.658  14.987  0.6322 -0.2850 -0.1614
   62TCq2    C9  952   4.342   0.154  15.157  0.0065  0.2330  0.6076
   62TCq2    O5  953   4.349   0.032  15.127  0.2714 -0.3679  0.2138
   62TCq2    O6  954   4.427   0.214  15.222 -0.0369  0.1479  0.0597
   62TCq2    H2  955   4.225   0.084  14.946 -1.3705 -0.2445 -1.3889
   62TCq2    H3  956   4.266   0.395  15.216 -1.5255  2.4508 -0.0892
   62TCq2    H4  957   4.056   0.464  14.850  0.9873  0.9703 -0.1959
   63TMC2    C1  958   3.736   0.136  10.530 -0.2810 -0.1699 -0.6135
   63TMC2    C2  959   3.823   0.142  10.635  0.0561  0.0687 -0.5083
   63TMC2    C3  960   3.952   0.186  10.599 -1.0293  0.3696  0.4327
   63TMC2    C4  961   3.765   0.162  10.403 -0.5729  0.6227 -0.6703
   63TMC2    C5  962   3.897   0.205  10.381 -0.0756  0.3186  0.3006
   63TMC2    C6  963   3.991   0.222  10.478  0.1190 -0.5076  0.6997
   63TMC2     C  964   3.619   0.048  10.559  0.6284 -0.4516  0.4722
   63TMC2     O  965   3.555   0.078  10.660  0.0861 -0.5742  0.3967
   63TMC2     H  966   3.788   0.112  10.734  3.8456 -2.0928  0.1706
   63TMC2    H1  967   3.697   0.159  10.319 -1.2838  1.3029 -0.1182
   63TMC2    H2  968   4.096   0.217  10.451 -0.4546  1.4107 -1.9031
   63TMC2    C7  969   3.922   0.263  10.247  0.5809  0.6533  0.0990
   63TMC2    C8  970   4.038   0.188  10.717  0.2272  0.4742  0.0069
   63TMC2    O1  971   3.845   0.236  10.156  0.0975 -0.7794 -0.1017
   63TMC2    O2  972   4.000   0.149  10.826 -0.2242 -0.3890 -0.2380
   63TMC2    O5  973   4.154   0.259  10.693  0.4775 -0.1448 -0.5688
   63TMC2    H5  974   4.158   0.306  10.607  0.4438  3.0616  1.1617
   64MPD2     C  975   3.298   4.384  10.504  0.0766  0.3059 -0.0932
   64MPD2    C1  976   3.425   4.346  10.451 -0.0723  0.5524 -0.4796
   64MPD2    C2  977   3.520   4.444  10.449 -1.0341 -0.2064 -0.1319
   64MPD2    C3  978   3.499   4.577  10.491 -0.3802 -0.2762 -0.1678
   64MPD2    C4  979   3.376   4.601  10.554  0.2690  0.6100 -0.2468
   64MPD2    C5  980   3.277   4.506  10.560  0.0403 -0.3295 -0.0499
   64MPD2     H  981   3.618   4.415  10.414 -1.3421  0.3867 -1.4546
   64MPD2    H1  982   3.355   4.694  10.605 -1.2198  0.2731 -0.2227
   64MPD2    H2  983   3.222   4.314  10.536  1.4387 -0.5317  1.3110
   64MPD2    H3  984   3.183   4.532  10.608  0.3547 -0.3508  0.5728
   64MPD2     N  985   3.607   4.667  10.479  0.1215  0.1412  0.0452
   64MPD2    H5  986   3.685   4.634  10.423  0.2491 -1.2347  1.0444
   64MPD2    N1  987   3.460   4.213  10.410  0.1731  0.3349 -0.4843
   64MPD2    H7  988   3.556   4.198  10.379  0.8287  1.0210  1.2238
   65MPD2     C  989   0.120   4.621  15.790 -0.2100  0.4705 -0.4875
   65MPD2    C1  990   0.112   4.617  15.655 -1.1249  0.4169  0.2724
   65MPD2    C2  991   0.099   4.491  15.593  0.3800  0.2051  0.1718
   65MPD2    C3  992   0.083   4.373  15.655 -0.1852 -0.4877 -0.4911
   65MPD2    C4  993   0.079   4.386  15.797  0.2656 -0.2480 -0.1141
   65MPD2    C5  994   0.097   4.505  15.858  0.4241 -0.3531  1.0740
   65MPD2     H  995   0.091   4.501  15.485  1.0967  3.2764  0.4078
   65MPD2    H1  996   0.076   4.297  15.858  3.4015 -0.7088 -0.6199
   65MPD2    H2  997   0.127   4.712  15.849 -2.4393 -1.0625  2.1735
   65MPD2    H3  998   0.100   4.515  15.966 -1.5301  0.8933  1.0140
   65MPD2     N  999   0.060   4.248  15.591 -0.2868 -0.3965  0.5582
   65MPD2    H5 1000   0.028   4.170  15.649 -0.1801 -0.5372  0.4282
   65MPD2    N1 1001   0.112   0.002  15.566  0.0974  0.1005  0.1226
   65MPD2    H7 1002   0.129   4.713  15.467  0.9074 -0.9446  0.4045
   66TCq2    C1 1003   0.134   0.130  15.616 -0.2612  0.1715  0.1481
   66TCq2    O2 1004   0.115   0.177  15.725  0.2502 -0.3580  0.5958
   66TCq2    C2 1005   0.194   0.207  15.504 -0.2940 -1.0758  0.6194
   66TCq2    C3 1006   0.263   0.149  15.397 -0.4275  0.3772 -0.4934
   66TCq2    C4 1007   0.311   0.231  15.298 -0.0318 -0.0040  0.0383
   66TCq2    C5 1008   0.306   0.364  15.310 -0.5514  0.8436 -0.0589
   66TCq2    C6 1009   0.245   0.420  15.420  0.5181 -0.2225 -0.1029
   66TCq2    C7 1010   0.197   0.340  15.520  0.0476  0.2611  0.0181
   66TCq2    C8 1011   0.204   0.564  15.413 -0.2084 -0.3313 -1.0179
   66TCq2    O4 1012   0.248   0.623  15.316  0.0384  0.0671 -0.2448
   66TCq2    C9 1013   0.359   0.160  15.185  0.0850 -0.8133 -0.1973
   66TCq2    O5 1014   0.283   0.072  15.144 -0.4590  0.3991  0.1982
   66TCq2    O6 1015   0.462   0.200  15.120 -0.1957  0.4143 -0.5187
   66TCq2    H2 1016   0.277   0.043  15.378 -2.0866 -0.2994  1.9989
   66TCq2    H3 1017   0.337   0.422  15.224  1.0991 -1.3752 -0.9288
   66TCq2    H4 1018   0.132   0.373  15.601 -1.6512 -1.3334 -0.6814
   67MPD2     C 1019   0.034   4.081  14.030 -0.3593 -0.0643  0.4304
   67MPD2    C1 1020   0.052   4.217  14.043 -0.3797  0.4867 -0.0446
   67MPD2    C2 1021   4.690   4.300  13.976 -0.8717 -0.2490  0.2037
   67MPD2    C3 1022   4.585   4.247  13.899 -0.3763 -0.9739  0.4537
   67MPD2    C4 1023   4.579   4.108  13.891  0.0092  0.0203  0.3166
   67MPD2    C5 1024   4.667   4.026  13.947  0.3379 -0.5607 -0.0247
   67MPD2     H 1025   4.701   4.406  13.993  0.8116 -0.7591  2.2712
   67MPD2    H1 1026   4.495   4.069  13.834 -0.2224  2.0442 -0.7169
   67MPD2    H2 1027   0.097   4.009  14.082 -0.8415  0.4908  1.7664
   67MPD2    H3 1028   4.664   3.918  13.934  0.5647 -0.0594 -4.2612
   67MPD2     N 1029   4.497   4.330  13.829  0.3641  0.1684 -0.4560
   67MPD2    H5 1030   4.417   4.289  13.781 -0.8862 -1.0436  2.6232
   67MPD2    N1 1031   0.137   4.282  14.135  0.1863  0.0829 -0.6553
   67MPD2    H7 1032   0.131   4.383  14.129 -2.4962  0.1765  3.3533
   68TCq2    C1 1033   0.219   4.228  14.228 -0.0937  0.2253  0.5524
   68TCq2    O2 1034   0.254   4.111  14.246 -0.1423 -0.0683 -0.0430
   68TCq2    C2 1035   0.293   4.328  14.299  0.1666  0.4492 -0.7352
   68TCq2    C3 1036   0.223   4.441  14.336 -0.0564  0.5656 -0.2231
   68TCq2    C4 1037   0.280   4.519  14.432  0.4051  0.6007  0.0998
   68TCq2    C5 1038   0.406   4.489  14.482 -0.2762  0.2993 -0.2695
   68TCq2    C6 1039   0.469   4.370  14.450 -0.3474  0.7593  0.3625
   68TCq2    C7 1040   0.413   4.284  14.352 -0.2247  0.5228  0.0074
   68TCq2    C8 1041   0.571   4.317  14.542  0.0464  0.4525 -0.4554
   68TCq2    O4 1042   0.642   4.232  14.487  0.1281  0.7078 -0.1620
   68TCq2    C9 1043   0.193   4.614  14.490 -0.1607  0.0978  0.2202
   68TCq2    O5 1044   0.069   4.611  14.454  0.6869  0.0891 -0.1321
   68TCq2    O6 1045   0.238   4.664  14.595  0.4493  0.0253 -0.0169
   68TCq2    H2 1046   0.118   4.451  14.313 -0.6605  0.4548  2.4977
   68TCq2    H3 1047   0.440   4.561  14.557  1.9229  2.1477 -3.0430
   68TCq2    H4 1048   0.460   4.192  14.320  1.4702  1.1696  0.6454
   69TMC2    C1 1049   2.024   0.661  12.169  1.1439  0.1379  0.3919
   69TMC2    C2 1050   1.978   0.603  12.055 -0.1973 -0.5570 -0.2219
   69TMC2    C3 1051   2.075   0.566  11.964  0.1735  0.0730  0.5266
   69TMC2    C4 1052   2.157   0.675  12.196  0.1457  0.7733  0.0924
   69TMC2    C5 1053   2.245   0.637  12.100 -0.3792  0.4004 -0.0753
   69TMC2    C6 1054   2.210   0.582  11.989  0.1647 -0.2296  0.4606
   69TMC2     C 1055   1.947   0.673  12.284  0.6449 -0.1587  0.0131
   69TMC2     O 1056   1.837   0.620  12.289 -0.4103  0.0946 -0.1109
   69TMC2     H 1057   1.873   0.583  12.038  0.1137 -2.3519  0.0647
   69TMC2    H1 1058   2.204   0.700  12.291  0.5488 -0.4284  0.2159
   69TMC2    H2 1059   2.280   0.540  11.918  0.3943 -1.0612  1.1779
   69TMC2    C7 1060   2.385   0.667  12.117 -0.6679 -0.1412 -0.1669
   69TMC2    C8 1061   2.025   0.477  11.858 -0.2520  0.5231  0.0484
   69TMC2    O1 1062   2.457   0.600  12.040 -0.7126 -0.2139 -0.2847
   69TMC2    O2 1063   1.928   0.407  11.864  0.3887 -0.4804  0.7538
   69TMC2    O5 1064   2.090   0.519  11.747 -0.1399 -0.1882 -0.3027
   69TMC2    H5 1065   2.132   0.606  11.756 -0.7403  0.1856 -1.1083
   70MPD2     C 1066   2.026   0.861  12.590 -0.5276 -0.0184 -0.7582
   70MPD2    C1 1067   1.964   0.770  12.510  0.1360  0.4231 -0.5594
   70MPD2    C2 1068   1.887   0.670  12.576  0.3564 -0.0835  0.1247
   70MPD2    C3 1069   1.884   0.678  12.717  0.5746 -0.6949 -0.1126
   70MPD2    C4 1070   1.927   0.788  12.787 -0.9551 -0.1462  0.7120
   70MPD2    C5 1071   2.000   0.878  12.719  0.3988  0.3057 -0.2169
   70MPD2     H 1072   1.838   0.589  12.523 -0.2879  0.0340  0.5512
   70MPD2    H1 1073   1.929   0.786  12.895  0.5637  0.8325  0.6955
   70MPD2    H2 1074   2.102   0.927  12.549  0.1749 -1.5391 -1.8874
   70MPD2    H3 1075   2.053   0.958  12.770  1.0092  0.6664 -1.4176
   70MPD2     N 1076   1.840   0.571  12.806 -0.2861 -0.1650 -0.0820
   70MPD2    H5 1077   1.853   0.587  12.905  0.6330  0.6032 -0.3160
   70MPD2    N1 1078   1.996   0.765  12.375  0.4369  0.7170 -0.1624
   70MPD2    H7 1079   2.069   0.827  12.341  0.4643  0.9050  0.2366
   71TMC2    C1 1080   3.527   1.919   1.382 -0.4548  0.1285 -0.2391
   71TMC2    C2 1081   3.584   1.953   1.503 -0.3480  0.4069  0.1858
   71TMC2    C3 1082   3.523   2.048   1.580 -0.3152 -0.2247 -0.2065
   71TMC2    C4 1083   3.421   1.982   1.331  1.0179  0.0021 -0.1385
   71TMC2    C5 1084   3.366   2.083   1.411 -0.1996  0.1730 -0.0158
   71TMC2    C6 1085   3.413   2.112   1.540 -0.3656  0.3349  0.0919
   71TMC2     C 1086   3.585   1.806   1.315 -0.4534 -1.0757 -0.2525
   71TMC2     O 1087   3.697   1.776   1.346 -0.3232  0.6392  0.5445
   71TMC2     H 1088   3.655   1.883   1.544 -1.0427 -1.7292 -2.3258
   71TMC2    H1 1089   3.403   1.962   1.225  0.4099  0.9816 -0.2241
   71TMC2    H2 1090   3.374   2.197   1.595 -1.8837  0.4146 -1.1150
   71TMC2    C7 1091   3.228   2.128   1.387 -0.6801  0.3669 -0.2362
   71TMC2    C8 1092   3.570   2.045   1.718 -0.8207  0.0520  0.5879
   71TMC2    O1 1093   3.188   2.205   1.471 -0.8183 -0.0493 -0.1410
   71TMC2    O2 1094   3.680   2.011   1.758 -0.1528 -0.0156 -0.0760
   71TMC2    O5 1095   3.468   2.099   1.791 -0.2485  0.4887 -0.2402
   71TMC2    H5 1096   3.377   2.073   1.766  0.5809 -0.7959 -1.9234
   72MPD2     C 1097   3.564   1.389   1.002  0.3658 -0.7588 -0.3602
   72MPD2    C1 1098   3.674   1.457   1.044 -0.3559  0.3012 -0.5760
   72MPD2    C2 1099   3.653   1.571   1.124 -0.6133  0.7190  0.4355
   72MPD2    C3 1100   3.530   1.619   1.154 -0.7015  0.3259 -0.0181
   72MPD2    C4 1101   3.424   1.557   1.093 -0.1796  0.2141 -0.1573
   72MPD2    C5 1102   3.440   1.442   1.022  0.1063 -0.2706  0.0670
   72MPD2     H 1103   3.735   1.637   1.152 -0.0210  0.6293 -1.1201
   72MPD2    H1 1104   3.321   1.589   1.095 -0.1812  0.1614  0.4375
   72MPD2    H2 1105   3.573   1.298   0.944 -0.4255 -0.2874 -1.2221
   72MPD2    H3 1106   3.349   1.401   0.979  0.0473  0.7534 -0.7891
   72MPD2     N 1107   3.503   1.741   1.225 -0.6391 -0.1002 -0.4872
   72MPD2    H5 1108   3.403   1.756   1.230 -0.6353  0.3460 -1.8205
   72MPD2    N1 1109   3.808   1.412   1.016  0.1513  0.3206 -0.0095
   72MPD2    H7 1110   3.879   1.480   1.039  1.1869 -1.0172  0.7363
   73TMC2    C1 1111   4.053   2.710  13.613  0.3929  0.1155  0.1104
   73TMC2    C2 1112   3.973   2.739  13.714 -0.0495  0.3060  0.2938
   73TMC2    C3 1113   3.990   2.685  13.835  0.3590 -0.6313 -0.1486
   73TMC2    C4 1114   4.161   2.618  13.632  0.0349 -0.3335  0.2924
   73TMC2    C5 1115   4.180   2.572  13.761 -0.1814 -0.6830 -0.2147
   73TMC2    C6 1116   4.099   2.602  13.865 -0.2246 -0.3001  0.4060
   73TMC2     C 1117   4.103   2.818  13.532 -0.2960 -0.6890  0.2689
   73TMC2     O 1118   4.225   2.809  13.510  0.1177  0.1823  0.1798
   73TMC2     H 1119   3.890   2.804  13.688  0.0703  0.2516 -0.2278
   73TMC2    H1 1120   4.223   2.576  13.554  0.9873  1.0668  0.2860
   73TMC2    H2 1121   4.117   2.560  13.963 -1.3993 -0.2825  0.6264
   73TMC2    C7 1122   4.319   2.589  13.794  0.0326  0.2699  0.4659
   73TMC2    C8 1123   3.891   2.739  13.926  0.2424  0.0690 -0.4246
   73TMC2    O1 1124   4.358   2.536  13.896 -0.0480 -0.1569  0.3109
   73TMC2    O2 1125   3.841   2.843  13.897  0.2946  0.3806 -0.0318
   73TMC2    O5 1126   3.907   2.677  14.049 -0.0670 -0.2333  0.1857
   73TMC2    H5 1127   3.949   2.589  14.057  1.6552  0.5924  0.2701
   74MPD2     C 1128   4.097   3.186  13.185  0.2160 -0.2373  0.1635
   74MPD2    C1 1129   4.197   3.142  13.273 -0.0552 -0.8201 -0.1259
   74MPD2    C2 1130   4.171   3.044  13.365  0.3593  0.3909  0.1690
   74MPD2    C3 1131   4.043   2.993  13.378  0.6022 -0.3564  0.2071
   74MPD2    C4 1132   3.944   3.033  13.298 -0.3165 -0.0078 -0.2016
   74MPD2    C5 1133   3.971   3.124  13.198  0.6420  0.4054 -0.4104
   74MPD2     H 1134   4.249   3.020  13.437  0.1396 -0.2963  0.1780
   74MPD2    H1 1135   3.844   2.991  13.305 -0.6235  0.4411 -2.0528
   74MPD2    H2 1136   4.119   3.260  13.109 -0.6576  0.2219  0.3610
   74MPD2    H3 1137   3.893   3.149  13.126 -1.0613 -0.6467  1.0701
   74MPD2     N 1138   4.008   2.900  13.480 -0.3390 -0.1181 -0.4208
   74MPD2    H5 1139   3.912   2.876  13.499 -0.3784 -0.1869 -0.7123
   74MPD2    N1 1140   4.324   3.206  13.257 -0.0417 -0.1682  0.0016
   74MPD2    H7 1141   4.334   3.289  13.198 -0.4465 -0.3577 -0.3353
   75TCq2    C1 1142   4.510   4.467  13.817 -0.8487  0.2122 -0.1697
   75TCq2    O2 1143   4.600   4.543  13.844  0.2149 -0.0532 -0.5925
   75TCq2    C2 1144   4.413   4.523  13.724  0.2555  0.4724 -0.0379
   75TCq2    C3 1145   4.372   4.644  13.751  0.0951 -0.4863  0.5786
   75TCq2    C4 1146   4.300   4.699  13.650  0.3233  0.4843  1.0605
   75TCq2    C5 1147   4.293   4.642  13.525 -0.0009 -0.0992  0.1513
   75TCq2    C6 1148   4.352   4.527  13.500  0.6554 -0.5937 -0.3742
   75TCq2    C7 1149   4.414   4.460  13.598 -0.5698 -0.0213  0.4599
   75TCq2    C8 1150   4.309   4.448  13.389 -0.5325  0.3022 -0.2049
   75TCq2    O4 1151   4.288   4.330  13.408  0.5615 -0.0515  0.1011
   75TCq2    C9 1152   4.223   0.096  13.669  0.0583  0.5506  0.4393
   75TCq2    O5 1153   4.245   0.156  13.776  0.2350 -0.8423  0.1044
   75TCq2    O6 1154   4.116   0.108  13.608 -0.2474 -0.1343  0.0575
   75TCq2    H2 1155   4.360   4.682  13.852  0.6669  0.9797  0.0935
   75TCq2    H3 1156   4.241   4.694  13.445 -0.8976 -1.3585 -0.0874
   75TCq2    H4 1157   4.464   4.367  13.574 -3.9532 -1.5392 -0.6507
   76MPD2     C 1158   3.671   0.675  12.101 -0.1631 -0.2777  0.6068
   76MPD2    C1 1159   3.614   0.591  12.003  0.0570  0.7191  0.4786
   76MPD2    C2 1160   3.687   0.490  11.951  0.1413  0.4929  0.0444
   76MPD2    C3 1161   3.812   0.457  11.998  0.5026 -0.5829  0.0193
   76MPD2    C4 1162   3.867   0.541  12.089  0.5890 -0.2220 -0.2413
   76MPD2    C5 1163   3.801   0.656  12.130  0.6893 -0.3872  0.7390
   76MPD2     H 1164   3.637   0.447  11.866  0.3373  2.4992 -1.0901
   76MPD2    H1 1165   3.965   0.517  12.128  1.8071  0.5493 -2.8512
   76MPD2    H2 1166   3.621   0.762  12.143  1.9090  0.7599  0.9264
   76MPD2    H3 1167   3.846   0.725  12.200  1.0883  1.1069 -0.9994
   76MPD2     N 1168   3.889   0.344  11.962 -0.4457 -0.3273  0.0501
   76MPD2    H5 1169   3.978   0.327  12.006  0.6434  2.5943 -1.0085
   76MPD2    N1 1170   3.484   0.605  11.960  0.2797  0.8661  0.0207
   76MPD2    H7 1171   3.458   0.546  11.882 -0.7842  1.2135  0.1060
   77TCq2    C1 1172   3.849   0.252  11.870  0.4229 -0.6866 -0.5195
   77TCq2    O2 1173   3.758   0.261  11.790 -0.3562 -0.3869  0.1325
   77TCq2    C2 1174   3.943   0.139  11.869 -0.0616 -0.3551  0.2109
   77TCq2    C3 1175   3.951   0.058  11.759 -0.0124 -0.3432  0.6274
   77TCq2    C4 1176   3.998   4.652  11.776  0.5669  0.6825  0.2072
   77TCq2    C5 1177   4.039   4.602  11.897  0.1821  0.7888 -0.4858
   77TCq2    C6 1178   4.029   4.689  12.006 -0.2709  0.1290  0.1504
   77TCq2    C7 1179   3.973   0.088  11.994 -0.3624  0.1273 -0.3079
   77TCq2    C8 1180   4.031   4.621  12.139 -0.2821 -0.0719 -0.4970
   77TCq2    O4 1181   4.053   4.503  12.155 -0.0540 -0.0125 -0.3625
   77TCq2    C9 1182   4.008   4.564  11.665 -0.0738 -0.0854 -0.2369
   77TCq2    O5 1183   4.083   4.460  11.665  0.1496 -0.0305 -0.0229
   77TCq2    O6 1184   3.978   4.608  11.554  0.0984 -0.3037  0.2998
   77TCq2    H2 1185   3.914   0.086  11.661  1.8117  0.6848  0.2201
   77TCq2    H3 1186   4.057   4.496  11.906 -0.4433  0.9140  2.2655
   77TCq2    H4 1187   3.928   0.130  12.083  1.3416  0.4611  0.4045
   78MPD1     C 1188   1.234   4.618   1.510  0.0007  0.2538 -0.4675
   78MPD1    C1 1189   1.279   0.015   1.469  0.7799  0.8888 -0.6669
   78MPD1    C2 1190   1.400   0.058   1.522  0.2990  0.3442  0.0708
   78MPD1    C3 1191   1.486   4.699   1.591 -0.2976 -0.0662  0.5773
   78MPD1    C4 1192   1.440   4.577   1.615  0.5834  0.4052  0.4778
   78MPD1    C5 1193   1.316   4.538   1.585  0.2980  0.0910 -0.5405
   78MPD1     H 1194   1.429   0.159   1.495 -0.0648  0.3159 -0.4116
   78MPD1    H1 1195   1.500   4.512   1.677  0.1502 -0.1278  0.3355
   78MPD1    H2 1196   1.136   4.573   1.495  0.1759 -0.8758  1.7671
   78MPD1    H3 1197   1.281   4.440   1.616  1.5581  0.1181  0.9960
   78MPD1     N 1198   1.624   0.001   1.628  0.1808 -0.1657 -0.4809
   78MPD1    H5 1199   1.674   4.651   1.674  1.5817  1.1255  0.0974
   78MPD1    N1 1200   1.192   0.111   1.406  0.4843  0.0794 -0.0179
   78MPD1    H6 1201   1.236   0.186   1.352  1.3003 -0.2364  0.2135
   78MPD1    H7 1202   1.128   0.072   1.338  0.1291  0.8686 -0.1342
   79TCq2    C1 1203   1.696   0.114   1.592 -0.5990  0.3451 -0.4017
   79TCq2    O2 1204   1.645   0.219   1.552  0.1103 -0.1856  0.3230
   79TCq2    C2 1205   1.836   0.117   1.637  0.9664 -0.4564  0.0630
   79TCq2    C3 1206   1.898   4.722   1.648  0.0115 -0.7307 -1.1887
   79TCq2    C4 1207   2.033   4.724   1.677  0.4155 -0.2719  0.1391
   79TCq2    C5 1208   2.094   0.124   1.693  0.0456  0.0726 -0.2616
   79TCq2    C6 1209   2.030   0.241   1.669 -0.6057  0.2849  0.3042
   79TCq2    C7 1210   1.894   0.237   1.645 -0.8160 -0.1638  0.5941
   79TCq2    C8 1211   2.092   0.374   1.670 -0.8210 -0.0043 -0.3424
   79TCq2    O4 1212   2.017   0.470   1.684 -0.0344 -0.3170 -0.2748
   79TCq2    C9 1213   2.101   4.598   1.686  0.6565 -0.1269  0.2062
   79TCq2    O5 1214   2.228   4.601   1.690  0.2611  0.2677 -0.4894
   79TCq2    O6 1215   2.037   4.487   1.675 -0.3939 -0.3769 -0.4813
   79TCq2    H2 1216   1.865   4.627   1.608  0.4851  0.0913 -3.5404
   79TCq2    H3 1217   2.197   0.130   1.725 -0.5415 -0.8621  1.7887
   79TCq2    H4 1218   1.840   0.330   1.633  0.4575  0.7548  1.9532
   80MPD2     C 1219   2.343   4.658  12.330 -0.3306  0.0280 -0.4267
   80MPD2    C1 1220   2.277   4.599  12.226 -0.7604  0.1965 -0.3313
   80MPD2    C2 1221   2.137   4.607  12.228 -0.0533 -0.4979  0.3374
   80MPD2    C3 1222   2.068   4.653  12.342 -0.0799  0.1312  0.3265
   80MPD2    C4 1223   2.136   4.703  12.445 -0.6937 -0.8031  0.8534
   80MPD2    C5 1224   2.271   4.711  12.434  0.4303  0.7904 -0.0032
   80MPD2     H 1225   2.085   4.559  12.146  0.4550  0.8462 -0.7764
   80MPD2    H1 1226   2.089   0.022  12.532 -0.1246  0.5305  0.4852
   80MPD2    H2 1227   2.448   4.656  12.358 -0.4855  1.3266  0.2758
   80MPD2    H3 1228   2.321   0.033  12.518 -0.0522 -0.9057  1.2362
   80MPD2     N 1229   1.922   4.631  12.343  0.4725  0.3635  1.0158
   80MPD2    H5 1230   1.885   4.597  12.255 -1.6449  2.1670  1.2219
   80MPD2    N1 1231   2.336   4.522  12.124 -0.6408 -0.2912 -0.3138
   80MPD2    H7 1232   2.274   4.486  12.052 -0.5745  0.9715 -1.0025
   81TCq2    C1 1233   2.468   4.493  12.111 -0.8404  0.1029 -0.0837
   81TCq2    O2 1234   2.567   4.531  12.175 -0.5351  0.1985  0.7498
   81TCq2    C2 1235   2.506   4.421  11.989  0.1951  0.7173  0.3525
   81TCq2    C3 1236   2.626   4.441  11.930 -0.0297  0.1627 -0.3132
   81TCq2    C4 1237   2.659   4.358  11.827 -0.4205  0.6471 -0.1887
   81TCq2    C5 1238   2.578   4.262  11.778 -0.1140 -0.4485  0.4477
   81TCq2    C6 1239   2.458   4.246  11.847 -0.4382  0.9656 -0.1474
   81TCq2    C7 1240   2.412   4.332  11.942 -0.2686  0.1366  0.1310
   81TCq2    C8 1241   2.371   4.133  11.810  0.2316 -0.7532 -0.0181
   81TCq2    O4 1242   2.357   4.105  11.690  0.4012 -0.7561  0.2070
   81TCq2    C9 1243   2.797   4.372  11.780  1.4342 -0.3726  0.3776
   81TCq2    O5 1244   2.843   4.277  11.711 -0.1100 -0.7239 -0.1414
   81TCq2    O6 1245   2.877   4.446  11.838  0.3779 -0.1497 -0.3252
   81TCq2    H2 1246   2.692   4.521  11.959 -1.3437  1.1610 -0.0432
   81TCq2    H3 1247   2.627   4.188  11.716 -0.0266  0.4042 -0.4880
   81TCq2    H4 1248   2.317   4.328  11.992 -0.1555  0.1107  0.3426
   82MPD2     C 1249   0.433   4.052  10.358 -0.1992  0.2429 -0.1174
   82MPD2    C1 1250   0.434   3.917  10.327 -0.6508 -0.3137  0.5051
   82MPD2    C2 1251   0.490   3.823  10.411  0.1533 -0.7487  0.3215
   82MPD2    C3 1252   0.537   3.856  10.533 -0.7734 -0.5257 -0.7466
   82MPD2    C4 1253   0.535   3.989  10.564 -0.0362 -0.1409  0.0085
   82MPD2    C5 1254   0.489   4.093  10.478 -0.1656  0.1131  0.5761
   82MPD2     H 1255   0.475   3.720  10.384 -2.6955 -0.3437  0.3958
   82MPD2    H1 1256   0.574   4.008  10.663  0.0124  0.3946 -0.1108
   82MPD2    H2 1257   0.402   4.129  10.289 -2.0170 -1.5673 -1.3221
   82MPD2    H3 1258   0.482   4.196  10.510 -0.3200  0.3076 -0.0764
   82MPD2     N 1259   0.589   3.773  10.631 -0.1262  0.4806 -0.2755
   82MPD2    H5 1260   0.602   3.806  10.726 -3.0323  0.7159  0.0393
   82MPD2    N1 1261   0.356   3.887  10.207  0.1121 -0.2444  0.5649
   82MPD2    H7 1262   0.341   3.968  10.148 -1.5562  0.1733  1.5580
   83TCq2    C1 1263   0.615   3.642  10.609  0.3235  0.2774 -0.3572
   83TCq2    O2 1264   0.601   3.572  10.507 -0.4811 -0.5860 -0.0193
   83TCq2    C2 1265   0.676   3.580  10.727 -0.2071 -0.0701  0.5111
   83TCq2    C3 1266   0.720   3.655  10.836 -0.4551  0.8422  0.2954
   83TCq2    C4 1267   0.718   3.605  10.963 -0.2078 -0.1017  0.0984
   83TCq2    C5 1268   0.679   3.476  10.978  0.5540 -0.3582 -0.1372
   83TCq2    C6 1269   0.642   3.392  10.874 -0.8385 -0.0696 -0.6159
   83TCq2    C7 1270   0.629   3.450  10.750  0.0238  0.1406 -0.5984
   83TCq2    C8 1271   0.576   3.267  10.919  0.4023 -0.6330 -0.2973
   83TCq2    O4 1272   0.548   3.264  11.036  0.2486 -0.4544 -0.3643
   83TCq2    C9 1273   0.768   3.680  11.079  0.2994  0.4743  0.9800
   83TCq2    O5 1274   0.773   3.621  11.193 -0.4177 -0.3283 -0.5407
   83TCq2    O6 1275   0.763   3.803  11.067 -0.0389 -0.1825  0.2232
   83TCq2    H2 1276   0.770   3.749  10.818  1.7743 -0.1496  1.2435
   83TCq2    H3 1277   0.680   3.431  11.077 -0.8048  0.2389  0.1471
   83TCq2    H4 1278   0.592   3.391  10.667  1.3530  0.7091 -1.5943
   84TCq2    C1 1279   1.541   2.096  10.199 -0.2234  0.2061 -0.2430
   84TCq2    O2 1280   1.523   2.022  10.296  0.1252  0.3767 -0.2479
   84TCq2    C2 1281   1.579   2.231  10.234  0.1589 -0.1934  0.1835
   84TCq2    C3 1282   1.670   2.291  10.158 -0.5495 -0.1222 -0.0858
   84TCq2    C4 1283   1.760   2.383  10.211 -0.2712  0.6264  0.5846
   84TCq2    C5 1284   1.769   2.394  10.348  0.4409  0.5631 -0.0507
   84TCq2    C6 1285   1.680   2.320  10.424  0.6876 -0.1899 -0.4700
   84TCq2    C7 1286   1.582   2.242  10.371 -0.5638  0.0044 -0.6812
   84TCq2    C8 1287   1.688   2.342  10.567  0.6282  0.1772  0.5618
   84TCq2    O4 1288   1.768   2.422  10.617 -0.3457 -0.0295 -0.2177
   84TCq2    C9 1289   1.859   2.441  10.129  0.2658  0.2735 -0.0629
   84TCq2    O5 1290   1.854   2.426  10.005 -0.1337  0.2456  0.0111
   84TCq2    O6 1291   1.945   2.504  10.189 -0.9814  0.0389 -0.0485
   84TCq2    H2 1292   1.677   2.286  10.050 -2.2770  1.1314 -0.2573
   84TCq2    H3 1293   1.844   2.457  10.395  0.7118 -0.9943  1.6002
   84TCq2    H4 1294   1.512   2.183  10.428 -1.3685  0.1277 -1.5521
   85MPD2     C 1295   2.232   0.814  16.056 -0.2957  0.2753  0.6177
   85MPD2    C1 1296   2.122   0.868  15.994 -0.4904 -0.1379  0.8749
   85MPD2    C2 1297   2.127   0.998  15.943 -0.4366 -0.3766  0.4174
   85MPD2    C3 1298   2.247   1.062  15.949  0.0509  0.0771  0.6878
   85MPD2    C4 1299   2.362   0.999  15.998  0.2159 -0.3500 -0.5028
   85MPD2    C5 1300   2.356   0.877  16.051  0.7676 -0.2421 -0.5104
   85MPD2     H 1301   2.050   1.048  15.886  0.2822  0.5366  0.2443
   85MPD2    H1 1302   2.452   1.059  16.006  0.9878 -1.6281  0.4420
   85MPD2    H2 1303   2.229   0.711  16.091 -1.1791 -0.0476 -0.4541
   85MPD2    H3 1304   2.449   0.840  16.093  0.1219 -0.4650  0.7300
   85MPD2     N 1305   2.253   1.200  15.905 -0.2215  0.2040  0.3818
   85MPD2    H5 1306   2.164   1.246  15.886  1.2809  2.6240 -0.8216
   85MPD2    N1 1307   2.001   0.793  15.978  0.7171 -0.0017 -0.0055
   85MPD2    H7 1308   1.934   0.823  15.907  1.3049  0.2974 -0.4412
   86TCq2    C1 1309   2.366   1.282  15.892  0.0570  1.0496 -0.6725
   86TCq2    O2 1310   2.483   1.245  15.899 -0.1387  0.0729  0.8923
   86TCq2    C2 1311   2.351   1.420  15.863 -0.7783 -0.1707  0.1721
   86TCq2    C3 1312   2.241   1.484  15.903 -0.5642 -0.1365 -0.0074
   86TCq2    C4 1313   2.236   1.620  15.899  0.0895  0.0779 -0.8672
   86TCq2    C5 1314   2.358   1.685  15.873  0.0262 -0.9791  0.4860
   86TCq2    C6 1315   2.467   1.610  15.839  0.2993  0.4067  0.8085
   86TCq2    C7 1316   2.465   1.477  15.832  0.3334  0.2137  0.1433
   86TCq2    C8 1317   2.597   1.671  15.815  0.0895  0.6865 -0.1689
   86TCq2    O4 1318   2.665   1.627  15.725  0.2529 -0.0859 -0.4690
   86TCq2    C9 1319   2.125   1.694  15.922  0.2432  0.6795  0.0250
   86TCq2    O5 1320   2.016   1.627  15.925  0.1198 -0.3479 -0.3737
   86TCq2    O6 1321   2.132   1.814  15.892  0.2448  0.2514 -0.1845
   86TCq2    H2 1322   2.147   1.439  15.934  0.4590 -3.2373 -1.3692
   86TCq2    H3 1323   2.343   1.792  15.879 -0.1333 -0.9651 -0.1964
   86TCq2    H4 1324   2.551   1.424  15.792  1.2586  1.3638  0.6276
   87MPD2     C 1325   3.610   0.514   1.054  0.1971  0.4544  0.5928
   87MPD2    C1 1326   3.704   0.537   0.953  0.7296 -0.2851 -0.6753
   87MPD2    C2 1327   3.681   0.630   0.852 -0.2098 -0.4299  0.3800
   87MPD2    C3 1328   3.560   0.701   0.856  0.6313  0.6573  0.1814
   87MPD2    C4 1329   3.463   0.666   0.952  0.0856 -0.0985  0.0481
   87MPD2    C5 1330   3.486   0.571   1.044 -0.5168 -0.5090 -0.4251
   87MPD2     H 1331   3.747   0.660   0.771  1.8381  0.3374  2.3513
   87MPD2    H1 1332   3.367   0.716   0.953  0.0999 -0.0462 -1.0138
   87MPD2    H2 1333   3.631   0.439   1.129 -1.6542  1.1141  1.7706
   87MPD2    H3 1334   3.396   0.540   1.096 -0.0302  0.4256  0.9701
   87MPD2     N 1335   3.523   0.805   0.762 -0.1743  0.2869  0.7776
   87MPD2    H5 1336   3.430   0.845   0.774 -1.3970 -1.5773 -2.6086
   87MPD2    N1 1337   3.816   0.460   0.962  0.1860  0.8682 -0.1413
   87MPD2    H7 1338   3.834   0.427   1.056 -1.4694  1.6037  0.4398
   88TCq2    C1 1339   3.924   0.449   0.874 -0.1448  0.2944 -0.5855
   88TCq2    O2 1340   3.926   0.487   0.760 -0.5958  0.0470 -0.1527
   88TCq2    C2 1341   4.029   0.373   0.931  0.0199  0.5132  0.6082
   88TCq2    C3 1342   4.061   0.398   1.068  0.3479 -1.1951  1.0760
   88TCq2    C4 1343   4.185   0.359   1.110  0.1855 -0.3526  0.0374
   88TCq2    C5 1344   4.265   0.288   1.023 -0.2192  0.8666 -0.7976
   88TCq2    C6 1345   4.234   0.267   0.888  0.4205 -0.6972  0.7927
   88TCq2    C7 1346   4.114   0.307   0.845  0.0190 -0.0056  0.6831
   88TCq2    C8 1347   4.304   0.162   0.820  0.1690  0.5006  0.5026
   88TCq2    O4 1348   4.414   0.133   0.868 -0.2579  0.5951  0.2263
   88TCq2    C9 1349   4.238   0.381   1.239 -0.2505  0.4577  0.3968
   88TCq2    O5 1350   4.154   0.439   1.314 -0.3726 -0.4784 -0.0539
   88TCq2    O6 1351   4.363   0.369   1.266  0.2954 -0.1007 -0.4653
   88TCq2    H2 1352   4.000   0.462   1.130  0.9591  1.4053 -0.9855
   88TCq2    H3 1353   4.360   0.246   1.055 -0.9633 -1.9770 -2.2790
   88TCq2    H4 1354   4.083   0.307   0.741 -0.6387 -3.5040  0.8538
   89MPD2     C 1355   0.268   2.744   1.731  0.3146  0.4688  0.0909
   89MPD2    C1 1356   0.333   2.678   1.626 -0.1694 -0.9234  0.6577
   89MPD2    C2 1357   0.436   2.743   1.568  0.0776 -0.9647  0.1830
   89MPD2    C3 1358   0.474   2.870   1.597 -0.6009  0.6078  0.2199
   89MPD2    C4 1359   0.410   2.932   1.698 -0.0057 -0.4003 -1.3028
   89MPD2    C5 1360   0.304   2.872   1.761 -0.1422 -0.6380  0.1301
   89MPD2     H 1361   0.491   2.692   1.489  0.0592 -1.2886  0.3807
   89MPD2    H1 1362   0.438   3.033   1.725 -0.7592 -0.2359 -1.1151
   89MPD2    H2 1363   0.188   2.704   1.792  0.1989  0.7572  0.1270
   89MPD2    H3 1364   0.251   2.929   1.837 -1.6839  0.2218 -1.5973
   89MPD2     N 1365   0.583   2.920   1.521 -0.0687  1.0886 -0.4991
   89MPD2    H5 1366   0.607   2.881   1.431 -0.2941  2.6811 -1.2535
   89MPD2    N1 1367   0.295   2.548   1.572 -0.2231  0.3668 -0.4260
   89MPD2    H7 1368   0.360   2.518   1.501 -1.6797  0.6993 -1.8947
   90TCq2    C1 1369   0.647   3.036   1.554 -0.0086 -0.0941 -0.0593
   90TCq2    O2 1370   0.659   3.094   1.660 -0.0678 -0.2377 -0.9365
   90TCq2    C2 1371   0.712   3.097   1.442 -0.1052 -0.3041 -0.3225
   90TCq2    C3 1372   0.665   3.072   1.315  0.0061 -0.0249  0.5551
   90TCq2    C4 1373   0.730   3.133   1.216 -0.1904  0.2204  0.1543
   90TCq2    C5 1374   0.829   3.223   1.238  0.5005  0.2348  0.1961
   90TCq2    C6 1375   0.868   3.249   1.370 -0.3531 -0.8832 -0.9643
   90TCq2    C7 1376   0.809   3.182   1.475 -0.6859  0.4910 -0.1481
   90TCq2    C8 1377   0.976   3.340   1.398 -0.4727  0.1863 -0.1689
   90TCq2    O4 1378   0.980   3.396   1.508 -0.2312  0.0469  0.6184
   90TCq2    C9 1379   0.682   3.124   1.079 -0.4655 -1.2062  0.5657
   90TCq2    O5 1380   0.579   3.054   1.058  0.2579 -0.4798  0.1439
   90TCq2    O6 1381   0.710   3.222   1.006  0.1389  0.8615 -0.2707
   90TCq2    H2 1382   0.582   3.006   1.290  0.6623 -1.7517  2.8944
   90TCq2    H3 1383   0.878   3.270   1.154  1.0254 -0.6974 -0.0181
   90TCq2    H4 1384   0.819   3.222   1.575 -0.9440  1.6470 -0.5769
   91TMC2    C1 1385   2.238   1.678  16.280 -0.2957 -0.0754  0.1412
   91TMC2    C2 1386   2.263   1.771  16.375  0.0018  0.4960  0.2386
   91TMC2    C3 1387   2.169   1.850  16.425  0.4691 -0.3584 -0.1025
   91TMC2    C4 1388   2.113   1.655  16.240 -0.7369  0.1685  1.7048
   91TMC2    C5 1389   2.012   1.735  16.286  1.5027  0.1590  0.0096
   91TMC2    C6 1390   2.041   1.829  16.387 -0.1444 -0.0540 -0.3871
   91TMC2     C 1391   2.339   1.588  16.239  0.1295 -0.5560 -0.0808
   91TMC2     O 1392   2.308   1.473  16.225 -0.2315  0.1752 -0.1441
   91TMC2     H 1393   2.363   1.784  16.415  0.6786 -0.9082 -1.0066
   91TMC2    H1 1394   2.092   1.578  16.167  0.4790  1.4255  0.0355
   91TMC2    H2 1395   1.957   1.875  16.437 -0.1604 -0.9817  0.4446
   91TMC2    C7 1396   1.875   1.708  16.258  0.6277  0.1501  0.2153
   91TMC2    C8 1397   2.199   1.892  16.558  0.3070  0.2871  0.7083
   91TMC2    O1 1398   1.795   1.763  16.331  0.0960 -0.1571  1.2799
   91TMC2    O2 1399   2.282   1.839  16.628  0.2405 -0.9078 -0.1027
   91TMC2    O5 1400   2.106   1.981  16.592 -0.0351 -0.0904  0.3464
   91TMC2    H5 1401   2.049   1.999  16.514  0.4253 -2.9798 -0.6296
   92MPD2     C 1402   2.598   1.444  16.166  0.1343  0.7463 -0.2345
   92MPD2    C1 1403   2.583   1.581  16.189 -0.1641  0.0728  0.1138
   92MPD2    C2 1404   2.683   1.679  16.173 -1.4026 -0.3884  0.0445
   92MPD2    C3 1405   2.811   1.633  16.126 -0.2525 -0.9723  0.0622
   92MPD2    C4 1406   2.826   1.498  16.097  0.3240  0.2346 -0.1967
   92MPD2    C5 1407   2.718   1.409  16.119 -0.1900 -0.0097  0.1010
   92MPD2     H 1408   2.659   1.781  16.198 -0.5376 -0.1271 -0.1751
   92MPD2    H1 1409   2.926   1.457  16.081 -0.5121 -1.4360 -1.1134
   92MPD2    H2 1410   2.527   1.366  16.190 -0.1856  1.4546  1.1607
   92MPD2    H3 1411   2.743   1.303  16.116  0.4278  0.1273  0.3274
   92MPD2     N 1412   2.911   1.727  16.117 -0.8142 -0.1639  0.4890
   92MPD2    H5 1413   2.883   1.819  16.150 -1.9739 -0.1846 -0.4197
   92MPD2    N1 1414   2.462   1.638  16.241 -0.1078  0.1570 -0.3787
   92MPD2    H7 1415   2.465   1.740  16.243 -0.6706  0.1695 -0.0694
   93MPD2     C 1416   3.899   1.825  13.444 -0.1506  0.0738 -0.2577
   93MPD2    C1 1417   3.830   1.897  13.541  0.2941 -0.1842 -0.7702
   93MPD2    C2 1418   3.695   1.895  13.538 -0.1923  1.2157 -0.1800
   93MPD2    C3 1419   3.622   1.822  13.448  0.8938 -0.3145 -0.5064
   93MPD2    C4 1420   3.685   1.748  13.355  0.0679 -0.3570 -0.5045
   93MPD2    C5 1421   3.818   1.749  13.351  0.0394  0.2414  0.4012
   93MPD2     H 1422   3.637   1.957  13.607 -1.7908 -1.0957  0.5461
   93MPD2    H1 1423   3.646   1.677  13.283  1.2899 -0.3484 -1.1751
   93MPD2    H2 1424   4.007   1.818  13.440 -0.1299 -1.0897  2.4347
   93MPD2    H3 1425   3.871   1.685  13.281  1.6124  0.0725  1.7527
   93MPD2     N 1426   3.481   1.824  13.446 -0.5041  0.5942 -0.0590
   93MPD2    H5 1427   3.441   1.772  13.369 -1.2372  2.2326 -0.7687
   93MPD2    N1 1428   3.899   1.977  13.643  0.1342  0.0125 -0.1511
   93MPD2    H7 1429   3.845   2.001  13.725  1.7530  0.5009  0.7755
   94TCq2    C1 1430   4.029   2.008  13.629  0.4080  0.0783  0.0662
   94TCq2    O2 1431   4.116   1.978  13.546  0.0465 -0.0292 -0.0719
   94TCq2    C2 1432   4.079   2.095  13.729  0.0904  0.0547 -0.4665
   94TCq2    C3 1433   3.982   2.165  13.806  0.1879  0.4415 -0.0752
   94TCq2    C4 1434   4.026   2.251  13.899  0.3114 -0.9882 -0.1640
   94TCq2    C5 1435   4.170   2.269  13.917  0.2157 -0.0752  0.4124
   94TCq2    C6 1436   4.259   2.190  13.839  0.4174  0.1873  0.2163
   94TCq2    C7 1437   4.216   2.111  13.738  0.7188  0.6249 -0.0464
   94TCq2    C8 1438   4.402   2.171  13.858 -0.6776 -0.0997  0.3749
   94TCq2    O4 1439   4.451   2.073  13.806  0.1303 -0.0872  0.1715
   94TCq2    C9 1440   3.932   2.326  13.977  0.4655 -0.8803  0.3182
   94TCq2    O5 1441   3.977   2.411  14.057 -0.1145  0.6317 -0.0283
   94TCq2    O6 1442   3.812   2.296  13.970  0.2336 -0.1006 -0.2196
   94TCq2    H2 1443   3.875   2.169  13.785  0.3504  0.5478 -0.8644
   94TCq2    H3 1444   4.217   2.328  13.994 -0.0453 -2.2788  2.2530
   94TCq2    H4 1445   4.278   2.042  13.683 -1.3160  1.0325 -2.8493
   95TMC2    C1 1446   3.991   3.613  15.924 -0.4302 -0.2804  0.4515
   95TMC2    C2 1447   3.964   3.484  15.879 -0.2882  0.2719 -0.5181
   95TMC2    C3 1448   3.892   3.408  15.959 -0.5777 -0.2939 -0.2733
   95TMC2    C4 1449   3.957   3.652  16.050  0.1066  0.0510  0.3323
   95TMC2    C5 1450   3.893   3.562  16.130 -0.1425  0.1928  0.2490
   95TMC2    C6 1451   3.846   3.437  16.086  0.5576 -0.6439 -0.6297
   95TMC2     C 1452   4.073   3.699  15.844  0.2893  0.5621 -0.1093
   95TMC2     O 1453   4.110   3.655  15.736 -0.7257 -0.0169  0.3328
   95TMC2     H 1454   4.015   3.438  15.794 -0.2394  0.5347 -0.6331
   95TMC2    H1 1455   3.989   3.747  16.091 -0.1128  0.7381 -1.0587
   95TMC2    H2 1456   3.792   3.373  16.155 -1.0729  0.9681 -0.3966
   95TMC2    C7 1457   3.834   3.617  16.256 -0.1462  0.1082 -0.2360
   95TMC2    C8 1458   3.843   3.284  15.903  0.1290  0.5111  0.5568
   95TMC2    O1 1459   3.774   3.536  16.324  0.3494  0.1311  0.4784
   95TMC2    O2 1460   3.912   3.190  15.859 -0.0108  0.0523  0.0333
   95TMC2    O5 1461   3.749   3.347  15.823  0.0032 -0.3906 -0.0672
   95TMC2    H5 1462   3.718   3.428  15.868 -0.7086 -0.7518  0.1080
   96MPD2     C 1463   4.228   4.160  15.665  0.5094  0.6711 -0.2632
   96MPD2    C1 1464   4.266   4.034  15.627 -0.3406 -0.0393 -0.2875
   96MPD2    C2 1465   4.207   3.921  15.687  0.6197  0.8363 -1.4940
   96MPD2    C3 1466   4.118   3.941  15.789  0.3752  0.5842 -0.1735
   96MPD2    C4 1467   4.081   4.068  15.826 -0.4978 -0.0122 -0.2604
   96MPD2    C5 1468   4.128   4.172  15.755  0.3476  0.4552 -0.7852
   96MPD2     H 1469   4.258   3.826  15.677  0.2188  0.4765 -0.1429
   96MPD2    H1 1470   4.012   4.078  15.909 -0.1091 -2.9201  0.4009
   96MPD2    H2 1471   4.268   4.246  15.612 -0.7707  0.5983 -1.3399
   96MPD2    H3 1472   4.105   4.273  15.788  0.3985 -0.1549  1.0988
   96MPD2     N 1473   4.072   3.839  15.875 -0.1483 -0.1879 -0.2789
   96MPD2    H5 1474   4.031   3.872  15.962  3.3122  2.1297  0.5136
   96MPD2    N1 1475   4.379   4.029  15.546  0.2780  0.1844 -0.0103
   96MPD2    H7 1476   4.422   4.118  15.525 -0.7428  0.9723  1.2163
   97MPD2     C 1477   1.607   1.494   0.314  0.2757 -0.0353 -0.2897
   97MPD2    C1 1478   1.528   1.609   0.329  0.5113  0.1968  0.8022
   97MPD2    C2 1479   1.468   1.666   0.222  0.4333 -0.0674  0.1498
   97MPD2    C3 1480   1.482   1.619   0.096 -0.2267 -0.3202  0.2453
   97MPD2    C4 1481   1.564   1.503   0.082  0.2610  0.2128 -0.0261
   97MPD2    C5 1482   1.630   1.447   0.189  0.5174 -0.5151 -0.3141
   97MPD2     H 1483   1.420   1.763   0.233 -0.6542 -0.7686  1.6486
   97MPD2    H1 1484   1.566   1.458  17.685 -0.5142 -0.6668  0.3616
   97MPD2    H2 1485   1.664   1.448   0.394  2.5561  1.5801 -0.9759
   97MPD2    H3 1486   1.692   1.359   0.182 -0.4305 -1.2090  0.1511
   97MPD2     N 1487   1.424   1.677  17.688  0.1057  0.1864 -0.3845
   97MPD2    H5 1488   1.462   1.663  17.595 -2.1691 -0.6859 -1.1848
   97MPD2    N1 1489   1.537   1.677   0.456  0.2250  0.3234 -0.3047
   97MPD2    H7 1490   1.602   1.644   0.527 -1.2230 -1.8272  0.0088
   98TCq2    C1 1491   1.301   1.745  17.693  0.2152 -0.2306 -0.2029
   98TCq2    O2 1492   1.221   1.752   0.085 -0.6326  0.1908 -0.1231
   98TCq2    C2 1493   1.263   1.807  17.561 -0.6644 -1.0548  0.5188
   98TCq2    C3 1494   1.129   1.847  17.545  0.0248  0.5848 -0.1894
   98TCq2    C4 1495   1.100   1.951  17.466 -0.0250  0.2046  0.0951
   98TCq2    C5 1496   1.200   2.019  17.404 -0.4919  0.6875  0.0554
   98TCq2    C6 1497   1.332   1.988  17.424  0.9822 -0.9645 -0.7797
   98TCq2    C7 1498   1.366   1.874  17.491 -0.0557  0.2669 -0.3850
   98TCq2    C8 1499   1.448   2.089  17.417  0.5128  0.5773 -0.5752
   98TCq2    O4 1500   1.561   2.053  17.453 -0.1351  0.6292 -0.6082
   98TCq2    C9 1501   0.961   1.990  17.454  0.1266  0.1202 -0.0706
   98TCq2    O5 1502   0.936   2.092  17.378 -0.4000  0.0226 -0.1947
   98TCq2    O6 1503   0.878   1.929  17.527 -0.0340 -0.5729  0.4405
   98TCq2    H2 1504   1.052   1.785  17.589 -0.2421  0.9053 -0.2041
   98TCq2    H3 1505   1.169   2.104  17.344 -0.0780  0.1806 -0.8891
   98TCq2    H4 1506   1.471   1.849  17.503  0.3290  1.9467 -0.3341
   99MPD2     C 1507   0.353   4.261   0.668 -0.1540  0.1997 -0.5202
   99MPD2    C1 1508   0.418   4.183   0.762  0.1411 -0.1337 -0.1075
   99MPD2    C2 1509   0.533   4.114   0.733  0.4129 -0.2454  0.8258
   99MPD2    C3 1510   0.582   4.118   0.604 -0.5463  0.0082  0.2030
   99MPD2    C4 1511   0.528   4.216   0.518 -0.0894  0.2848 -0.3438
   99MPD2    C5 1512   0.414   4.289   0.551 -0.4681 -0.1696  0.0552
   99MPD2     H 1513   0.580   4.050   0.806 -0.9336 -0.1404  1.7873
   99MPD2    H1 1514   0.574   4.245   0.424 -0.5881  0.9752 -0.3779
   99MPD2    H2 1515   0.266   4.320   0.695 -0.6167 -0.9761  0.5347
   99MPD2    H3 1516   0.375   4.359   0.478  0.1830  0.9755  0.8181
   99MPD2     N 1517   0.685   4.038   0.570 -0.2428  0.7920 -0.0175
   99MPD2    H5 1518   0.711   3.980   0.649 -0.8432 -1.7985 -1.7419
   99MPD2    N1 1519   0.380   4.179   0.904  0.2043 -0.0072 -0.5969
   99MPD2    H7 1520   0.436   4.118   0.962 -0.6911  0.5711  0.8808
  100TCq2    C1 1521   0.266   4.245   0.954 -0.4185 -0.2785 -0.9018
  100TCq2    O2 1522   0.170   4.291   0.886 -0.1360 -0.7418  0.3391
  100TCq2    C2 1523   0.249   4.247   1.101 -0.1568 -0.7300  0.5419
  100TCq2    C3 1524   0.357   4.252   1.189  0.8397 -1.1837  0.5409
  100TCq2    C4 1525   0.328   4.262   1.323 -1.1353 -0.3875 -1.0957
  100TCq2    C5 1526   0.200   4.271   1.365  0.6847  0.1235 -0.7368
  100TCq2    C6 1527   0.095   4.257   1.278  0.3982 -0.4145  0.0471
  100TCq2    C7 1528   0.118   4.256   1.140 -0.0057 -0.8517  0.1564
  100TCq2    C8 1529   4.677   4.294   1.316 -0.0714 -0.2227 -0.2012
  100TCq2    O4 1530   4.661   4.378   1.406  0.4581 -0.0104 -0.4289
  100TCq2    C9 1531   0.429   4.278   1.425  0.0406 -0.3436 -0.5381
  100TCq2    O5 1532   0.402   4.320   1.545  0.4406 -0.0377 -0.9754
  100TCq2    O6 1533   0.544   4.234   1.401  0.1761  0.8005 -0.5202
  100TCq2    H2 1534   0.453   4.278   1.147  0.9729  1.7602  2.7102
  100TCq2    H3 1535   0.178   4.299   1.467  0.3187 -0.1307 -0.7454
  100TCq2    H4 1536   0.042   4.248   1.063 -0.5862 -1.4408  0.7904
  101MPD2     C 1537   0.877   4.489  12.596  0.1014 -0.2349  0.2414
  101MPD2    C1 1538   0.790   4.558  12.678 -0.1766  0.4582  0.2230
  101MPD2    C2 1539   0.761   4.510  12.798  0.4706 -0.0613  0.0808
  101MPD2    C3 1540   0.811   4.386  12.840  0.4493  0.5367 -0.0935
  101MPD2    C4 1541   0.896   4.315  12.757  0.8494 -0.3328 -0.2205
  101MPD2    C5 1542   0.921   4.365  12.632 -0.6253 -0.8019  0.4215
  101MPD2     H 1543   0.706   4.574  12.866 -1.1329 -1.4149  0.0741
  101MPD2    H1 1544   0.930   4.214  12.776 -0.8836 -0.7252  0.8871
  101MPD2    H2 1545   0.910   4.532  12.502 -1.7170 -1.6468 -1.0356
  101MPD2    H3 1546   0.967   4.306  12.553 -1.4472  0.5769 -1.0859
  101MPD2     N 1547   0.769   4.329  12.966 -0.2352  0.3585 -0.0105
  101MPD2    H5 1548   0.710   4.388  13.024 -0.3999 -1.4571  1.6615
  101MPD2    N1 1549   0.743   4.683  12.630  0.3078  0.0265  0.1590
  101MPD2    H7 1550   0.755   4.700  12.531  1.9295  0.0921  0.3649
  102TCq2    C1 1551   0.756   0.309  12.310  0.0269 -0.2939  0.4282
  102TCq2    O2 1552   0.864   0.250  12.313 -0.1859  0.5928  0.1076
  102TCq2    C2 1553   0.674   0.288  12.431  0.1065 -0.1491 -0.4269
  102TCq2    C3 1554   0.558   0.358  12.448 -0.1075  0.1136  0.6464
  102TCq2    C4 1555   0.500   0.336  12.570  0.6786 -0.3002  0.0708
  102TCq2    C5 1556   0.551   0.250  12.666  0.2760  1.1449  0.0310
  102TCq2    C6 1557   0.662   0.174  12.633  1.1132  0.3908 -0.4799
  102TCq2    C7 1558   0.721   0.192  12.513 -0.7332  0.8926  0.2723
  102TCq2    C8 1559   0.690   0.056  12.711 -0.7855  0.1043 -0.3452
  102TCq2    O4 1560   0.661   0.067  12.832 -0.1494 -0.5710  0.6282
  102TCq2    C9 1561   0.382   0.410  12.608 -0.9382 -0.3697 -0.2715
  102TCq2    O5 1562   0.316   0.352  12.699  0.3431 -0.0435  0.0171
  102TCq2    O6 1563   0.338   0.497  12.525 -0.3765  0.0951 -0.5564
  102TCq2    H2 1564   0.519   0.437  12.384  3.4949  0.7470 -0.7471
  102TCq2    H3 1565   0.502   0.229  12.761 -0.4489  1.4181 -0.2817
  102TCq2    H4 1566   0.811   0.136  12.490 -1.1859 -0.0451  0.7998
  103TMC2    C1 1567   3.998   0.279  12.842 -0.4717 -0.9112 -0.3226
  103TMC2    C2 1568   4.024   0.411  12.861 -0.1783 -0.0518 -0.2257
  103TMC2    C3 1569   4.000   0.467  12.986  0.1568  0.6798 -0.5117
  103TMC2    C4 1570   3.960   0.200  12.948 -0.7911  0.5051 -0.1805
  103TMC2    C5 1571   3.948   0.257  13.073 -0.4221  0.4932 -0.1631
  103TMC2    C6 1572   3.967   0.389  13.097 -0.6569 -0.0291  0.4795
  103TMC2     C 1573   3.991   0.237  12.708  0.1530  0.1458  0.4760
  103TMC2     O 1574   4.042   0.305  12.618 -0.5673  0.0390 -1.0468
  103TMC2     H 1575   4.036   0.472  12.773 -0.8694  1.1920  0.5496
  103TMC2    H1 1576   3.970   0.095  12.927  5.0617  0.8863  0.6502
  103TMC2    H2 1577   3.923   0.430  13.187 -1.5063  1.4202 -0.5893
  103TMC2    C7 1578   3.942   0.172  13.191  0.0139 -0.5711  0.1771
  103TMC2    C8 1579   4.014   0.606  12.996  0.2984  0.3685 -0.0757
  103TMC2    O1 1580   3.971   0.229  13.295 -0.5862 -0.0813  0.2924
  103TMC2    O2 1581   4.017   0.677  12.893  0.8212 -0.4234  0.0809
  103TMC2    O5 1582   4.036   0.643  13.125  0.1850 -0.0791  0.2201
  103TMC2    H5 1583   4.059   0.572  13.189  0.8548 -1.0104 -1.0543
  104MPD2     C 1584   3.819   4.654  12.591 -0.6329  0.3077 -0.1926
  104MPD2    C1 1585   3.908   0.037  12.580 -0.5376 -0.0762  0.8280
  104MPD2    C2 1586   3.972   0.056  12.456  0.4277 -0.1312  0.0875
  104MPD2    C3 1587   3.960   4.691  12.361  0.3020  0.0896 -0.3234
  104MPD2    C4 1588   3.879   4.579  12.374  0.1354  0.3039 -0.5147
  104MPD2    C5 1589   3.811   4.562  12.489  0.0555 -0.0088 -0.4442
  104MPD2     H 1590   4.030   0.148  12.454  0.9318 -0.5351 -3.1327
  104MPD2    H1 1591   3.878   4.496  12.305  0.8979  0.6409 -0.9426
  104MPD2    H2 1592   3.767   4.624  12.681 -1.2014  0.2725 -0.5281
  104MPD2    H3 1593   3.748   4.478  12.515 -0.6196  0.2979 -1.1088
  104MPD2     N 1594   4.023   4.717  12.239 -0.5674  0.6126 -0.7621
  104MPD2    H5 1595   4.073   0.079  12.227  0.9356 -0.0735  0.5504
  104MPD2    N1 1596   3.922   0.121  12.695 -0.4740 -1.2728  0.9250
  104MPD2    H7 1597   3.880   0.094  12.784 -1.8116  0.7459  0.9241
  105MPD2     C 1598   0.510   4.011  17.561  0.0462 -0.1389  0.2033
  105MPD2    C1 1599   0.528   4.146  17.543  0.6123  1.0990 -0.1484
  105MPD2    C2 1600   0.457   4.234  17.628 -0.1998 -0.3039  0.3382
  105MPD2    C3 1601   0.380   4.187   0.033  0.3978 -0.3391  0.1456
  105MPD2    C4 1602   0.366   4.051   0.046 -0.0695  0.1845 -0.3168
  105MPD2    C5 1603   0.429   3.966  17.660 -0.2146  0.0660 -0.4550
  105MPD2     H 1604   0.457   4.340  17.604 -2.9968  0.0399  1.7934
  105MPD2    H1 1605   0.289   4.007   0.108  1.6204  0.0633  1.6978
  105MPD2    H2 1606   0.550   3.940  17.489  0.5048 -0.0437  0.3612
  105MPD2    H3 1607   0.403   3.861  17.661  1.9316 -0.4665  1.1218
  105MPD2     N 1608   0.316   4.279   0.117  0.3111  0.7598 -0.2462
  105MPD2    H5 1609   0.328   4.379   0.106  2.8394  0.6718  1.7483
  105MPD2    N1 1610   0.598   4.206  17.436 -0.4427  0.0105  0.2875
  105MPD2    H7 1611   0.591   4.307  17.426 -0.5578  0.1465  1.7731
  106TCq2    C1 1612   0.240   4.250   0.224  0.9845  0.2642  0.1501
  106TCq2    O2 1613   0.189   4.140   0.250  0.0871  0.4472  0.2334
  106TCq2    C2 1614   0.190   4.366   0.305  0.5184  0.6058  0.5531
  106TCq2    C3 1615   0.236   4.491   0.276 -0.0630  0.4413 -0.3738
  106TCq2    C4 1616   0.169   4.603   0.320  0.6189 -0.3979  0.0073
  106TCq2    C5 1617   0.061   4.581   0.396 -0.2356 -0.1708  0.0065
  106TCq2    C6 1618   0.016   4.453   0.433 -0.2504  0.2127  0.3682
  106TCq2    C7 1619   0.083   4.342   0.391  0.3737 -0.0282 -0.9326
  106TCq2    C8 1620   4.611   4.426   0.476  0.1810 -0.1871  1.0303
  106TCq2    O4 1621   4.552   4.340   0.417  0.1756 -0.4685  0.4974
  106TCq2    C9 1622   0.202   0.010   0.290  0.3612 -0.1251 -0.4719
  106TCq2    O5 1623   0.275   0.035   0.187 -0.2290 -0.2182 -0.1688
  106TCq2    O6 1624   0.145   0.100   0.359 -0.6915  0.1380 -0.1409
  106TCq2    H2 1625   0.322   4.510   0.214  0.6767  0.9199  0.7997
  106TCq2    H3 1626   4.719   4.664   0.410  0.9527  0.7235  0.4041
  106TCq2    H4 1627   0.052   4.242   0.419 -0.8283  1.5357  3.1523
  107TMC2    C1 1628   1.730   2.702  11.468 -0.2183  0.0709  0.4369
  107TMC2    C2 1629   1.807   2.785  11.394  0.2432  0.4618 -0.8353
  107TMC2    C3 1630   1.852   2.747  11.271 -0.5650 -0.7919 -0.7013
  107TMC2    C4 1631   1.675   2.590  11.405  0.1668  0.0218  0.3810
  107TMC2    C5 1632   1.711   2.550  11.279 -0.1653 -0.1950 -0.0898
  107TMC2    C6 1633   1.801   2.631  11.214 -0.1357  0.5075  0.1081
  107TMC2     C 1634   1.661   2.752  11.582  0.4340  0.1312  0.4262
  107TMC2     O 1635   1.546   2.715  11.601  0.4610 -0.4582 -0.4538
  107TMC2     H 1636   1.850   2.875  11.438  2.4312 -1.7518  1.5761
  107TMC2    H1 1637   1.598   2.539  11.463  3.3941 -2.2865  2.6507
  107TMC2    H2 1638   1.852   2.591  11.127 -0.0858  1.6153 -0.3600
  107TMC2    C7 1639   1.650   2.434  11.216 -0.1535 -0.3904  0.3852
  107TMC2    C8 1640   1.984   2.793  11.230 -0.2042 -0.2350  0.1385
  107TMC2    O1 1641   1.585   2.364  11.292 -0.8831 -0.1938 -0.5629
  107TMC2    O2 1642   2.048   2.852  11.318  0.0302 -0.6349 -0.1120
  107TMC2    O5 1643   1.998   2.801  11.095  0.1483 -0.1187 -0.4944
  107TMC2    H5 1644   1.918   2.772  11.046  0.4385 -0.9512 -0.4680
  108MPD2     C 1645   1.749   3.045  11.788 -0.3077  0.0711  0.1810
  108MPD2    C1 1646   1.669   2.938  11.743  0.3344 -0.0211  0.7031
  108MPD2    C2 1647   1.533   2.936  11.794  0.2200 -0.3980 -0.4764
  108MPD2    C3 1648   1.486   3.020  11.891 -0.3213 -0.5883  0.7698
  108MPD2    C4 1649   1.569   3.132  11.923  0.8315 -0.2094 -0.4195
  108MPD2    C5 1650   1.696   3.145  11.875 -0.4307  0.2327 -0.2408
  108MPD2     H 1651   1.462   2.859  11.767  2.1193 -0.9950 -3.8207
  108MPD2    H1 1652   1.530   3.211  11.986  1.1781 -0.6376  0.3330
  108MPD2    H2 1653   1.854   3.049  11.762 -0.5518  1.5089 -0.6289
  108MPD2    H3 1654   1.747   3.240  11.885  0.9006 -0.6018  0.9392
  108MPD2     N 1655   1.364   3.002  11.950  0.1161 -0.0354 -0.5654
  108MPD2    H5 1656   1.311   2.922  11.917  2.1382 -2.3966  1.9213
  108MPD2    N1 1657   1.728   2.853  11.640  0.6451 -0.1851  0.1806
  108MPD2    H7 1658   1.828   2.858  11.623  0.8366 -2.9508  0.4679
  109MPD2     C 1659   2.690   1.178   1.338 -0.5430  0.1157  0.3800
  109MPD2    C1 1660   2.583   1.266   1.347 -0.7267  0.6212 -0.3233
  109MPD2    C2 1661   2.567   1.359   1.245  0.2052 -0.0179 -0.4199
  109MPD2    C3 1662   2.635   1.348   1.128  0.4436 -0.1086 -0.1708
  109MPD2    C4 1663   2.741   1.263   1.121 -0.0780  0.9523  0.1330
  109MPD2    C5 1664   2.769   1.179   1.223 -0.0499 -0.3330  0.2268
  109MPD2     H 1665   2.478   1.421   1.248  0.8048  0.7831  0.7605
  109MPD2    H1 1666   2.803   1.241   1.034 -2.0958  0.4222 -1.1933
  109MPD2    H2 1667   2.715   1.116   1.423 -3.3136 -2.1305 -0.4375
  109MPD2    H3 1668   2.859   1.119   1.223  0.1817  0.0093  0.4024
  109MPD2     N 1669   2.587   1.424   1.022  0.3066  0.0708  0.4980
  109MPD2    H5 1670   2.508   1.487   1.037  0.0233  0.0015 -0.6790
  109MPD2    N1 1671   2.487   1.264   1.455 -0.4876 -0.1271  0.2729
  109MPD2    H7 1672   2.426   1.346   1.456 -2.4695 -1.5999 -1.5720
  110TCq2    C1 1673   2.634   1.435   0.890 -0.0166 -0.3129  0.7957
  110TCq2    O2 1674   2.727   1.376   0.840  0.1697  0.3722 -0.3996
  110TCq2    C2 1675   2.556   1.524   0.810  0.4855  0.1152 -0.5469
  110TCq2    C3 1676   2.584   1.518   0.677 -0.7672 -0.7528  0.5484
  110TCq2    C4 1677   2.513   1.606   0.595 -1.0975 -0.2138 -0.6794
  110TCq2    C5 1678   2.421   1.689   0.653 -0.5878 -0.0084 -0.1049
  110TCq2    C6 1679   2.400   1.694   0.784 -0.7804 -0.2170 -0.2841
  110TCq2    C7 1680   2.470   1.614   0.870  0.7527 -0.5241 -0.6072
  110TCq2    C8 1681   2.295   1.780   0.832  0.0724  0.5635  0.0716
  110TCq2    O4 1682   2.229   1.839   0.750 -0.1775  0.2035  0.2637
  110TCq2    C9 1683   2.533   1.600   0.454  0.5676 -0.7090  0.4478
  110TCq2    O5 1684   2.512   1.702   0.387 -0.0698 -0.1218 -0.1576
  110TCq2    O6 1685   2.597   1.499   0.410  0.1327 -0.2403  0.1753
  110TCq2    H2 1686   2.656   1.451   0.632 -0.6203 -1.5435  1.9674
  110TCq2    H3 1687   2.367   1.758   0.589  1.6817  2.7732  0.9526
  110TCq2    H4 1688   2.446   1.612   0.976  0.8620 -0.3678 -0.5788
  111TMC2    C1 1689   1.322   0.398  10.825 -0.3367  0.3007 -0.1536
  111TMC2    C2 1690   1.361   0.294  10.752  0.2705  0.1607 -0.0415
  111TMC2    C3 1691   1.469   0.221  10.792 -0.3081  0.1158  0.1582
  111TMC2    C4 1692   1.373   0.426  10.948 -0.0446 -0.0778  0.7859
  111TMC2    C5 1693   1.484   0.355  10.984  0.3610 -0.1437 -0.0483
  111TMC2    C6 1694   1.528   0.246  10.914  0.2759  0.4238 -0.2945
  111TMC2     C 1695   1.207   0.477  10.777  0.1077  0.6260  0.1766
  111TMC2     O 1696   1.182   0.475  10.656 -0.2816  0.3502  0.1673
  111TMC2     H 1697   1.319   0.281  10.652 -0.2312  0.2638  0.1542
  111TMC2    H1 1698   1.331   0.510  11.004  2.7513  0.3855  2.2137
  111TMC2    H2 1699   1.611   0.183  10.942  0.4758  0.6354 -0.4154
  111TMC2    C7 1700   1.535   0.381  11.118 -0.4498  0.0001  0.4191
  111TMC2    C8 1701   1.521   0.110  10.708  0.8113  0.3320 -0.4583
  111TMC2    O1 1702   1.458   0.436  11.195  0.0405 -0.1047 -0.3417
  111TMC2    O2 1703   1.602   0.028  10.746 -0.4776  0.4832 -0.3702
  111TMC2    O5 1704   1.496   0.137  10.583 -0.1703 -0.0293  0.1921
  111TMC2    H5 1705   1.409   0.175  10.558  0.2370  1.2890  0.7790
  112MPD2     C 1706   0.849   0.836  10.875 -0.3826 -0.5523 -0.6147
  112MPD2    C1 1707   0.916   0.809  10.757 -0.2057 -0.4323  0.2655
  112MPD2    C2 1708   1.014   0.710  10.763  0.1477 -0.2877 -0.1625
  112MPD2    C3 1709   1.039   0.638  10.878  0.1251  0.1937 -0.0477
  112MPD2    C4 1710   0.963   0.661  10.986 -0.4165 -1.4327  0.4459
  112MPD2    C5 1711   0.866   0.753  10.978  0.0290  0.3767  0.2325
  112MPD2     H 1712   1.068   0.692  10.671 -1.4313  0.4915 -1.2460
  112MPD2    H1 1713   0.968   0.597  11.073 -1.0790 -0.0922  1.4792
  112MPD2    H2 1714   0.771   0.910  10.887  0.3580  0.4116 -1.8087
  112MPD2    H3 1715   0.785   0.743  11.049  0.8378 -0.7662  0.9927
  112MPD2     N 1716   1.129   0.522  10.880 -0.0764  0.5960 -0.8443
  112MPD2    H5 1717   1.143   0.478  10.970  0.5252  1.0349 -0.7297
  112MPD2    N1 1718   0.890   0.872  10.639  0.6341  0.7302 -0.5829
  112MPD2    H7 1719   0.949   0.850  10.559  0.6468 -1.9157  0.1723
  113MPD2     C 1720   4.386   4.137   0.654 -0.4785  0.2134  0.3889
  113MPD2    C1 1721   4.297   4.173   0.750 -0.0713  0.8820 -0.5242
  113MPD2    C2 1722   4.176   4.111   0.760 -0.3288 -0.0971  0.2195
  113MPD2    C3 1723   4.129   4.016   0.665  0.2916  0.2751  0.1665
  113MPD2    C4 1724   4.219   3.978   0.567  0.5276 -0.0487 -0.3490
  113MPD2    C5 1725   4.344   4.034   0.565 -0.3449  0.0837 -0.1249
  113MPD2     H 1726   4.107   4.134   0.841  1.8975 -2.1353  2.6564
  113MPD2    H1 1727   4.198   3.898   0.497 -1.7991 -0.2752  0.6244
  113MPD2    H2 1728   4.482   4.187   0.657 -0.6704  0.4984  1.8794
  113MPD2    H3 1729   4.426   3.999   0.503 -1.2960 -0.8408 -0.8613
  113MPD2     N 1730   4.011   3.943   0.669  0.2162 -0.6183  0.1133
  113MPD2    H5 1731   3.992   3.877   0.594 -1.0851  0.4335 -0.4629
  113MPD2    N1 1732   4.333   4.257   0.852 -0.1231  0.0987  0.6767
  113MPD2    H7 1733   4.272   4.273   0.931 -0.6263 -2.6100  0.8298
  114TCq2    C1 1734   3.902   3.978   0.743 -0.1022 -0.1063 -0.6229
  114TCq2    O2 1735   3.885   4.077   0.808 -0.4351 -0.8836 -0.0876
  114TCq2    C2 1736   3.788   3.889   0.727  0.7560  0.3956 -0.5478
  114TCq2    C3 1737   3.660   3.935   0.740  0.5097  0.9138  0.4415
  114TCq2    C4 1738   3.558   3.841   0.741 -0.0602 -0.9501 -0.2300
  114TCq2    C5 1739   3.579   3.707   0.708 -0.2804 -0.3754 -0.0680
  114TCq2    C6 1740   3.709   3.671   0.675 -0.5482 -0.1338 -0.5507
  114TCq2    C7 1741   3.811   3.756   0.694  0.2763 -0.6894  0.2492
  114TCq2    C8 1742   3.725   3.531   0.636  0.2175  0.2343  0.2734
  114TCq2    O4 1743   3.800   3.502   0.540 -0.2420  0.0017  0.1875
  114TCq2    C9 1744   3.424   3.885   0.784  0.2518 -0.8524  0.0416
  114TCq2    O5 1745   3.400   4.008   0.790 -0.1611  0.2508  0.3103
  114TCq2    O6 1746   3.345   3.789   0.794  0.0956  0.0092  0.2173
  114TCq2    H2 1747   3.637   4.033   0.778 -0.1162  0.3469  1.5196
  114TCq2    H3 1748   3.494   3.641   0.698  0.2678 -1.0610 -0.2109
  114TCq2    H4 1749   3.911   3.721   0.675 -0.6257 -3.0213 -0.2731
  115TMC2    C1 1750   0.169   1.548  17.603 -0.1824  0.0699  0.6503
  115TMC2    C2 1751   0.291   1.494  17.595 -0.5827  0.5577 -0.1857
  115TMC2    C3 1752   0.396   1.587  17.583  0.0250  0.2904  0.2937
  115TMC2    C4 1753   0.147   1.683  17.592  0.0285  0.4067  0.2294
  115TMC2    C5 1754   0.252   1.769  17.579  0.0297 -0.0418 -0.6037
  115TMC2    C6 1755   0.381   1.719  17.573 -0.1568 -0.0040  0.1695
  115TMC2     C 1756   0.058   1.449  17.605 -0.3779 -0.5542  0.7226
  115TMC2     O 1757   0.086   1.335  17.569  0.6400  0.7374 -0.3099
  115TMC2     H 1758   0.303   1.391  17.626  1.1667  1.4881  2.1978
  115TMC2    H1 1759   0.043   1.715  17.586  0.5571  1.7005 -1.8984
  115TMC2    H2 1760   0.469   1.783  17.576  0.8591 -1.4023 -0.0465
  115TMC2    C7 1761   0.213   1.880  17.492 -0.3540 -0.5249 -0.2934
  115TMC2    C8 1762   0.535   1.541  17.613  0.0657 -0.1813 -0.0942
  115TMC2    O1 1763   0.092   1.890  17.469 -0.2353  1.0582 -0.2843
  115TMC2    O2 1764   0.629   1.616  17.634  0.1632 -0.3190  0.1623
  115TMC2    O5 1765   0.539   1.415  17.554 -0.3993 -0.1182  0.0415
  115TMC2    H5 1766   0.460   1.392  17.500  1.4945  1.3060 -3.2969
  116MPD2     C 1767   4.300   1.291  17.667 -0.4077  0.6587 -0.5613
  116MPD2    C1 1768   4.406   1.231  17.600  0.2084  0.1835  0.1488
  116MPD2    C2 1769   4.525   1.297  17.597 -0.6534  0.4480 -0.2983
  116MPD2    C3 1770   4.539   1.428  17.655 -0.3303  0.2529 -0.2516
  116MPD2    C4 1771   4.432   1.489   0.018  0.0771  0.1584  0.4326
  116MPD2    C5 1772   4.310   1.419   0.015  0.0905  0.4716 -0.0427
  116MPD2     H 1773   4.609   1.249  17.548 -0.7893 -0.5611  0.4525
  116MPD2    H1 1774   4.445   1.580   0.075 -0.3064  1.1442 -1.0662
  116MPD2    H2 1775   4.207   1.236  17.660 -0.2664  0.4262 -0.6168
  116MPD2    H3 1776   4.227   1.470   0.063 -0.8207 -0.8530 -0.2016
  116MPD2     N 1777   4.665   1.500  17.659  0.7312  0.1485 -0.5569
  116MPD2    H5 1778   4.670   1.590   0.003 -1.0177 -0.1788  0.3215
  116MPD2    N1 1779   4.383   1.100  17.546  0.2071 -0.7803  0.5080
  116MPD2    H7 1780   4.288   1.065  17.556 -0.5245  1.4912  1.5588
  117TMC2    C1 1781   3.657   2.218  13.429  0.9388 -0.2482 -0.1966
  117TMC2    C2 1782   3.774   2.203  13.358  0.0629  0.4327 -0.0437
  117TMC2    C3 1783   3.891   2.253  13.424  0.7942 -0.0039  0.5623
  117TMC2    C4 1784   3.651   2.276  13.557 -0.0109  0.5605 -0.4161
  117TMC2    C5 1785   3.763   2.340  13.602  0.4803 -0.5347  0.7081
  117TMC2    C6 1786   3.881   2.331  13.535  0.9340 -0.1713  0.0957
  117TMC2     C 1787   3.556   2.246  13.335 -0.2551  0.9036  0.2930
  117TMC2     O 1788   3.575   2.215  13.219 -0.2843  0.1491 -0.0547
  117TMC2     H 1789   3.783   2.162  13.258 -1.2048 -2.4172  1.0213
  117TMC2    H1 1790   3.560   2.289  13.615 -0.9237 -2.0294 -1.2589
  117TMC2    H2 1791   3.970   2.386  13.565  0.2685  0.2720  1.2538
  117TMC2    C7 1792   3.733   2.475  13.653 -0.1670 -0.4399 -0.1198
  117TMC2    C8 1793   4.004   2.276  13.341 -0.2909  0.3760  1.0281
  117TMC2    O1 1794   3.761   2.552  13.564  0.1596  0.5045 -0.5349
  117TMC2    O2 1795   4.112   2.292  13.392 -0.1864 -0.0213  0.6020
  117TMC2    O5 1796   3.970   2.299  13.215  0.3155 -0.2151 -0.8454
  117TMC2    H5 1797   3.873   2.317  13.209  0.5984  1.9759  0.6479
  118MPD2     C 1798   3.454   2.570  13.877  0.4694  0.1214 -1.0414
  118MPD2    C1 1799   3.561   2.588  13.789  0.4200  0.1132  0.2367
  118MPD2    C2 1800   3.590   2.710  13.742 -0.4641  0.0865  0.2887
  118MPD2    C3 1801   3.504   2.818  13.765 -0.2012  0.3718 -0.7278
  118MPD2    C4 1802   3.396   2.799  13.849 -0.1012  0.2360  0.1570
  118MPD2    C5 1803   3.375   2.679  13.908 -0.4165 -0.1826  0.1770
  118MPD2     H 1804   3.670   2.723  13.670 -0.3570 -0.2726  0.3465
  118MPD2    H1 1805   3.330   2.878  13.886 -2.3262 -1.7114  0.3514
  118MPD2    H2 1806   3.427   2.470  13.909  0.0029  1.2642  2.1175
  118MPD2    H3 1807   3.286   2.662  13.969 -0.8195  0.3914 -0.2506
  118MPD2     N 1808   3.519   2.951  13.719  0.3920  0.0231 -0.1451
  118MPD2    H5 1809   3.449   3.020  13.741  2.0345  1.6563 -0.0564
  118MPD2    N1 1810   3.637   2.480  13.751  0.3107 -0.8633  0.0619
  118MPD2    H7 1811   3.619   2.394  13.802 -0.2426 -0.8258 -0.0691
  119MPD2     C 1812   2.297   3.725  13.640 -0.0303  0.6584  0.4179
  119MPD2    C1 1813   2.174   3.789  13.627 -0.2522  0.5727 -0.0140
  119MPD2    C2 1814   2.150   3.860  13.515  0.2183 -0.4410  0.5110
  119MPD2    C3 1815   2.230   3.847  13.404  0.2050  0.6445 -0.0701
  119MPD2    C4 1816   2.345   3.774  13.411 -0.0186  0.3150  0.4168
  119MPD2    C5 1817   2.383   3.727  13.535 -0.3077  0.3279  0.3894
  119MPD2     H 1818   2.060   3.919  13.502  0.3933  0.2383  2.4497
  119MPD2    H1 1819   2.417   3.779  13.330 -0.3677  1.7269  0.1933
  119MPD2    H2 1820   2.323   3.670  13.730 -2.7547  1.5970  1.8135
  119MPD2    H3 1821   2.478   3.675  13.538  1.2348  3.2169  1.6093
  119MPD2     N 1822   2.184   3.898  13.275 -1.1316  0.4297  1.1188
  119MPD2    H5 1823   2.246   3.901  13.194 -1.5478  0.5085  0.8039
  119MPD2    N1 1824   2.099   3.793  13.742 -0.1790  0.0433 -0.0670
  119MPD2    H7 1825   2.149   3.781  13.830  1.7648  0.7350 -1.0577
  120TCq2    C1 1826   2.055   3.931  13.240  0.0755 -0.4261  0.0994
  120TCq2    O2 1827   1.959   3.946  13.311 -0.2710 -0.3101  0.4351
  120TCq2    C2 1828   2.045   3.918  13.092  0.7802 -0.0863  0.3500
  120TCq2    C3 1829   2.140   3.850  13.017 -0.0260 -0.2998  0.1153
  120TCq2    C4 1830   2.106   3.802  12.890 -0.8634  0.0352  0.1401
  120TCq2    C5 1831   1.975   3.818  12.849 -0.1966 -0.5332  0.3380
  120TCq2    C6 1832   1.883   3.884  12.926  0.2201 -0.0505 -0.5461
  120TCq2    C7 1833   1.917   3.931  13.046 -0.3443 -0.1882 -0.9082
  120TCq2    C8 1834   1.741   3.868  12.894 -0.4029  0.5791  0.2374
  120TCq2    O4 1835   1.712   3.833  12.782  0.2960 -0.2475  0.0828
  120TCq2    C9 1836   2.208   3.733  12.817  0.0412 -0.4124 -0.0244
  120TCq2    O5 1837   2.167   3.701  12.702 -0.1672 -0.0138 -0.4343
  120TCq2    O6 1838   2.326   3.745  12.863  0.6657 -0.0297  0.6659
  120TCq2    H2 1839   2.242   3.825  13.044 -0.0992  0.9999  1.5739
  120TCq2    H3 1840   1.945   3.765  12.759 -0.9888 -0.9661  0.8682
  120TCq2    H4 1841   1.844   3.983  13.106  1.3846  0.4182  0.6681
  121TMC2    C1 1842   3.275   0.891  14.035  0.7092  0.1899 -0.4626
  121TMC2    C2 1843   3.316   0.834  14.157  0.7533  0.8232 -0.7688
  121TMC2    C3 1844   3.335   0.700  14.163  0.1585 -0.4133 -0.2371
  121TMC2    C4 1845   3.269   0.822  13.920  0.4286  0.4203 -0.5809
  121TMC2    C5 1846   3.285   0.689  13.926  0.2639  0.7666  0.3678
  121TMC2    C6 1847   3.323   0.630  14.046 -0.1532  0.6748  0.9980
  121TMC2     C 1848   3.320   1.034  14.022 -1.0904  0.2416 -0.0800
  121TMC2     O 1849   3.335   1.097  14.127  0.2692  0.6497  0.5950
  121TMC2     H 1850   3.333   0.903  14.239  0.2379  1.3618 -1.1152
  121TMC2    H1 1851   3.244   0.869  13.825 -1.9091 -1.0866 -0.7066
  121TMC2    H2 1852   3.308   0.524  14.067 -1.1493  0.6770  0.3051
  121TMC2    C7 1853   3.215   0.606  13.837 -0.5034  0.8463 -0.6524
  121TMC2    C8 1854   3.343   0.638  14.297  0.3879  0.0106  0.0389
  121TMC2    O1 1855   3.232   0.487  13.840 -0.1624  0.0709 -0.0481
  121TMC2    O2 1856   3.325   0.702  14.399  0.2328 -0.1192 -0.1543
  121TMC2    O5 1857   3.430   0.539  14.288 -0.3653 -0.4943 -0.5485
  121TMC2    H5 1858   3.448   0.506  14.197 -2.9908 -0.6200 -1.0255
  122MPD2     C 1859   3.429   1.302  13.930  0.0711 -1.0219 -0.1590
  122MPD2    C1 1860   3.400   1.198  13.848  0.5017  0.2985 -0.2713
  122MPD2    C2 1861   3.424   1.207  13.711 -0.2954  0.2902 -0.7216
  122MPD2    C3 1862   3.491   1.311  13.660 -0.0140  0.8984 -0.4664
  122MPD2    C4 1863   3.531   1.410  13.745 -1.1440 -0.4506  0.2218
  122MPD2    C5 1864   3.497   1.406  13.876  0.1095 -0.6437  0.5251
  122MPD2     H 1865   3.389   1.121  13.655  0.5996 -0.3107 -0.3629
  122MPD2    H1 1866   3.611   1.480  13.726 -2.0070  0.3192 -0.5751
  122MPD2    H2 1867   3.419   1.302  14.038 -0.9431 -1.0312 -0.2537
  122MPD2    H3 1868   3.543   1.478  13.943  0.6483  0.1853 -0.7299
  122MPD2     N 1869   3.555   1.305  13.534 -0.4953 -0.0714 -0.3607
  122MPD2    H5 1870   3.624   1.374  13.506 -0.8209 -0.1034 -1.2562
  122MPD2    N1 1871   3.339   1.076  13.890 -0.5567 -0.0825 -0.2899
  122MPD2    H7 1872   3.319   1.013  13.813 -0.5586  2.0815 -2.0643
  123MPD2     C 1873   1.212   2.879  10.973 -0.3314 -0.7682 -0.3091
  123MPD2    C1 1874   1.261   2.926  10.856  0.0166 -0.0414  0.3839
  123MPD2    C2 1875   1.349   3.032  10.857  0.3222 -0.1986 -0.2870
  123MPD2    C3 1876   1.362   3.110  10.970 -0.7873 -0.0189  0.6501
  123MPD2    C4 1877   1.305   3.063  11.089 -0.1265  0.2745  0.2883
  123MPD2    C5 1878   1.230   2.947  11.085  0.7136 -0.0681  0.8561
  123MPD2     H 1879   1.406   3.054  10.768  0.6801  1.1200  0.2694
  123MPD2    H1 1880   1.326   3.105  11.186  0.6901  0.2784  0.1151
  123MPD2    H2 1881   1.148   2.793  10.989  0.0872 -1.0791 -0.3007
  123MPD2    H3 1882   1.177   2.912  11.173  1.7869  1.8244  2.2433
  123MPD2     N 1883   1.438   3.226  10.960 -0.1179 -0.1370 -0.8905
  123MPD2    H5 1884   1.498   3.241  10.879  0.9054 -2.0912 -0.4759
  123MPD2    N1 1885   1.230   2.849  10.734 -0.7050 -0.2379  0.2107
  123MPD2    H7 1886   1.150   2.787  10.727 -1.0158  0.1513  0.3343
  124TCq2    C1 1887   1.451   3.314  11.065 -0.3176  0.4472  0.1561
  124TCq2    O2 1888   1.390   3.321  11.172  0.2696 -0.1305 -0.4301
  124TCq2    C2 1889   1.550   3.416  11.040 -0.3138  0.1476 -0.5622
  124TCq2    C3 1890   1.550   3.519  11.129  0.0998 -0.0551  0.0593
  124TCq2    C4 1891   1.669   3.586  11.152  0.3498 -0.0622 -0.2709
  124TCq2    C5 1892   1.779   3.554  11.080  0.2598  0.4086 -0.4882
  124TCq2    C6 1893   1.774   3.459  10.977  0.0117 -0.0392 -0.6366
  124TCq2    C7 1894   1.659   3.392  10.953 -0.4132  0.8881 -0.1916
  124TCq2    C8 1895   1.877   3.463  10.874 -0.5234  0.0154  0.2354
  124TCq2    O4 1896   1.990   3.500  10.910  0.2859  0.4298  0.1828
  124TCq2    C9 1897   1.669   3.687  11.254 -0.1838  0.3923  0.8485
  124TCq2    O5 1898   1.778   3.730  11.294 -0.3693  0.0119 -0.0952
  124TCq2    O6 1899   1.562   3.722  11.309 -0.1776  0.3522  0.1353
  124TCq2    H2 1900   1.473   3.548  11.199  2.7934  1.8560  2.2007
  124TCq2    H3 1901   1.858   3.626  11.097  1.6910 -1.3889  0.4683
  124TCq2    H4 1902   1.654   3.303  10.891  1.3589  0.1832  0.6863
  125TMC2    C1 1903   2.680   1.649   9.186 -0.0875  0.2211  0.5655
  125TMC2    C2 1904   2.627   1.739   9.278  0.0123 -0.0159  0.6538
  125TMC2    C3 1905   2.571   1.678   9.386 -0.2637  0.1517 -0.4522
  125TMC2    C4 1906   2.679   1.517   9.200 -0.9664 -0.1125  0.8823
  125TMC2    C5 1907   2.613   1.458   9.306  0.2358 -0.2971 -0.2670
  125TMC2    C6 1908   2.551   1.540   9.401  0.5354  0.3415 -0.1061
  125TMC2     C 1909   2.757   1.703   9.080  0.2262 -0.1741 -0.3446
  125TMC2     O 1910   2.808   1.620   9.005  0.0889 -0.6399  0.2760
  125TMC2     H 1911   2.632   1.847   9.263 -0.8895 -0.2864 -1.6356
  125TMC2    H1 1912   2.719   1.458   9.119  2.4809  2.3285  0.8007
  125TMC2    H2 1913   2.508   1.489   9.487  1.9049  0.3001  0.5476
  125TMC2    C7 1914   2.623   1.313   9.326 -0.4753  0.7733 -0.3673
  125TMC2    C8 1915   2.544   1.766   9.499  0.0096 -0.1746  0.3404
  125TMC2    O1 1916   2.535   1.249   9.387 -0.3618  0.0130  0.4685
  125TMC2    O2 1917   2.517   1.884   9.480  0.1134 -0.2341  0.9678
  125TMC2    O5 1918   2.515   1.706   9.618  0.4809  0.3091  0.3851
  125TMC2    H5 1919   2.531   1.609   9.620 -0.4746  0.1696  1.2907
  126MPD1     C 1920   2.886   2.073   8.766 -0.2911 -0.0509  0.2574
  126MPD1    C1 1921   2.935   2.114   8.890 -0.1846  0.1225 -0.0361
  126MPD1    C2 1922   2.884   2.039   8.998 -0.5692  0.2367  0.1516
  126MPD1    C3 1923   2.828   1.916   8.974 -0.1251 -0.0349 -0.6263
  126MPD1    C4 1924   2.811   1.865   8.855  0.3275  0.2844 -0.2774
  126MPD1    C5 1925   2.836   1.948   8.749  0.0840  0.1325  1.2973
  126MPD1     H 1926   2.904   2.062   9.102 -0.5364  0.2146  0.1502
  126MPD1    H1 1927   2.772   1.767   8.831  1.1662  0.2201 -1.3933
  126MPD1    H2 1928   2.902   2.133   8.677  2.3600  0.2027  0.9103
  126MPD1    H3 1929   2.807   1.922   8.648  1.4510  3.2833  0.1128
  126MPD1     N 1930   2.784   1.840   9.085  0.2570 -0.0784  0.1694
  126MPD1    H5 1931   2.767   1.895   9.170 -0.7041 -1.0643  0.6127
  126MPD1    N1 1932   3.009   2.231   8.909  0.0099 -0.0820  0.8212
  126MPD1    H6 1933   3.082   2.237   8.981 -1.4946 -0.3440  2.3660
  126MPD1    H7 1934   3.065   2.256   8.827  0.6054  2.3409  1.9630
  127MPD2     C 1935   3.594   4.426   8.845 -0.7209  0.0932 -0.3922
  127MPD2    C1 1936   3.656   4.359   8.952 -0.3277  0.2741 -0.7432
  127MPD2    C2 1937   3.762   4.430   9.012  0.2341  0.2801  0.4633
  127MPD2    C3 1938   3.808   4.548   8.954 -0.2093 -0.6942  0.1166
  127MPD2    C4 1939   3.751   4.603   8.839 -0.8780  0.4868 -0.1434
  127MPD2    C5 1940   3.643   4.543   8.790  0.1623 -0.2624  0.1207
  127MPD2     H 1941   3.810   4.401   9.105  1.1188  0.4800  0.0748
  127MPD2    H1 1942   3.812   4.676   8.786 -1.4658  1.4457  0.4968
  127MPD2    H2 1943   3.510   4.374   8.801 -0.9712 -1.1635  1.5425
  127MPD2    H3 1944   3.609   4.575   8.692 -1.8147  1.8767  1.4940
  127MPD2     N 1945   3.912   4.617   9.015 -0.0644 -0.4006  0.3454
  127MPD2    H5 1946   3.963   4.576   9.093  1.3911 -0.2486 -0.5241
  127MPD2    N1 1947   3.601   4.244   9.018  0.2416 -0.1334 -0.5091
  127MPD2    H7 1948   3.515   4.203   8.981  0.1842 -0.3694 -0.1218
  128TCq2    C1 1949   3.662   4.181   9.124  0.1488  0.3764 -0.4545
  128TCq2    O2 1950   3.774   4.189   9.170  0.3916 -0.1151  0.4716
  128TCq2    C2 1951   3.585   4.065   9.179  0.2510 -0.2703 -0.6122
  128TCq2    C3 1952   3.652   3.986   9.270  0.4316 -0.7370  1.1288
  128TCq2    C4 1953   3.583   3.877   9.314  0.3478 -0.2690 -0.4477
  128TCq2    C5 1954   3.450   3.857   9.286 -0.5786  1.0167  0.3047
  128TCq2    C6 1955   3.385   3.942   9.192  0.2723  1.0140  0.3651
  128TCq2    C7 1956   3.453   4.051   9.149  0.5048 -0.1775 -0.0538
  128TCq2    C8 1957   3.244   3.931   9.168  0.8683 -0.2190  0.2397
  128TCq2    O4 1958   3.190   4.010   9.089 -0.1270 -0.9771  0.4241
  128TCq2    C9 1959   3.643   3.801   9.427 -0.5253  0.0828 -0.2174
  128TCq2    O5 1960   3.760   3.832   9.459  0.1613 -0.4697  0.6679
  128TCq2    O6 1961   3.567   3.725   9.491  0.4642 -0.4689  0.7958
  128TCq2    H2 1962   3.755   4.010   9.296 -0.2593  0.9433  2.3104
  128TCq2    H3 1963   3.403   3.776   9.339 -1.1097  0.6335 -0.7496
  128TCq2    H4 1964   3.405   4.128   9.091  0.1116 -1.2750 -1.1889
  129MPD2     C 1965   2.253   1.322   1.142  0.6295  0.1496 -0.6251
  129MPD2    C1 1966   2.275   1.233   1.041 -0.1727  0.2142  0.2759
  129MPD2    C2 1967   2.254   1.262   0.907  0.5055 -0.3340  0.1444
  129MPD2    C3 1968   2.182   1.381   0.876 -0.3772  0.0348  0.6586
  129MPD2    C4 1969   2.155   1.469   0.978  0.1106 -0.0162 -0.1524
  129MPD2    C5 1970   2.200   1.439   1.107  0.1786 -0.5996 -0.7628
  129MPD2     H 1971   2.280   1.193   0.828 -1.1113  0.5219 -1.1566
  129MPD2    H1 1972   2.109   1.566   0.969 -1.4166 -0.6270  1.0372
  129MPD2    H2 1973   2.283   1.305   1.245  0.5867  0.3112 -0.5866
  129MPD2    H3 1974   2.181   1.509   1.187 -0.5362 -0.9955 -0.5856
  129MPD2     N 1975   2.161   1.413   0.745 -0.7295 -0.2282 -0.6721
  129MPD2    H5 1976   2.202   1.353   0.675 -1.8730 -1.4135 -0.3410
  129MPD2    N1 1977   2.343   1.110   1.073  0.4662  0.2963 -0.4503
  129MPD2    H7 1978   2.380   1.047   1.002 -0.4611 -0.4746 -0.2531
  130TCq2    C1 1979   2.329   1.054   1.197 -0.0277  0.3723 -0.2559
  130TCq2    O2 1980   2.247   1.070   1.290  0.9165 -0.4954 -0.2143
  130TCq2    C2 1981   2.402   0.933   1.204  0.0673 -0.9004  0.1790
  130TCq2    C3 1982   2.523   0.919   1.140 -0.2226  0.0672  0.6286
  130TCq2    C4 1983   2.589   0.806   1.168  0.2843 -1.0337  0.1085
  130TCq2    C5 1984   2.537   0.699   1.238  0.4162  0.7445 -0.6969
  130TCq2    C6 1985   2.410   0.714   1.288 -0.2310 -0.1097 -0.5282
  130TCq2    C7 1986   2.346   0.838   1.285 -1.0271 -0.4904  0.2785
  130TCq2    C8 1987   2.323   0.589   1.295  0.3298 -0.1691 -0.5451
  130TCq2    O4 1988   2.206   0.606   1.298  0.1463 -0.6969  0.1125
  130TCq2    C9 1989   2.713   0.781   1.096  0.0770 -0.1667 -0.0942
  130TCq2    O5 1990   2.789   0.685   1.135 -0.1994 -0.7346 -0.5737
  130TCq2    O6 1991   2.746   0.864   1.004  0.8340 -0.2240  0.8007
  130TCq2    H2 1992   2.577   1.005   1.103 -3.1240  1.4394 -0.4262
  130TCq2    H3 1993   2.593   0.608   1.222 -2.0456 -0.8935 -0.0337
  130TCq2    H4 1994   2.242   0.834   1.315 -0.9634  2.6738  0.9641
  131MPD2     C 1995   1.550   3.073   9.790  0.1998  0.5805  0.7239
  131MPD2    C1 1996   1.548   3.162   9.895  0.0663 -0.0383 -0.5298
  131MPD2    C2 1997   1.477   3.121  10.008 -0.5287 -0.4452  0.1526
  131MPD2    C3 1998   1.408   2.996  10.002  0.2347 -0.3033  0.8306
  131MPD2    C4 1999   1.413   2.913   9.892 -0.0493  0.5405 -0.4349
  131MPD2    C5 2000   1.491   2.950   9.786  0.1024 -0.7124  0.1342
  131MPD2     H 2001   1.480   3.180  10.100 -2.1506 -0.9943  0.5551
  131MPD2    H1 2002   1.374   2.812   9.895 -0.4315  0.6756 -1.0013
  131MPD2    H2 2003   1.617   3.092   9.707 -1.4982 -0.6893 -0.9129
  131MPD2    H3 2004   1.503   2.882   9.703 -0.8763  1.9752 -2.2291
  131MPD2     N 2005   1.344   2.954  10.123  0.7201  0.4217  0.4030
  131MPD2    H5 2006   1.359   3.004  10.210 -0.6940 -1.7113  1.8547
  131MPD2    N1 2007   1.619   3.279   9.887  0.5793  0.1990 -0.3576
  131MPD2    H7 2008   1.673   3.295   9.802  1.1701  0.1553  0.0046
  132TCq2    C1 2009   1.686   3.709   9.668 -0.0386 -0.0430  0.5817
  132TCq2    O2 2010   1.614   3.650   9.591 -0.2794  0.1130  0.8376
  132TCq2    C2 2011   1.752   3.640   9.783 -0.5430  0.0129 -0.0611
  132TCq2    C3 2012   1.859   3.691   9.844  0.2540 -0.4248  0.3190
  132TCq2    C4 2013   1.902   3.631   9.960  0.1830 -0.1136  0.1333
  132TCq2    C5 2014   1.836   3.530  10.018 -0.4463  0.2948  0.3099
  132TCq2    C6 2015   1.727   3.479   9.946 -0.3037  0.3847 -0.1112
  132TCq2    C7 2016   1.683   3.533   9.833  0.3834 -0.1437  0.1530
  132TCq2    C8 2017   1.649   3.363   9.997 -0.6446  0.3856 -0.3132
  132TCq2    O4 2018   1.633   3.346  10.117 -0.2621 -0.3059  0.4073
  132TCq2    C9 2019   2.020   3.685  10.020  0.6738 -0.2666 -0.2039
  132TCq2    O5 2020   2.110   3.599  10.062 -0.5851 -0.0691 -0.3458
  132TCq2    O6 2021   2.036   3.814  10.018  0.4207  0.2548 -1.0649
  132TCq2    H2 2022   1.920   3.775   9.811  1.7590 -1.9991 -0.9180
  132TCq2    H3 2023   1.882   3.471  10.097 -3.7827 -0.6649  1.5446
  132TCq2    H4 2024   1.599   3.494   9.778 -0.5271  1.0492  0.7036
  133MPD2     C 2025   1.236   0.073   9.894  0.0460  0.0116  0.1106
  133MPD2    C1 2026   1.169   0.087   9.774  0.1911 -0.2093 -0.5651
  133MPD2    C2 2027   1.133   4.703   9.697 -0.2310  0.1219 -0.5396
  133MPD2    C3 2028   1.167   4.574   9.735  0.4137 -0.5511 -0.3587
  133MPD2    C4 2029   1.233   4.561   9.850 -0.9406  0.4723  0.1564
  133MPD2    C5 2030   1.262   4.672   9.931  0.2299  0.3820  0.1508
  133MPD2     H 2031   1.090   4.721   9.599  0.7201  0.6122 -0.8664
  133MPD2    H1 2032   1.264   4.465   9.891 -0.1954  0.2649 -0.8961
  133MPD2    H2 2033   1.245   0.154   9.965  0.3262 -0.2689  0.3894
  133MPD2    H3 2034   1.324   4.655  10.018 -1.0539  0.5921  1.1064
  133MPD2     N 2035   1.149   4.452   9.658  0.2437  0.0194 -0.0313
  133MPD2    H5 2036   1.178   4.360   9.691  1.9035  0.1898 -0.9852
  133MPD2    N1 2037   1.124   0.219   9.736 -0.1945 -0.2377  0.2386
  133MPD2    H7 2038   1.142   0.296   9.800  0.4886  1.3049 -1.8169
  134TCq2    C1 2039   1.064   0.259   9.613  0.4101 -0.5978  0.3064
  134TCq2    O2 2040   1.044   0.195   9.510  0.1718 -0.3506  0.7934
  134TCq2    C2 2041   1.012   0.391   9.623 -0.3117 -0.1245  0.2488
  134TCq2    C3 2042   0.935   0.439   9.721  0.3753  0.1937  0.2088
  134TCq2    C4 2043   0.861   0.549   9.708 -0.7302  0.5256  0.0883
  134TCq2    C5 2044   0.869   0.627   9.601 -0.8815  0.1545  0.4677
  134TCq2    C6 2045   0.945   0.577   9.498  0.1304  0.2776 -0.6036
  134TCq2    C7 2046   1.018   0.465   9.505  0.1878 -0.1837  0.1245
  134TCq2    C8 2047   0.963   0.664   9.384  0.0575  0.3437 -1.4496
  134TCq2    O4 2048   0.933   0.782   9.393 -0.7902  0.1053 -0.1309
  134TCq2    C9 2049   0.782   0.594   9.823 -0.6670  0.1200  0.5288
  134TCq2    O5 2050   0.797   0.529   9.929 -0.0505 -0.1773  0.0220
  134TCq2    O6 2051   0.690   0.677   9.799 -0.4922  0.3127 -0.1667
  134TCq2    H2 2052   0.930   0.380   9.812 -0.0397  0.8577  0.6136
  134TCq2    H3 2053   0.816   0.722   9.603 -0.1447  0.5772 -0.3943
  134TCq2    H4 2054   1.088   0.436   9.427  0.6671  1.3544 -0.0248
  135MPD2     C 2055   3.078   1.569   9.182 -0.3127  0.1271  0.0264
  135MPD2    C1 2056   3.118   1.447   9.235 -0.0332 -0.2538 -0.6103
  135MPD2    C2 2057   3.211   1.373   9.174  0.5909  0.3151 -0.6950
  135MPD2    C3 2058   3.261   1.415   9.052 -0.7782  0.1091 -0.1497
  135MPD2    C4 2059   3.219   1.538   9.004  0.1445 -1.1421 -0.4554
  135MPD2    C5 2060   3.118   1.605   9.062  0.9824 -0.2339 -0.6959
  135MPD2     H 2061   3.243   1.277   9.215 -0.3404  1.4815  2.7194
  135MPD2    H1 2062   3.260   1.588   8.917 -3.4531  1.5009 -0.6560
  135MPD2    H2 2063   2.998   1.631   9.221  0.9535  0.4747  2.0371
  135MPD2    H3 2064   3.071   1.693   9.019  2.2978  1.0448  0.4951
  135MPD2     N 2065   3.357   1.351   8.970  0.1163  0.5071 -0.2419
  135MPD2    H5 2066   3.367   1.406   8.885 -0.5767 -0.6168 -1.0367
  135MPD2    N1 2067   3.068   1.399   9.360  0.6315 -0.6668 -0.3158
  135MPD2    H7 2068   3.099   1.312   9.401 -0.0333  0.5602  2.7945
  136TCq2    C1 2069   2.976   1.459   9.443 -0.8207  0.5802  0.2341
  136TCq2    O2 2070   2.911   1.562   9.421  0.4425  0.0555 -0.4932
  136TCq2    C2 2071   2.930   1.378   9.550  0.0234 -0.2495 -0.0037
  136TCq2    C3 2072   2.814   1.412   9.605 -0.2390  0.6914 -0.4400
  136TCq2    C4 2073   2.741   1.314   9.675  0.2066 -0.5221 -0.1521
  136TCq2    C5 2074   2.791   1.188   9.692  0.5218  0.1846  0.0361
  136TCq2    C6 2075   2.913   1.159   9.645 -0.7530 -0.5162  0.4700
  136TCq2    C7 2076   2.979   1.253   9.569 -0.6368 -0.4114  0.3904
  136TCq2    C8 2077   2.995   1.052   9.701 -0.1952  0.2251  0.2019
  136TCq2    O4 2078   3.118   1.063   9.693  0.4261 -0.2905 -0.1788
  136TCq2    C9 2079   2.616   1.350   9.726  0.1934  0.1934  0.2191
  136TCq2    O5 2080   2.584   1.473   9.711 -0.3011  0.1156  0.5903
  136TCq2    O6 2081   2.538   1.258   9.760  0.0754  0.3324 -0.3375
  136TCq2    H2 2082   2.775   1.513   9.594 -0.3832  0.5916 -0.8518
  136TCq2    H3 2083   2.739   1.114   9.751  0.9307 -2.8812 -3.4408
  136TCq2    H4 2084   3.065   1.211   9.519 -1.5566 -1.8637  0.0338
  137MPD2     C 2085   2.546   3.994   9.314 -0.3878  0.7349 -0.2195
  137MPD2    C1 2086   2.636   4.056   9.230 -0.6608  0.4620 -0.3206
  137MPD2    C2 2087   2.756   4.098   9.275  0.2692  0.0876  0.3443
  137MPD2    C3 2088   2.774   4.096   9.418  0.9523  0.2230 -0.2655
  137MPD2    C4 2089   2.684   4.033   9.500  0.0464 -0.0659 -0.7016
  137MPD2    C5 2090   2.573   3.970   9.445 -0.4942  0.0053 -0.5106
  137MPD2     H 2091   2.828   4.154   9.216  0.0536  0.5575  0.5228
  137MPD2    H1 2092   2.690   4.012   9.607 -0.7692 -2.2740 -1.0828
  137MPD2    H2 2093   2.450   3.956   9.280  0.2478  0.4974 -1.7365
  137MPD2    H3 2094   2.509   3.918   9.516  0.7100  0.8213  1.1814
  137MPD2     N 2095   2.888   4.168   9.472 -0.5485  0.3305  0.4578
  137MPD2    H5 2096   2.947   4.213   9.402 -0.1874  0.5056  0.8752
  137MPD2    N1 2097   2.604   4.062   9.092  0.0799 -0.0532 -0.3317
  137MPD2    H7 2098   2.511   4.027   9.069  0.5285 -0.8790 -0.9136
  138TCq2    C1 2099   2.686   4.072   8.981 -0.1248 -0.1467  0.4856
  138TCq2    O2 2100   2.810   4.084   8.979 -0.0194  0.5692  0.0871
  138TCq2    C2 2101   2.616   4.058   8.856  0.4236  0.1594 -0.0118
  138TCq2    C3 2102   2.693   4.022   8.745 -0.5247 -0.1147  0.2151
  138TCq2    C4 2103   2.640   4.051   8.618 -0.7322 -0.0045  0.6161
  138TCq2    C5 2104   2.517   4.113   8.603 -0.5012 -0.6272 -0.5363
  138TCq2    C6 2105   2.454   4.176   8.714  0.5457  0.2180 -0.3751
  138TCq2    C7 2106   2.500   4.141   8.842  0.0315 -0.7204  0.1456
  138TCq2    C8 2107   2.313   4.199   8.702 -0.0619 -0.5483  0.5660
  138TCq2    O4 2108   2.256   4.164   8.596 -0.6357  0.3627  0.2343
  138TCq2    C9 2109   2.719   4.017   8.508  0.2027  0.0381  0.6270
  138TCq2    O5 2110   2.681   4.063   8.395  0.2965 -0.6467 -0.0344
  138TCq2    O6 2111   2.842   3.996   8.532  0.0841  1.0750 -0.4040
  138TCq2    H2 2112   2.786   3.968   8.761 -2.2069 -2.2684  2.6502
  138TCq2    H3 2113   2.481   4.121   8.502  0.4631 -0.7776 -0.8885
  138TCq2    H4 2114   2.458   4.179   8.934  2.3086  1.6828  0.1811
  139TMC2    C1 2115   3.440   3.552  13.222  0.0643 -0.3761  0.2160
  139TMC2    C2 2116   3.523   3.643  13.167  0.2554 -0.5255 -0.0519
  139TMC2    C3 2117   3.493   3.774  13.194 -0.3895  1.0233 -0.1319
  139TMC2    C4 2118   3.339   3.586  13.309 -0.4801 -0.3344  0.1072
  139TMC2    C5 2119   3.323   3.718  13.340 -0.5706  0.3923 -0.4936
  139TMC2    C6 2120   3.402   3.820  13.282 -0.1216 -0.6128 -1.3181
  139TMC2     C 2121   3.490   3.407  13.208  0.2553  0.9802  0.0832
  139TMC2     O 2122   3.578   3.395  13.124 -0.0677 -0.2216 -0.4103
  139TMC2     H 2123   3.589   3.618  13.085 -0.4450 -0.5394 -0.6144
  139TMC2    H1 2124   3.273   3.513  13.355 -2.0709  1.0340 -0.0181
  139TMC2    H2 2125   3.388   3.922  13.315 -0.3811 -0.8706 -0.6331
  139TMC2    C7 2126   3.194   3.760  13.392  0.5270  0.6107  0.6683
  139TMC2    C8 2127   3.594   3.870  13.149  0.3964 -0.1715 -0.3465
  139TMC2    O1 2128   3.169   3.882  13.380  0.1708  0.4456 -0.0965
  139TMC2    O2 2129   3.713   3.841  13.173  1.4333  0.0933 -0.3673
  139TMC2    O5 2130   3.542   3.996  13.152 -0.2665 -0.1485  0.0585
  139TMC2    H5 2131   3.451   4.002  13.117 -0.0374  1.5522 -0.2713
  140MPD2     C 2132   3.392   3.086  13.368  0.1022  0.2410 -0.8725
  140MPD2    C1 2133   3.465   3.169  13.285  0.2058  0.0513 -0.3560
  140MPD2    C2 2134   3.550   3.109  13.192 -0.0457 -0.2701 -0.5478
  140MPD2    C3 2135   3.570   2.968  13.197  0.2693  0.2595  0.7243
  140MPD2    C4 2136   3.495   2.890  13.286  0.2710  0.0872  0.0781
  140MPD2    C5 2137   3.399   2.949  13.368  1.0915 -0.1611  0.0543
  140MPD2     H 2138   3.595   3.170  13.115  1.4241 -1.7626 -0.8800
  140MPD2    H1 2139   3.510   2.784  13.299  1.6245  0.3510  0.6927
  140MPD2    H2 2140   3.317   3.138  13.427  0.9124 -2.1579  2.2456
  140MPD2    H3 2141   3.342   2.891  13.440 -1.0344  1.2032 -0.5303
  140MPD2     N 2142   3.657   2.915  13.097  0.3552  0.2189 -0.3093
  140MPD2    H5 2143   3.716   2.970  13.036  0.0164 -0.3767 -1.1754
  140MPD2    N1 2144   3.434   3.310  13.292 -0.5342  0.9040  0.3899
  140MPD2    H7 2145   3.368   3.338  13.363  0.3569 -0.9424  1.9443
  141TCq2    C1 2146   3.824   4.492  14.691  0.9260 -0.4071 -0.5072
  141TCq2    O2 2147   3.818   4.576  14.603 -0.4689 -0.3225 -0.1187
  141TCq2    C2 2148   3.740   4.496  14.809 -0.1542  0.3961 -0.3053
  141TCq2    C3 2149   3.721   4.394  14.894 -0.3256 -0.2355  0.2401
  141TCq2    C4 2150   3.652   4.411  15.008 -0.4928  0.1669 -0.4429
  141TCq2    C5 2151   3.602   4.535  15.041  0.0472  1.0978  0.1851
  141TCq2    C6 2152   3.627   4.642  14.960 -0.0027 -0.3484  0.4538
  141TCq2    C7 2153   3.695   4.622  14.841  1.0788  0.2004  0.7195
  141TCq2    C8 2154   3.547   0.036  14.979 -0.2194  0.1503 -0.2214
  141TCq2    O4 2155   3.465   0.027  15.074 -0.9045 -0.0946 -0.2590
  141TCq2    C9 2156   3.646   4.298  15.101  0.0492 -0.5392  0.1198
  141TCq2    O5 2157   3.577   4.316  15.207 -0.2758 -0.4569  0.4101
  141TCq2    O6 2158   3.725   4.203  15.077  0.1335 -0.6488  0.1298
  141TCq2    H2 2159   3.749   4.292  14.868 -0.2830  0.0145 -0.6734
  141TCq2    H3 2160   3.551   4.545  15.137  0.5630  1.5027  0.4179
  141TCq2    H4 2161   3.704   4.698  14.765  0.5885 -2.3389 -1.8692
  142MPD2     C 2162   1.342   2.465  10.576 -0.5162 -0.1105 -0.1511
  142MPD2    C1 2163   1.338   2.451  10.437 -0.5142  0.6793 -0.0695
  142MPD2    C2 2164   1.426   2.529  10.361  0.4257  0.2101 -0.0944
  142MPD2    C3 2165   1.514   2.622  10.411  1.1224  0.3872  0.2806
  142MPD2    C4 2166   1.513   2.631  10.551 -0.0303  0.0694 -0.5134
  142MPD2    C5 2167   1.426   2.556  10.632 -0.4369 -0.2546  0.2592
  142MPD2     H 2168   1.426   2.521  10.253 -0.6105  1.9343 -0.2330
  142MPD2    H1 2169   1.573   2.703  10.604 -3.5660  2.0185  0.8646
  142MPD2    H2 2170   1.280   2.406  10.643 -0.0454 -2.8553 -2.1069
  142MPD2    H3 2171   1.423   2.571  10.739  1.1448  1.3998  0.0672
  142MPD2     N 2172   1.584   2.716  10.335  0.0062  0.0015 -0.2775
  142MPD2    H5 2173   1.642   2.782  10.385  0.5439 -0.6767 -0.0141
  142MPD2    N1 2174   1.262   2.355  10.376 -0.3669 -0.2085 -0.0435
  142MPD2    H7 2175   1.224   2.290  10.444  1.6462  0.4775  1.7068
  143TCq2    C1 2176   1.595   2.724  10.196 -0.0496  0.1753  0.1571
  143TCq2    O2 2177   1.536   2.662  10.116 -0.1472  0.0454 -0.4257
  143TCq2    C2 2178   1.682   2.836  10.164 -0.8323  1.2170 -0.3767
  143TCq2    C3 2179   1.757   2.833  10.050 -0.2385  0.7127  0.1953
  143TCq2    C4 2180   1.833   2.939  10.014 -0.3659  0.2374  0.3945
  143TCq2    C5 2181   1.833   3.057  10.092  0.7061  0.1438 -0.0701
  143TCq2    C6 2182   1.764   3.051  10.213  0.6219  0.1303 -0.4492
  143TCq2    C7 2183   1.684   2.945  10.246 -0.4971 -0.4286 -0.2276
  143TCq2    C8 2184   1.782   3.151  10.313 -0.5395 -0.7648  0.1955
  143TCq2    O4 2185   1.683   3.183  10.373  0.2493 -0.2743 -0.2084
  143TCq2    C9 2186   1.903   2.948   9.893 -0.0549  0.4755 -0.2321
  143TCq2    O5 2187   1.971   3.049   9.890 -0.3413  0.4780 -0.2691
  143TCq2    O6 2188   1.889   2.849   9.812  0.3613  0.1874  0.8646
  143TCq2    H2 2189   1.746   2.756   9.975  0.6761  1.4551 -0.7031
  143TCq2    H3 2190   1.885   3.147  10.059  0.5038  0.8024  1.4001
  143TCq2    H4 2191   1.616   2.948  10.330  2.1989 -0.6332  1.9666
  144MPD2     C 2192   3.707   2.346   0.131  0.2251  0.0409  0.2067
  144MPD2    C1 2193   3.845   2.363   0.116  0.1955  0.0800  1.3489
  144MPD2    C2 2194   3.918   2.440   0.214 -0.2454  0.8645 -0.6732
  144MPD2    C3 2195   3.848   2.494   0.321  0.2779 -0.2285 -0.0143
  144MPD2    C4 2196   3.713   2.479   0.328 -0.1373 -0.0002 -0.6758
  144MPD2    C5 2197   3.640   2.401   0.233  0.7057  0.0524  0.9546
  144MPD2     H 2198   4.026   2.446   0.206 -0.0706 -1.9919 -0.4389
  144MPD2    H1 2199   3.667   2.518   0.418 -0.2413  0.2994 -0.8583
  144MPD2    H2 2200   3.665   2.278   0.058 -1.8167  0.5176  0.9616
  144MPD2    H3 2201   3.533   2.386   0.241  0.5121 -0.0442 -1.9550
  144MPD2     N 2202   3.916   2.557   0.428  0.3034 -0.4976  0.0113
  144MPD2    H5 2203   3.853   2.594   0.499  0.5000  0.5248 -0.3456
  144MPD2    N1 2204   3.912   2.311  17.701  0.1543 -1.0801 -0.2722
  144MPD2    H7 2205   4.013   2.299  17.701  0.4060  1.0706 -0.7790
  145TCq2    C1 2206   4.055   2.575   0.442 -0.2819 -0.6131  0.5818
  145TCq2    O2 2207   4.146   2.514   0.391  0.2640 -0.0720  0.0746
  145TCq2    C2 2208   4.086   2.679   0.529 -0.3394  0.6034 -0.0519
  145TCq2    C3 2209   4.222   2.704   0.545 -0.0328  0.0821 -0.0110
  145TCq2    C4 2210   4.249   2.808   0.626 -0.0279 -0.8008 -0.2948
  145TCq2    C5 2211   4.151   2.888   0.687 -0.3637 -0.4876  0.0225
  145TCq2    C6 2212   4.017   2.858   0.664  0.7503  0.2673  0.3588
  145TCq2    C7 2213   3.981   2.756   0.587 -0.9493 -0.5329  0.3402
  145TCq2    C8 2214   3.929   2.899   0.771 -0.4040 -0.0862 -0.2590
  145TCq2    O4 2215   3.846   2.810   0.810  0.3955  0.3907 -0.1398
  145TCq2    C9 2216   4.391   2.840   0.650 -0.0649 -0.0933 -0.3268
  145TCq2    O5 2217   4.417   2.931   0.732  0.1744  0.5119  0.1134
  145TCq2    O6 2218   4.475   2.774   0.585 -0.1508  0.6610 -0.0021
  145TCq2    H2 2219   4.301   2.649   0.496  2.0193  0.3622  2.9720
  145TCq2    H3 2220   4.183   2.966   0.755  1.5030 -1.0530 -0.2051
  145TCq2    H4 2221   3.879   2.724   0.604 -1.7763  2.1574  0.4248
  146TMC2    C1 2222   0.871   0.804  11.907 -0.3262 -0.9137 -0.2099
  146TMC2    C2 2223   0.785   0.791  11.801 -0.4204 -0.1244  0.1109
  146TMC2    C3 2224   0.845   0.761  11.684  0.1245 -0.2009  0.4405
  146TMC2    C4 2225   1.012   0.786  11.901  0.0477 -0.0749  0.1752
  146TMC2    C5 2226   1.060   0.762  11.775 -0.3785  1.1564 -0.2047
  146TMC2    C6 2227   0.976   0.750  11.666  0.5445 -0.2205 -0.0171
  146TMC2     C 2228   0.805   0.831  12.029 -0.1637 -0.0934 -0.4723
  146TMC2     O 2229   0.710   0.908  12.024 -0.1669  0.1962  0.0751
  146TMC2     H 2230   0.679   0.775  11.817  0.1584 -2.7599  1.3546
  146TMC2    H1 2231   1.066   0.823  11.988 -0.1307 -0.2205  0.3481
  146TMC2    H2 2232   1.017   0.735  11.567  0.8783 -0.4221  0.1543
  146TMC2    C7 2233   1.201   0.777  11.755 -0.9995  0.7286 -0.2876
  146TMC2    C8 2234   0.750   0.694  11.594  0.1884  0.1718  0.4526
  146TMC2    O1 2235   1.250   0.804  11.645 -0.4693 -0.1887 -0.1296
  146TMC2    O2 2236   0.787   0.618  11.506 -0.4293  0.6981 -0.0743
  146TMC2    O5 2237   0.640   0.761  11.586  0.3325  0.1397  0.3546
  146TMC2    H5 2238   0.641   0.842  11.641 -1.5024  0.6597 -0.3672
  147MPD2     C 2239   1.653   0.749  11.984 -0.0797 -0.5020 -0.2383
  147MPD2    C1 2240   1.559   0.675  12.060  0.4506  0.5636  0.9126
  147MPD2    C2 2241   1.426   0.661  12.009 -0.0536  0.1636  0.5564
  147MPD2    C3 2242   1.397   0.710  11.889  0.0339 -0.2157 -0.0820
  147MPD2    C4 2243   1.491   0.777  11.818  0.4282  0.3490  0.4193
  147MPD2    C5 2244   1.617   0.797  11.859 -0.6922 -0.1953 -0.8995
  147MPD2     H 2245   1.346   0.633  12.075 -0.0043  1.9093  1.3708
  147MPD2    H1 2246   1.470   0.815  11.719 -1.3099 -3.1240 -0.5809
  147MPD2    H2 2247   1.755   0.782  11.998 -0.2978 -0.4857  1.4260
  147MPD2    H3 2248   1.678   0.859  11.795 -1.9677  0.1291 -1.7974
  147MPD2     N 2249   1.263   0.717  11.859 -0.0081  0.2671 -0.0609
  147MPD2    H5 2250   1.202   0.663  11.920  0.1947  0.2103  0.0902
  147MPD2    N1 2251   1.581   0.637  12.192 -0.0344 -0.2325 -0.1608
  147MPD2    H7 2252   1.673   0.644  12.233  0.3298  3.0402 -1.5889
  148MPD2     C 2253   1.047   4.167  10.807 -0.4158  0.4892 -0.2728
  148MPD2    C1 2254   1.099   4.042  10.778 -0.7775 -0.2893 -0.1517
  148MPD2    C2 2255   1.045   3.963  10.679 -0.1759 -0.1323  0.3045
  148MPD2    C3 2256   0.922   3.991  10.614 -0.1327  0.0654  0.5695
  148MPD2    C4 2257   0.865   4.113  10.650  0.3174  0.9492 -0.2883
  148MPD2    C5 2258   0.926   4.198  10.743 -0.5199  0.3535 -0.1504
  148MPD2     H 2259   1.093   3.870  10.653 -1.6651  0.0100 -2.9789
  148MPD2    H1 2260   0.776   4.140  10.594 -0.5167  2.2946  1.6913
  148MPD2    H2 2261   1.100   4.241  10.867 -1.3942  1.1409 -0.2167
  148MPD2    H3 2262   0.883   4.297  10.754  0.1336  0.3913  2.2443
  148MPD2     N 2263   0.867   3.909  10.513  0.5680  0.3629 -0.1393
  148MPD2    H5 2264   0.789   3.940  10.456  1.7981 -1.8490 -2.9960
  148MPD2    N1 2265   1.222   3.996  10.826 -0.2254 -0.4459  0.2070
  148MPD2    H7 2266   1.275   3.926  10.776  3.5861  0.7243  2.6334
  149TCq2    C1 2267   1.273   4.041  10.944  0.7955  0.6222 -0.4091
  149TCq2    O2 2268   1.223   4.105  11.039  0.5645  0.7138  0.4768
  149TCq2    C2 2269   1.406   3.995  10.970  0.1034  0.0681  0.1591
  149TCq2    C3 2270   1.455   4.026  11.094 -0.1671 -0.4331 -0.3077
  149TCq2    C4 2271   1.591   4.031  11.108 -0.1153  0.4536  0.0956
  149TCq2    C5 2272   1.676   3.968  11.012  0.4869  0.8879  0.3901
  149TCq2    C6 2273   1.610   3.924  10.899 -0.0682  0.6346  0.1004
  149TCq2    C7 2274   1.481   3.942  10.869  0.7887  0.3284 -0.2864
  149TCq2    C8 2275   1.691   3.863  10.798 -0.0071  0.1656 -0.6393
  149TCq2    O4 2276   1.813   3.893  10.804  0.6594 -0.1269 -0.1759
  149TCq2    C9 2277   1.642   4.036  11.242  0.4943  0.3800 -0.0270
  149TCq2    O5 2278   1.764   4.009  11.257 -0.4451  0.0449 -0.4621
  149TCq2    O6 2279   1.556   4.006  11.329 -0.1315  0.0572 -0.2752
  149TCq2    H2 2280   1.389   4.055  11.175  0.7752 -1.9888  1.0205
  149TCq2    H3 2281   1.780   3.946  11.031  0.6451  1.6095  0.3706
  149TCq2    H4 2282   1.446   3.924  10.768 -0.8514 -3.7386  1.0284
  150MPD2     C 2283   2.601   3.703  12.257 -0.2538  0.0564 -0.3176
  150MPD2    C1 2284   2.624   3.781  12.150 -0.7519 -0.5600  0.3068
  150MPD2    C2 2285   2.750   3.841  12.142  0.1582 -0.2740  0.4486
  150MPD2    C3 2286   2.832   3.839  12.252  0.7259 -0.4244  0.2460
  150MPD2    C4 2287   2.801   3.763  12.363 -0.4624 -0.0080  0.0278
  150MPD2    C5 2288   2.683   3.694  12.363  0.3010  0.3254 -0.4114
  150MPD2     H 2289   2.776   3.888  12.048 -0.6982 -2.4597 -0.8901
  150MPD2    H1 2290   2.864   3.750  12.450 -0.8498 -0.9777  0.1567
  150MPD2    H2 2291   2.502   3.659  12.261 -0.1531  0.0955  2.3296
  150MPD2    H3 2292   2.654   3.637  12.450 -0.6623  2.3575  0.5951
  150MPD2     N 2293   2.946   3.923  12.249 -0.4849  0.3119 -0.7722
  150MPD2    H5 2294   2.958   3.984  12.168  0.1247 -1.2602 -1.8853
  150MPD2    N1 2295   2.543   3.760  12.036  0.0402  0.8288  0.1246
  150MPD2    H7 2296   2.471   3.689  12.031 -0.0992  1.1576 -2.6721
  151TCq2    C1 2297   3.058   3.927  12.328 -0.0805  0.2962 -1.0542
  151TCq2    O2 2298   3.083   3.848  12.416 -0.0912  0.1393  0.7004
  151TCq2    C2 2299   3.149   4.031  12.279  0.4580 -0.6725  0.2122
  151TCq2    C3 2300   3.121   4.101  12.169 -0.1884 -0.0037  0.3938
  151TCq2    C4 2301   3.209   4.196  12.128  0.1960 -0.0977  0.0431
  151TCq2    C5 2302   3.325   4.224  12.195 -0.1231  0.5309  0.5330
  151TCq2    C6 2303   3.354   4.150  12.302 -0.9661 -0.2595 -0.2761
  151TCq2    C7 2304   3.256   4.064  12.354  0.2861  0.4144  0.1187
  151TCq2    C8 2305   3.487   4.168  12.362 -0.6252 -0.0301 -0.6737
  151TCq2    O4 2306   3.552   4.264  12.329  0.0063 -0.4955 -0.1615
  151TCq2    C9 2307   3.198   4.263  12.005 -0.3522  0.3202  0.4453
  151TCq2    O5 2308   3.083   4.276  11.961  0.0026 -0.5588  0.3150
  151TCq2    O6 2309   3.294   4.337  11.972 -0.0552 -0.2389 -0.1224
  151TCq2    H2 2310   3.049   4.068  12.094 -0.4415  1.0615  0.1622
  151TCq2    H3 2311   3.398   4.285  12.143  0.7234  1.9271  3.3819
  151TCq2    H4 2312   3.279   4.000  12.439  0.0510  0.3391  0.1254
  152MPD2     C 2313   2.434   3.183  12.620 -0.7090 -0.7983 -0.1365
  152MPD2    C1 2314   2.441   3.315  12.648  0.2326  0.4641 -0.1886
  152MPD2    C2 2315   2.330   3.392  12.655 -0.0041  0.2256 -0.2461
  152MPD2    C3 2316   2.204   3.350  12.616  0.3087 -0.0831 -0.1464
  152MPD2    C4 2317   2.203   3.218  12.562 -0.1133  0.1916  0.1319
  152MPD2    C5 2318   2.314   3.136  12.572 -0.1868  0.6444 -0.3569
  152MPD2     H 2319   2.345   3.489  12.701  3.7686 -0.1156 -0.7763
  152MPD2    H1 2320   2.110   3.173  12.529 -0.5186  1.1685 -0.0330
  152MPD2    H2 2321   2.516   3.112  12.617  1.3089  1.5380 -0.3567
  152MPD2    H3 2322   2.307   3.031  12.547 -1.3573  0.9799 -1.3984
  152MPD2     N 2323   2.092   3.437  12.616  0.8261  0.0049 -0.4964
  152MPD2    H5 2324   2.113   3.535  12.629  0.0475  0.2402 -1.0156
  152MPD2    N1 2325   2.574   3.370  12.660 -0.7219  0.0255  0.3020
  152MPD2    H7 2326   2.652   3.305  12.649 -0.2817  0.7107 -0.5887
  153TCq2    C1 2327   2.599   3.502  12.692 -0.2245 -0.7426  0.5423
  153TCq2    O2 2328   2.531   3.597  12.660  0.0328  0.4400 -0.1994
  153TCq2    C2 2329   2.740   3.518  12.727  0.0747 -0.3842  0.3208
  153TCq2    C3 2330   2.813   3.409  12.747 -0.1689  0.2650  0.0923
  153TCq2    C4 2331   2.949   3.423  12.718  0.4225 -0.9416 -0.3531
  153TCq2    C5 2332   3.011   3.546  12.699 -0.1487  0.8569 -1.7308
  153TCq2    C6 2333   2.931   3.659  12.713  0.5703  0.5496  0.1015
  153TCq2    C7 2334   2.795   3.644  12.723 -0.6377  0.0797 -0.0599
  153TCq2    C8 2335   2.988   3.790  12.734  0.0719  0.4213  0.5806
  153TCq2    O4 2336   2.908   3.874  12.761  0.0793 -0.1091  0.5060
  153TCq2    C9 2337   3.035   3.304  12.713  0.4180 -0.4744  0.6652
  153TCq2    O5 2338   2.986   3.197  12.760  0.2580  0.1232  0.2280
  153TCq2    O6 2339   3.143   3.317  12.648 -0.7695 -0.5830  0.4186
  153TCq2    H2 2340   2.774   3.314  12.782  2.5369 -0.6816  0.5119
  153TCq2    H3 2341   3.113   3.542  12.663  1.3278 -0.1246  2.6475
  153TCq2    H4 2342   2.730   3.730  12.736  1.7295  2.1864 -2.2876
  154MPD2     C 2343   4.139   4.255   0.215  0.2910  0.4287 -0.5135
  154MPD2    C1 2344   4.132   4.394   0.210  0.6543 -0.6351  0.4994
  154MPD2    C2 2345   4.012   4.457   0.236  0.4143  0.3298 -0.2934
  154MPD2    C3 2346   3.894   4.389   0.241 -0.6413 -0.2033 -0.2550
  154MPD2    C4 2347   3.905   4.247   0.237 -0.1808 -1.2037 -0.3827
  154MPD2    C5 2348   4.025   4.184   0.234  0.0080  0.2289  0.5552
  154MPD2     H 2349   4.014   4.564   0.252 -0.9326  0.1031  1.3164
  154MPD2    H1 2350   3.816   4.188   0.256 -1.8012  1.3547  0.0819
  154MPD2    H2 2351   4.230   4.195   0.215  0.0736  0.1086  0.2834
  154MPD2    H3 2352   4.037   4.077   0.248 -0.3466 -0.0095 -1.0395
  154MPD2     N 2353   3.782   4.465   0.289  0.4590 -0.3368  0.6644
  154MPD2    H5 2354   3.792   4.566   0.293  0.2373 -0.3662  2.0271
  154MPD2    N1 2355   4.255   4.460   0.187  0.3458 -0.5178  0.0445
  154MPD2    H7 2356   4.341   4.411   0.167  1.9202  1.6591  1.4672
  155TCq2    C1 2357   4.270   4.596   0.186 -0.3201 -0.7559  1.1807
  155TCq2    O2 2358   4.187   4.683   0.197 -0.4493  0.3582 -0.0328
  155TCq2    C2 2359   4.399   4.637   0.139  0.1108 -0.1190  0.2350
  155TCq2    C3 2360   4.434   0.037   0.177 -0.0147  0.2209  0.5925
  155TCq2    C4 2361   4.559   0.080   0.139 -0.5429 -0.2161  0.2691
  155TCq2    C5 2362   4.657   4.725   0.079 -0.1529  0.6603  0.1399
  155TCq2    C6 2363   4.611   4.607   0.031  0.0793  0.0254 -0.2267
  155TCq2    C7 2364   4.481   4.556   0.057 -0.8704  0.0290  0.6377
  155TCq2    C8 2365   4.695   4.525  17.652  0.0817 -0.4282 -0.0131
  155TCq2    O4 2366   0.058   4.592  17.599 -0.6252 -0.2213 -0.3739
  155TCq2    C9 2367   4.598   0.213   0.185  0.3192  0.1947  1.1135
  155TCq2    O5 2368   4.707   0.260   0.134  0.1330  0.0282  0.0421
  155TCq2    O6 2369   4.521   0.263   0.270  0.6387  0.1138 -0.6766
  155TCq2    H2 2370   4.368   0.104   0.233 -1.5521 -0.4497 -0.4129
  155TCq2    H3 2371   0.035   0.027   0.060 -1.0419  2.3919 -2.1324
  155TCq2    H4 2372   4.441   4.463   0.017 -3.0590  0.1901  2.4358
  156MPD2     C 2373   3.011   0.858  11.341 -0.7567  0.5665  0.5761
  156MPD2    C1 2374   2.897   0.911  11.399 -0.5338  0.2972  0.3480
  156MPD2    C2 2375   2.912   0.977  11.516 -0.3034 -0.1504  0.1235
  156MPD2    C3 2376   3.040   1.004  11.575  0.1643  0.0009 -0.2019
  156MPD2    C4 2377   3.150   0.959  11.512  0.1934  0.4001 -0.2299
  156MPD2    C5 2378   3.133   0.888  11.396  0.3344 -0.0001 -0.1776
  156MPD2     H 2379   2.830   1.035  11.556  0.6486  0.3428  1.3518
  156MPD2    H1 2380   3.254   0.959  11.542  0.5852 -0.2576 -1.5882
  156MPD2    H2 2381   2.999   0.812  11.244 -0.1599 -1.1508  1.3109
  156MPD2    H3 2382   3.225   0.853  11.351 -0.3028 -1.1290 -0.5884
  156MPD2     N 2383   3.041   1.079  11.700 -0.1004  0.0477 -0.2135
  156MPD2    H5 2384   2.955   1.118  11.736  0.0748  0.9428 -0.7533
  156MPD2    N1 2385   2.779   0.891  11.324  0.5274 -0.6436 -0.4474
  156MPD2    H7 2386   2.787   0.845  11.234  2.2466 -0.9169 -0.1433
  157TCq2    C1 2387   2.649   0.914  11.374  0.5508 -0.1533  0.2304
  157TCq2    O2 2388   2.609   0.965  11.478  0.1484  0.2862 -0.1483
  157TCq2    C2 2389   2.550   0.865  11.297  0.0389  0.8073 -0.3840
  157TCq2    C3 2390   2.563   0.735  11.239  0.3393 -0.0686  0.1698
  157TCq2    C4 2391   2.473   0.705  11.140  0.2457  0.1341  0.1664
  157TCq2    C5 2392   2.376   0.791  11.097 -0.0995  0.3643  0.0817
  157TCq2    C6 2393   2.360   0.911  11.163  0.8813  0.2718  0.2683
  157TCq2    C7 2394   2.442   0.949  11.261  0.6551 -0.1348 -0.1553
  157TCq2    C8 2395   2.278   1.016  11.098  0.3837 -0.4573  0.3739
  157TCq2    O4 2396   2.180   0.989  11.031 -0.1896 -0.2515  0.1265
  157TCq2    C9 2397   2.510   0.589  11.057 -0.0225  0.4635 -0.7735
  157TCq2    O5 2398   2.620   0.536  11.081  0.1304  0.7104  0.0870
  157TCq2    O6 2399   2.447   0.580  10.951  0.1745  0.6120  0.0390
  157TCq2    H2 2400   2.649   0.673  11.261 -0.0715 -1.4557 -2.0820
  157TCq2    H3 2401   2.323   0.760  11.008  1.9156  0.8982 -1.3246
  157TCq2    H4 2402   2.424   1.036  11.323  0.5414 -0.3414  0.1030
  158TMC2    C1 2403   3.346   0.050  12.953 -0.5728  0.0379 -0.3827
  158TMC2    C2 2404   3.408   0.047  12.828  0.4999  0.0798  0.1015
  158TMC2    C3 2405   3.331   0.078  12.715  0.2997  0.0350  0.2556
  158TMC2    C4 2406   3.211   0.073  12.967  0.0016 -0.9202  0.0418
  158TMC2    C5 2407   3.142   0.111  12.853  0.0078  0.8100 -0.0438
  158TMC2    C6 2408   3.203   0.115  12.729 -0.6816  0.5241  0.7824
  158TMC2     C 2409   3.427   0.044  13.069  0.1466 -0.0987 -0.4337
  158TMC2     O 2410   3.544   0.071  13.050  0.2784 -0.4737  0.6372
  158TMC2     H 2411   3.513   0.025  12.812  0.3591 -0.8713  0.4907
  158TMC2    H1 2412   3.166   0.087  13.064 -2.5238 -3.0780 -0.8347
  158TMC2    H2 2413   3.152   0.146  12.638 -1.5675  1.9742  1.7656
  158TMC2    C7 2414   2.994   0.092  12.849 -0.0577 -0.0981 -0.0912
  158TMC2    C8 2415   3.401   0.129  12.598  0.1105  0.2987 -0.4422
  158TMC2    O1 2416   2.940   0.128  12.748  0.4657  0.1412 -0.2966
  158TMC2    O2 2417   3.523   0.133  12.598  0.1255  0.3290  0.1743
  158TMC2    O5 2418   3.336   0.080  12.493  0.1177 -0.3985  0.7340
  158TMC2    H5 2419   3.244   0.048  12.506 -0.1235  0.5956  1.4058
  159MPD2     C 2420   3.518   4.590  13.536 -0.9120  0.3879  0.2082
  159MPD2    C1 2421   3.380   4.567  13.516  0.7863 -0.6946 -0.0407
  159MPD2    C2 2422   3.330   4.613  13.395 -0.4080 -0.0675 -0.5236
  159MPD2    C3 2423   3.411   4.677  13.301  0.1961 -0.1545 -1.1806
  159MPD2    C4 2424   3.546   4.705  13.329 -0.1818  0.3440 -0.3555
  159MPD2    C5 2425   3.593   4.659  13.447 -0.2390  0.3343 -0.3345
  159MPD2     H 2426   3.225   4.605  13.371  0.2845 -0.8574 -3.2092
  159MPD2    H1 2427   3.610   0.036  13.262 -1.1976  0.4172 -1.2600
  159MPD2    H2 2428   3.571   4.570  13.628 -3.6531  1.0182  1.9120
  159MPD2    H3 2429   3.696   4.680  13.472  0.3625 -2.1370 -0.7468
  159MPD2     N 2430   3.355   4.711  13.178 -0.3231  0.1933  0.4979
  159MPD2    H5 2431   3.258   4.687  13.161 -0.5244 -1.2724  3.7564
  159MPD2    N1 2432   3.307   4.510  13.621 -0.3548  0.3322 -0.3395
  159MPD2    H7 2433   3.365   4.493  13.703 -0.9701 -1.1246 -0.2101
  160TMC2    C1 2434   3.206   3.191   0.593  0.3168 -0.3585 -0.6214
  160TMC2    C2 2435   3.254   3.073   0.553  0.5139  0.2688  0.1128
  160TMC2    C3 2436   3.353   3.069   0.459 -0.9991  0.3140 -0.4720
  160TMC2    C4 2437   3.250   3.308   0.539 -0.0655 -0.3621 -0.0390
  160TMC2    C5 2438   3.348   3.303   0.440  0.2301 -0.3697  0.3932
  160TMC2    C6 2439   3.402   3.185   0.401  0.1361  0.8777 -0.1796
  160TMC2     C 2440   3.094   3.184   0.688  0.7595  0.5655 -0.6350
  160TMC2     O 2441   3.039   3.071   0.693  0.8424 -0.0616  0.6960
  160TMC2     H 2442   3.222   2.978   0.594  2.2309 -0.7822 -0.9846
  160TMC2    H1 2443   3.217   3.406   0.573  0.0600 -0.1449 -0.5407
  160TMC2    H2 2444   3.483   3.182   0.330  1.7510  0.2414  1.6705
  160TMC2    C7 2445   3.388   3.427   0.376  0.2305  1.0268  0.6592
  160TMC2    C8 2446   3.411   2.939   0.430 -0.4599  0.0460 -0.5365
  160TMC2    O1 2447   3.463   3.423   0.278 -0.4751  0.4795  0.2428
  160TMC2    O2 2448   3.389   2.837   0.500  0.4797  0.1331 -0.4990
  160TMC2    O5 2449   3.496   2.949   0.331 -0.0517  0.4198  0.6845
  160TMC2    H5 2450   3.492   3.028   0.272 -1.3914  0.5122  0.8997
  161MPD2     C 2451   2.865   3.234   0.877 -0.1567  0.7541  0.0654
  161MPD2    C1 2452   2.962   3.332   0.847  0.2547  0.4278  0.4609
  161MPD2    C2 2453   2.941   3.466   0.888 -0.7343  0.2303  0.3392
  161MPD2    C3 2454   2.829   3.501   0.963 -0.5849  0.1782  0.0609
  161MPD2    C4 2455   2.744   3.399   1.000 -1.0807  0.1945  1.5885
  161MPD2    C5 2456   2.762   3.272   0.956  0.3632  0.3684  0.5036
  161MPD2     H 2457   3.006   3.543   0.848  1.3553 -1.7447 -0.0563
  161MPD2    H1 2458   2.656   3.417   1.060 -2.2590  2.4439 -0.8086
  161MPD2    H2 2459   2.860   3.131   0.845 -2.2765  1.1545 -0.8757
  161MPD2    H3 2460   2.702   3.191   0.996  1.3129 -0.1598  0.8682
  161MPD2     N 2461   2.806   3.634   1.014 -0.5064  0.4307 -0.8283
  161MPD2    H5 2462   2.733   3.651   1.083 -2.3444 -0.6278 -2.4893
  161MPD2    N1 2463   3.070   3.305   0.755  0.0053  0.2170 -0.1203
  161MPD2    H7 2464   3.131   3.386   0.744  1.9778 -1.2264  0.2772
  162TMC2    C1 2465   0.867   0.590   0.857 -0.3283  0.2680  0.7533
  162TMC2    C2 2466   0.760   0.668   0.887 -0.4103 -0.3842  0.2754
  162TMC2    C3 2467   0.771   0.764   0.989 -0.3124 -0.9526  0.2083
  162TMC2    C4 2468   0.985   0.607   0.925  0.3335  0.7695 -0.0381
  162TMC2    C5 2469   0.984   0.695   1.030  0.0635  0.6643 -0.4501
  162TMC2    C6 2470   0.884   0.780   1.068 -0.6121 -0.2539  0.3800
  162TMC2     C 2471   0.874   0.505   0.744 -0.8995  0.3454 -0.2593
  162TMC2     O 2472   0.970   0.428   0.728  0.3739 -0.3970 -0.6526
  162TMC2     H 2473   0.673   0.668   0.823 -0.2340  3.3904  0.0211
  162TMC2    H1 2474   1.072   0.559   0.883  2.1440  2.6054  1.5904
  162TMC2    H2 2475   0.893   0.849   1.151  0.3813 -0.9436  0.8462
  162TMC2    C7 2476   1.114   0.729   1.081  0.2233 -0.8859 -0.6786
  162TMC2    C8 2477   0.656   0.848   1.006  0.1518  0.9876  0.1493
  162TMC2    O1 2478   1.133   0.843   1.120  0.6355  0.4022  0.0049
  162TMC2    O2 2479   0.545   0.809   0.972 -0.4474 -0.0495  0.7406
  162TMC2    O5 2480   0.672   0.921   1.114 -0.8164  0.1857  0.6348
  162TMC2    H5 2481   0.750   0.981   1.119 -0.8876  0.3646 -0.5676
  163MPD2     C 2482   0.663   0.348   0.291  0.4271 -0.6273 -0.1393
  163MPD2    C1 2483   0.765   0.292   0.366 -0.0741 -0.3486 -0.4523
  163MPD2    C2 2484   0.795   0.357   0.488  0.8903  0.3184  0.9102
  163MPD2    C3 2485   0.734   0.466   0.540 -0.1838  0.1393  0.5271
  163MPD2    C4 2486   0.640   0.520   0.455  0.0124  0.6083 -0.3078
  163MPD2    C5 2487   0.608   0.466   0.331  0.2514  0.0975 -0.5433
  163MPD2     H 2488   0.886   0.326   0.538  1.2622  0.0264  0.0528
  163MPD2    H1 2489   0.590   0.613   0.481 -1.8173 -0.4478 -0.0113
  163MPD2    H2 2490   0.634   0.322   0.190  1.3759 -0.2969 -0.4906
  163MPD2    H3 2491   0.533   0.505   0.263  0.3055  1.8555  0.4008
  163MPD2     N 2492   0.774   0.529   0.659 -0.3803  0.0081  0.1806
  163MPD2    H5 2493   0.718   0.610   0.684 -1.1897 -0.6738  0.5750
  163MPD2    N1 2494   0.851   0.201   0.308  0.6443  0.6650  0.0017
  163MPD2    H7 2495   0.855   0.198   0.206  2.0811  0.6573  0.0610
  164TCq2    C1 2496   1.733   4.387  10.974  0.2974  0.5727  0.7683
  164TCq2    O2 2497   1.851   4.367  10.951 -0.2355 -0.5459  0.1053
  164TCq2    C2 2498   1.644   4.406  10.861  0.0286 -0.0320 -0.3248
  164TCq2    C3 2499   1.690   4.411  10.735  0.3448 -0.5974  0.3793
  164TCq2    C4 2500   1.611   4.430  10.624  0.6232  0.7175  0.5655
  164TCq2    C5 2501   1.479   4.471  10.636  0.5913  0.5988 -0.2555
  164TCq2    C6 2502   1.432   4.476  10.764 -1.1197  0.0242 -0.0112
  164TCq2    C7 2503   1.511   4.441  10.875 -0.3178  0.2910 -0.3910
  164TCq2    C8 2504   1.305   4.548  10.777 -0.6057  0.6945  0.3975
  164TCq2    O4 2505   1.229   4.539  10.679 -0.3902 -0.7302 -0.2238
  164TCq2    C9 2506   1.680   4.415  10.500  1.1231 -0.5397 -0.3959
  164TCq2    O5 2507   1.622   4.452  10.399 -0.1179  0.1275  0.4102
  164TCq2    O6 2508   1.795   4.362  10.501 -0.6675  0.7598 -0.4879
  164TCq2    H2 2509   1.797   4.405  10.725  0.3344 -1.0764  0.5444
  164TCq2    H3 2510   1.409   4.482  10.554 -0.0730 -0.2842  0.1867
  164TCq2    H4 2511   1.452   4.446  10.965 -1.4765 -0.8101 -1.1053
  165MPD2     C 2512   2.051   2.360   1.233  0.0307  0.0275  0.3243
  165MPD2    C1 2513   1.972   2.476   1.210 -0.7599  0.8260  0.8433
  165MPD2    C2 2514   2.009   2.592   1.271 -0.3831 -0.4442 -0.0124
  165MPD2    C3 2515   2.112   2.596   1.362 -0.4841 -0.4781  0.5333
  165MPD2    C4 2516   2.179   2.482   1.389  0.7366  0.2203 -0.0586
  165MPD2    C5 2517   2.152   2.368   1.333 -0.3272  0.0404  0.2402
  165MPD2     H 2518   1.953   2.685   1.264 -3.1061 -2.1557 -0.7184
  165MPD2    H1 2519   2.267   2.494   1.451  0.9334 -0.1276 -0.2676
  165MPD2    H2 2520   2.027   2.268   1.183 -1.6603  0.7044 -0.0828
  165MPD2    H3 2521   2.206   2.279   1.363  0.6040  0.3825 -0.4173
  165MPD2     N 2522   2.148   2.707   1.441  0.1027 -0.0888 -0.6347
  165MPD2    H5 2523   2.229   2.695   1.501  0.7881  0.0565 -1.5305
  165MPD2    N1 2524   1.864   2.467   1.119 -0.4938  0.2592  0.3158
  165MPD2    H7 2525   1.855   2.382   1.064 -0.2784  0.6155 -0.2676
  166TCq2    C1 2526   2.071   2.821   1.457 -0.1753 -0.3290 -0.7725
  166TCq2    O2 2527   1.954   2.837   1.425 -0.2469 -0.2361  0.6407
  166TCq2    C2 2528   2.139   2.938   1.509  0.1600 -0.3841 -0.2776
  166TCq2    C3 2529   2.057   3.030   1.573  0.3711  0.0572 -0.4744
  166TCq2    C4 2530   2.094   3.155   1.590  0.8156 -0.1984  0.0650
  166TCq2    C5 2531   2.218   3.191   1.540  0.3547  0.5281  0.0853
  166TCq2    C6 2532   2.299   3.096   1.479 -0.6237 -0.9927 -0.4784
  166TCq2    C7 2533   2.266   2.968   1.465 -0.4634 -0.0065 -0.9563
  166TCq2    C8 2534   2.420   3.140   1.404  0.9762  0.0913  0.2546
  166TCq2    O4 2535   2.467   3.061   1.325 -0.2260  0.5145 -0.2603
  166TCq2    C9 2536   2.013   3.254   1.665  0.2544  0.2364  0.2475
  166TCq2    O5 2537   2.065   3.364   1.705 -0.2781  0.3138  0.3059
  166TCq2    O6 2538   1.904   3.212   1.712 -0.5608 -0.2538  0.1118
  166TCq2    H2 2539   1.963   2.993   1.611 -0.2958  1.5917 -0.6365
  166TCq2    H3 2540   2.260   3.288   1.565  2.3732 -0.9509  2.3489
  166TCq2    H4 2541   2.330   2.888   1.431  2.0405  1.5989 -0.0301
  167TMC2    C1 2542   0.392   0.007  12.454 -0.0988 -0.3748  0.1749
  167TMC2    C2 2543   0.313   0.062  12.553 -0.0308 -0.5399  0.1831
  167TMC2    C3 2544   0.318   4.724  12.676 -0.4610 -0.1980 -0.4603
  167TMC2    C4 2545   0.445   4.605  12.472 -0.1649 -0.5637  0.2102
  167TMC2    C5 2546   0.451   4.553  12.594  0.3507 -0.4886  0.5040
  167TMC2    C6 2547   0.391   4.612  12.698  0.0032 -0.1744 -0.1242
  167TMC2     C 2548   0.393   0.066  12.316  0.6423 -0.2232 -0.8672
  167TMC2     O 2549   0.310   0.155  12.294 -0.3316  0.0464  0.4913
  167TMC2     H 2550   0.254   0.150  12.532 -0.2113 -0.3129  1.6348
  167TMC2    H1 2551   0.490   4.547  12.393 -1.6686  0.3345 -1.2986
  167TMC2    H2 2552   0.384   4.557  12.792  2.0307  0.2746  0.2905
  167TMC2    C7 2553   0.501   4.412  12.607  0.0001 -0.2835  1.0367
  167TMC2    C8 2554   0.213   0.032  12.773  0.0210  0.3346 -0.5943
  167TMC2    O1 2555   0.449   4.352  12.700 -0.2040 -0.4794  0.8837
  167TMC2    O2 2556   0.144   4.673  12.829 -0.1650 -0.3649  0.1712
  167TMC2    O5 2557   0.167   0.155  12.750  0.4338 -0.0694 -0.0971
  167TMC2    H5 2558   0.233   0.228  12.741 -0.3896  0.6361 -0.5084
  168MPD2     C 2559   0.442   0.184  12.038 -0.1200 -0.0416  0.0671
  168MPD2    C1 2560   0.504   0.072  12.093 -0.1848  0.0394  0.1662
  168MPD2    C2 2561   0.597   0.013  12.018 -0.1699  0.6378  0.1932
  168MPD2    C3 2562   0.632   0.054  11.883 -0.0298 -0.5706 -0.4861
  168MPD2    C4 2563   0.579   0.173  11.840  0.4464  0.0329 -0.3281
  168MPD2    C5 2564   0.477   0.232  11.915  0.3298  0.7356  0.2623
  168MPD2     H 2565   0.641   4.651  12.065  0.6557 -0.1438 -1.9873
  168MPD2    H1 2566   0.603   0.211  11.742 -0.7699 -1.0734 -1.0610
  168MPD2    H2 2567   0.360   0.230  12.092 -1.1773 -0.9358 -0.7757
  168MPD2    H3 2568   0.437   0.320  11.866  1.3433  1.1273  0.1247
  168MPD2     N 2569   0.732   4.711  11.812  0.1201 -0.2833 -0.9031
  168MPD2    H5 2570   0.760   0.022  11.721 -0.0854 -1.8942 -1.6089
  168MPD2    N1 2571   0.488   0.022  12.224 -0.3016 -0.7898 -0.1213
  168MPD2    H7 2572   0.547   4.673  12.261  0.9456 -0.4831 -1.4970
  169MPD1     C 2573   2.221   3.704   8.786  0.0532 -0.5567  0.1962
  169MPD1    C1 2574   2.233   3.636   8.903  0.4003 -1.0208 -0.9919
  169MPD1    C2 2575   2.355   3.593   8.942 -0.5865  0.6192 -0.5626
  169MPD1    C3 2576   2.465   3.615   8.858  0.0016  0.2149  0.1201
  169MPD1    C4 2577   2.452   3.684   8.742 -0.4610  0.4399 -0.1678
  169MPD1    C5 2578   2.325   3.722   8.700 -0.2144 -0.4562  0.1968
  169MPD1     H 2579   2.355   3.521   9.024 -1.6861 -0.6119 -1.6437
  169MPD1    H1 2580   2.526   3.693   8.663  2.7501  0.8836  2.9353
  169MPD1    H2 2581   2.121   3.737   8.760  0.6234 -0.6264 -2.1432
  169MPD1    H3 2582   2.307   3.760   8.600  1.3573 -0.0316  0.0785
  169MPD1     N 2583   2.593   3.563   8.908  0.1400 -0.6716  0.3261
  169MPD1    H5 2584   2.596   3.507   8.992  0.2009 -2.6937 -1.0422
  169MPD1    N1 2585   2.121   3.578   8.967  0.2969  0.0326  0.2201
  169MPD1    H6 2586   2.138   3.548   9.063 -1.0618  0.9845  0.7550
  169MPD1    H7 2587   2.033   3.629   8.963 -1.6583 -3.0639  3.0578
  170MPD1     C 2588   2.321   1.909  12.704  0.7931  0.3304  0.8326
  170MPD1    C1 2589   2.222   1.995  12.668 -0.3761  0.5908 -0.9002
  170MPD1    C2 2590   2.131   2.034  12.764  0.3239  0.1394 -0.3274
  170MPD1    C3 2591   2.131   1.994  12.899 -0.4483 -0.4182 -0.5933
  170MPD1    C4 2592   2.233   1.911  12.935  0.0613  0.5082 -0.6177
  170MPD1    C5 2593   2.319   1.870  12.837  0.5151 -0.1808  0.1443
  170MPD1     H 2594   2.048   2.097  12.736 -1.6055 -1.6802  1.2975
  170MPD1    H1 2595   2.237   1.869  13.035 -0.0881  0.0010 -0.8245
  170MPD1    H2 2596   2.400   1.881  12.635  0.4270  1.7236 -0.1635
  170MPD1    H3 2597   2.407   1.817  12.871 -0.4261 -0.3364  2.2929
  170MPD1     N 2598   2.037   2.036  12.997  0.2039  0.0368 -0.1364
  170MPD1    H5 2599   1.958   2.090  12.964 -1.1409 -1.9545 -0.2094
  170MPD1    N1 2600   2.192   2.020  12.534 -0.1815  0.4302  0.0302
  170MPD1    H6 2601   2.141   2.108  12.528  0.4539  0.7549 -0.5901
  170MPD1    H7 2602   2.275   2.011  12.475 -0.0576  0.5049  0.1938
  171MPD1     C 2603   0.530   3.517  15.315  0.2721  0.1772  1.2377
  171MPD1    C1 2604   0.551   3.505  15.456 -0.2999 -0.3052 -0.3490
  171MPD1    C2 2605   0.543   3.373  15.495 -0.2305 -0.2946  0.1781
  171MPD1    C3 2606   0.539   3.262  15.417 -0.3617 -0.0587  0.4081
  171MPD1    C4 2607   0.517   3.279  15.285 -0.5794  0.2425 -0.6973
  171MPD1    C5 2608   0.506   3.405  15.236  0.6034  0.8341  0.6269
  171MPD1     H 2609   0.565   3.349  15.598  0.7823  1.0609  0.2856
  171MPD1    H1 2610   0.520   3.198  15.213  2.0124 -0.7143  0.4977
  171MPD1    H2 2611   0.516   3.615  15.270  3.2398  0.4175  0.8576
  171MPD1    H3 2612   0.490   3.415  15.130 -1.7498 -1.5523  0.7512
  171MPD1     N 2613   0.541   3.135  15.486 -0.3529 -0.4912  0.2885
  171MPD1    H5 2614   0.528   3.134  15.587  1.0868  1.0739  0.4858
  171MPD1    N1 2615   0.569   3.620  15.540 -1.0726  0.4774  0.2180
  171MPD1    H6 2616   0.484   3.674  15.526 -0.7969  0.9624  0.4019
  171MPD1    H7 2617   0.574   3.591  15.638  2.1453 -1.0046 -0.3785
  172MPD1     C 2618   4.414   1.871  17.622 -0.0660 -0.6202 -0.5782
  172MPD1    C1 2619   4.317   1.933   0.000 -0.3556 -0.2330  0.8122
  172MPD1    C2 2620   4.324   2.065   0.014  0.4063  1.0454 -0.3082
  172MPD1    C3 2621   4.423   2.142  17.660 -0.3126  0.3875  0.5760
  172MPD1    C4 2622   4.512   2.082  17.574 -0.0092  0.6244  0.0177
  172MPD1    C5 2623   4.501   1.951  17.554  1.3356 -0.3570 -0.2010
  172MPD1     H 2624   4.245   2.109   0.073 -0.0593 -0.7273  0.4170
  172MPD1    H1 2625   4.587   2.143  17.525  1.1511  0.3018  1.4055
  172MPD1    H2 2626   4.399   1.767  17.595  1.2727 -0.7535 -0.7985
  172MPD1    H3 2627   4.558   1.911  17.472 -0.7891 -0.0358 -1.8232
  172MPD1     N 2628   4.437   2.279  17.687  0.2839 -0.0059 -0.0986
  172MPD1    H5 2629   4.515   2.319  17.638  1.3156  0.1803  1.6861
  172MPD1    N1 2630   4.202   1.861   0.047  0.5238 -0.5022 -0.2738
  172MPD1    H6 2631   4.149   1.916   0.114 -3.6402 -3.6000 -1.0018
  172MPD1    H7 2632   4.219   1.775   0.100  1.4431  0.7149  1.4193
  173MPD1     C 2633   1.099   2.470  14.476  0.1746  0.0671 -0.0495
  173MPD1    C1 2634   1.146   2.347  14.434 -0.0354  0.3504  0.2487
  173MPD1    C2 2635   1.055   2.247  14.451 -0.0796 -0.3161  1.0703
  173MPD1    C3 2636   0.949   2.253  14.540 -0.2959 -0.1315  0.5051
  173MPD1    C4 2637   0.906   2.375  14.587 -0.8959  0.0584  0.1194
  173MPD1    C5 2638   0.978   2.486  14.550 -1.0705 -0.4764 -0.3345
  173MPD1     H 2639   1.081   2.153  14.404 -0.3943  0.4808 -0.6996
  173MPD1    H1 2640   0.810   2.388  14.636 -1.7913  0.6410 -1.8088
  173MPD1    H2 2641   1.155   2.557  14.444 -2.4466  0.6467 -3.0468
  173MPD1    H3 2642   0.934   2.583  14.569  2.5593  1.1476 -0.2173
  173MPD1     N 2643   0.866   2.137  14.550  0.2899 -0.1196 -0.5960
  173MPD1    H5 2644   0.894   2.058  14.493  2.1468 -0.1213  0.3124
  173MPD1    N1 2645   1.239   2.336  14.340 -0.6581 -0.5509 -0.0127
  173MPD1    H6 2646   1.289   2.247  14.345 -0.5540 -0.4295  1.0808
  173MPD1    H7 2647   1.311   2.408  14.344 -2.6899  1.4106  0.4474
  174MPD1     C 2648   0.892   1.585  13.960 -0.0914  0.0472 -0.5297
  174MPD1    C1 2649   0.874   1.503  14.072  0.2169 -0.0203 -0.2766
  174MPD1    C2 2650   0.835   1.562  14.190  0.0637  0.1261  0.1323
  174MPD1    C3 2651   0.797   1.698  14.193  0.5331 -0.3071 -0.4871
  174MPD1    C4 2652   0.811   1.781  14.081  0.3684 -0.1784  0.7159
  174MPD1    C5 2653   0.869   1.721  13.971 -1.0754 -0.5705 -1.1203
  174MPD1     H 2654   0.822   1.502  14.279 -0.2779 -0.1740 -0.1212
  174MPD1    H1 2655   0.783   1.886  14.077  2.8193  0.5557  3.0112
  174MPD1    H2 2656   0.919   1.549  13.861  1.6897  0.5273 -0.2193
  174MPD1    H3 2657   0.881   1.784  13.883  2.5064  1.6548  0.9642
  174MPD1     N 2658   0.744   1.763  14.306  0.0859  0.2531 -0.8177
  174MPD1    H5 2659   0.738   1.864  14.305  1.5019  0.3465  1.2963
  174MPD1    N1 2660   0.912   1.369  14.072  0.2135  0.0472 -0.1312
  174MPD1    H6 2661   0.855   1.319  14.139  0.8892 -1.0537 -0.3889
  174MPD1    H7 2662   0.903   1.326  13.980  2.0021  0.8372 -0.6814
  175MPD1     C 2663   4.253   3.090  15.351  0.4656 -0.7368 -0.8228
  175MPD1    C1 2664   4.145   3.008  15.373 -0.0951  0.5788  0.1954
  175MPD1    C2 2665   4.114   2.972  15.502  0.5965  0.1757 -0.6081
  175MPD1    C3 2666   4.196   3.004  15.611 -0.1105 -0.1192 -0.5950
  175MPD1    C4 2667   4.307   3.075  15.586 -0.4269 -0.0365 -0.3773
  175MPD1    C5 2668   4.340   3.115  15.454 -0.8105  0.0708 -0.0318
  175MPD1     H 2669   4.023   2.916  15.520 -0.1761  1.6722  0.0934
  175MPD1    H1 2670   4.369   3.106  15.669 -1.4858  1.0937  0.0044
  175MPD1    H2 2671   4.274   3.129  15.252  0.4655 -3.1307 -1.7638
  175MPD1    H3 2672   4.423   3.184  15.443 -1.2350  0.3999 -1.0612
  175MPD1     N 2673   4.175   2.964  15.746 -0.2253  0.2128 -0.1203
  175MPD1    H5 2674   4.236   3.010  15.812 -0.1538  1.8829 -1.3368
  175MPD1    N1 2675   4.060   2.970  15.267 -0.3544  0.1876  0.5870
  175MPD1    H6 2676   4.062   2.870  15.248  0.0736  0.4819 -0.9184
  175MPD1    H7 2677   4.105   2.996  15.180 -1.4990  0.0932 -0.0297
  176MPD1     C 2678   1.256   0.124  16.167  0.0172 -0.3194 -0.4542
  176MPD1    C1 2679   1.143   0.074  16.239  0.4575 -0.0156 -0.0230
  176MPD1    C2 2680   1.104   0.150  16.345 -0.4283  0.3871 -0.4392
  176MPD1    C3 2681   1.151   0.275  16.380 -0.0491  0.1758 -0.6556
  176MPD1    C4 2682   1.250   0.328  16.295 -0.0059 -0.0722  0.1319
  176MPD1    C5 2683   1.304   0.249  16.196 -0.4079 -0.7665 -0.7729
  176MPD1     H 2684   1.046   0.082  16.407  0.0199 -0.5142 -0.9982
  176MPD1    H1 2685   1.291   0.428  16.304  2.8048 -1.2374  0.3522
  176MPD1    H2 2686   1.307   0.073  16.086 -1.1839  1.4758 -2.3233
  176MPD1    H3 2687   1.385   0.289  16.137 -1.2559  1.2627 -0.5550
  176MPD1     N 2688   1.102   0.343  16.494 -0.2104 -0.0771  0.4477
  176MPD1    H5 2689   1.041   0.288  16.553  0.4956 -0.1506  1.0971
  176MPD1    N1 2690   1.113   4.667  16.219  0.3760  0.6051 -0.3623
  176MPD1    H6 2691   1.124   4.646  16.120 -0.9623 -1.3833 -0.0863
  176MPD1    H7 2692   1.023   4.642  16.260  0.3958 -2.2631 -2.0656
  177MPD1     C 2693   4.288   4.458   9.887 -1.0505 -0.0749 -0.2482
  177MPD1    C1 2694   4.368   4.566   9.840  0.4051 -0.4713  0.0710
  177MPD1    C2 2695   4.335   4.630   9.724  0.2739 -0.7302  0.8382
  177MPD1    C3 2696   4.230   4.591   9.647 -0.0031  0.0325  0.0385
  177MPD1    C4 2697   4.163   4.472   9.689  0.4567 -0.6410 -0.2722
  177MPD1    C5 2698   4.188   4.408   9.807  0.3067  0.3456 -0.0722
  177MPD1     H 2699   4.393   4.720   9.707  0.2489 -0.8140  0.3285
  177MPD1    H1 2700   4.086   4.430   9.625 -2.0672  0.8735  1.8024
  177MPD1    H2 2701   4.292   4.408   9.983 -0.3735 -2.5483 -1.5646
  177MPD1    H3 2702   4.133   4.325   9.850  1.2895 -0.9774 -1.3791
  177MPD1     N 2703   4.200   4.669   9.534 -0.1143  0.0975 -0.1316
  177MPD1    H5 2704   4.246   0.035   9.537  0.8249 -0.2417 -4.1934
  177MPD1    N1 2705   4.472   4.622   9.915  0.3532 -0.4305  0.0786
  177MPD1    H6 2706   4.549   4.653   9.857 -1.0843 -2.8169 -3.1110
  177MPD1    H7 2707   4.509   4.549   9.977  0.8579  0.1048  0.4019
  178MPD1     C 2708   1.054   1.197  17.273 -0.7768 -1.0090 -0.4279
  178MPD1    C1 2709   1.176   1.166  17.323 -0.1764 -0.1018 -0.2351
  178MPD1    C2 2710   1.289   1.187  17.241 -0.0299  0.5176 -0.6222
  178MPD1    C3 2711   1.271   1.228  17.108  0.0925 -0.1327  0.1666
  178MPD1    C4 2712   1.150   1.261  17.062 -0.2876 -0.5125  0.2362
  178MPD1    C5 2713   1.039   1.248  17.145  0.1049  0.6465 -0.0363
  178MPD1     H 2714   1.389   1.156  17.269 -0.7780 -1.3411 -0.0476
  178MPD1    H1 2715   1.137   1.290  16.958  2.6019 -0.2782 -0.0625
  178MPD1    H2 2716   0.958   1.195  17.324 -1.1079 -0.6782 -1.0363
  178MPD1    H3 2717   0.938   1.278  17.119  0.7971  2.6065 -0.4308
  178MPD1     N 2718   1.385   1.227  17.016  0.1343  0.2935 -0.1249
  178MPD1    H5 2719   1.370   1.245  16.917  1.6287 -0.1093 -0.4110
  178MPD1    N1 2720   1.193   1.110  17.450 -0.2148 -0.4203  0.1998
  178MPD1    H6 2721   1.261   1.161  17.507 -0.4702  2.2803 -1.9137
  178MPD1    H7 2722   1.102   1.118  17.494  0.1421  0.4945  0.7765
  179MPD1     C 2723   2.010   3.644  15.187  0.2902 -0.0963 -0.0448
  179MPD1    C1 2724   1.892   3.658  15.115 -0.2979 -0.3512  0.3673
  179MPD1    C2 2725   1.779   3.650  15.187 -0.1871  0.2023 -0.1110
  179MPD1    C3 2726   1.774   3.662  15.328  0.1648  0.7848  0.8081
  179MPD1    C4 2727   1.893   3.658  15.395  0.6591  0.5036 -0.1059
  179MPD1    C5 2728   2.006   3.651  15.322  0.9222  0.0480 -0.0411
  179MPD1     H 2729   1.688   3.623  15.135 -0.5983 -0.4284  0.9332
  179MPD1    H1 2730   1.903   3.648  15.502  2.4539  0.0387 -0.3116
  179MPD1    H2 2731   2.106   3.630  15.137 -0.8552 -2.4785 -1.5972
  179MPD1    H3 2732   2.094   3.620  15.377  1.5480  1.2145 -0.3971
  179MPD1     N 2733   1.657   3.665  15.410 -0.0832  0.5299 -0.2775
  179MPD1    H5 2734   1.669   3.684  15.509 -1.7230 -2.4420  0.4944
  179MPD1    N1 2735   1.892   3.629  14.979 -0.1102  0.2103  0.5141
  179MPD1    H6 2736   1.975   3.656  14.928  0.8481  0.0193  1.9510
  179MPD1    H7 2737   1.822   3.668  14.916 -0.1399  1.9863  1.6487
  180MPD1     C 2738   0.588   0.805  14.979  0.1313 -0.7193 -0.9021
  180MPD1    C1 2739   0.679   0.883  14.918  0.5197 -0.5573  0.3641
  180MPD1    C2 2740   0.703   0.850  14.787 -0.8568  0.1131  0.2544
  180MPD1    C3 2741   0.640   0.738  14.724  1.3192 -0.1298 -0.3679
  180MPD1    C4 2742   0.541   0.671  14.780  0.1992  0.1333  1.0137
  180MPD1    C5 2743   0.523   0.706  14.912  0.0958  0.2423  0.3791
  180MPD1     H 2744   0.767   0.914  14.728 -1.9626  1.7670  0.8447
  180MPD1    H1 2745   0.487   0.592  14.729  2.0619 -0.8648  0.6070
  180MPD1    H2 2746   0.554   0.832  15.078 -0.2863  0.5936 -1.4067
  180MPD1    H3 2747   0.446   0.650  14.963 -0.2787  0.3235 -0.0958
  180MPD1     N 2748   0.682   0.713  14.591 -0.1110  0.3328 -0.2291
  180MPD1    H5 2749   0.764   0.762  14.559  0.0340 -0.6187 -1.2930
  180MPD1    N1 2750   0.718   1.008  14.963  0.2989  0.1318  0.1321
  180MPD1    H6 2751   0.815   1.032  14.942  0.2591 -1.6475 -2.0164
  180MPD1    H7 2752   0.714   1.009  15.065  3.3398  0.3040  0.2635
  181MPD1     C 2753   2.717   1.917  10.228 -0.6043 -0.0184  0.3252
  181MPD1    C1 2754   2.753   2.043  10.275 -0.1924  0.4914  0.3772
  181MPD1    C2 2755   2.875   2.088  10.233 -0.5599 -0.1827  0.3565
  181MPD1    C3 2756   2.962   2.001  10.162 -1.0346 -0.5797 -0.2533
  181MPD1    C4 2757   2.932   1.870  10.147  0.3884 -0.0436 -0.0670
  181MPD1    C5 2758   2.808   1.830  10.175 -0.4056 -0.3862  0.2097
  181MPD1     H 2759   2.886   2.195  10.241 -2.0210  0.1267 -1.7610
  181MPD1    H1 2760   2.989   1.794  10.096  0.9504  2.7161 -3.5272
  181MPD1    H2 2761   2.617   1.885  10.253 -1.6547  3.6059  0.6639
  181MPD1    H3 2762   2.776   1.727  10.160  2.3417 -1.2028 -0.1587
  181MPD1     N 2763   3.091   2.041  10.115 -0.0853 -0.2124  0.2986
  181MPD1    H5 2764   3.156   1.976  10.072 -0.9711 -2.1147  1.8246
  181MPD1    N1 2765   2.650   2.127  10.323  0.2263 -0.5274  0.0020
  181MPD1    H6 2766   2.682   2.209  10.374  1.2348 -1.0973  0.2952
  181MPD1    H7 2767   2.581   2.072  10.374  0.0260  1.1433  1.5194
  182MPD1     C 2768   3.089   2.623   1.691  0.3385 -0.2350 -0.5099
  182MPD1    C1 2769   3.157   2.549   1.601  0.2124  0.7100 -0.6516
  182MPD1    C2 2770   3.107   2.522   1.476 -0.2754 -0.3829  0.9188
  182MPD1    C3 2771   2.988   2.582   1.433 -0.5532  0.0360  0.0301
  182MPD1    C4 2772   2.928   2.672   1.528  0.4477  0.3290  0.6291
  182MPD1    C5 2773   2.979   2.691   1.657  0.2364  0.0490  0.1950
  182MPD1     H 2774   3.160   2.449   1.416  1.0617  0.1038  1.4951
  182MPD1    H1 2775   2.830   2.712   1.504  0.3588  0.3329  1.0032
  182MPD1    H2 2776   3.124   2.626   1.794  1.4058 -2.9305 -0.8022
  182MPD1    H3 2777   2.922   2.741   1.734 -1.3371 -0.7166 -0.4740
  182MPD1     N 2778   2.933   2.556   1.307  0.4844 -0.2593 -0.4889
  182MPD1    H5 2779   2.834   2.577   1.297 -0.1051 -1.6994  2.2827
  182MPD1    N1 2780   3.266   2.478   1.651 -0.2782 -0.0855 -1.1702
  182MPD1    H6 2781   3.325   2.540   1.707 -1.5738 -0.4858  0.6326
  182MPD1    H7 2782   3.326   2.441   1.577  0.1251  2.3343 -2.0621
  183MPD1     C 2783   4.201   1.744   8.332 -0.6242 -0.1246 -0.5326
  183MPD1    C1 2784   4.172   1.636   8.411  0.4236  0.0412 -0.2325
  183MPD1    C2 2785   4.115   1.647   8.529  0.3001 -0.6809 -0.8828
  183MPD1    C3 2786   4.096   1.770   8.582 -0.5024 -0.3284 -0.4739
  183MPD1    C4 2787   4.133   1.881   8.510  0.1617  0.1991  0.0684
  183MPD1    C5 2788   4.176   1.872   8.380  0.3825 -0.8505 -0.3986
  183MPD1     H 2789   4.080   1.559   8.580 -1.5056 -0.3908 -1.6398
  183MPD1    H1 2790   4.121   1.983   8.544 -0.5267  0.7292 -1.7542
  183MPD1    H2 2791   4.221   1.729   8.227 -2.5534  1.9860 -1.1965
  183MPD1    H3 2792   4.176   1.958   8.313 -1.2430 -0.0794  0.5771
  183MPD1     N 2793   4.022   1.774   8.704  0.1521 -0.8016  0.0128
  183MPD1    H5 2794   4.022   1.694   8.766  1.2527 -0.0723  0.9562
  183MPD1    N1 2795   4.167   1.507   8.359  0.1965  0.5361 -0.5491
  183MPD1    H6 2796   4.169   1.430   8.426 -1.0674  1.4416  0.5192
  183MPD1    H7 2797   4.232   1.494   8.281  2.2409 -2.0664  1.5738
  184MPD1     C 2798   3.404   4.052   9.709  0.0748  0.0114 -0.5781
  184MPD1    C1 2799   3.343   4.050   9.586 -0.6863  0.8268  0.3877
  184MPD1    C2 2800   3.370   4.153   9.500 -0.0649  0.4709  0.0830
  184MPD1    C3 2801   3.464   4.254   9.526  1.6589 -0.5337 -0.1184
  184MPD1    C4 2802   3.522   4.256   9.650 -0.9594  0.9870 -0.5092
  184MPD1    C5 2803   3.490   4.155   9.740 -0.3767  0.5030 -0.0178
  184MPD1     H 2804   3.311   4.157   9.409 -1.1131 -0.7326  0.7105
  184MPD1    H1 2805   3.604   4.323   9.672  0.3845 -0.6020 -0.7144
  184MPD1    H2 2806   3.392   3.975   9.784  0.4131 -0.3503 -0.8964
  184MPD1    H3 2807   3.537   4.162   9.838  0.8834  0.8858 -0.6512
  184MPD1     N 2808   3.485   4.361   9.439 -0.2539  0.3458 -0.2913
  184MPD1    H5 2809   3.556   4.427   9.467 -1.4021  1.2500  0.4360
  184MPD1    N1 2810   3.259   3.939   9.555 -0.5082  0.2998  0.2619
  184MPD1    H6 2811   3.200   3.921   9.636  1.0391  1.5057  1.6895
  184MPD1    H7 2812   3.203   3.954   9.472  1.6006  0.7103 -1.0922
  185MPD1     C 2813   3.089   4.680   8.553 -0.2910 -0.6435 -0.5967
  185MPD1    C1 2814   3.212   0.029   8.565  0.1926  0.0371  0.2367
  185MPD1    C2 2815   3.271   0.012   8.692 -0.1274 -0.4095 -0.3507
  185MPD1    C3 2816   3.241   4.632   8.781 -0.2580  0.0586 -0.6355
  185MPD1    C4 2817   3.135   4.552   8.753  0.3898  0.1615  0.1553
  185MPD1    C5 2818   3.056   4.581   8.642 -0.6920  0.4319  0.5392
  185MPD1     H 2819   3.345   0.091   8.707 -0.1692 -0.4614  0.1379
  185MPD1    H1 2820   3.101   4.476   8.823  0.0361  0.9012  0.7789
  185MPD1    H2 2821   3.020   4.696   8.472 -0.6120 -1.1986 -0.4375
  185MPD1    H3 2822   2.973   4.515   8.618  0.0297 -0.6208  0.9082
  185MPD1     N 2823   3.311   4.605   8.902  0.4382 -0.6222 -0.1997
  185MPD1    H5 2824   3.301   4.511   8.938  2.4173 -0.0400  1.8772
  185MPD1    N1 2825   3.243   0.139   8.490  0.0767 -0.1449  0.1734
  185MPD1    H6 2826   3.343   0.154   8.486 -0.0050  0.0621 -1.0208
  185MPD1    H7 2827   3.198   0.133   8.399  1.0185  1.4819 -0.3857
  186MPD1     C 2828   1.556   3.963  15.312 -0.6254  0.1016 -0.0045
  186MPD1    C1 2829   1.457   4.013  15.399  0.6413  0.5813  0.9189
  186MPD1    C2 2830   1.500   4.081  15.512  0.1846  0.3612  0.0349
  186MPD1    C3 2831   1.636   4.097  15.551  0.1367  0.7616 -0.6354
  186MPD1    C4 2832   1.731   4.068  15.459  0.7961  0.4474  0.2929
  186MPD1    C5 2833   1.689   4.002  15.343 -0.1669  0.5582 -0.3924
  186MPD1     H 2834   1.427   4.126  15.577  0.8214  0.7890  0.4500
  186MPD1    H1 2835   1.838   4.077  15.474  1.3202 -0.0103 -3.0996
  186MPD1    H2 2836   1.543   3.915  15.215 -2.4266  1.3727 -0.3911
  186MPD1    H3 2837   1.771   3.962  15.284  1.1816 -0.0965  1.9091
  186MPD1     N 2838   1.680   4.156  15.675 -0.0377 -0.3452 -0.5691
  186MPD1    H5 2839   1.780   4.165  15.689 -0.2341  0.9624 -0.0572
  186MPD1    N1 2840   1.330   4.009  15.348  0.1340 -0.0975 -0.3472
  186MPD1    H6 2841   1.253   3.997  15.414  1.3641 -3.0212  0.5571
  186MPD1    H7 2842   1.330   3.932  15.281  1.6247 -2.5899  2.5203
  187MPD1     C 2843   1.104   1.340   0.093 -0.0236  0.2430  0.2802
  187MPD1    C1 2844   1.216   1.341   0.023  0.0163 -0.3278 -0.0578
  187MPD1    C2 2845   1.215   1.398  17.596  0.0310 -0.3615 -0.5844
  187MPD1    C3 2846   1.095   1.447  17.550  0.2113  0.4850 -0.3558
  187MPD1    C4 2847   0.987   1.464  17.637 -0.3806 -0.2793  0.5958
  187MPD1    C5 2848   0.986   1.391   0.053  0.4918  0.4311 -0.0252
  187MPD1     H 2849   1.296   1.370  17.530  1.3111  0.8991  0.4563
  187MPD1    H1 2850   0.894   1.498  17.592  0.8271  2.0607 -0.1179
  187MPD1    H2 2851   1.117   1.303   0.194 -0.0991  0.5316  0.3943
  187MPD1    H3 2852   0.894   1.397   0.111 -0.3351 -0.6852 -1.2302
  187MPD1     N 2853   1.077   1.504  17.425  0.2870 -0.6027  0.8453
  187MPD1    H5 2854   0.982   1.540  17.419  0.3146 -0.8338 -0.9166
  187MPD1    N1 2855   1.329   1.266   0.069  0.3720 -0.0678 -0.3200
  187MPD1    H6 2856   1.410   1.307   0.022  1.7562 -2.2247  0.1534
  187MPD1    H7 2857   1.350   1.280   0.168 -0.0004 -0.4094 -0.1913
  188MPD1     C 2858   1.380   0.567   9.628  0.3630  0.1109  0.2143
  188MPD1    C1 2859   1.428   0.473   9.715 -0.3790  0.0337 -0.2772
  188MPD1    C2 2860   1.346   0.435   9.820  0.2422  0.1653  0.4945
  188MPD1    C3 2861   1.234   0.514   9.852  0.0358 -0.1606 -0.3396
  188MPD1    C4 2862   1.194   0.620   9.775 -0.6227  0.4315 -0.2322
  188MPD1    C5 2863   1.261   0.632   9.655  0.1987 -0.1157  0.3840
  188MPD1     H 2864   1.365   0.342   9.873 -0.1918  0.6403  1.4935
  188MPD1    H1 2865   1.101   0.673   9.795  0.8008  2.0131  2.1970
  188MPD1    H2 2866   1.438   0.603   9.543 -0.9812  3.1561  0.5982
  188MPD1    H3 2867   1.212   0.699   9.585  1.2725 -0.3552 -0.5965
  188MPD1     N 2868   1.167   0.496   9.969  0.5183 -0.5811  0.3964
  188MPD1    H5 2869   1.089   0.560   9.974  1.3276  0.4587 -0.4627
  188MPD1    N1 2870   1.539   0.397   9.675 -0.3725 -0.3492  0.0925
  188MPD1    H6 2871   1.620   0.433   9.624 -1.6757 -0.2582 -1.9418
  188MPD1    H7 2872   1.583   0.357   9.757  0.2334 -0.8027 -0.4517
  189MPD1     C 2873   2.712   1.882  17.496  0.0536 -0.7531 -0.0627
  189MPD1    C1 2874   2.591   1.835  17.454  0.2445  0.0383 -0.3833
  189MPD1    C2 2875   2.496   1.932  17.419  0.2486  0.3227  0.5271
  189MPD1    C3 2876   2.512   2.067  17.429 -0.1484 -0.0277 -0.5214
  189MPD1    C4 2877   2.634   2.107  17.479  1.1097  0.8087  0.0161
  189MPD1    C5 2878   2.737   2.020  17.507 -0.2749  0.5052 -0.2335
  189MPD1     H 2879   2.412   1.886  17.369  1.8335 -3.7379  1.5990
  189MPD1    H1 2880   2.676   2.207  17.487 -1.3058  1.7074  1.4238
  189MPD1    H2 2881   2.798   1.815  17.496  0.2936 -0.4372 -1.1709
  189MPD1    H3 2882   2.835   2.056  17.536 -0.3443  1.3809 -1.0701
  189MPD1     N 2883   2.407   2.163  17.400 -0.0527  0.6921 -0.1875
  189MPD1    H5 2884   2.320   2.116  17.377  0.6185 -1.0025  0.7379
  189MPD1    N1 2885   2.580   1.700  17.409  0.0060  1.0003 -0.6286
  189MPD1    H6 2886   2.627   1.632  17.467 -0.7024  0.5191 -0.6256
  189MPD1    H7 2887   2.481   1.677  17.400 -0.4611  2.9849 -0.6735
  190MPD1     C 2888   0.957   0.303  15.381 -0.1479 -0.3529  0.4532
  190MPD1    C1 2889   1.034   0.362  15.280 -0.2702 -0.2041  0.5645
  190MPD1    C2 2890   1.131   0.458  15.311 -0.6113 -0.0021  0.3771
  190MPD1    C3 2891   1.149   0.510  15.437 -0.0371 -0.2402 -0.0686
  190MPD1    C4 2892   1.072   0.455  15.538  0.2384  0.1519  0.3366
  190MPD1    C5 2893   0.981   0.357  15.511 -0.2660 -0.2351  0.0629
  190MPD1     H 2894   1.195   0.495  15.232  0.6403  0.1191  1.4539
  190MPD1    H1 2895   1.081   0.483  15.642 -0.0419  1.1420  0.0974
  190MPD1    H2 2896   0.907   0.208  15.368  0.6757 -0.8293  0.7749
  190MPD1    H3 2897   0.929   0.315  15.596 -0.5181 -1.7359 -0.8333
  190MPD1     N 2898   1.259   0.604  15.462 -0.8115  0.0345 -0.1820
  190MPD1    H5 2899   1.296   0.656  15.383 -2.0267 -1.9030 -1.9912
  190MPD1    N1 2900   1.025   0.310  15.150 -0.1980 -0.3026  0.0041
  190MPD1    H6 2901   1.027   0.374  15.071 -1.5623  2.1896  1.9950
  190MPD1    H7 2902   0.941   0.255  15.133 -0.6329  0.8673 -1.5921
  191MPD1     C 2903   1.003   1.164  11.891 -0.2347 -0.2843 -0.5499
  191MPD1    C1 2904   0.958   1.247  11.996 -0.2070  0.1814  0.6895
  191MPD1    C2 2905   0.999   1.381  11.989 -0.1571 -0.4219  0.5959
  191MPD1    C3 2906   1.065   1.438  11.884 -0.8659 -0.3119  0.5297
  191MPD1    C4 2907   1.101   1.359  11.784 -0.1151  0.8826  0.0205
  191MPD1    C5 2908   1.071   1.221  11.786 -0.1267 -0.9331  0.0205
  191MPD1     H 2909   0.972   1.447  12.070 -1.3983  1.0316 -0.9853
  191MPD1    H1 2910   1.148   1.397  11.694 -1.0838 -0.7094 -1.1496
  191MPD1    H2 2911   0.984   1.057  11.900  0.8676 -0.4240  0.0263
  191MPD1    H3 2912   1.105   1.157  11.706 -0.8547  0.4390 -1.3831
  191MPD1     N 2913   1.093   1.576  11.886  0.4476 -0.1601  0.1057
  191MPD1    H5 2914   1.050   1.634  11.957  2.3244  0.1508  0.9957
  191MPD1    N1 2915   0.892   1.196  12.108  0.1564  0.0442  0.0500
  191MPD1    H6 2916   0.830   1.264  12.151  3.1398  2.3208  0.7842
  191MPD1    H7 2917   0.847   1.106  12.092 -0.9434  0.6006  0.0385
  192MPD1     C 2918   0.886   1.944  12.581  0.2307  0.2839 -0.0430
  192MPD1    C1 2919   0.943   2.061  12.524  0.1699  0.1512  0.1786
  192MPD1    C2 2920   1.003   2.046  12.396  0.6438  0.0544 -0.3049
  192MPD1    C3 2921   0.974   1.927  12.317 -0.7271 -0.5690  0.4650
  192MPD1    C4 2922   0.909   1.820  12.366 -0.4263 -0.5705 -0.5776
  192MPD1    C5 2923   0.871   1.829  12.498 -0.0935 -0.2400  0.0138
  192MPD1     H 2924   1.063   2.125  12.353  0.4571 -0.9276 -2.4137
  192MPD1    H1 2925   0.887   1.730  12.310  2.3911 -1.7501  0.1919
  192MPD1    H2 2926   0.850   1.944  12.684  0.7769  0.2737  0.1483
  192MPD1    H3 2927   0.823   1.743  12.542 -2.0654 -0.5365 -2.6344
  192MPD1     N 2928   1.017   1.922  12.178  0.2206 -0.0005  0.7485
  192MPD1    H5 2929   0.981   1.842  12.127 -3.0466  1.4519  0.7890
  192MPD1    N1 2930   0.966   2.175  12.606 -0.5427 -0.1262  0.0912
  192MPD1    H6 2931   0.962   2.263  12.554 -1.3156  0.9284  1.9595
  192MPD1    H7 2932   0.890   2.173  12.673  1.6152  1.2112  2.5581
  193MPD1     C 2933   0.170   2.818  15.974 -0.5327  0.1081  0.2574
  193MPD1    C1 2934   0.120   2.914  16.058 -0.0273 -0.6119  0.1459
  193MPD1    C2 2935   0.206   2.973  16.143 -0.7265  0.5048 -0.3600
  193MPD1    C3 2936   0.326   2.909  16.177  0.2703 -0.4322 -1.0245
  193MPD1    C4 2937   0.374   2.805  16.103  0.2091 -0.4061 -0.9068
  193MPD1    C5 2938   0.296   2.768  15.999  0.1063  0.9891  0.0174
  193MPD1     H 2939   0.177   3.058  16.204 -0.5280 -0.9876  1.7959
  193MPD1    H1 2940   0.464   2.747  16.122 -0.3610 -1.4227 -1.2884
  193MPD1    H2 2941   0.127   2.780  15.882  1.7634 -1.9169  0.0182
  193MPD1    H3 2942   0.334   2.678  15.952 -1.4904 -0.2147  1.0163
  193MPD1     N 2943   0.406   2.951  16.290  0.2301  0.8157 -0.7715
  193MPD1    H5 2944   0.489   2.898  16.310 -0.7353  0.1975  1.5087
  193MPD1    N1 2945   0.009   2.995  16.018  0.7049 -0.2868  0.3733
  193MPD1    H6 2946   4.654   2.951  15.972  1.0037 -1.6025  1.1121
  193MPD1    H7 2947   4.698   3.056  16.091 -0.4878  0.6279 -0.9819
  194MPD1     C 2948   2.716   0.241  16.125  0.0071 -0.4959  0.1182
  194MPD1    C1 2949   2.817   0.225  16.031 -0.4078  0.4230  0.1447
  194MPD1    C2 2950   2.945   0.194  16.074 -0.5749  0.0960  0.0392
  194MPD1    C3 2951   2.974   0.179  16.211  0.2182 -0.0592 -0.4937
  194MPD1    C4 2952   2.877   0.201  16.299 -0.5830  0.7081  0.0350
  194MPD1    C5 2953   2.751   0.239  16.258  1.0173 -0.2921  0.4220
  194MPD1     H 2954   3.025   0.191  16.001  0.0240 -2.8686  0.8245
  194MPD1    H1 2955   2.889   0.205  16.407 -1.2141 -2.0601  0.2011
  194MPD1    H2 2956   2.615   0.260  16.090  0.4565 -0.8336 -1.3497
  194MPD1    H3 2957   2.675   0.260  16.333 -0.7467  0.9356 -1.7001
  194MPD1     N 2958   3.107   0.158  16.255  0.5623  0.8990  0.5513
  194MPD1    H5 2959   3.123   0.171  16.354  1.7867  0.0282  0.4617
  194MPD1    N1 2960   2.790   0.221  15.897 -0.5972 -0.3000 -0.1555
  194MPD1    H6 2961   2.866   0.208  15.831 -1.8513 -3.3266 -0.9889
  194MPD1    H7 2962   2.709   0.267  15.857 -0.4358  1.0706  1.1120
  195MPD1     C 2963   1.240   0.848   0.792  0.5660  0.0152 -0.4109
  195MPD1    C1 2964   1.263   0.724   0.730 -0.3543 -0.4888 -0.2607
  195MPD1    C2 2965   1.185   0.688   0.623  0.5607 -0.4702  0.2074
  195MPD1    C3 2966   1.079   0.759   0.585  0.3576 -0.0087  0.3214
  195MPD1    C4 2967   1.042   0.869   0.662  0.5106 -0.0662 -0.1708
  195MPD1    C5 2968   1.125   0.917   0.758 -0.3950 -0.0323 -0.4149
  195MPD1     H 2969   1.215   0.601   0.566  2.6950  0.1435  0.3954
  195MPD1    H1 2970   0.942   0.909   0.648  0.4300  0.5576  2.2136
  195MPD1    H2 2971   1.300   0.886   0.874  1.4957  2.0204 -2.0225
  195MPD1    H3 2972   1.087   0.998   0.819  1.9822  0.4835  0.4010
  195MPD1     N 2973   0.999   0.731   0.470 -0.2453  0.4507  0.0330
  195MPD1    H5 2974   0.929   0.800   0.442 -0.0942  0.7165  0.3033
  195MPD1    N1 2975   1.371   0.653   0.781 -0.1715  0.5773 -0.2667
  195MPD1    H6 2976   1.366   0.559   0.742  0.8743 -0.1921  1.4417
  195MPD1    H7 2977   1.382   0.654   0.882 -1.1060 -1.8008 -0.1419
  196MPD1     C 2978   4.544   0.832   0.463 -0.1040  0.7305 -0.1148
  196MPD1    C1 2979   4.403   0.833   0.462  0.4402 -0.5259  0.3980
  196MPD1    C2 2980   4.338   0.905   0.560  0.1144 -0.4373 -0.2199
  196MPD1    C3 2981   4.405   1.001   0.630  0.2479  0.7243  0.1764
  196MPD1    C4 2982   4.542   1.007   0.619 -0.5383 -0.2600 -0.1731
  196MPD1    C5 2983   4.612   0.915   0.545  0.2873  0.1029 -0.4787
  196MPD1     H 2984   4.230   0.891   0.565  0.3158 -1.4056  1.7235
  196MPD1    H1 2985   4.599   1.085   0.668  0.2677 -0.2943 -1.0557
  196MPD1    H2 2986   4.601   0.761   0.404 -0.9769 -0.9816  1.1168
  196MPD1    H3 2987   4.720   0.915   0.549  0.2889 -1.0861 -0.6116
  196MPD1     N 2988   4.340   1.093   0.721 -0.1980  0.6212 -1.0073
  196MPD1    H5 2989   4.390   1.179   0.743  0.2044  0.0388  0.3886
  196MPD1    N1 2990   4.332   0.742   0.387 -0.1551 -0.0780 -0.4049
  196MPD1    H6 2991   4.242   0.779   0.357  0.3281 -0.5236 -2.3938
  196MPD1    H7 2992   4.380   0.708   0.304 -0.8051  1.2072 -1.3017
  197MPD1     C 2993   3.959   3.013  17.453  0.1468  0.8226 -0.1106
  197MPD1    C1 2994   3.930   2.951  17.339  0.8616  0.2889 -0.1043
  197MPD1    C2 2995   3.910   3.029  17.223  0.4031 -0.1021 -0.1681
  197MPD1    C3 2996   3.913   3.173  17.230 -0.4795 -0.2623  0.0394
  197MPD1    C4 2997   3.948   3.232  17.345 -0.7614  0.3401  0.3840
  197MPD1    C5 2998   3.969   3.152  17.455  0.2811 -0.0325  0.0631
  197MPD1     H 2999   3.904   2.978  17.128  0.4738  1.5403 -1.0499
  197MPD1    H1 3000   3.951   3.339  17.362 -0.8332  0.0803  2.0544
  197MPD1    H2 3001   3.998   2.964  17.542 -0.9112  0.8928  0.3830
  197MPD1    H3 3002   3.997   3.200  17.548  1.1878 -1.8450  0.7410
  197MPD1     N 3003   3.893   3.259  17.119  0.6533  0.3901  0.6712
  197MPD1    H5 3004   3.918   3.356  17.130  1.5005  0.1922  0.4593
  197MPD1    N1 3005   3.958   2.817  17.325 -0.2042 -0.3672 -0.3504
  197MPD1    H6 3006   3.895   2.776  17.257  0.3711  1.2384 -1.8589
  197MPD1    H7 3007   3.965   2.757  17.407 -1.6513 -0.2677 -0.1421
  198MPD1     C 3008   2.274   1.073  15.494  0.4002  0.4790  0.3882
  198MPD1    C1 3009   2.165   1.011  15.444  0.1495 -0.0733 -0.5849
  198MPD1    C2 3010   2.048   1.081  15.453  0.4948 -0.9041 -0.5041
  198MPD1    C3 3011   2.045   1.216  15.484  0.4046 -0.6747  0.2833
  198MPD1    C4 3012   2.158   1.275  15.524 -0.8500  0.0190 -0.0617
  198MPD1    C5 3013   2.276   1.203  15.539 -0.0323 -0.0262 -0.2639
  198MPD1     H 3014   1.959   1.029  15.419  0.5437 -0.8588 -0.7007
  198MPD1    H1 3015   2.179   1.378  15.549 -2.3461  0.8737 -2.3748
  198MPD1    H2 3016   2.367   1.018  15.495  0.0853 -0.0987 -1.6369
  198MPD1    H3 3017   2.364   1.255  15.576  1.0570 -1.7106 -0.5167
  198MPD1     N 3018   1.926   1.290  15.481 -0.0568 -0.4781  0.1225
  198MPD1    H5 3019   1.933   1.382  15.522  0.2875 -0.5835  0.3001
  198MPD1    N1 3020   2.168   0.874  15.432 -0.3925 -0.1143 -0.0175
  198MPD1    H6 3021   2.250   0.849  15.377  0.0159 -2.5120  1.6777
  198MPD1    H7 3022   2.089   0.844  15.376  0.4391 -2.6006  0.1076
  199MPD1     C 3023   4.353   2.994   9.676  0.0239 -0.1923 -0.1411
  199MPD1    C1 3024   4.268   3.092   9.723  0.2488 -0.0721  0.0722
  199MPD1    C2 3025   4.136   3.064   9.719  0.4127  0.5314  0.1952
  199MPD1    C3 3026   4.088   2.952   9.657  0.3890  0.0795  0.0419
  199MPD1    C4 3027   4.176   2.859   9.603  0.3693  0.3243  0.6177
  199MPD1    C5 3028   4.312   2.890   9.601  0.1218  0.0292  0.2012
  199MPD1     H 3029   4.057   3.130   9.753  0.9891  1.3812 -0.1086
  199MPD1    H1 3030   4.145   2.762   9.566  0.0934  0.6701 -0.0803
  199MPD1    H2 3031   4.461   2.999   9.681  0.0259 -1.3161  0.8905
  199MPD1    H3 3032   4.382   2.814   9.570  0.3587 -0.3237  1.5944
  199MPD1     N 3033   3.950   2.921   9.640 -0.0546 -0.5554 -0.7713
  199MPD1    H5 3034   3.939   2.835   9.587 -3.0343 -1.7459  1.8098
  199MPD1    N1 3035   4.317   3.197   9.805 -0.2617 -0.2918 -0.0860
  199MPD1    H6 3036   4.414   3.224   9.792 -0.8576  1.4848 -0.9656
  199MPD1    H7 3037   4.252   3.276   9.803 -0.5523 -0.5562 -1.2490
  200MPD1     C 3038   2.386   3.041  15.214 -0.2873  0.2319  0.4534
  200MPD1    C1 3039   2.293   2.977  15.140  0.5951 -0.0719 -0.7370
  200MPD1    C2 3040   2.324   2.938  15.009  0.8208 -0.5922 -0.4261
  200MPD1    C3 3041   2.438   2.975  14.949 -0.5676  0.4855 -0.3445
  200MPD1    C4 3042   2.527   3.042  15.027 -0.1148  0.3988 -0.5995
  200MPD1    C5 3043   2.504   3.073  15.156  0.0629 -0.2359 -0.4884
  200MPD1     H 3044   2.251   2.885  14.948 -1.5116 -0.8231  2.5475
  200MPD1    H1 3045   2.621   3.069  14.981  0.2841  3.5862  2.0219
  200MPD1    H2 3046   2.370   3.067  15.318 -2.2243  0.3275  0.1319
  200MPD1    H3 3047   2.573   3.130  15.217 -0.2244  2.0178 -2.2683
  200MPD1     N 3048   2.462   2.951  14.809 -0.0412 -0.1256 -0.3183
  200MPD1    H5 3049   2.390   2.898  14.762  1.2610  0.2330 -2.7810
  200MPD1    N1 3050   2.183   2.919  15.196 -0.0867 -0.3578  0.3378
  200MPD1    H6 3051   2.115   2.894  15.124 -2.8066  3.5051  1.5522
  200MPD1    H7 3052   2.138   2.982  15.263 -2.3461 -1.1493 -0.4267
  201MPD1     C 3053   4.188   2.098  13.058 -0.8182 -0.6575 -1.6917
  201MPD1    C1 3054   4.316   2.093  13.013  0.0205 -0.7148 -0.4092
  201MPD1    C2 3055   4.400   1.996  13.046 -0.1849 -0.1708  0.6658
  201MPD1    C3 3056   4.352   1.883  13.117  0.6748 -0.0598  0.5947
  201MPD1    C4 3057   4.225   1.891  13.173 -0.4305 -0.0880  0.0323
  201MPD1    C5 3058   4.139   1.995  13.137 -0.2835 -0.1703  0.5249
  201MPD1     H 3059   4.502   1.997  13.008  0.3508  0.8558  2.1207
  201MPD1    H1 3060   4.176   1.812  13.228 -0.1758  0.7952  1.5499
  201MPD1    H2 3061   4.127   2.186  13.044 -0.4407 -0.2120 -0.5300
  201MPD1    H3 3062   4.042   1.992  13.186  0.7977  0.5203  2.7015
  201MPD1     N 3063   4.436   1.774  13.134 -0.1752 -0.2994  0.1371
  201MPD1    H5 3064   4.528   1.795  13.096 -1.3231  1.2093 -1.7870
  201MPD1    N1 3065   4.356   2.211  12.941 -0.5373 -0.0798 -0.2169
  201MPD1    H6 3066   4.444   2.188  12.895 -0.5168 -0.4396 -0.0009
  201MPD1    H7 3067   4.289   2.236  12.868 -1.0915 -2.5107 -0.5438
  202MPD1     C 3068   4.402   0.851   8.175  0.5578  0.4246 -0.3817
  202MPD1    C1 3069   4.432   0.973   8.236 -0.1802 -0.0644  0.0976
  202MPD1    C2 3070   4.418   0.983   8.375  0.3568 -0.0594  0.1109
  202MPD1    C3 3071   4.445   0.869   8.451 -0.2255 -0.4729 -0.0546
  202MPD1    C4 3072   4.445   0.746   8.382 -0.5207  0.3907  0.0173
  202MPD1    C5 3073   4.413   0.740   8.250  0.1042  0.3478 -0.9549
  202MPD1     H 3074   4.429   1.078   8.426  0.1692 -0.2181  0.4445
  202MPD1    H1 3075   4.456   0.652   8.435 -1.3052 -0.5739 -1.5054
  202MPD1    H2 3076   4.379   0.844   8.070  0.0101  2.4000 -0.4036
  202MPD1    H3 3077   4.399   0.641   8.209 -1.0047  0.2379 -0.3215
  202MPD1     N 3078   4.465   0.869   8.595 -0.8203  0.1208  0.2044
  202MPD1    H5 3079   4.466   0.780   8.643  0.9096 -0.9117 -1.7447
  202MPD1    N1 3080   4.397   1.089   8.160 -0.6770  0.3606  0.1898
  202MPD1    H6 3081   4.430   1.089   8.064  3.4092 -1.0653  1.5745
  202MPD1    H7 3082   4.436   1.178   8.192  1.4000 -0.5535  0.2526
  203MPD1     C 3083   3.047   2.279  12.204  0.1164  0.2859 -0.4506
  203MPD1    C1 3084   3.099   2.202  12.102  0.5810  0.1223 -0.2692
  203MPD1    C2 3085   3.203   2.121  12.143 -0.2923 -0.3357  0.6832
  203MPD1    C3 3086   3.243   2.101  12.274  0.4625  0.2228  0.4813
  203MPD1    C4 3087   3.165   2.164  12.373 -0.2020 -0.1587  0.2646
  203MPD1    C5 3088   3.073   2.255  12.330 -0.2957 -0.0170  0.0686
  203MPD1     H 3089   3.266   2.078  12.066  1.3655  0.1093  1.7952
  203MPD1    H1 3090   3.178   2.159  12.481  0.4466 -2.0587  0.0889
  203MPD1    H2 3091   2.971   2.353  12.183  0.1501  0.4787  0.0995
  203MPD1    H3 3092   3.007   2.300  12.402 -0.0966 -0.2087  0.3745
  203MPD1     N 3093   3.362   2.030  12.298  0.7098 -0.8221  0.0510
  203MPD1    H5 3094   3.427   2.037  12.221  1.7458 -1.6330  0.8296
  203MPD1    N1 3095   3.101   2.252  11.972 -0.6982  0.0381  0.5583
  203MPD1    H6 3096   3.010   2.291  11.948 -0.4265  0.1683 -0.2419
  203MPD1    H7 3097   3.117   2.184  11.899  3.5504 -1.5823  2.9645
  204MPD1     C 3098   2.695   3.518  17.549 -0.0064 -0.4059 -0.0713
  204MPD1    C1 3099   2.772   3.552  17.446 -0.6826  0.0733  0.2486
  204MPD1    C2 3100   2.821   3.441  17.369  0.1676  0.1773  0.1579
  204MPD1    C3 3101   2.807   3.307  17.405  0.5828 -0.0038 -0.1614
  204MPD1    C4 3102   2.745   3.280  17.522  0.3378  0.1929  0.1916
  204MPD1    C5 3103   2.699   3.387  17.593  0.2122  0.2483 -0.2111
  204MPD1     H 3104   2.870   3.469  17.277 -0.9216  2.0729  0.1668
  204MPD1    H1 3105   2.736   3.181  17.565 -0.3283  0.6384  1.0767
  204MPD1    H2 3106   2.640   3.592  17.606 -0.2736 -0.1823 -0.6245
  204MPD1    H3 3107   2.647   3.363  17.684 -0.2660  1.7714 -0.0872
  204MPD1     N 3108   2.856   3.201  17.317 -0.2578 -0.0697 -0.3945
  204MPD1    H5 3109   2.888   3.227  17.225  0.2270 -1.2368 -0.5555
  204MPD1    N1 3110   2.781   3.679  17.398 -0.1947 -0.5631  0.2321
  204MPD1    H6 3111   2.871   3.704  17.358 -0.9220  0.8187 -0.5347
  204MPD1    H7 3112   2.763   3.753  17.465 -1.9420 -0.8299  0.0634
  205MPD1     C 3113   3.668   2.161  16.440  0.1282  0.1340  0.9383
  205MPD1    C1 3114   3.708   2.034  16.489 -0.2425 -0.0414 -0.3722
  205MPD1    C2 3115   3.671   2.003  16.620 -0.5599 -0.2171  0.5184
  205MPD1    C3 3116   3.602   2.087  16.704  0.2413  0.2263  0.7981
  205MPD1    C4 3117   3.572   2.213  16.651  0.0516 -0.3983  0.1234
  205MPD1    C5 3118   3.613   2.249  16.524 -0.4673  0.4710  0.0012
  205MPD1     H 3119   3.687   1.906  16.667 -2.1769 -1.8756 -2.3319
  205MPD1    H1 3120   3.523   2.290  16.711 -0.2402 -1.5634  1.3821
  205MPD1    H2 3121   3.686   2.176  16.334 -1.0824 -0.0655  0.7114
  205MPD1    H3 3122   3.588   2.347  16.484 -1.5895  0.2646  0.1818
  205MPD1     N 3123   3.566   2.075  16.839  0.7439 -0.2460 -0.0890
  205MPD1    H5 3124   3.523   2.152  16.890 -2.3432 -2.8876  1.3377
  205MPD1    N1 3125   3.755   1.936  16.397 -0.1601  0.3628 -0.1633
  205MPD1    H6 3126   3.806   1.867  16.453 -0.8680 -0.4121 -0.4690
  205MPD1    H7 3127   3.825   1.985  16.342  1.0127  0.1260  1.1104
  206MPD1     C 3128   3.345   0.646  16.636 -0.5819  0.0371  0.0963
  206MPD1    C1 3129   3.435   0.573  16.561 -0.1251 -0.3260  0.2286
  206MPD1    C2 3130   3.395   0.542  16.427  0.3838  0.2730 -0.1257
  206MPD1    C3 3131   3.260   0.549  16.387 -0.0263 -0.0588 -0.5584
  206MPD1    C4 3132   3.171   0.602  16.478 -0.1953 -0.2002 -0.2443
  206MPD1    C5 3133   3.216   0.656  16.602  0.0497 -0.0944 -0.0262
  206MPD1     H 3134   3.474   0.516  16.358 -1.8466 -0.6657 -2.3308
  206MPD1    H1 3135   3.065   0.614  16.458  0.2033  1.1707 -1.5338
  206MPD1    H2 3136   3.372   0.682  16.735 -2.1754 -0.0604  0.5668
  206MPD1    H3 3137   3.136   0.704  16.658 -0.9453 -1.4478 -0.2982
  206MPD1     N 3138   3.212   0.503  16.266 -0.2316  0.1890  0.1149
  206MPD1    H5 3139   3.120   0.535  16.237 -0.2318  1.5514  1.6257
  206MPD1    N1 3140   3.568   0.583  16.603 -0.0469  0.2977 -0.1702
  206MPD1    H6 3141   3.631   0.521  16.554 -1.5983  0.5626 -2.4774
  206MPD1    H7 3142   3.574   0.567  16.704 -0.8761 -0.7387 -0.2816
  207MPD1     C 3143   0.511   1.955   9.663  0.2180 -0.6102  0.3921
  207MPD1    C1 3144   0.585   2.067   9.649 -0.2994 -0.2763 -0.0928
  207MPD1    C2 3145   0.682   2.102   9.748 -0.5357 -0.0510 -0.2993
  207MPD1    C3 3146   0.698   2.019   9.851 -0.0740 -0.0261 -0.7515
  207MPD1    C4 3147   0.631   1.899   9.861 -0.3582  0.2347  0.2529
  207MPD1    C5 3148   0.534   1.863   9.765  0.0524  0.3193  0.3020
  207MPD1     H 3149   0.727   2.200   9.744 -0.8689  0.2178  2.6946
  207MPD1    H1 3150   0.657   1.831   9.941  1.4957  0.9036  0.2297
  207MPD1    H2 3151   0.449   1.924   9.580  1.0911  2.5282 -1.4705
  207MPD1    H3 3152   0.482   1.767   9.769  0.0179  0.4743  3.4240
  207MPD1     N 3153   0.780   2.053   9.963  0.2004 -0.5588 -0.8569
  207MPD1    H5 3154   0.790   1.981  10.034  1.9480 -0.8428 -1.4066
  207MPD1    N1 3155   0.586   2.138   9.528  0.0985 -0.1989 -0.1733
  207MPD1    H6 3156   0.589   2.238   9.548  0.6068  0.0982 -1.7109
  207MPD1    H7 3157   0.505   2.126   9.467 -0.0644  2.8631 -0.5554
  208MPD1     C 3158   4.296   2.651   0.944 -0.6541 -0.4986 -0.4097
  208MPD1    C1 3159   4.161   2.671   0.936  0.1837  0.6026  0.2695
  208MPD1    C2 3160   4.079   2.584   0.867  0.0671  0.1941  0.6510
  208MPD1    C3 3161   4.143   2.473   0.808  0.3194  0.1586 -0.4497
  208MPD1    C4 3162   4.285   2.461   0.820 -0.3803  0.3311 -0.2248
  208MPD1    C5 3163   4.361   2.555   0.877 -0.1715 -0.2539  0.1157
  208MPD1     H 3164   3.971   2.596   0.867 -0.1309 -1.5917  0.0392
  208MPD1    H1 3165   4.335   2.376   0.774 -0.2060 -0.2142  0.9827
  208MPD1    H2 3166   4.358   2.716   1.005 -1.5321 -0.5954  0.5968
  208MPD1    H3 3167   4.469   2.549   0.882 -0.0582  3.2589  2.2191
  208MPD1     N 3168   4.056   2.376   0.761 -0.3107  0.3333 -0.1121
  208MPD1    H5 3169   3.959   2.405   0.751 -0.5808 -1.1992 -1.9334
  208MPD1    N1 3170   4.105   2.777   1.012  0.0528 -0.1230 -0.0231
  208MPD1    H6 3171   4.115   2.765   1.112  0.7238 -1.0540 -0.2008
  208MPD1    H7 3172   4.007   2.798   0.999  0.2600  0.1696 -1.1556
  209MPD1     C 3173   1.901   0.735  10.441  0.5567  0.8724 -0.5524
  209MPD1    C1 3174   1.824   0.810  10.356  0.1570  0.1556 -0.4086
  209MPD1    C2 3175   1.735   0.910  10.404  1.0042  0.4710 -0.2745
  209MPD1    C3 3176   1.713   0.934  10.542 -0.6304  0.1076  0.0760
  209MPD1    C4 3177   1.784   0.854  10.633 -0.1343  1.2959 -0.4360
  209MPD1    C5 3178   1.878   0.762  10.574  0.6397 -0.0971  0.3479
  209MPD1     H 3179   1.681   0.966  10.328  2.4304  0.6583 -1.1476
  209MPD1    H1 3180   1.772   0.862  10.740 -2.0285  0.8675 -0.6015
  209MPD1    H2 3181   1.968   0.658  10.403  1.0970  0.6440  0.8664
  209MPD1    H3 3182   1.932   0.704  10.647  1.2640  0.8403  0.6356
  209MPD1     N 3183   1.617   1.033  10.580 -0.2888  0.1390 -0.6411
  209MPD1    H5 3184   1.575   1.081  10.501 -0.2302 -1.1057 -1.4438
  209MPD1    N1 3185   1.842   0.792  10.217  0.5481 -0.3934  0.2197
  209MPD1    H6 3186   1.868   0.698  10.187  1.8852 -0.2640  0.9702
  209MPD1    H7 3187   1.772   0.832  10.155 -0.2252 -0.6316  0.9372
  210MPD1     C 3188   1.413   1.771  11.350  0.7998  0.2010 -0.5562
  210MPD1    C1 3189   1.408   1.637  11.361  0.4223  0.6784 -0.6722
  210MPD1    C2 3190   1.405   1.569  11.239  0.8329 -0.4556 -0.1694
  210MPD1    C3 3191   1.418   1.629  11.116  0.2154  0.1350 -0.0340
  210MPD1    C4 3192   1.422   1.761  11.116 -1.0840  0.3537 -0.3158
  210MPD1    C5 3193   1.410   1.837  11.229  0.8001 -0.3082  0.1776
  210MPD1     H 3194   1.408   1.462  11.251 -1.7510 -0.3990  0.9207
  210MPD1    H1 3195   1.393   1.815  11.026 -1.7388  0.2053 -0.1981
  210MPD1    H2 3196   1.415   1.835  11.438 -1.3808 -1.3494  0.6132
  210MPD1    H3 3197   1.393   1.944  11.217 -1.0447 -0.6793 -0.4808
  210MPD1     N 3198   1.434   1.567  10.997  0.0060 -0.0921  0.6878
  210MPD1    H5 3199   1.479   1.615  10.920  1.0736 -0.4949  1.0621
  210MPD1    N1 3200   1.430   1.571  11.487  0.1888  0.6157 -0.5459
  210MPD1    H6 3201   1.390   1.621  11.566 -2.6685 -0.9200 -0.9957
  210MPD1    H7 3202   1.371   1.488  11.496 -0.9925  1.5774  0.6006
  211MPD1     C 3203   3.950   1.992  15.875  1.1021 -0.4143  0.7284
  211MPD1    C1 3204   3.859   2.063  15.799  0.7634  0.2675 -0.0320
  211MPD1    C2 3205   3.724   2.044  15.828  0.1997 -0.5414  0.1852
  211MPD1    C3 3206   3.681   1.951  15.918 -0.8995  0.2698  0.2968
  211MPD1    C4 3207   3.776   1.891  16.001 -0.3616 -0.6927 -0.1110
  211MPD1    C5 3208   3.907   1.906  15.975  0.4735 -0.0710  0.6672
  211MPD1     H 3209   3.653   2.099  15.767 -0.9447 -1.3007  0.8296
  211MPD1    H1 3210   3.752   1.817  16.077  1.0075  0.0145  1.0203
  211MPD1    H2 3211   4.054   1.997  15.846  0.6971  0.4342 -0.5520
  211MPD1    H3 3212   3.980   1.859  16.041  1.7289 -0.2509 -0.8672
  211MPD1     N 3213   3.542   1.943  15.941  0.2035  0.2420  0.5512
  211MPD1    H5 3214   3.483   2.013  15.898  1.3621  1.6675  1.2633
  211MPD1    N1 3215   3.905   2.160  15.706  0.2809  1.1986  0.0499
  211MPD1    H6 3216   3.839   2.186  15.632  1.1609 -1.7770 -1.7885
  211MPD1    H7 3217   3.996   2.138  15.667  0.7071  1.8488  0.7007
  212MPD1     C 3218   2.858   0.539  16.725  0.2402 -0.2270  0.6001
  212MPD1    C1 3219   2.885   0.415  16.664 -0.0057  0.3284  0.0346
  212MPD1    C2 3220   2.777   0.331  16.648  0.3930  0.0594 -0.0176
  212MPD1    C3 3221   2.645   0.376  16.652 -0.3077  0.3145  0.4249
  212MPD1    C4 3222   2.621   0.509  16.687 -0.2819  0.5498  0.0539
  212MPD1    C5 3223   2.728   0.585  16.721 -0.1154  0.3841  0.5160
  212MPD1     H 3224   2.806   0.232  16.613 -0.9547  1.1332 -4.1678
  212MPD1    H1 3225   2.520   0.549  16.681 -1.2335 -1.6442  1.4447
  212MPD1    H2 3226   2.933   0.603  16.770  0.7592 -0.7817  0.5204
  212MPD1    H3 3227   2.716   0.683  16.765  0.7395  0.3340  0.8625
  212MPD1     N 3228   2.531   0.289  16.633 -0.8885  0.0362 -0.3401
  212MPD1    H5 3229   2.439   0.329  16.623 -0.5596  0.5203 -1.4900
  212MPD1    N1 3230   3.020   0.373  16.664  0.4562  0.2537  0.1072
  212MPD1    H6 3231   3.044   0.293  16.606  0.2486 -0.4798  1.0278
  212MPD1    H7 3232   3.084   0.448  16.643 -0.5020  1.1595  0.4413
  213MPD1     C 3233   0.756   1.391  15.841 -0.5064  0.1095 -0.0219
  213MPD1    C1 3234   0.768   1.262  15.809 -1.2138 -0.2776  0.3396
  213MPD1    C2 3235   0.782   1.251  15.670 -0.3064 -0.0182  0.9894
  213MPD1    C3 3236   0.742   1.345  15.582  0.2210 -0.2455  1.6670
  213MPD1    C4 3237   0.696   1.468  15.629 -0.3432 -0.8856 -0.0982
  213MPD1    C5 3238   0.712   1.492  15.761 -0.2232 -0.1328  0.0912
  213MPD1     H 3239   0.813   1.159  15.622 -2.8069 -0.3160 -0.0726
  213MPD1    H1 3240   0.640   1.538  15.567 -0.7965 -0.5075  0.7289
  213MPD1    H2 3241   0.765   1.423  15.944 -0.5399 -3.5132  1.1194
  213MPD1    H3 3242   0.712   1.590  15.806  1.0879  0.2598 -0.7858
  213MPD1     N 3243   0.739   1.311  15.444  0.9478  0.8580  0.1907
  213MPD1    H5 3244   0.752   1.213  15.419 -1.3641  1.1486 -2.1174
  213MPD1    N1 3245   0.832   1.171  15.897  0.3685  0.6709  0.0414
  213MPD1    H6 3246   0.824   1.074  15.867  1.1737  0.2804  1.0992
  213MPD1    H7 3247   0.799   1.175  15.993  0.8517 -1.5704  0.2892
  214MPD1     C 3248   0.150   0.749  14.849 -0.1268  0.0352  0.4496
  214MPD1    C1 3249   0.184   0.760  14.984  0.1546  0.1571 -0.0699
  214MPD1    C2 3250   0.249   0.878  15.022  0.4615  0.4119  0.1397
  214MPD1    C3 3251   0.297   0.973  14.926 -0.5123  1.2113  0.9553
  214MPD1    C4 3252   0.261   0.961  14.798 -0.5612  0.4079 -0.1153
  214MPD1    C5 3253   0.188   0.849  14.761  0.0655  0.7338 -0.2837
  214MPD1     H 3254   0.268   0.888  15.128 -1.2521 -1.1728  0.6045
  214MPD1    H1 3255   0.294   1.038  14.730  2.5013 -1.2309 -0.4813
  214MPD1    H2 3256   0.095   0.668  14.803  0.0351  0.3524 -0.3147
  214MPD1    H3 3257   0.171   0.819  14.658  0.8033 -2.3475  0.4687
  214MPD1     N 3258   0.380   1.083  14.952 -0.4486  0.0119  0.8272
  214MPD1    H5 3259   0.416   1.131  14.870  2.6213 -1.5507  1.2503
  214MPD1    N1 3260   0.142   0.660  15.074 -0.4088  0.0976  0.2097
  214MPD1    H6 3261   0.144   0.563  15.045  2.4024  0.0509  0.5557
  214MPD1    H7 3262   0.204   0.648  15.153 -0.1358 -1.8342 -0.3113
  215MPD1     C 3263   1.148   1.039  10.618  0.0254  0.2942  0.1246
  215MPD1    C1 3264   1.145   1.070  10.755  0.3176  0.4355  0.7061
  215MPD1    C2 3265   1.144   1.200  10.799  0.6575 -0.8400 -0.2643
  215MPD1    C3 3266   1.139   1.301  10.707  0.0102 -0.3305 -0.2763
  215MPD1    C4 3267   1.147   1.273  10.571  0.2057  0.6960 -0.3503
  215MPD1    C5 3268   1.150   1.139  10.526  0.2707 -0.6210  0.5146
  215MPD1     H 3269   1.148   1.220  10.906 -0.2163 -0.1800 -0.3524
  215MPD1    H1 3270   1.154   1.353  10.499  4.8180 -0.7312 -1.5059
  215MPD1    H2 3271   1.174   0.939  10.584  3.5961  0.7286  1.6324
  215MPD1    H3 3272   1.175   1.118  10.423 -1.6789 -2.4262  0.4005
  215MPD1     N 3273   1.133   1.428  10.764 -0.1465 -0.6537  0.0378
  215MPD1    H5 3274   1.123   1.438  10.864  0.0054  2.1428 -0.2277
  215MPD1    N1 3275   1.176   0.976  10.860 -0.5039 -0.3035 -0.0336
  215MPD1    H6 3276   1.153   0.995  10.957  2.1788 -0.6495  0.6943
  215MPD1    H7 3277   1.125   0.890  10.841  0.9372 -1.1501 -0.1337
  216MPD1     C 3278   2.747   4.467  15.905  0.3682  0.4983 -0.2364
  216MPD1    C1 3279   2.720   4.329  15.913 -0.6319 -0.2398  0.0536
  216MPD1    C2 3280   2.708   4.281  16.044  0.5504  0.8003 -0.5674
  216MPD1    C3 3281   2.707   4.362  16.157  0.2848 -0.5875 -0.1817
  216MPD1    C4 3282   2.723   4.500  16.143 -0.0657 -0.0758 -0.7213
  216MPD1    C5 3283   2.734   4.547  16.018 -0.0489  0.3033  0.0047
  216MPD1     H 3284   2.716   4.175  16.063 -2.3515  0.6883  0.1027
  216MPD1    H1 3285   2.729   4.563  16.232  2.0715 -0.4999 -0.5750
  216MPD1    H2 3286   2.772   4.507  15.808 -0.7515 -3.4382 -2.1289
  216MPD1    H3 3287   2.752   4.652  15.998 -0.2049  0.3580  0.1572
  216MPD1     N 3288   2.693   4.295  16.281 -0.6843 -0.2362  0.6390
  216MPD1    H5 3289   2.673   4.196  16.271 -0.2174 -0.2578 -0.0820
  216MPD1    N1 3290   2.737   4.244  15.801 -0.7300 -0.3208  0.6717
  216MPD1    H6 3291   2.701   4.282  15.713 -1.9209  1.3976  1.8887
  216MPD1    H7 3292   2.691   4.155  15.816 -1.5362 -0.2923 -1.6104
  217MPD1     C 3293   3.423   1.504   8.135 -0.3711 -0.4059 -0.5694
  217MPD1    C1 3294   3.530   1.414   8.146 -0.7055  0.0858 -0.0488
  217MPD1    C2 3295   3.562   1.362   8.269 -0.2847 -0.4079  0.2533
  217MPD1    C3 3296   3.492   1.395   8.382  0.6938 -0.6545  0.4669
  217MPD1    C4 3297   3.392   1.491   8.370  0.2303  0.3517  0.3320
  217MPD1    C5 3298   3.358   1.540   8.250 -0.7911  0.1923  0.7315
  217MPD1     H 3299   3.640   1.288   8.274  1.2772  1.0306 -2.6720
  217MPD1    H1 3300   3.339   1.514   8.462 -0.3922  2.2677 -0.5085
  217MPD1    H2 3301   3.384   1.536   8.039 -2.4009  0.0342  0.3973
  217MPD1    H3 3302   3.274   1.609   8.249 -1.4373 -0.6143 -1.6747
  217MPD1     N 3303   3.502   1.342   8.516 -0.2426 -0.2399 -0.7879
  217MPD1    H5 3304   3.438   1.375   8.587 -0.0147  0.6853 -1.0105
  217MPD1    N1 3305   3.604   1.373   8.035  0.1446  0.5576  0.0023
  217MPD1    H6 3306   3.665   1.292   8.044 -0.2261  0.3564  0.6883
  217MPD1    H7 3307   3.547   1.357   7.952 -0.7292 -1.3826  0.9578
  218MPD1     C 3308   0.266   2.698  12.731 -0.8190 -0.0143 -0.1739
  218MPD1    C1 3309   0.304   2.696  12.599 -0.6987  0.2818  0.1708
  218MPD1    C2 3310   0.386   2.599  12.555  0.5667  0.5333  0.1421
  218MPD1    C3 3311   0.445   2.508  12.642 -0.1301  1.2275  0.1949
  218MPD1    C4 3312   0.409   2.509  12.772 -0.0013  0.2211 -0.3210
  218MPD1    C5 3313   0.322   2.611  12.821 -0.1492  0.0494 -0.3010
  218MPD1     H 3314   0.408   2.589  12.449 -0.3696  2.7359 -0.2761
  218MPD1    H1 3315   0.450   2.440  12.845 -1.7467  0.2068  0.6582
  218MPD1    H2 3316   0.205   2.773  12.779  0.2630  0.4762  0.4344
  218MPD1    H3 3317   0.292   2.611  12.925  0.5489  0.8554 -0.0946
  218MPD1     N 3318   0.519   2.406  12.586 -0.6008 -0.3833  0.1173
  218MPD1    H5 3319   0.542   2.422  12.489 -2.8194  3.1983  0.1642
  218MPD1    N1 3320   0.251   2.793  12.513 -0.1615  0.5178  0.7516
  218MPD1    H6 3321   0.317   2.818  12.440  0.2313 -0.0774  0.9035
  218MPD1    H7 3322   0.247   2.879  12.567 -1.2604  1.4814 -0.8624
  219MPD1     C 3323   0.685   2.120  11.673  0.3976 -0.5853  0.0955
  219MPD1    C1 3324   0.697   2.233  11.745  0.1918 -0.1955  0.7370
  219MPD1    C2 3325   0.694   2.212  11.884  0.2686 -0.1326 -0.3211
  219MPD1    C3 3326   0.666   2.093  11.945 -0.0448 -0.0108  0.2699
  219MPD1    C4 3327   0.623   1.985  11.861 -0.5510  0.8181 -0.5533
  219MPD1    C5 3328   0.642   2.005  11.728 -0.4189 -0.6616  0.7221
  219MPD1     H 3329   0.706   2.304  11.941  3.0496 -0.3285 -0.5836
  219MPD1    H1 3330   0.579   1.891  11.894  1.0156  0.8780  1.6862
  219MPD1    H2 3331   0.698   2.119  11.565  0.1607 -0.3336  0.0643
  219MPD1    H3 3332   0.625   1.925  11.657  0.4666  0.3267 -0.5943
  219MPD1     N 3333   0.637   2.077  12.083 -0.6332 -0.8070  0.0063
  219MPD1    H5 3334   0.595   1.991  12.115  0.4538 -1.5757 -0.6688
  219MPD1    N1 3335   0.741   2.352  11.684  0.2864  0.5200  0.1543
  219MPD1    H6 3336   0.718   2.370  11.587  2.3158  0.8705 -0.2707
  219MPD1    H7 3337   0.710   2.436  11.733  0.0904 -0.1314  1.1596
  220MPD1     C 3338   0.143   2.636   9.531  0.0339  0.6570  0.2751
  220MPD1    C1 3339   0.240   2.672   9.627  0.4731 -0.6297 -0.9721
  220MPD1    C2 3340   0.280   2.573   9.715  0.5020 -0.4285  0.0317
  220MPD1    C3 3341   0.230   2.446   9.715  0.6703  0.9687  0.5139
  220MPD1    C4 3342   0.135   2.408   9.625  0.2023  0.1478  0.4219
  220MPD1    C5 3343   0.089   2.508   9.542 -0.1809  0.0242 -0.0640
  220MPD1     H 3344   0.369   2.594   9.773 -1.0631 -0.6477  2.5036
  220MPD1    H1 3345   0.085   2.312   9.631  0.3469 -0.0670 -1.6972
  220MPD1    H2 3346   0.104   2.701   9.454 -3.0750 -0.7056  0.6948
  220MPD1    H3 3347   0.011   2.489   9.469 -0.6649 -2.0409  0.9974
  220MPD1     N 3348   0.293   2.353   9.799  0.2382 -0.4032 -0.0963
  220MPD1    H5 3349   0.374   2.383   9.852  0.3211  0.1092 -0.5134
  220MPD1    N1 3350   0.309   2.796   9.632 -0.2844  0.2449  0.2270
  220MPD1    H6 3351   0.248   2.868   9.595  0.9250  0.5690 -1.1335
  220MPD1    H7 3352   0.337   2.823   9.727  3.8407  1.0799 -1.2305
  221MPD1     C 3353   3.186   2.105  16.413 -0.0604 -0.9840 -0.1219
  221MPD1    C1 3354   3.091   2.014  16.455  1.1291  0.0307 -0.1387
  221MPD1    C2 3355   3.133   1.888  16.450 -0.3111 -0.8769  0.2641
  221MPD1    C3 3356   3.262   1.844  16.401  0.4555 -0.1097 -0.3634
  221MPD1    C4 3357   3.362   1.937  16.380  0.3889 -0.2704  0.0621
  221MPD1    C5 3358   3.318   2.072  16.390 -1.1979 -0.7972  0.5946
  221MPD1     H 3359   3.055   1.820  16.481 -1.6568  0.8608  0.7134
  221MPD1    H1 3360   3.461   1.915  16.342  0.7611 -0.2829  1.0480
  221MPD1    H2 3361   3.160   2.210  16.404 -0.5063 -1.2850 -2.3565
  221MPD1    H3 3362   3.385   2.156  16.377 -1.2174 -0.7266  0.9426
  221MPD1     N 3363   3.300   1.716  16.385  0.5578  0.4625 -0.1210
  221MPD1    H5 3364   3.399   1.701  16.368  0.5126  1.0547 -0.8832
  221MPD1    N1 3365   2.960   2.051  16.466 -0.4604 -0.2077  0.5898
  221MPD1    H6 3366   2.956   2.145  16.507 -0.6411  0.5307 -1.1203
  221MPD1    H7 3367   2.907   1.991  16.529 -1.1275 -1.6664 -1.3547
  222MPD1     C 3368   3.153   4.151  16.760 -0.0406 -0.0492 -0.1616
  222MPD1    C1 3369   3.168   4.207  16.886 -0.3326 -1.1013 -0.1044
  222MPD1    C2 3370   3.118   4.339  16.893 -0.3272 -0.6550  0.0170
  222MPD1    C3 3371   3.049   4.397  16.783  0.6373 -0.2787  0.1479
  222MPD1    C4 3372   3.040   4.338  16.663 -0.4177  1.0895  0.0569
  222MPD1    C5 3373   3.090   4.207  16.655 -0.2727 -0.2533  0.8578
  222MPD1     H 3374   3.126   4.389  16.989  0.7123  0.1893 -0.5037
  222MPD1    H1 3375   2.985   4.382  16.581  0.0902  1.2348 -0.2116
  222MPD1    H2 3376   3.193   4.052  16.740  0.1993 -0.1590  0.8640
  222MPD1    H3 3377   3.092   4.145  16.566 -0.8103 -1.1830  1.4945
  222MPD1     N 3378   2.986   4.525  16.790  0.1077  0.5200  0.6255
  222MPD1    H5 3379   2.916   4.551  16.722  2.5995  1.6052 -1.5316
  222MPD1    N1 3380   3.254   4.158  16.987 -0.5223 -0.4765  0.1059
  222MPD1    H6 3381   3.285   4.061  16.982 -0.6007 -0.4150 -1.7998
  222MPD1    H7 3382   3.253   4.193  17.083 -0.1079 -2.0938  0.6944
  223MPD1     C 3383   2.195   4.443  17.151  0.1279 -0.2868 -0.5369
  223MPD1    C1 3384   2.305   4.366  17.135  0.1014 -0.1621 -0.3789
  223MPD1    C2 3385   2.413   4.425  17.074 -0.0930 -0.1307  0.6511
  223MPD1    C3 3386   2.418   4.565  17.043 -0.2159  0.0764  0.4533
  223MPD1    C4 3387   2.307   4.638  17.056  0.3036  0.4734  0.1231
  223MPD1    C5 3388   2.195   4.578  17.116  0.3248  0.1827  0.3311
  223MPD1     H 3389   2.496   4.360  17.051 -0.9652 -0.5205 -1.4521
  223MPD1    H1 3390   2.291   0.011  17.012 -2.7466  0.0474  0.3248
  223MPD1    H2 3391   2.102   4.404  17.189 -1.3036  2.9265 -0.7590
  223MPD1    H3 3392   2.100   4.630  17.125  0.8136  1.5124 -2.0744
  223MPD1     N 3393   2.537   4.613  17.000  0.9166 -0.8963  0.5153
  223MPD1    H5 3394   2.614   4.554  16.971  0.8100 -0.6647 -0.2423
  223MPD1    N1 3395   2.302   4.226  17.162 -0.1096  0.3061  0.2225
  223MPD1    H6 3396   2.225   4.183  17.213 -1.5480  2.7435  0.1046
  223MPD1    H7 3397   2.388   4.193  17.206 -0.8224 -1.4324  0.3197
  224MPD1     C 3398   3.679   1.619   8.700  0.4847  0.5574 -0.8869
  224MPD1    C1 3399   3.593   1.664   8.793  0.3295 -0.6320 -0.4061
  224MPD1    C2 3400   3.584   1.599   8.909 -0.0792 -0.5862 -0.1439
  224MPD1    C3 3401   3.690   1.515   8.951 -0.4723  0.2076  0.2243
  224MPD1    C4 3402   3.786   1.478   8.855  0.5061 -0.0143 -0.2478
  224MPD1    C5 3403   3.779   1.527   8.732 -0.6546 -0.2915 -0.6308
  224MPD1     H 3404   3.508   1.638   8.976  0.5975  1.3232 -0.4967
  224MPD1    H1 3405   3.867   1.409   8.877 -0.5115 -1.6239 -1.5838
  224MPD1    H2 3406   3.679   1.656   8.598  1.9997 -2.1557 -1.8702
  224MPD1    H3 3407   3.859   1.509   8.660  1.5415  0.0367  1.7165
  224MPD1     N 3408   3.705   1.452   9.074 -0.4790 -0.1634  0.2118
  224MPD1    H5 3409   3.786   1.392   9.085 -0.5220 -0.2592  0.0020
  224MPD1    N1 3410   3.489   1.752   8.753  0.5689  0.5803 -0.3629
  224MPD1    H6 3411   3.517   1.814   8.677  0.1473 -0.3794 -1.3094
  224MPD1    H7 3412   3.460   1.810   8.831  0.0610  0.2943 -0.3361
  225MPD1     C 3413   0.653   3.153  12.429  0.4082  0.8450  0.0676
  225MPD1    C1 3414   0.669   3.033  12.375 -0.0079  0.4788  0.5823
  225MPD1    C2 3415   0.555   2.969  12.328  0.4294  0.7676 -0.2211
  225MPD1    C3 3416   0.433   3.037  12.321 -0.0368  0.1108  0.0214
  225MPD1    C4 3417   0.420   3.162  12.376 -0.7425 -0.0779 -0.2242
  225MPD1    C5 3418   0.531   3.216  12.431  0.2695  0.1007  0.7032
  225MPD1     H 3419   0.561   2.868  12.290  2.1751  0.6289  0.4445
  225MPD1    H1 3420   0.323   3.209  12.364 -1.1154 -0.6989  0.3796
  225MPD1    H2 3421   0.734   3.200  12.484  0.4026  1.1310 -0.1698
  225MPD1    H3 3422   0.533   3.312  12.481  0.3828  0.1088  0.6842
  225MPD1     N 3423   0.313   2.987  12.262 -0.3884 -0.8532 -0.1879
  225MPD1    H5 3424   0.227   3.040  12.271  0.3524 -0.3953  4.0014
  225MPD1    N1 3425   0.786   2.957  12.398  0.1577  0.3028 -0.4561
  225MPD1    H6 3426   0.803   2.884  12.330 -0.7720 -0.3544  0.0106
  225MPD1    H7 3427   0.873   3.008  12.410  0.3075  0.0061 -0.2945
  226MPD1     C 3428   2.243   2.496   9.428 -0.0447 -0.1865  0.4386
  226MPD1    C1 3429   2.320   2.384   9.432  0.0086  0.0963  0.5238
  226MPD1    C2 3430   2.452   2.386   9.390  0.1350  0.5111 -0.0252
  226MPD1    C3 3431   2.519   2.501   9.368 -0.3168  0.1953 -0.2536
  226MPD1    C4 3432   2.445   2.615   9.377  0.3128  0.1300 -0.1917
  226MPD1    C5 3433   2.310   2.609   9.412  0.5202 -0.4233 -0.0762
  226MPD1     H 3434   2.502   2.291   9.406 -1.0468  0.0584  0.9955
  226MPD1    H1 3435   2.493   2.712   9.370 -0.4784  0.5218 -0.2294
  226MPD1    H2 3436   2.137   2.499   9.453 -0.1835 -0.0689 -0.1697
  226MPD1    H3 3437   2.255   2.702   9.415  1.2529  0.0008  0.3882
  226MPD1     N 3438   2.653   2.496   9.331 -0.2327 -0.7971 -0.3787
  226MPD1    H5 3439   2.698   2.405   9.334 -1.8863 -1.6231 -0.2823
  226MPD1    N1 3440   2.247   2.259   9.433 -0.3282 -0.2619 -0.2621
  226MPD1    H6 3441   2.311   2.183   9.458  2.3381  1.8960 -0.4847
  226MPD1    H7 3442   2.158   2.248   9.480 -0.4615 -1.1507 -0.7198
  227MPD1     C 3443   3.353   3.111   8.966 -0.3415 -1.0387  0.8073
  227MPD1    C1 3444   3.219   3.111   8.949  0.5980 -0.2044  0.0401
  227MPD1    C2 3445   3.162   3.007   9.026  0.1861  0.2175  0.2343
  227MPD1    C3 3446   3.222   2.914   9.103 -0.1374 -0.3377 -0.5015
  227MPD1    C4 3447   3.362   2.920   9.115  0.2838 -1.4822 -0.3211
  227MPD1    C5 3448   3.420   3.025   9.048  0.2805 -1.0048 -0.1379
  227MPD1     H 3449   3.056   2.983   9.017  0.2219  0.3959 -0.6935
  227MPD1    H1 3450   3.427   2.850   9.167  4.0426  1.4249 -1.0947
  227MPD1    H2 3451   3.417   3.178   8.909  0.2294 -1.9433  0.3879
  227MPD1    H3 3452   3.525   3.040   9.066 -0.1867  0.6011  1.3209
  227MPD1     N 3453   3.154   2.802   9.149 -0.2569 -0.7862 -0.0524
  227MPD1    H5 3454   3.058   2.782   9.125 -0.5618 -1.3394  1.6163
  227MPD1    N1 3455   3.149   3.194   8.862  0.7522 -0.2665 -0.0693
  227MPD1    H6 3456   3.077   3.137   8.816  1.8376 -0.8871 -0.9887
  227MPD1    H7 3457   3.205   3.245   8.795  0.7994  0.4065  0.4790
  228MPD1     C 3458   1.312   1.245  12.859 -0.5580 -0.9096  0.0409
  228MPD1    C1 3459   1.227   1.139  12.864  0.2643  0.4181  0.9286
  228MPD1    C2 3460   1.275   1.018  12.819  1.2671  0.5521 -0.0761
  228MPD1    C3 3461   1.405   1.006  12.772  0.1548  0.2949 -0.0777
  228MPD1    C4 3462   1.490   1.118  12.767 -0.6976  0.2768 -0.1621
  228MPD1    C5 3463   1.438   1.236  12.812 -0.0402  0.0999  0.7808
  228MPD1     H 3464   1.215   0.929  12.805  0.1821  0.9658  1.8550
  228MPD1    H1 3465   1.590   1.122  12.726 -0.8769  2.4626 -0.3605
  228MPD1    H2 3466   1.289   1.346  12.892  0.5045 -1.5026  2.6528
  228MPD1    H3 3467   1.504   1.320  12.793 -1.7144  1.0347 -0.9893
  228MPD1     N 3468   1.438   0.879  12.727 -0.4724 -0.2080 -0.3038
  228MPD1    H5 3469   1.367   0.807  12.733 -0.6787 -0.0503 -0.8726
  228MPD1    N1 3470   1.092   1.155  12.898 -0.0169 -0.5429 -0.2220
  228MPD1    H6 3471   1.066   1.228  12.964 -0.9195 -1.3986  0.3834
  228MPD1    H7 3472   1.036   1.076  12.931  0.7326 -1.8518 -2.1370
  229MPD1     C 3473   1.535   4.083  14.176 -0.2398 -0.2819  0.1343
  229MPD1    C1 3474   1.540   3.976  14.262 -0.2212  0.5843 -0.5272
  229MPD1    C2 3475   1.631   3.879  14.239  0.2625 -0.0413  0.4703
  229MPD1    C3 3476   1.708   3.880  14.127  0.1167  0.0207 -0.1565
  229MPD1    C4 3477   1.703   3.988  14.045  0.2561  0.4491  0.8436
  229MPD1    C5 3478   1.623   4.095  14.070  0.6072  0.4327  0.4947
  229MPD1     H 3479   1.624   3.787  14.297  0.6645 -0.1780  0.2995
  229MPD1    H1 3480   1.762   4.003  13.955 -0.2783  1.4419  0.6511
  229MPD1    H2 3481   1.463   4.162  14.194  1.5535  1.2353  0.6205
  229MPD1    H3 3482   1.625   4.179  14.002  0.4769 -0.5271 -0.7206
  229MPD1     N 3483   1.799   3.774  14.103 -0.6049 -0.4768 -0.0757
  229MPD1    H5 3484   1.845   3.783  14.012 -0.2957 -0.2434  0.1060
  229MPD1    N1 3485   1.446   3.968  14.364  0.9618 -0.7631 -0.0085
  229MPD1    H6 3486   1.481   3.921  14.447  2.3381  0.0087 -0.1542
  229MPD1    H7 3487   1.413   4.057  14.402  2.8101 -1.6799  3.7489
  230MPD1     C 3488   1.865   2.915  14.595 -0.1500 -0.4923  0.1734
  230MPD1    C1 3489   1.846   3.048  14.635  0.4211  0.8284 -0.4561
  230MPD1    C2 3490   1.882   3.151  14.547 -0.2285 -0.3022 -0.2804
  230MPD1    C3 3491   1.939   3.128  14.419 -0.1240 -0.6516  0.2752
  230MPD1    C4 3492   1.963   2.993  14.387 -0.0622  0.2828 -0.1717
  230MPD1    C5 3493   1.924   2.889  14.473 -0.4314 -0.1222  0.4183
  230MPD1     H 3494   1.861   3.250  14.587 -1.8096 -1.4859  1.7400
  230MPD1    H1 3495   2.004   2.961  14.292 -1.1086 -1.3651 -0.0730
  230MPD1    H2 3496   1.844   2.834  14.664 -1.2974 -2.3274 -2.3159
  230MPD1    H3 3497   1.937   2.785  14.445  0.6936 -0.1973  1.2067
  230MPD1     N 3498   1.973   3.244  14.345  0.4400  0.8215 -0.0095
  230MPD1    H5 3499   1.942   3.336  14.376  1.0602  0.6560  1.1101
  230MPD1    N1 3500   1.803   3.078  14.767 -0.2590 -0.3902 -0.7213
  230MPD1    H6 3501   1.739   3.006  14.802  1.7635 -1.7929  0.0835
  230MPD1    H7 3502   1.749   3.164  14.772  1.1076  0.3971  0.5895
  231MPD1     C 3503   4.361   0.583  15.612  0.8952  0.3689 -0.5489
  231MPD1    C1 3504   4.398   0.529  15.484  0.5353 -0.1088  0.3944
  231MPD1    C2 3505   4.444   0.617  15.382 -0.4818 -0.1795 -0.2228
  231MPD1    C3 3506   4.433   0.756  15.406 -0.1601 -0.5740 -0.0381
  231MPD1    C4 3507   4.385   0.803  15.530  1.1600  0.5148  0.1137
  231MPD1    C5 3508   4.352   0.716  15.634 -0.1765 -0.0977 -0.6179
  231MPD1     H 3509   4.496   0.571  15.298 -0.1767 -1.1646  0.5107
  231MPD1    H1 3510   4.365   0.910  15.535 -0.7812  0.1215  0.5224
  231MPD1    H2 3511   4.319   0.521  15.691 -3.0024  0.9621 -2.1939
  231MPD1    H3 3512   4.312   0.769  15.719 -1.4966  0.0482 -1.3385
  231MPD1     N 3513   4.466   0.849  15.300 -0.1557  0.1065 -0.5985
  231MPD1    H5 3514   4.507   0.802  15.220 -1.1249 -0.2891 -0.8648
  231MPD1    N1 3515   4.416   0.393  15.472 -0.1781  0.0579  0.7131
  231MPD1    H6 3516   4.403   0.362  15.376 -0.4549  0.6173  0.5721
  231MPD1    H7 3517   4.344   0.350  15.529  0.4633 -1.1912  0.5859
  232MPD1     C 3518   2.101   3.955   0.024  0.2143  0.0197 -0.1176
  232MPD1    C1 3519   2.114   3.895  17.604 -0.2162  0.3721 -0.2445
  232MPD1    C2 3520   2.003   3.839  17.549  0.2442  0.2240 -0.3134
  232MPD1    C3 3521   1.882   3.825  17.627 -0.6417  0.5328 -0.2162
  232MPD1    C4 3522   1.882   3.870   0.055 -0.0563  0.0570  0.3567
  232MPD1    C5 3523   1.988   3.939   0.103  0.3170 -0.4877 -0.5650
  232MPD1     H 3524   2.009   3.805  17.446 -3.0128  0.8635 -0.6969
  232MPD1    H1 3525   1.791   3.870   0.113  0.8581  0.8172  1.7895
  232MPD1    H2 3526   2.175   4.022   0.065 -1.3973  1.6156  0.1731
  232MPD1    H3 3527   1.977   3.992   0.197 -0.4732 -0.0588 -0.9003
  232MPD1     N 3528   1.769   3.765  17.580  0.6257  0.1688  0.5336
  232MPD1    H5 3529   1.689   3.763  17.643  2.1534 -1.3875  2.4321
  232MPD1    N1 3530   2.225   3.949  17.531 -0.6240 -0.0979  0.4188
  232MPD1    H6 3531   2.247   3.888  17.453 -1.1350 -1.5312  1.3875
  232MPD1    H7 3532   2.313   3.958  17.581 -1.4739 -0.1425  1.9131
  233MPD1     C 3533   1.428   2.955   0.166 -0.9368  0.4224  0.2087
  233MPD1    C1 3534   1.498   3.013   0.273 -0.2285  0.2821  0.1440
  233MPD1    C2 3535   1.579   2.929   0.349  0.2603 -0.4710 -0.2586
  233MPD1    C3 3536   1.597   2.803   0.304 -0.3481  0.3233 -0.2887
  233MPD1    C4 3537   1.534   2.751   0.192  0.5634  0.2344  0.2451
  233MPD1    C5 3538   1.450   2.829   0.121  0.0838  0.1668  0.0508
  233MPD1     H 3539   1.613   2.956   0.449 -1.3207  1.4150 -0.2289
  233MPD1    H1 3540   1.557   2.659   0.139  1.3733 -0.3454  1.6203
  233MPD1    H2 3541   1.365   3.021   0.107  1.0215  2.5240  0.4694
  233MPD1    H3 3542   1.407   2.802   0.025  0.0794 -1.9257  0.6273
  233MPD1     N 3543   1.687   2.712   0.368 -0.6350  0.1662 -0.4023
  233MPD1    H5 3544   1.688   2.617   0.333 -0.1421  0.4134 -1.0489
  233MPD1    N1 3545   1.478   3.150   0.309  0.0298  0.3293 -0.2060
  233MPD1    H6 3546   1.399   3.192   0.260 -0.1848 -1.6225 -1.5228
  233MPD1    H7 3547   1.457   3.166   0.408 -0.0222 -2.1435  0.1936
  234MPD1     C 3548   4.445   4.579   9.242  0.4558  0.1996  0.6956
  234MPD1    C1 3549   4.420   4.624   9.119  0.2812 -0.2560 -0.0842
  234MPD1    C2 3550   4.436   0.031   9.086  0.1955 -0.0191  0.2900
  234MPD1    C3 3551   4.453   0.126   9.190 -1.0017 -0.0489 -0.2597
  234MPD1    C4 3552   4.474   0.076   9.316  0.2517  0.3098 -0.4049
  234MPD1    C5 3553   4.478   4.670   9.341  0.4867 -0.8074 -0.4208
  234MPD1     H 3554   4.425   0.063   8.983 -0.3714 -0.9079  0.0789
  234MPD1    H1 3555   4.494   0.132   9.407  0.0226  0.9592 -0.7558
  234MPD1    H2 3556   4.451   4.472   9.259 -0.2411 -0.0287 -0.4984
  234MPD1    H3 3557   4.505   4.632   9.439  0.6339  1.8061  0.5319
  234MPD1     N 3558   4.449   0.267   9.167  0.2191 -0.7737  0.4635
  234MPD1    H5 3559   4.425   0.291   9.072  2.8150  1.9834  0.4902
  234MPD1    N1 3560   4.403   4.527   9.015  0.2025 -0.0134 -0.3273
  234MPD1    H6 3561   4.355   4.446   9.054  0.3979 -0.3980 -0.8880
  234MPD1    H7 3562   4.337   4.558   8.945 -0.6388  3.5524  2.0278
  235MPD1     C 3563   0.435   2.694  10.223 -0.1629  0.3463 -0.2552
  235MPD1    C1 3564   0.518   2.751  10.131  0.4610 -0.3517 -0.1726
  235MPD1    C2 3565   0.651   2.755  10.160 -0.0248  0.0462 -0.4207
  235MPD1    C3 3566   0.706   2.704  10.280 -0.7765 -0.1583 -0.1945
  235MPD1    C4 3567   0.619   2.652  10.369  0.4998 -0.3220  0.0121
  235MPD1    C5 3568   0.489   2.645  10.342  0.4817  0.5926 -0.1006
  235MPD1     H 3569   0.725   2.793  10.090 -0.6156  2.3256  0.1998
  235MPD1    H1 3570   0.645   2.600  10.460 -1.9230  1.7532  1.8951
  235MPD1    H2 3571   0.329   2.699  10.204  0.0229 -1.5546 -1.7083
  235MPD1    H3 3572   0.423   2.608  10.420 -0.7535  1.4815 -0.7162
  235MPD1     N 3573   0.841   2.719  10.299  0.2743  0.2685 -0.6690
  235MPD1    H5 3574   0.893   2.756  10.220 -0.6793  1.5436 -0.6984
  235MPD1    N1 3575   0.473   2.777  10.001  0.2841  0.2487 -0.4215
  235MPD1    H6 3576   0.518   2.861   9.965 -1.3656  0.2905 -2.4132
  235MPD1    H7 3577   0.374   2.802   9.993  0.3207  0.0879 -1.4182
  236MPD1     C 3578   0.385   4.163   9.780  0.6513  0.1203 -0.0912
  236MPD1    C1 3579   0.426   4.196   9.907  0.4332  0.1583  1.0013
  236MPD1    C2 3580   0.502   4.102   9.967  0.3530  0.5144 -0.1000
  236MPD1    C3 3581   0.559   3.994   9.902 -0.2213  1.2067 -0.1634
  236MPD1    C4 3582   0.514   3.965   9.779 -0.1390 -0.1898 -0.4095
  236MPD1    C5 3583   0.424   4.049   9.718  0.5515  0.3507  0.7524
  236MPD1     H 3584   0.523   4.115  10.073  0.6365  0.4809 -0.1504
  236MPD1    H1 3585   0.550   3.876   9.729 -2.0055 -0.0452 -2.0348
  236MPD1    H2 3586   0.314   4.227   9.729  1.3014  0.6112 -0.3678
  236MPD1    H3 3587   0.387   4.018   9.621 -0.5352  0.0298  1.2699
  236MPD1     N 3588   0.650   3.907   9.971  0.1296 -0.6300  0.3878
  236MPD1    H5 3589   0.656   3.811   9.938  3.3470 -0.3977  0.2799
  236MPD1    N1 3590   0.382   4.308   9.971 -0.7609 -0.5007  0.0032
  236MPD1    H6 3591   0.451   4.355  10.029  0.6410 -0.3603 -1.7805
  236MPD1    H7 3592   0.355   4.378   9.903  1.0255 -0.2133 -0.4129
  237MPD1     C 3593   0.514   2.464  14.904 -0.8609 -0.2179 -0.4382
  237MPD1    C1 3594   0.452   2.433  14.783  0.2614  0.9720 -0.1832
  237MPD1    C2 3595   0.315   2.456  14.771 -0.2549  0.3054  0.3805
  237MPD1    C3 3596   0.242   2.498  14.880 -0.2463 -0.2790 -0.2806
  237MPD1    C4 3597   0.306   2.527  14.999 -0.7108  0.2229  0.5230
  237MPD1    C5 3598   0.442   2.513  15.005 -0.1425  0.1404 -0.0898
  237MPD1     H 3599   0.264   2.430  14.679 -0.3218  1.7746  0.0151
  237MPD1    H1 3600   0.250   2.546  15.091  0.7016 -1.1068  1.6574
  237MPD1    H2 3601   0.620   2.446  14.921 -1.0647 -2.0638 -1.0315
  237MPD1    H3 3602   0.486   2.535  15.101  1.2379 -0.6049 -0.5558
  237MPD1     N 3603   0.096   2.486  14.886  0.5173  0.6439 -0.0465
  237MPD1    H5 3604   0.069   2.497  14.983  0.8411 -1.4234  0.2856
  237MPD1    N1 3605   0.533   2.403  14.671  0.0987  0.4206 -0.7418
  237MPD1    H6 3606   0.604   2.335  14.698  1.0409  1.8128  0.3345
  237MPD1    H7 3607   0.481   2.374  14.589 -2.2752  2.1825  0.1435
  238MPD1     C 3608   2.192   1.469  15.261 -0.3414  0.1575  0.3441
  238MPD1    C1 3609   2.215   1.367  15.168  0.2782 -0.5291  0.3798
  238MPD1    C2 3610   2.114   1.339  15.074 -0.3510  0.0944 -0.2371
  238MPD1    C3 3611   1.985   1.397  15.089  0.2774  1.4621  0.3236
  238MPD1    C4 3612   1.961   1.481  15.193  0.4439  0.5293  0.3425
  238MPD1    C5 3613   2.060   1.517  15.275  0.1589 -0.5827  0.3990
  238MPD1     H 3614   2.137   1.262  15.002 -0.2406  0.4064 -0.5365
  238MPD1    H1 3615   1.868   1.536  15.204 -0.3729 -0.8497  0.3834
  238MPD1    H2 3616   2.265   1.509  15.330 -0.3467 -0.2203  0.5705
  238MPD1    H3 3617   2.036   1.592  15.350  0.5533 -1.7407  1.6718
  238MPD1     N 3618   1.882   1.371  14.993 -0.2197 -0.1669 -0.0286
  238MPD1    H5 3619   1.790   1.412  15.007  0.1397  0.5225  0.2804
  238MPD1    N1 3620   2.350   1.328  15.140  0.3072  0.9943  0.1064
  238MPD1    H6 3621   2.427   1.344  15.205 -1.0975 -0.5866  2.1786
  238MPD1    H7 3622   2.358   1.242  15.088 -1.7086  0.5626  0.5153
  239MPD1     C 3623   2.020   1.706  14.731  0.4508  0.0028 -0.1004
  239MPD1    C1 3624   2.147   1.743  14.685 -0.1178  0.3023  0.6673
  239MPD1    C2 3625   2.151   1.824  14.568 -0.4735 -0.4068 -0.3765
  239MPD1    C3 3626   2.035   1.883  14.517  0.1544  0.3969 -0.0895
  239MPD1    C4 3627   1.915   1.849  14.574  0.4463  0.7023  1.2353
  239MPD1    C5 3628   1.907   1.759  14.680 -0.3382  0.0703 -0.6753
  239MPD1     H 3629   2.244   1.830  14.512  1.0677 -0.1157  2.1931
  239MPD1    H1 3630   1.823   1.886  14.529 -0.2977 -1.9052  0.5945
  239MPD1    H2 3631   2.011   1.630  14.808  1.1516  0.3953  0.3695
  239MPD1    H3 3632   1.808   1.739  14.720  0.7816 -3.1572  0.5213
  239MPD1     N 3633   2.034   1.985  14.419  0.6431  0.8892  0.8788
  239MPD1    H5 3634   1.941   2.011  14.388 -0.3913  0.3138  3.5646
  239MPD1    N1 3635   2.266   1.689  14.731 -0.1806  0.3320 -0.6801
  239MPD1    H6 3636   2.269   1.677  14.832  0.1478  0.5150 -0.6656
  239MPD1    H7 3637   2.355   1.736  14.711 -0.1743  0.7242  0.2790
  240MPD1     C 3638   1.794   1.501  13.933 -0.4982 -0.7403 -1.0263
  240MPD1    C1 3639   1.669   1.455  13.888  0.3402 -0.5583 -0.3506
  240MPD1    C2 3640   1.567   1.460  13.984 -0.6947  0.1635  0.2630
  240MPD1    C3 3641   1.588   1.475  14.118  0.2445 -0.5664 -0.0495
  240MPD1    C4 3642   1.722   1.507  14.155 -0.3182 -0.5979 -0.1219
  240MPD1    C5 3643   1.820   1.526  14.060  0.3643  0.5202 -0.3830
  240MPD1     H 3644   1.462   1.451  13.958 -0.4745  2.1250 -1.2334
  240MPD1    H1 3645   1.750   1.519  14.259  1.3609 -0.1329 -0.6309
  240MPD1    H2 3646   1.884   1.494  13.873  0.8651 -0.7122  1.0001
  240MPD1    H3 3647   1.922   1.543  14.093 -0.1988  1.9636  0.6411
  240MPD1     N 3648   1.476   1.456  14.211 -0.5285 -0.3683 -0.0434
  240MPD1    H5 3649   1.392   1.417  14.169 -0.3384 -1.5960  0.7265
  240MPD1    N1 3650   1.635   1.448  13.752  0.1270 -0.5472  0.6973
  240MPD1    H6 3651   1.704   1.402  13.694  1.1687  1.1425  0.5915
  240MPD1    H7 3652   1.553   1.387  13.746 -0.0054 -0.3429  0.4320
  241MPD1     C 3653   1.069   1.438  15.258  0.2954  0.2160 -0.1916
  241MPD1    C1 3654   1.107   1.546  15.178 -0.5031  0.5798 -0.0421
  241MPD1    C2 3655   1.156   1.525  15.044 -0.1874 -0.2949  0.2826
  241MPD1    C3 3656   1.180   1.396  14.998 -0.1860 -0.3125 -0.7395
  241MPD1    C4 3657   1.144   1.290  15.082 -0.1080 -0.2075  0.3322
  241MPD1    C5 3658   1.091   1.310  15.213  0.2114  0.1301  0.1257
  241MPD1     H 3659   1.177   1.610  14.981 -0.6608 -0.4038 -0.0218
  241MPD1    H1 3660   1.158   1.191  15.040 -1.2382  0.5334 -1.7960
  241MPD1    H2 3661   1.025   1.454  15.355  0.6904 -1.4700  0.2683
  241MPD1    H3 3662   1.064   1.230  15.281 -0.0877  1.0855  1.1095
  241MPD1     N 3663   1.222   1.373  14.865 -0.2846  0.2262  0.7952
  241MPD1    H5 3664   1.230   1.274  14.844  0.9713  0.3468  0.7241
  241MPD1    N1 3665   1.077   1.676  15.225  0.4300 -0.5983  0.2616
  241MPD1    H6 3666   0.977   1.692  15.218  0.6367  0.4414 -0.3837
  241MPD1    H7 3667   1.094   1.681  15.325  1.1458 -1.4212  0.1883
  242MPD1     C 3668   0.898   0.080  15.938  0.3125 -0.3379  0.0842
  242MPD1    C1 3669   0.824   4.714  15.858  0.1402 -0.2565  0.3820
  242MPD1    C2 3670   0.859   4.698  15.724  0.0214  0.5385 -0.3702
  242MPD1    C3 3671   0.966   0.043  15.672  0.5612 -0.3770 -0.3665
  242MPD1    C4 3672   1.038   0.127  15.751 -0.2249  0.6822 -0.3442
  242MPD1    C5 3673   1.013   0.142  15.885  0.7167  0.2387 -0.6276
  242MPD1     H 3674   0.817   4.615  15.668 -1.1017  1.5137 -0.9761
  242MPD1    H1 3675   1.126   0.170  15.705  0.9148 -0.5316  0.7313
  242MPD1    H2 3676   0.883   0.107  16.042  1.5717 -0.3918  0.2743
  242MPD1    H3 3677   1.071   0.214  15.941 -0.4224 -0.3538  1.3376
  242MPD1     N 3678   1.013   0.028  15.541 -0.5599  0.2978 -0.1365
  242MPD1    H5 3679   1.093   0.082  15.510 -0.3893  1.1678  1.8491
  242MPD1    N1 3680   0.734   4.627  15.912  0.2485 -0.3869  0.2504
  242MPD1    H6 3681   0.675   4.680  15.976 -1.8246 -0.9308 -1.1936
  242MPD1    H7 3682   0.668   4.582  15.848 -1.1270  0.1694  1.2856
  243MPD1     C 3683   2.014   3.497  17.534 -0.5530  0.2607  0.0772
  243MPD1    C1 3684   2.151   3.500  17.525 -0.2334 -0.3274 -0.6547
  243MPD1    C2 3685   2.219   3.397  17.462  0.0944 -0.1603  0.0785
  243MPD1    C3 3686   2.146   3.307  17.387 -0.6191 -0.8552 -0.2334
  243MPD1    C4 3687   2.009   3.313  17.382  0.0092 -0.5628 -0.3224
  243MPD1    C5 3688   1.945   3.401  17.459 -0.1355  0.4577 -0.5161
  243MPD1     H 3689   2.327   3.399  17.454  0.2052 -2.3400  0.9283
  243MPD1    H1 3690   1.955   3.238  17.326 -1.2446  1.5175 -1.9382
  243MPD1    H2 3691   1.949   3.561  17.592 -0.3308  0.6958 -0.1567
  243MPD1    H3 3692   1.837   3.407  17.458 -0.1136  1.2036  0.6936
  243MPD1     N 3693   2.212   3.214  17.309  0.2892  0.2525  0.6011
  243MPD1    H5 3694   2.312   3.214  17.329  0.6174  0.1201 -0.9775
  243MPD1    N1 3695   2.221   3.584  17.612  0.1317  0.4759  0.3813
  243MPD1    H6 3696   2.303   3.629  17.572 -0.1804  1.3674  0.7440
  243MPD1    H7 3697   2.165   3.666  17.633  0.4470  0.8145 -0.1235
  244MPD1     C 3698   2.656   2.688   0.064  0.2135  0.2859 -0.5742
  244MPD1    C1 3699   2.646   2.826   0.071 -0.1479  0.3549  0.5552
  244MPD1    C2 3700   2.608   2.888  17.652 -0.2828 -0.2697  0.1065
  244MPD1    C3 3701   2.610   2.825  17.527 -0.3823  0.0330  0.4346
  244MPD1    C4 3702   2.627   2.685  17.521 -0.0418 -0.0239 -0.0869
  244MPD1    C5 3703   2.645   2.617  17.646  0.0135 -0.4744 -0.7599
  244MPD1     H 3704   2.591   2.995  17.654 -1.9080 -0.5850  3.1792
  244MPD1    H1 3705   2.633   2.631  17.427 -0.1737  0.2891 -0.2733
  244MPD1    H2 3706   2.674   2.632   0.155 -0.7152 -0.3294 -0.7588
  244MPD1    H3 3707   2.644   2.509  17.649 -0.6630 -0.4266  0.6247
  244MPD1     N 3708   2.584   2.910  17.415  0.1613 -0.9121  0.5788
  244MPD1    H5 3709   2.548   3.000  17.443 -0.5156 -0.4204 -1.8762
  244MPD1    N1 3710   2.658   2.895   0.188  0.6157  0.8546  0.2397
  244MPD1    H6 3711   2.679   2.993   0.172 -1.4980  1.2479 -0.1346
  244MPD1    H7 3712   2.714   2.861   0.266  0.9348 -1.3338 -0.9514
  245MPD1     C 3713   4.395   3.579  13.188 -1.0761 -0.2555 -0.3590
  245MPD1    C1 3714   4.438   3.685  13.114 -0.1024 -0.2786 -0.0063
  245MPD1    C2 3715   4.510   3.783  13.181 -0.0114  0.2169 -0.1156
  245MPD1    C3 3716   4.544   3.779  13.315 -0.2440  0.7817  0.4489
  245MPD1    C4 3717   4.510   3.661  13.382 -0.0491 -0.4507  0.1863
  245MPD1    C5 3718   4.443   3.559  13.315 -0.0600 -0.0419  0.5152
  245MPD1     H 3719   4.545   3.875  13.137  0.9653 -0.5100 -0.8376
  245MPD1    H1 3720   4.547   3.647  13.482 -0.5971  0.0485  0.4609
  245MPD1    H2 3721   4.324   3.505  13.154 -0.6757 -0.8267  0.0424
  245MPD1    H3 3722   4.421   3.470  13.373  0.1138  1.2693  2.5753
  245MPD1     N 3723   4.620   3.881  13.370 -0.1512  0.9903  0.0290
  245MPD1    H5 3724   4.643   3.963  13.315  1.4775  0.2390 -0.4082
  245MPD1    N1 3725   4.389   3.706  12.986  0.3187  0.2056 -0.5491
  245MPD1    H6 3726   4.446   3.767  12.927  2.5712 -3.3059 -2.0519
  245MPD1    H7 3727   4.370   3.618  12.938 -0.4585 -1.6110  3.1177
  246MPD1     C 3728   1.209   0.740   8.933 -0.7131  0.6377 -0.9621
  246MPD1    C1 3729   1.199   0.604   8.952 -0.0126 -0.6932 -0.0888
  246MPD1    C2 3730   1.130   0.558   9.063  0.0045  0.2507 -0.0881
  246MPD1    C3 3731   1.082   0.650   9.160 -0.5524 -0.6219  0.4450
  246MPD1    C4 3732   1.107   0.789   9.149  0.8498  0.3226  0.0704
  246MPD1    C5 3733   1.175   0.830   9.036 -0.3985 -0.2516  0.0988
  246MPD1     H 3734   1.105   0.452   9.072 -0.0265  0.5511  3.5391
  246MPD1    H1 3735   1.095   0.868   9.222 -1.5732 -0.3428  0.3895
  246MPD1    H2 3736   1.249   0.784   8.842  1.2273 -0.0603 -0.4519
  246MPD1    H3 3737   1.196   0.933   9.013 -1.6950  0.0274  0.1173
  246MPD1     N 3738   1.012   0.597   9.272 -0.5209  0.4960 -0.1521
  246MPD1    H5 3739   1.007   0.495   9.266 -0.4131  0.4645  0.3456
  246MPD1    N1 3740   1.223   0.514   8.840  0.3099 -0.0033  0.2772
  246MPD1    H6 3741   1.219   0.418   8.875  0.8773 -0.4286 -0.7999
  246MPD1    H7 3742   1.305   0.540   8.787 -0.7655 -2.0865 -2.4458
  247MPD1     C 3743   3.704   4.032  16.530  0.1905 -0.0139  0.5197
  247MPD1    C1 3744   3.772   3.924  16.583 -0.2161  0.2328  0.0261
  247MPD1    C2 3745   3.803   3.822  16.487  0.0820  0.0356  0.2990
  247MPD1    C3 3746   3.783   3.843  16.355  0.4438 -0.4967 -0.7243
  247MPD1    C4 3747   3.744   3.964  16.310  0.1829  0.0582  0.2643
  247MPD1    C5 3748   3.686   4.054  16.393  0.0141 -1.2512 -0.3363
  247MPD1     H 3749   3.823   3.722  16.523 -1.1260 -0.5792 -0.7352
  247MPD1    H1 3750   3.727   3.977  16.203  0.7140  1.8843  0.3924
  247MPD1    H2 3751   3.677   4.106  16.605 -0.1672 -1.4556  1.8106
  247MPD1    H3 3752   3.642   4.146  16.357 -0.4818 -0.8115  1.3876
  247MPD1     N 3753   3.821   3.755  16.257 -0.4665  0.3362 -0.2637
  247MPD1    H5 3754   3.825   3.798  16.164 -0.2661  2.2545  0.6296
  247MPD1    N1 3755   3.787   3.907  16.720 -0.3163  0.3862  0.0147
  247MPD1    H6 3756   3.795   3.994  16.772  1.5765  0.1626  0.1091
  247MPD1    H7 3757   3.865   3.846  16.745 -0.2087  0.1207 -0.9748
  248MPD1     C 3758   0.104   4.072  17.451 -0.1573  1.0049  0.3039
  248MPD1    C1 3759   4.708   4.052  17.515 -0.0642 -0.2435  0.5223
  248MPD1    C2 3760   4.655   4.162  17.583  0.2915 -0.3213 -0.1132
  248MPD1    C3 3761   4.706   4.288  17.572  0.0069 -0.3756  0.4268
  248MPD1    C4 3762   0.098   4.306  17.495  0.0532  0.5634 -0.5513
  248MPD1    C5 3763   0.162   4.194  17.440 -0.3795 -0.1466 -0.0233
  248MPD1     H 3764   4.569   4.154  17.650  1.3814  2.1511  1.5998
  248MPD1    H1 3765   0.148   4.402  17.490  1.2442 -0.1379 -2.3356
  248MPD1    H2 3766   0.155   3.985  17.412 -0.0636  1.0410  0.3470
  248MPD1    H3 3767   0.265   4.192  17.408 -1.0126  0.3175 -2.0649
  248MPD1     N 3768   4.645   4.393  17.641  0.1523 -0.0970 -0.4449
  248MPD1    H5 3769   4.568   4.372   0.002  0.8605 -2.9296 -0.5298
  248MPD1    N1 3770   4.659   3.920  17.538 -0.1468  0.4992 -0.1309
  248MPD1    H6 3771   4.677   3.846  17.471  1.0202  0.8458 -0.1911
  248MPD1    H7 3772   4.563   3.912  17.571 -0.7842  0.0268 -2.0862
  249MPD1     C 3773   2.118   1.146  10.696 -0.2551  0.2188 -0.0975
  249MPD1    C1 3774   2.118   1.049  10.601  0.5278 -0.2204 -0.3359
  249MPD1    C2 3775   2.061   1.085  10.475 -0.0264  0.1113 -0.0013
  249MPD1    C3 3776   1.976   1.190  10.468  0.5580  0.6050  0.1401
  249MPD1    C4 3777   1.966   1.275  10.568 -0.5174 -0.1372 -0.4665
  249MPD1    C5 3778   2.039   1.252  10.684  0.2813  0.4616 -0.1860
  249MPD1     H 3779   2.078   1.023  10.388  3.2266 -1.0975  1.5175
  249MPD1    H1 3780   1.902   1.362  10.564 -2.3573 -1.5077 -1.0534
  249MPD1    H2 3781   2.166   1.131  10.792  0.2551 -2.4185 -0.7752
  249MPD1    H3 3782   2.043   1.333  10.756  0.8837 -0.0738  0.3852
  249MPD1     N 3783   1.893   1.206  10.352 -0.3736 -0.0560  0.6182
  249MPD1    H5 3784   1.917   1.154  10.268 -1.1000  1.3674 -0.4793
  249MPD1    N1 3785   2.191   0.937  10.611  0.0233 -0.1714  0.4000
  249MPD1    H6 3786   2.168   0.873  10.535  0.4313  0.5630 -0.3401
  249MPD1    H7 3787   2.175   0.903  10.706  0.1193 -0.2107  0.4028
  250MPD2     C 3788   2.746   2.741  12.851 -0.0381 -0.7059 -0.0371
  250MPD2    C1 3789   2.869   2.694  12.825 -0.3317  0.3800  0.2649
  250MPD2    C2 3790   2.873   2.563  12.774 -0.2091  0.0315 -0.0939
  250MPD2    C3 3791   2.762   2.489  12.745  0.3781  0.3799 -0.2482
  250MPD2    C4 3792   2.640   2.544  12.771 -0.5939  0.0427 -0.5123
  250MPD2    C5 3793   2.636   2.672  12.825 -0.0567 -0.2077  0.0963
  250MPD2     H 3794   2.971   2.517  12.763 -0.6442 -1.1438  0.8895
  250MPD2    H1 3795   2.545   2.500  12.743 -0.5327 -0.6525  0.3735
  250MPD2    H2 3796   2.724   2.839  12.890 -1.7500 -0.7065 -1.0017
  250MPD2    H3 3797   2.538   2.704  12.857 -1.5819 -1.7241 -3.0550
  250MPD2     N 3798   2.765   2.360  12.677 -0.3013 -0.0743 -0.4748
  250MPD2    H5 3799   2.674   2.320  12.658 -0.3846 -0.2643  0.3337
  250MPD2    N1 3800   2.983   2.774  12.860 -0.6018  0.3771 -0.0884
  250MPD2    H7 3801   2.956   2.867  12.891  0.9829  0.9338 -0.3331
  251TMC3    C1 3802   3.212   2.844  12.887  0.0663 -0.1955 -0.5677
  251TMC3    C2 3803   3.160   2.938  12.977  0.0654 -0.2304 -0.5832
  251TMC3    C3 3804   3.237   3.049  13.000  0.0194 -0.3313 -0.2853
  251TMC3    C4 3805   3.333   2.860  12.822 -0.1677  0.2838 -0.1216
  251TMC3    C5 3806   3.398   2.973  12.837  0.6547 -0.0222 -0.5933
  251TMC3    C6 3807   3.347   3.072  12.928 -0.0938  0.0023 -1.0233
  251TMC3     C 3808   3.121   2.744  12.829 -0.3988 -0.4353 -0.3349
  251TMC3     O 3809   3.174   2.645  12.783  0.4074  0.3337  0.7864
  251TMC3     H 3810   3.070   2.927  13.037 -0.0274 -1.7017 -0.9892
  251TMC3    H1 3811   3.367   2.791  12.745  0.4075  2.4946 -1.8386
  251TMC3    H2 3812   3.415   3.150  12.959 -1.3130  0.5904  0.1536
  251TMC3    C7 3813   3.532   2.978  12.787 -0.0032 -0.3703  0.4915
  251TMC3    C8 3814   3.167   3.163  13.064 -0.4613  1.4488 -0.5832
  251TMC3    O1 3815   3.590   2.870  12.803 -0.2987  0.1510 -0.5934
  251TMC3    O2 3816   3.091   3.137  13.158  1.0519 -0.0869  0.2526
  252TMC3    C1 3817   2.824   3.521   8.917 -0.3562  0.7007  0.1733
  252TMC3    C2 3818   2.950   3.570   8.900 -0.3283  0.0057  0.1942
  252TMC3    C3 3819   3.059   3.516   8.961  0.4878  0.9648 -0.0159
  252TMC3    C4 3820   2.806   3.422   9.006 -0.4039 -0.0054  0.0495
  252TMC3    C5 3821   2.913   3.354   9.052  0.1116 -0.2986  0.0908
  252TMC3    C6 3822   3.041   3.400   9.039 -0.5218  0.2216  0.3706
  252TMC3     C 3823   2.711   3.598   8.854 -0.0101  0.5359  0.4315
  252TMC3     O 3824   2.734   3.674   8.760  0.5269  0.0928 -0.4140
  252TMC3     H 3825   2.958   3.662   8.843  0.1854 -0.1555  0.0102
  252TMC3    H1 3826   2.705   3.383   9.012 -0.0434 -0.9130  0.2199
  252TMC3    H2 3827   3.128   3.350   9.079 -0.1315 -0.9621 -1.9189
  252TMC3    C7 3828   2.883   3.246   9.144 -0.2009 -0.3373  0.3543
  252TMC3    C8 3829   3.186   3.583   8.959  0.9911  0.2315 -0.4924
  252TMC3    O1 3830   2.767   3.210   9.139 -0.8341 -0.2204  0.1056
  252TMC3    O2 3831   3.203   3.676   8.884  0.7446 -0.1280  0.5309
  253MPD2     C 3832   4.373   2.841  14.924 -1.3176  0.0108  0.4338
  253MPD2    C1 3833   4.242   2.803  14.917  0.0425  0.1859  0.4169
  253MPD2    C2 3834   4.183   2.741  15.025 -0.1371 -0.0224 -0.6362
  253MPD2    C3 3835   4.254   2.727  15.146 -0.4689 -0.2162  0.0637
  253MPD2    C4 3836   4.385   2.768  15.155  0.1334  0.0409  0.9015
  253MPD2    C5 3837   4.447   2.822  15.045 -0.5501  0.4940  0.0990
  253MPD2     H 3838   4.080   2.709  15.017 -0.7424  1.0855  2.6372
  253MPD2    H1 3839   4.439   2.761  15.249  0.0831 -0.2927  0.9055
  253MPD2    H2 3840   4.422   2.876  14.835 -1.2957  0.0123  0.4463
  253MPD2    H3 3841   4.552   2.848  15.048 -0.3094 -0.4880  0.1426
  253MPD2     N 3842   4.194   2.669  15.261  0.1731 -0.0529  0.1450
  253MPD2    H5 3843   4.255   2.661  15.342  0.3664  0.1281  0.0179
  253MPD2    N1 3844   4.151   2.832  14.812 -0.3479  1.1641  0.2529
  253MPD2    H7 3845   4.054   2.810  14.832 -0.4138 -0.2689 -1.6976
  254TMC3    C1 3846   4.028   2.582  15.408 -0.1021  0.2074  0.3556
  254TMC3    C2 3847   3.898   2.585  15.440 -0.1413 -0.3181 -0.5523
  254TMC3    C3 3848   3.852   2.533  15.564  0.2321  0.5717  0.1032
  254TMC3    C4 3849   4.120   2.558  15.499 -0.0901 -0.1032 -0.1815
  254TMC3    C5 3850   4.079   2.501  15.617 -0.4624 -0.0568  0.2905
  254TMC3    C6 3851   3.946   2.495  15.651 -0.2764 -0.4252  0.1063
  254TMC3     C 3852   4.062   2.634  15.273  0.0364  0.4038 -0.4520
  254TMC3     O 3853   3.978   2.660  15.188 -0.3983 -0.2879  0.1070
  254TMC3     H 3854   3.827   2.606  15.360 -0.9338 -0.1977  0.1766
  254TMC3    H1 3855   4.222   2.549  15.463 -0.6481  0.0368 -1.7905
  254TMC3    H2 3856   3.920   2.470  15.753 -2.1054  0.5759 -0.1160
  254TMC3    C7 3857   4.164   2.501  15.738 -0.0447 -0.4699 -0.4207
  254TMC3    C8 3858   3.736   2.604  15.628  0.0820 -0.4827 -0.4739
  254TMC3    O1 3859   4.141   2.422  15.829  0.5849 -0.3500 -0.6921
  254TMC3    O2 3860   3.701   2.560  15.739  0.4512  0.4995 -0.3267
  255MPD2     C 3861   3.162   0.067  10.286 -0.3996  0.0912 -0.1181
  255MPD2    C1 3862   3.043   0.049  10.214  0.0659  0.0042  0.1298
  255MPD2    C2 3863   3.062   4.690  10.103 -0.2446  0.2337  0.2654
  255MPD2    C3 3864   3.179   4.618  10.077 -0.6410 -0.7082 -0.1625
  255MPD2    C4 3865   3.293   4.638  10.149 -0.7614  0.2120 -0.1756
  255MPD2    C5 3866   3.281   0.007  10.253  0.7502 -0.2254 -0.2025
  255MPD2     H 3867   2.967   4.671  10.053  1.1969  0.4406 -2.5346
  255MPD2    H1 3868   3.379   4.573  10.139 -1.3992 -0.3375 -2.1070
  255MPD2    H2 3869   3.170   0.135  10.370 -1.0132  1.5370 -1.2287
  255MPD2    H3 3870   3.366   0.026  10.318  0.6799  0.4258 -0.2954
  255MPD2     N 3871   3.188   4.523   9.968 -0.0707 -0.0917 -0.0677
  255MPD2    H5 3872   3.280   4.492   9.939  0.5303  1.1061  0.6054
  255MPD2    N1 3873   2.923   0.114  10.259 -0.2485 -0.1925 -0.0173
  255MPD2    H7 3874   2.929   0.185  10.331 -0.5545  0.2970 -0.4768
  256TMC3    C1 3875   2.697   0.196  10.233 -0.3499 -0.0667  0.1445
  256TMC3    C2 3876   2.747   0.320  10.256 -0.1379 -0.3631 -0.4150
  256TMC3    C3 3877   2.703   0.434  10.180 -0.2852 -0.4671 -0.2739
  256TMC3    C4 3878   2.584   0.192  10.155 -0.2531 -0.3526  0.1170
  256TMC3    C5 3879   2.545   0.301  10.080  0.4934  0.1391  0.1286
  256TMC3    C6 3880   2.595   0.428  10.095  0.0221 -0.0381 -0.9404
  256TMC3     C 3881   2.795   0.094  10.209  0.0725  0.0108 -0.6459
  256TMC3     O 3882   2.766   0.010  10.126 -0.4274 -0.3047 -0.0297
  256TMC3     H 3883   2.834   0.326  10.320 -0.1703  0.7697 -0.4800
  256TMC3    H1 3884   2.549   0.094  10.126 -0.7063 -0.9530  2.6693
  256TMC3    H2 3885   2.560   0.516  10.041 -0.5347  1.7440  2.3020
  256TMC3    C7 3886   2.444   0.269   9.981  0.6918 -0.1891 -0.3156
  256TMC3    C8 3887   2.789   0.547  10.187  0.3539  0.2912  0.4584
  256TMC3    O1 3888   2.385   0.158   9.986  0.0539  0.4004 -0.4645
  256TMC3    O2 3889   2.868   0.552  10.281 -0.2084  0.1712 -0.1358
  257MPD2     C 3890   1.902   2.757  12.824  0.8146 -0.3674  0.6114
  257MPD2    C1 3891   1.862   2.640  12.761  0.2515  0.4856 -0.4236
  257MPD2    C2 3892   1.838   2.529  12.843 -0.5074  0.2639 -0.1765
  257MPD2    C3 3893   1.822   2.536  12.979  0.2975 -0.4490 -0.2441
  257MPD2    C4 3894   1.845   2.655  13.043 -0.0793 -0.6165  0.3214
  257MPD2    C5 3895   1.887   2.759  12.959  0.5749 -0.2895  0.2947
  257MPD2     H 3896   1.830   2.429  12.803 -0.9121  0.0368  0.4822
  257MPD2    H1 3897   1.853   2.664  13.151  0.8224 -1.0589  0.2896
  257MPD2    H2 3898   1.934   2.841  12.764  1.7815 -0.3155  1.2094
  257MPD2    H3 3899   1.919   2.848  13.011  0.0192  0.9726 -1.5588
  257MPD2     N 3900   1.795   2.413  13.047 -0.2444 -0.4325 -0.5435
  257MPD2    H5 3901   1.791   2.328  12.993 -0.5323 -1.6848  1.4690
  257MPD2    N1 3902   1.847   2.640  12.621  0.7682  0.0496 -0.5563
  257MPD2    H7 3903   1.868   2.730  12.580 -0.2931  1.1830  1.3881
  258TMC3    C1 3904   1.792   2.260  13.220 -0.1295 -0.1947 -0.2853
  258TMC3    C2 3905   1.884   2.182  13.148  0.0538 -0.7048 -0.7798
  258TMC3    C3 3906   1.930   2.070  13.204  0.1170 -0.7119 -0.1923
  258TMC3    C4 3907   1.747   2.218  13.342  0.1563  0.3793  0.6326
  258TMC3    C5 3908   1.804   2.107  13.392  0.2087  0.4005 -0.4657
  258TMC3    C6 3909   1.893   2.029  13.325  0.3479 -0.0339  1.2013
  258TMC3     C 3910   1.773   2.396  13.180 -0.5745  0.0303 -0.6395
  258TMC3     O 3911   1.742   2.477  13.268 -0.4292 -0.4758 -0.4300
  258TMC3     H 3912   1.956   2.235  13.086  2.7990 -0.2871  2.6944
  258TMC3    H1 3913   1.685   2.276  13.410 -1.4017  1.5853 -1.8453
  258TMC3    H2 3914   1.938   1.937  13.360  1.0564  0.2960  1.1479
  258TMC3    C7 3915   1.769   2.060  13.527  0.0441  0.0786 -0.2716
  258TMC3    C8 3916   2.037   1.996  13.134 -0.3047 -0.2954  0.5318
  258TMC3    O1 3917   1.656   2.092  13.568 -0.1231 -0.0006  0.4405
  258TMC3    O2 3918   2.108   1.925  13.204  0.2949  0.0500  0.3593
  259MPD2     C 3919   0.602   4.677   0.283  0.5102  1.0619  0.9713
  259MPD2    C1 3920   0.673   4.573   0.336 -0.6809 -0.1954  0.5202
  259MPD2    C2 3921   0.756   4.496   0.256 -0.4457 -0.1580  0.1609
  259MPD2    C3 3922   0.758   4.521   0.119 -0.2189  0.4528  0.3240
  259MPD2    C4 3923   0.692   4.636   0.075  0.3134  0.0397 -0.0460
  259MPD2    C5 3924   0.610   4.712   0.152  0.1089  0.2549  0.3391
  259MPD2     H 3925   0.808   4.408   0.292 -0.8858 -1.3528 -2.1195
  259MPD2    H1 3926   0.697   4.665  17.672 -2.3611 -1.0995 -0.4887
  259MPD2    H2 3927   0.547   0.013   0.354 -1.5315 -1.3245  1.4388
  259MPD2    H3 3928   0.555   0.073   0.117 -0.5464 -0.8147 -1.2966
  259MPD2     N 3929   0.841   4.443   0.046 -0.6887 -0.5522  0.3537
  259MPD2    H5 3930   0.876   4.359   0.092  2.6454 -0.7512 -2.5860
  259MPD2    N1 3931   0.676   4.557   0.480  0.6883 -0.0430 -0.3344
  259MPD2    H7 3932   0.615   4.616   0.536 -0.1396 -1.6416  0.4581
  260TMC3    C1 3933   0.971   4.359  17.558  0.5995 -0.4807  0.0496
  260TMC3    C2 3934   0.982   4.360  17.423  0.5117 -0.2291  0.3786
  260TMC3    C3 3935   1.099   4.320  17.375  0.2648 -0.2243 -0.3772
  260TMC3    C4 3936   1.080   4.334  17.642  0.4792  0.5860 -0.4559
  260TMC3    C5 3937   1.204   4.297  17.585  0.4356  0.2321  0.7164
  260TMC3    C6 3938   1.209   4.298  17.448  0.3898 -0.2150 -0.6097
  260TMC3     C 3939   0.865   4.443  17.610  0.5954 -0.7453  0.5812
  260TMC3     O 3940   0.801   4.513  17.529 -0.0479 -0.6662 -0.0391
  260TMC3     H 3941   0.903   4.398  17.359 -0.9145  1.0097  2.8856
  260TMC3    H1 3942   1.078   4.341   0.048 -1.2740  0.1661 -0.4727
  260TMC3    H2 3943   1.301   4.289  17.391  1.9079 -1.0173  1.9848
  260TMC3    C7 3944   1.258   4.168  17.623  0.0067 -0.1033  0.5732
  260TMC3    C8 3945   1.090   4.245  17.255 -0.1137  0.1374 -0.5082
  260TMC3    O1 3946   1.282   4.099  17.524  0.3959  0.2270  0.0216
  260TMC3    O2 3947   1.002   4.281  17.177 -1.0285 -0.0921 -0.5816
  261MPD2     C 3948   2.339   2.206  12.136  0.1271 -0.0360 -0.3962
  261MPD2    C1 3949   2.463   2.270  12.145 -0.5807  0.3326  0.7100
  261MPD2    C2 3950   2.505   2.358  12.044  0.2503 -0.6020 -0.7197
  261MPD2    C3 3951   2.430   2.374  11.932  0.2767 -0.2859  0.6015
  261MPD2    C4 3952   2.303   2.315  11.931 -0.5432  0.0160  0.6146
  261MPD2    C5 3953   2.259   2.229  12.028  0.6098  0.0620 -0.0374
  261MPD2     H 3954   2.608   2.391  12.046  1.5080 -4.5366 -0.6881
  261MPD2    H1 3955   2.239   2.337  11.846  1.1969  2.1382 -0.1472
  261MPD2    H2 3956   2.300   2.123  12.193 -0.4344 -0.1353 -0.9250
  261MPD2    H3 3957   2.155   2.199  12.020  1.0082 -1.0197 -1.0670
  261MPD2     N 3958   2.485   2.438  11.818  0.3371  0.0662  0.1913
  261MPD2    H5 3959   2.572   2.483  11.844  0.6025 -0.2414 -0.1825
  261MPD2    N1 3960   2.559   2.231  12.245 -0.1492 -0.0003  0.0475
  261MPD2    H7 3961   2.644   2.285  12.254  1.4541 -2.5278 -0.1429
  262TMC3    C1 3962   2.513   2.513  11.601  0.9236  0.6302  0.3428
  262TMC3    C2 3963   2.522   2.648  11.634  0.2815 -0.1821  0.4250
  262TMC3    C3 3964   2.534   2.742  11.534  0.5117  0.3539  0.2351
  262TMC3    C4 3965   2.522   2.469  11.469  0.2229  0.7904 -0.1902
  262TMC3    C5 3966   2.537   2.571  11.377 -0.1922  0.2025 -0.2313
  262TMC3    C6 3967   2.533   2.707  11.406  0.0308  0.2309  0.4209
  262TMC3     C 3968   2.445   2.427  11.687  0.3837 -0.2703  0.0650
  262TMC3     O 3969   2.356   2.356  11.642  0.7990 -0.4902 -1.0563
  262TMC3     H 3970   2.512   2.676  11.739 -1.8520  1.0686 -0.1151
  262TMC3    H1 3971   2.527   2.365  11.438 -0.3169  0.6402  0.2274
  262TMC3    H2 3972   2.523   2.772  11.320  0.0662  0.9589  0.9650
  262TMC3    C7 3973   2.531   2.526  11.240 -0.6268 -0.3605  0.5837
  262TMC3    C8 3974   2.484   2.877  11.568 -0.4293  0.1354  0.1638
  262TMC3    O1 3975   2.474   2.419  11.213 -0.0794 -0.0772 -0.2682
  262TMC3    O2 3976   2.500   2.963  11.483 -0.5443  0.7188  0.2785
  263MPD2     C 3977   3.214   1.686  11.439  0.4034 -0.4790  0.3982
  263MPD2    C1 3978   3.289   1.628  11.336 -0.1566 -0.0991  0.6252
  263MPD2    C2 3979   3.278   1.680  11.209 -0.5517  0.7404 -0.0752
  263MPD2    C3 3980   3.182   1.776  11.179 -0.7191 -0.1447  0.0097
  263MPD2    C4 3981   3.101   1.822  11.282 -0.2232  0.0708 -0.6518
  263MPD2    C5 3982   3.108   1.772  11.406 -0.0779  0.0660 -0.0758
  263MPD2     H 3983   3.349   1.656  11.130 -0.6332 -0.3472  0.1827
  263MPD2    H1 3984   3.026   1.898  11.263  1.6824  2.2679  0.5275
  263MPD2    H2 3985   3.222   1.646  11.539 -0.7679  0.7048  0.9659
  263MPD2    H3 3986   3.039   1.800  11.485 -0.8701  0.3817 -0.8802
  263MPD2     N 3987   3.187   1.842  11.057 -0.3944  0.3727  0.6539
  263MPD2    H5 3988   3.223   1.790  10.977  0.2423  2.1481 -0.2186
  263MPD2    N1 3989   3.391   1.534  11.372 -0.4375 -0.3892  0.2478
  263MPD2    H7 3990   3.398   1.508  11.469 -0.4457  1.1875  0.6751
  264TMC3    C1 3991   3.222   2.039  10.920 -0.2134  0.3989 -0.1048
  264TMC3    C2 3992   3.204   2.172  10.895  0.0831  0.7548 -0.7300
  264TMC3    C3 3993   3.261   2.232  10.795 -0.1975  0.1225 -0.5608
  264TMC3    C4 3994   3.294   1.954  10.840 -0.1888 -0.2908  0.1112
  264TMC3    C5 3995   3.352   2.022  10.735 -0.2151 -0.0489 -0.5558
  264TMC3    C6 3996   3.336   2.154  10.709 -0.1490  0.0471 -0.0081
  264TMC3     C 3997   3.176   1.980  11.044  0.6891 -0.4073 -0.6953
  264TMC3     O 3998   3.155   2.056  11.132  0.5762  0.4522 -0.5094
  264TMC3     H 3999   3.173   2.230  10.981  1.1523  0.7300 -0.3204
  264TMC3    H1 4000   3.318   1.851  10.862 -0.1628  0.5286  3.8975
  264TMC3    H2 4001   3.369   2.199  10.616  0.6764 -2.3343 -0.8563
  264TMC3    C7 4002   3.448   1.955  10.647 -0.8056 -0.1345  0.0558
  264TMC3    C8 4003   3.290   2.375  10.789 -0.8828 -0.2763  0.5618
  264TMC3    O1 4004   3.515   2.032  10.583 -0.2542 -0.2271  0.2809
  264TMC3    O2 4005   3.367   2.410  10.702 -0.1317 -0.2084 -0.3157
  265MPD2     C 4006   0.647   2.290  15.403  0.4420 -0.1500 -0.1106
  265MPD2    C1 4007   0.670   2.410  15.339  0.3563 -1.0546  0.4726
  265MPD2    C2 4008   0.744   2.406  15.215  0.2301  0.2840 -0.1266
  265MPD2    C3 4009   0.780   2.278  15.162 -0.4143 -0.4059  0.8703
  265MPD2    C4 4010   0.730   2.163  15.225  0.4561  0.4214 -0.1924
  265MPD2    C5 4011   0.676   2.170  15.346  0.1425  0.0993  0.7026
  265MPD2     H 4012   0.754   2.502  15.167  2.9648 -0.4839 -1.0540
  265MPD2    H1 4013   0.735   2.063  15.184 -2.6773  0.4592 -0.6740
  265MPD2    H2 4014   0.596   2.276  15.497  0.0429 -1.1700 -0.4805
  265MPD2    H3 4015   0.638   2.082  15.396  0.6976 -0.6960 -0.2688
  265MPD2     N 4016   0.870   2.253  15.051  0.4849 -0.1625 -0.4778
  265MPD2    H5 4017   0.876   2.157  15.020  1.0572 -0.8074  1.6153
  265MPD2    N1 4018   0.642   2.532  15.403 -0.5891  0.3386 -0.0783
  265MPD2    H7 4019   0.667   2.616  15.352 -1.0049  2.4531  3.1547
  266TMC3    C1 4020   0.562   2.677  15.569 -0.0160  0.7883 -0.0187
  266TMC3    C2 4021   0.570   2.706  15.701  0.5249 -0.3611 -0.1601
  266TMC3    C3 4022   0.573   2.841  15.739 -0.4994 -0.0822  0.2752
  266TMC3    C4 4023   0.565   2.781  15.477  0.0669  0.5406 -0.3179
  266TMC3    C5 4024   0.576   2.910  15.517  0.2049  1.1597  0.3964
  266TMC3    C6 4025   0.593   2.942  15.652  0.3019  1.1438  0.3939
  266TMC3     C 4026   0.589   2.541  15.532  0.2598 -0.0194 -0.2644
  266TMC3     O 4027   0.578   2.453  15.620 -0.4895  0.2244  0.1442
  266TMC3     H 4028   0.561   2.628  15.776 -0.3082 -2.0419 -2.0065
  266TMC3    H1 4029   0.547   2.768  15.371  2.3670  3.1911 -1.0246
  266TMC3    H2 4030   0.617   3.041  15.691  1.0049  1.5486 -1.0863
  266TMC3    C7 4031   0.548   3.016  15.427 -0.8289 -0.5205 -0.0232
  266TMC3    C8 4032   0.595   2.858  15.878 -0.3756  0.5129 -1.1880
  266TMC3    O1 4033   0.547   2.980  15.309  0.3971 -0.2027 -0.4012
  266TMC3    O2 4034   0.635   2.764  15.941 -0.4741  0.1941  0.2609
  267MPD2     C 4035   2.945   4.236  17.322 -0.1562  0.5076  0.0261
  267MPD2    C1 4036   2.885   4.337  17.254  0.4469  0.5881  0.2695
  267MPD2    C2 4037   2.829   4.310  17.132 -0.3904 -0.2355  0.6815
  267MPD2    C3 4038   2.832   4.185  17.078 -0.2538 -0.6523 -0.0476
  267MPD2    C4 4039   2.894   4.081  17.149  0.0938  0.0419 -0.6131
  267MPD2    C5 4040   2.958   4.109  17.264  0.8119  0.7652  0.4448
  267MPD2     H 4041   2.771   4.390  17.087  0.4569 -0.1581 -0.2631
  267MPD2    H1 4042   2.894   3.984  17.101 -2.0311 -0.8311  1.1655
  267MPD2    H2 4043   2.986   4.263  17.418 -0.3625 -0.5001  0.4074
  267MPD2    H3 4044   3.014   4.032  17.316  0.2170  0.4239  0.5866
  267MPD2     N 4045   2.768   4.152  16.956  0.1314  0.2324 -0.4856
  267MPD2    H5 4046   2.773   4.053  16.932  2.8814  0.7963 -2.2738
  267MPD2    N1 4047   2.897   4.461  17.318  0.0933 -0.2159 -0.8419
  267MPD2    H7 4048   2.948   4.467  17.406 -2.1941  2.8967  0.2828
  268TMC3    C1 4049   2.927   4.688  17.337 -0.1213  0.5029  0.4602
  268TMC3    C2 4050   3.010   0.036  17.257 -0.2446 -0.4761 -0.1465
  268TMC3    C3 4051   3.099   0.112  17.325 -0.1984 -0.5130 -0.4184
  268TMC3    C4 4052   2.940   4.668  17.473 -0.0616 -0.2951 -0.0837
  268TMC3    C5 4053   3.029   0.026  17.536 -0.2378  0.4143 -0.8699
  268TMC3    C6 4054   3.110   0.113  17.462  0.2378  0.5962  0.3926
  268TMC3     C 4055   2.864   4.587  17.266  0.0082 -0.6540 -0.0887
  268TMC3     O 4056   2.809   4.616  17.160 -0.4853 -0.4138 -0.1843
  268TMC3     H 4057   2.997   0.036  17.149  0.6588 -1.4936 -0.2488
  268TMC3    H1 4058   2.863   4.609  17.523  0.5246  0.2683  1.4785
  268TMC3    H2 4059   3.190   0.165  17.513  0.7275  1.0000 -0.8027
  268TMC3    C7 4060   3.060   0.013  17.675  0.6873  0.1403  0.1325
  268TMC3    C8 4061   3.210   0.176  17.255  0.0948 -0.3907 -0.0841
  268TMC3    O1 4062   3.044   4.623   0.018 -0.8264 -0.2626  0.4680
  268TMC3    O2 4063   3.250   0.278  17.307  0.0438  0.0136  0.1367
  269MPD2     C 4064   3.452   3.004  15.174 -0.1997  0.6151 -0.8207
  269MPD2    C1 4065   3.348   3.014  15.256 -0.1835  0.9312 -0.6673
  269MPD2    C2 4066   3.277   3.134  15.268  0.0142  0.3553 -0.2226
  269MPD2    C3 4067   3.318   3.241  15.194 -0.5524  0.4445  0.3010
  269MPD2    C4 4068   3.420   3.230  15.109  0.5402  0.2304 -0.1776
  269MPD2    C5 4069   3.491   3.115  15.100  0.0613  0.2097  0.3593
  269MPD2     H 4070   3.194   3.149  15.336  0.2538 -0.3842  0.2396
  269MPD2    H1 4071   3.448   3.307  15.038 -1.6392  0.1322 -1.1360
  269MPD2    H2 4072   3.505   2.910  15.158 -1.1163 -0.0263 -0.0520
  269MPD2    H3 4073   3.575   3.113  15.032  0.0010  0.3291  0.2821
  269MPD2     N 4074   3.253   3.367  15.218 -0.2448 -0.4730 -0.1250
  269MPD2    H5 4075   3.197   3.366  15.303  1.0554 -0.8293  0.7231
  269MPD2    N1 4076   3.323   2.901  15.326  0.8564  0.0219  0.1105
  269MPD2    H7 4077   3.386   2.824  15.304  0.2790 -0.0062 -1.4183
  270TMC3    C1 4078   3.195   2.745  15.447  0.4987 -0.6200  0.1510
  270TMC3    C2 4079   3.074   2.713  15.499 -0.2614 -0.2669  0.3381
  270TMC3    C3 4080   3.061   2.583  15.555 -0.2603  0.1980  0.2049
  270TMC3    C4 4081   3.310   2.665  15.471  0.0016  0.3673 -0.1206
  270TMC3    C5 4082   3.294   2.549  15.541  0.0027 -0.9676  0.0026
  270TMC3    C6 4083   3.169   2.511  15.582  0.6335  0.4348  0.1480
  270TMC3     C 4084   3.208   2.879  15.400  0.2159 -0.5514 -0.8649
  270TMC3     O 4085   3.111   2.954  15.427  0.7292  0.8378 -0.0770
  270TMC3     H 4086   2.986   2.770  15.470  0.3710  0.9409  0.8184
  270TMC3    H1 4087   3.399   2.682  15.411 -1.1671  0.6462 -1.7898
  270TMC3    H2 4088   3.158   2.418  15.636  1.6999 -0.4529 -1.1837
  270TMC3    C7 4089   3.378   2.435  15.499 -0.1348 -0.1538  0.2298
  270TMC3    C8 4090   2.969   2.503  15.478  0.9882  0.1527  0.0500
  270TMC3    O1 4091   3.496   2.439  15.486 -0.3647 -0.1108 -0.3995
  270TMC3    O2 4092   3.019   2.398  15.444 -0.0957 -0.1687  0.0364
  271MPD2     C 4093   2.368   2.572  13.783  0.1825  0.1583 -0.0511
  271MPD2    C1 4094   2.270   2.534  13.866 -0.6304  0.4335  0.0306
  271MPD2    C2 4095   2.150   2.575  13.828  0.4362 -0.4972  0.6174
  271MPD2    C3 4096   2.131   2.653  13.713  0.1691  0.3557 -0.0009
  271MPD2    C4 4097   2.235   2.695  13.635  0.5236  0.0788 -0.5879
  271MPD2    C5 4098   2.355   2.647  13.671 -0.1468  0.2909 -0.6659
  271MPD2     H 4099   2.071   2.561  13.901  0.0648  2.4663  0.7985
  271MPD2    H1 4100   2.219   2.741  13.538 -1.0136 -0.9659 -0.8247
  271MPD2    H2 4101   2.470   2.548  13.811 -0.6744 -3.6436 -0.1314
  271MPD2    H3 4102   2.437   2.668  13.603  0.4512  2.2091  0.6610
  271MPD2     N 4103   1.997   2.690  13.675 -0.0250 -0.1621  0.2185
  271MPD2    H5 4104   1.992   2.756  13.597  0.4933 -0.2472  0.1136
  271MPD2    N1 4105   2.289   2.458  13.985  0.3864 -0.5406  0.6773
  271MPD2    H7 4106   2.202   2.441  14.035  1.4691 -0.0335  2.7512
  272TMC3    C1 4107   2.428   2.307  14.131 -0.4349  0.2069 -0.7784
  272TMC3    C2 4108   2.541   2.229  14.137  0.1687  1.0463 -0.3846
  272TMC3    C3 4109   2.585   2.180  14.259 -0.7024 -0.5642  0.3133
  272TMC3    C4 4110   2.367   2.340  14.246  0.6187  0.0201  0.1870
  272TMC3    C5 4111   2.409   2.288  14.371  0.1639  0.0970  0.5876
  272TMC3    C6 4112   2.526   2.214  14.379 -0.2734  0.1527  0.8570
  272TMC3     C 4113   2.406   2.389  14.004  0.5976  0.1454 -0.0460
  272TMC3     O 4114   2.505   2.380  13.931 -0.4564  0.0526  0.1976
  272TMC3     H 4115   2.598   2.214  14.046  0.1386  1.2765 -0.4416
  272TMC3    H1 4116   2.283   2.408  14.245  1.2706  0.8361  0.7180
  272TMC3    H2 4117   2.576   2.178  14.468 -0.0674  0.4399  0.8569
  272TMC3    C7 4118   2.337   2.324  14.489  0.6129  0.4316 -0.1960
  272TMC3    C8 4119   2.715   2.114  14.260 -0.1925  0.5849  0.0465
  272TMC3    O1 4120   2.222   2.367  14.474  0.1581 -0.4579 -0.1981
  272TMC3    O2 4121   2.747   2.057  14.361 -0.1845  0.1544  0.2384
  273MPD2     C 4122   4.181   0.362  11.595  0.1955 -0.8750  0.0155
  273MPD2    C1 4123   4.179   0.494  11.558  0.8662 -0.1692  0.0947
  273MPD2    C2 4124   4.163   0.534  11.425 -0.0201 -0.0451  0.5719
  273MPD2    C3 4125   4.164   0.441  11.320  0.2645  0.3455  0.5312
  273MPD2    C4 4126   4.179   0.312  11.360  0.1655  0.4097 -0.2176
  273MPD2    C5 4127   4.182   0.270  11.489 -0.0785  0.3838 -0.4858
  273MPD2     H 4128   4.176   0.638  11.398  0.1353  0.2515  1.7835
  273MPD2    H1 4129   4.189   0.237  11.282  2.0385 -1.4973  1.8565
  273MPD2    H2 4130   4.178   0.329  11.698 -2.0056  1.7987  0.8428
  273MPD2    H3 4131   4.177   0.164  11.511  0.3764  0.5959  0.6423
  273MPD2     N 4132   4.165   0.470  11.181  0.0820 -0.2028  0.0708
  273MPD2    H5 4133   4.177   0.393  11.116 -1.9543 -0.0405 -0.4900
  273MPD2    N1 4134   4.190   0.595  11.658 -0.1197 -0.1378  0.0645
  273MPD2    H7 4135   4.169   0.689  11.626  1.3188  0.9269  2.2124
  274TMC3    C1 4136   4.200   0.611  10.988  0.8138 -0.3026 -0.2096
  274TMC3    C2 4137   4.096   0.566  10.911 -0.1401 -0.5005 -0.4484
  274TMC3    C3 4138   4.054   0.633  10.797  0.3343  0.1371 -0.5370
  274TMC3    C4 4139   4.256   0.731  10.954 -0.0062 -0.1595  0.9733
  274TMC3    C5 4140   4.197   0.815  10.861 -0.1922 -0.3368  0.0256
  274TMC3    C6 4141   4.109   0.757  10.768  0.2549 -0.3711 -0.1118
  274TMC3     C 4142   4.164   0.601  11.132 -0.0022 -0.0656  0.6936
  274TMC3     O 4143   4.167   0.707  11.191  0.3248  0.3923 -0.2109
  274TMC3     H 4144   4.052   0.469  10.932 -0.0879 -0.4552 -0.1247
  274TMC3    H1 4145   4.321   0.773  11.030  0.1019  1.5156 -0.0410
  274TMC3    H2 4146   4.052   0.829  10.710 -0.9480  0.9276  2.6762
  274TMC3    C7 4147   4.169   0.948  10.907 -0.3878 -0.1731 -0.0036
  274TMC3    C8 4148   3.939   0.570  10.726  0.6732  0.3283  1.0300
  274TMC3    O1 4149   4.060   1.005  10.894  0.3902  0.6087  0.6965
  274TMC3    O2 4150   3.874   0.481  10.779 -0.0590  0.2547  0.2710
  275MPD2     C 4151   3.998   3.264  14.298  0.1541 -0.8784  0.0876
  275MPD2    C1 4152   3.906   3.359  14.343  0.0250  0.1504 -0.2450
  275MPD2    C2 4153   3.773   3.321  14.348 -0.2657  0.8049 -0.5987
  275MPD2    C3 4154   3.733   3.188  14.326  0.2546  0.2053  0.1957
  275MPD2    C4 4155   3.830   3.095  14.297  0.7885  0.2312 -0.2193
  275MPD2    C5 4156   3.962   3.131  14.279 -0.8450 -0.6631  0.1588
  275MPD2     H 4157   3.709   3.400  14.386  0.6776  1.0985  0.3905
  275MPD2    H1 4158   3.801   2.991  14.295  2.8008 -0.3126 -0.0555
  275MPD2    H2 4159   4.097   3.301  14.274  0.0109  0.4502  1.5409
  275MPD2    H3 4160   4.039   3.057  14.257 -0.5118 -0.0688 -0.6695
  275MPD2     N 4161   3.596   3.141  14.313  0.1798 -1.2062 -0.0128
  275MPD2    H5 4162   3.581   3.051  14.268 -1.2962  0.2106 -2.4032
  275MPD2    N1 4163   3.940   3.494  14.378 -0.0832 -0.0041  0.1511
  275MPD2    H7 4164   3.865   3.554  14.408 -1.0667 -1.2178  0.1097
  276TMC3    C1 4165   4.089   3.678  14.421 -0.3910 -0.4786 -0.1099
  276TMC3    C2 4166   3.985   3.757  14.425  0.7064  0.3804 -0.1873
  276TMC3    C3 4167   3.956   3.813  14.546 -0.2408 -0.5228  0.3490
  276TMC3    C4 4168   4.189   3.694  14.505  0.6909  0.2955 -0.4053
  276TMC3    C5 4169   4.176   3.769  14.624  0.1051  0.0252  0.3131
  276TMC3    C6 4170   4.055   3.828  14.650 -0.5291  0.3593 -0.6015
  276TMC3     C 4171   4.072   3.543  14.383  0.1761  0.4151 -0.2749
  276TMC3     O 4172   4.172   3.477  14.361  0.0191 -0.0118  0.0224
  276TMC3     H 4173   3.915   3.747  14.343  1.2526  0.0020 -0.6101
  276TMC3    H1 4174   4.272   3.627  14.489  1.1390  1.2254 -1.9785
  276TMC3    H2 4175   4.034   3.875  14.745 -0.0886 -0.8692  0.1027
  276TMC3    C7 4176   4.285   3.758  14.719 -0.0437  0.7492 -0.6610
  276TMC3    C8 4177   3.845   3.736  14.590  0.0469 -0.1942  0.2210
  276TMC3    O1 4178   4.250   3.812  14.823  0.7170 -0.0033 -0.1027
  276TMC3    O2 4179   3.782   3.668  14.510  0.2190  0.0266 -0.2269
  277MPD2     C 4180   1.025   2.214  13.273  0.2128 -1.0856 -0.1162
  277MPD2    C1 4181   0.908   2.285  13.286  0.2243 -0.4001  1.0824
  277MPD2    C2 4182   0.822   2.257  13.398  0.2631  0.1557  0.2768
  277MPD2    C3 4183   0.855   2.159  13.491 -0.5418  0.3126 -0.4229
  277MPD2    C4 4184   0.975   2.089  13.476  0.0227 -0.1321  0.1183
  277MPD2    C5 4185   1.061   2.121  13.370  0.0137 -0.7390  0.5101
  277MPD2     H 4186   0.727   2.308  13.409  0.9184  1.6174 -0.7353
  277MPD2    H1 4187   1.014   2.017  13.547  1.8226  0.2541 -0.4720
  277MPD2    H2 4188   1.092   2.214  13.187 -0.7311  2.4558 -0.8446
  277MPD2    H3 4189   1.156   2.069  13.366  0.1723 -0.2619 -2.0456
  277MPD2     N 4190   0.754   2.120  13.579  0.5208  0.2970 -0.1286
  277MPD2    H5 4191   0.679   2.188  13.580 -0.2345 -0.5554  0.6546
  277MPD2    N1 4192   0.871   2.374  13.176  0.5651  0.2705  0.5773
  277MPD2    H7 4193   0.930   2.365  13.095  0.1366  0.2259  0.2724
  278TMC3    C1 4194   0.649   1.982  13.733 -0.1776  0.4573  0.0009
  278TMC3    C2 4195   0.621   1.853  13.764 -0.1175  0.2212  0.0877
  278TMC3    C3 4196   0.497   1.825  13.813 -0.1125  0.6616 -0.0782
  278TMC3    C4 4197   0.553   2.078  13.760 -0.1902 -0.0969 -0.2233
  278TMC3    C5 4198   0.426   2.052  13.809  0.0885  0.0585  0.0855
  278TMC3    C6 4199   0.398   1.921  13.836  0.6400  0.7852 -0.1261
  278TMC3     C 4200   0.771   2.013  13.663  0.1386 -0.0440  0.6174
  278TMC3     O 4201   0.856   1.926  13.670 -0.3918 -0.3401  0.6270
  278TMC3     H 4202   0.681   1.764  13.752 -0.0304  0.3091 -0.1236
  278TMC3    H1 4203   0.593   2.178  13.752 -1.3766  0.4187  0.3145
  278TMC3    H2 4204   0.305   1.904  13.889  0.4099 -1.1538 -1.1389
  278TMC3    C7 4205   0.356   2.159  13.882  0.0665  0.2245 -0.3119
  278TMC3    C8 4206   0.463   1.685  13.824 -0.3539  0.4310  0.3882
  278TMC3    O1 4207   0.424   2.254  13.912  0.4115  0.3942  0.3903
  278TMC3    O2 4208   0.551   1.609  13.862  0.3004  0.1014 -0.3730
  279MPD2     C 4209   0.232   2.581  17.512 -0.2446  0.3055  0.2679
  279MPD2    C1 4210   0.148   2.679  17.554 -0.5721 -0.1693 -0.1115
  279MPD2    C2 4211   0.165   2.810  17.510 -0.0675  0.1262 -0.1017
  279MPD2    C3 4212   0.255   2.837  17.409  0.3292 -0.0346  0.8674
  279MPD2    C4 4213   0.356   2.740  17.375  0.0462  0.5319 -0.2736
  279MPD2    C5 4214   0.334   2.614  17.425 -0.5562 -0.2143 -0.4411
  279MPD2     H 4215   0.101   2.892  17.542 -0.0391  0.1868 -0.1997
  279MPD2    H1 4216   0.420   2.763  17.291 -0.6604 -0.9659 -1.2050
  279MPD2    H2 4217   0.237   2.479  17.550 -0.1608  0.1085 -0.2753
  279MPD2    H3 4218   0.404   2.540  17.389  0.3170  0.4456 -0.1004
  279MPD2     N 4219   0.247   2.961  17.337  0.1089 -0.0957 -0.0188
  279MPD2    H5 4220   0.294   2.962  17.247 -2.5725  1.6464 -1.3901
  279MPD2    N1 4221   0.047   2.637  17.646 -0.2322  0.6261  0.3705
  279MPD2    H7 4222   0.051   2.541  17.680 -0.3791  0.0074 -1.3596
  280TMC3    C1 4223   4.569   2.655   0.078  0.9796  0.3060 -0.2410
  280TMC3    C2 4224   4.526   2.534   0.039 -0.2873 -0.3388  0.1575
  280TMC3    C3 4225   4.397   2.499   0.072 -0.2186 -0.0998 -0.6301
  280TMC3    C4 4226   4.492   2.743   0.155  0.7674 -0.2865 -0.5816
  280TMC3    C5 4227   4.367   2.705   0.172  0.7097 -0.0784 -0.0123
  280TMC3    C6 4228   4.318   2.585   0.144  0.3862 -0.0441  0.2753
  280TMC3     C 4229   4.685   2.723   0.012  0.4366  0.3420 -0.2055
  280TMC3     O 4230   4.676   2.843  17.698 -0.5281  0.1235 -0.0396
  280TMC3     H 4231   4.592   2.471  17.681 -1.7869 -0.6283 -1.1872
  280TMC3    H1 4232   4.517   2.845   0.180 -0.3047 -0.3162  0.6642
  280TMC3    H2 4233   4.220   2.557   0.183 -1.2947  0.7063 -3.4466
  280TMC3    C7 4234   4.272   2.812   0.220  0.5033  0.1020 -0.3405
  280TMC3    C8 4235   4.351   2.361   0.055 -0.7442  0.3573  0.4928
  280TMC3    O1 4236   4.316   2.899   0.294 -0.2386 -0.6300  0.0620
  280TMC3    O2 4237   4.256   2.328   0.128  0.2654  0.0279  0.2427
  281TMC3    C1 4238   3.769   2.751  12.970  0.0477  0.3155 -0.4291
  281TMC3    C2 4239   3.881   2.818  12.953 -0.4205 -0.4563  0.3733
  281TMC3    C3 4240   3.957   2.788  12.848  0.0408  0.4980 -0.4589
  281TMC3    C4 4241   3.733   2.639  12.896  0.3323  0.4864 -0.1654
  281TMC3    C5 4242   3.817   2.605  12.793  0.3247  0.2904  0.1385
  281TMC3    C6 4243   3.933   2.678  12.765 -0.9575 -0.4331 -0.6385
  281TMC3     C 4244   3.676   2.779  13.075  0.1799 -0.4236 -0.1436
  281TMC3     O 4245   3.617   2.680  13.115 -0.4776  0.2663  0.0288
  281TMC3     H 4246   3.905   2.892  13.029 -1.4643  0.6556 -0.3752
  281TMC3    H1 4247   3.633   2.603  12.916  0.0313  0.6467 -1.3873
  281TMC3    H2 4248   4.001   2.644  12.688 -0.7730  0.5971 -0.9387
  281TMC3    C7 4249   3.831   2.455  12.769 -0.4555 -0.0084 -0.4811
  281TMC3    C8 4250   4.060   2.876  12.799 -0.1052 -0.1586 -1.2986
  281TMC3    O1 4251   3.946   2.417  12.747 -0.0105  0.3291 -0.7452
  281TMC3    O2 4252   4.155   2.825  12.744  0.0658 -0.3172  0.2333
  282MPD2     C 4253   0.805   4.274  14.988 -1.0729  0.1118  0.3329
  282MPD2    C1 4254   0.670   4.292  15.016 -0.3384 -0.2341 -0.0881
  282MPD2    C2 4255   0.581   4.317  14.915 -0.6482  0.7557 -0.0775
  282MPD2    C3 4256   0.636   4.315  14.780 -0.5048 -0.2752 -1.0923
  282MPD2    C4 4257   0.761   4.285  14.759  0.5740  0.5143  0.2150
  282MPD2    C5 4258   0.857   4.272  14.858  0.4044  0.4756 -0.4752
  282MPD2     H 4259   0.474   4.325  14.926 -0.5672 -0.4229  1.5688
  282MPD2    H1 4260   0.809   4.286  14.661  0.9626  0.6474  0.4092
  282MPD2    H2 4261   0.879   4.242  15.061 -1.6923 -1.2109  0.3798
  282MPD2    H3 4262   0.964   4.254  14.849  0.2719 -0.2098 -0.7002
  282MPD2     N 4263   0.545   4.347  14.671 -0.0026  0.6091  0.0133
  282MPD2    H5 4264   0.456   4.393  14.686 -0.1772  0.3653 -0.2752
  282MPD2    N1 4265   0.621   4.292  15.149 -0.3908 -0.7635  0.9384
  282MPD2    H7 4266   0.520   4.293  15.160 -0.5346 -0.7481 -0.3654
  283TMC3    C1 4267   0.602   4.280  15.375  1.1641 -0.2479  0.3696
  283TMC3    C2 4268   0.596   4.403  15.436 -0.2336 -0.5299  0.1390
  283TMC3    C3 4269   0.523   4.411  15.548  0.0707 -0.1223 -0.0646
  283TMC3    C4 4270   0.560   4.166  15.433  0.2291 -0.4411  0.0082
  283TMC3    C5 4271   0.493   4.182  15.547  0.2118  0.2973 -0.2042
  283TMC3    C6 4272   0.480   4.300  15.611  0.1871 -0.8759 -0.4457
  283TMC3     C 4273   0.693   4.282  15.262  0.3898  0.0234 -0.1752
  283TMC3     O 4274   0.812   4.317  15.284  0.2270  0.4729 -0.1451
  283TMC3     H 4275   0.645   4.489  15.391 -0.7344 -0.6631 -0.6636
  283TMC3    H1 4276   0.576   4.067  15.391 -3.0425 -1.1036  0.3073
  283TMC3    H2 4277   0.415   4.311  15.697  2.1231  1.6284  0.7226
  283TMC3    C7 4278   0.409   4.074  15.606 -0.0924  0.0780  0.5910
  283TMC3    C8 4279   0.508   4.539  15.620 -0.3500  0.1881 -0.2579
  283TMC3    O1 4280   0.389   4.083  15.724 -0.6339  0.1932  0.0951
  283TMC3    O2 4281   0.509   4.528  15.739 -0.5779  0.3555  0.2488
  284MPD2     C 4282   3.924   3.469  12.042 -0.1889  0.8597  0.8149
  284MPD2    C1 4283   3.954   3.342  12.005 -0.0357 -0.4228  0.2896
  284MPD2    C2 4284   3.856   3.248  12.033 -0.3557  0.8157 -0.4280
  284MPD2    C3 4285   3.738   3.276  12.100 -0.0183 -0.0449  0.5795
  284MPD2    C4 4286   3.708   3.410  12.122 -0.5300 -0.2861  0.2641
  284MPD2    C5 4287   3.797   3.501  12.088  0.3650 -0.4535  0.4519
  284MPD2     H 4288   3.880   3.147  12.003  0.0068  0.9069 -0.4351
  284MPD2    H1 4289   3.619   3.446  12.172  0.4143  2.0015  0.2941
  284MPD2    H2 4290   3.993   3.552  12.027  2.2410 -1.5211 -1.1888
  284MPD2    H3 4291   3.775   3.601  12.123  2.4090  0.2309 -0.2265
  284MPD2     N 4292   3.644   3.179  12.141  0.9056 -0.7243  0.5336
  284MPD2    H5 4293   3.556   3.214  12.178 -0.4566 -0.6271 -2.7598
  284MPD2    N1 4294   4.072   3.309  11.937  0.0852  0.2704  0.3160
  284MPD2    H7 4295   4.097   3.210  11.934  1.2641  0.5403  1.3542
  285TMC3    C1 4296   4.275   3.338  11.824 -1.0463  0.1830  0.9934
  285TMC3    C2 4297   4.269   3.241  11.722  0.5214 -0.3298 -0.1310
  285TMC3    C3 4298   4.363   3.229  11.625  0.2250 -0.4061  0.1291
  285TMC3    C4 4299   4.388   3.419  11.822 -0.8818 -0.0742 -0.8763
  285TMC3    C5 4300   4.483   3.391  11.731  0.5878 -0.3887  0.2038
  285TMC3    C6 4301   4.479   3.295  11.634 -0.0904  0.2747 -0.3385
  285TMC3     C 4302   4.156   3.397  11.879  0.2644  0.4733 -0.2399
  285TMC3     O 4303   4.140   3.517  11.858 -0.0219  0.5352 -0.2222
  285TMC3     H 4304   4.172   3.197  11.709 -0.9522  2.4315  1.4241
  285TMC3    H1 4305   4.395   3.503  11.891 -0.5528 -2.0426  1.4894
  285TMC3    H2 4306   4.550   3.288  11.553  1.4169 -1.0993  1.0845
  285TMC3    C7 4307   4.538   3.519  11.690 -0.3424 -0.0270  0.4982
  285TMC3    C8 4308   4.332   3.162  11.498 -0.5522 -0.6007 -0.2428
  285TMC3    O1 4309   4.471   3.618  11.680 -0.1915 -0.1969  0.3197
  285TMC3    O2 4310   4.220   3.107  11.498  0.0802  0.1186  0.3567
  286MPD2     C 4311   3.485   2.644   1.492  0.0872 -0.0924 -0.4616
  286MPD2    C1 4312   3.467   2.618   1.354 -0.1242 -0.7109  0.3447
  286MPD2    C2 4313   3.529   2.507   1.312 -0.0013  0.2285 -0.0685
  286MPD2    C3 4314   3.608   2.423   1.391 -0.3439 -0.4503 -0.7236
  286MPD2    C4 4315   3.621   2.456   1.523  0.0450  0.1192  0.0351
  286MPD2    C5 4316   3.559   2.569   1.572 -0.0774  0.2045  0.6098
  286MPD2     H 4317   3.508   2.472   1.212  1.9154 -0.6408 -0.1530
  286MPD2    H1 4318   3.676   2.387   1.587  2.7708 -0.0702 -2.4856
  286MPD2    H2 4319   3.430   2.721   1.545 -2.0646 -1.3669 -0.8675
  286MPD2    H3 4320   3.565   2.592   1.678 -1.0287 -1.2332  0.9709
  286MPD2     N 4321   3.665   2.300   1.349 -0.1742  0.2630 -0.6607
  286MPD2    H5 4322   3.732   2.257   1.412 -1.2858  1.4395  1.3034
  286MPD2    N1 4323   3.387   2.699   1.273  0.2817 -1.0516 -0.5885
  286MPD2    H7 4324   3.376   2.668   1.176 -1.2626  0.1807 -0.8062
  287TMC3    C1 4325   3.742   2.130   1.211 -0.4672  0.2120 -0.1714
  287TMC3    C2 4326   3.713   2.028   1.128  0.5446  0.4344  0.2811
  287TMC3    C3 4327   3.809   1.935   1.100  0.0491 -0.8098  0.3624
  287TMC3    C4 4328   3.861   2.136   1.278 -0.8584  0.0916 -0.0690
  287TMC3    C5 4329   3.948   2.032   1.263  0.5802  0.2717  0.3252
  287TMC3    C6 4330   3.933   1.943   1.156  1.1946  0.7507  0.0772
  287TMC3     C 4331   3.652   2.242   1.224  0.8329  0.3882 -0.1807
  287TMC3     O 4332   3.586   2.267   1.123 -0.2301 -0.1954  0.2878
  287TMC3     H 4333   3.619   2.034   1.075  0.3735 -0.9497  0.4213
  287TMC3    H1 4334   3.885   2.218   1.345  2.1244  1.3272 -2.5911
  287TMC3    H2 4335   4.017   1.881   1.129 -1.0331 -1.3344 -2.0158
  287TMC3    C7 4336   4.078   2.041   1.333  0.3559  0.0450 -0.7923
  287TMC3    C8 4337   3.799   1.885   0.962  0.3627 -1.1426 -0.2117
  287TMC3    O1 4338   4.117   2.150   1.378 -0.2081 -0.4535  0.5555
  287TMC3    O2 4339   3.692   1.840   0.920  0.7020 -0.0074 -0.2322
  288TMC3    C1 4340   0.679   1.786  14.531  0.0251 -0.2962  1.0908
  288TMC3    C2 4341   0.604   1.745  14.639 -0.6495  0.3864 -0.3589
  288TMC3    C3 4342   0.587   1.829  14.748  1.2587 -0.3727  0.4714
  288TMC3    C4 4343   0.722   1.910  14.528 -0.7114  0.6882 -0.1729
  288TMC3    C5 4344   0.708   1.989  14.638 -0.4476  0.2995  0.5359
  288TMC3    C6 4345   0.647   1.947  14.754 -0.1294  0.0316  0.6578
  288TMC3     C 4346   0.688   1.700  14.413 -0.0546 -0.0006  0.0142
  288TMC3     O 4347   0.621   1.598  14.413  0.0355 -0.2739  0.3936
  288TMC3     H 4348   0.562   1.646  14.647  1.2531 -0.3428  0.7712
  288TMC3    H1 4349   0.777   1.940  14.439  0.3941 -2.5278 -0.5613
  288TMC3    H2 4350   0.655   2.007  14.845  1.2766 -0.7577  1.0574
  288TMC3    C7 4351   0.769   2.121  14.644  0.4539 -0.0154  0.7190
  288TMC3    C8 4352   0.572   1.766  14.879 -0.5167  0.2646  0.1854
  288TMC3    O1 4353   0.731   2.191  14.732  0.0037  0.7473 -0.7923
  288TMC3    O2 4354   0.640   1.807  14.969  0.1202  0.5073  0.0077
  289MPD2     C 4355   1.026   0.964  14.121  0.1352 -0.0310  0.2688
  289MPD2    C1 4356   1.005   1.046  14.228  0.3044 -0.3449  0.0843
  289MPD2    C2 4357   0.877   1.063  14.270 -0.0917  0.3155 -0.0107
  289MPD2    C3 4358   0.772   1.010  14.197 -0.5527 -0.6084  0.3109
  289MPD2    C4 4359   0.795   0.927  14.095  0.5547  0.2087  0.9072
  289MPD2    C5 4360   0.922   0.898  14.061  0.6018 -0.2802  0.2127
  289MPD2     H 4361   0.856   1.135  14.348  2.4909  0.4830  0.5482
  289MPD2    H1 4362   0.726   0.881  14.026 -0.4419 -0.5097  2.3703
  289MPD2    H2 4363   1.125   0.930  14.095 -0.8557 -1.9971 -0.9865
  289MPD2    H3 4364   0.934   0.827  13.980  0.1311 -1.2647  1.0040
  289MPD2     N 4365   0.639   1.062  14.220  0.4551  0.5686  0.4636
  289MPD2    H5 4366   0.566   1.020  14.164  1.1797  1.9026 -1.4936
  289MPD2    N1 4367   1.117   1.124  14.282  0.2246 -0.4033 -0.6498
  289MPD2    H7 4368   1.193   1.151  14.221  0.6171 -1.2034 -0.5187
  290TMC3    C1 4369   0.474   1.213  14.273 -1.1161 -0.1625 -0.5152
  290TMC3    C2 4370   0.439   1.346  14.283  0.5370 -0.1129 -0.0144
  290TMC3    C3 4371   0.311   1.377  14.319  0.3152  0.0416  0.7501
  290TMC3    C4 4372   0.378   1.115  14.294  0.4779 -0.0982 -0.1364
  290TMC3    C5 4373   0.248   1.151  14.319  0.0274 -0.5687 -0.0442
  290TMC3    C6 4374   0.213   1.283  14.339  0.0914  0.0400 -0.1697
  290TMC3     C 4375   0.612   1.188  14.273 -0.1820 -0.0161  0.2315
  290TMC3     O 4376   0.676   1.279  14.333 -0.1044 -0.3169 -0.1578
  290TMC3     H 4377   0.510   1.424  14.258 -0.2550  1.5733  2.9564
  290TMC3    H1 4378   0.404   1.010  14.287 -1.3542 -0.4159 -2.1470
  290TMC3    H2 4379   0.111   1.306  14.367 -0.2418 -0.7806 -0.6844
  290TMC3    C7 4380   0.142   1.051  14.317 -0.2124 -0.5122 -0.5919
  290TMC3    C8 4381   0.264   1.508  14.284 -0.3821  0.1388 -0.4045
  290TMC3    O1 4382   0.031   1.095  14.278 -0.3373  0.0015  0.5109
  290TMC3    O2 4383   0.141   1.501  14.273  0.1944 -0.3497  0.0575
  291MPD2     C 4384   0.456   1.299   0.188  0.3875 -0.0528 -0.3260
  291MPD2    C1 4385   0.390   1.173   0.171 -0.0327 -0.4231  0.1032
  291MPD2    C2 4386   0.470   1.063   0.148 -0.4062  0.2925 -0.4163
  291MPD2    C3 4387   0.613   1.075   0.163  0.0175  0.1326 -0.2680
  291MPD2    C4 4388   0.666   1.198   0.181 -0.2709 -0.4582 -0.0223
  291MPD2    C5 4389   0.587   1.307   0.192  0.1775 -0.7985  0.2557
  291MPD2     H 4390   0.426   0.966   0.126 -0.7444  0.7796 -1.8874
  291MPD2    H1 4391   0.773   1.209   0.192  0.0489 -1.3487 -2.2651
  291MPD2    H2 4392   0.402   1.393   0.181 -0.5892 -0.6563 -0.9906
  291MPD2    H3 4393   0.636   1.404   0.197 -0.4431 -0.4878  0.4501
  291MPD2     N 4394   0.699   0.959   0.152  0.4244 -0.0358  0.0783
  291MPD2    H5 4395   0.794   0.981   0.181 -0.5142  3.1862  0.6518
  291MPD2    N1 4396   0.250   1.158   0.173  0.0575  0.4685 -0.4297
  291MPD2    H7 4397   0.221   1.061   0.181 -0.9657  0.9713  2.0446
  292TMC3    C1 4398   0.024   1.196   0.215 -0.5602  0.0549  0.1696
  292TMC3    C2 4399   4.655   1.271   0.288  0.0500 -0.5270  0.6342
  292TMC3    C3 4400   4.527   1.223   0.289  0.2652 -0.5513  0.3870
  292TMC3    C4 4401   4.710   1.084   0.146  0.5270 -0.5760  0.3253
  292TMC3    C5 4402   4.582   1.041   0.153  0.0352  0.0066  0.6703
  292TMC3    C6 4403   4.487   1.111   0.225  0.2815 -0.4388  0.3290
  292TMC3     C 4404   0.155   1.258   0.187 -0.1289  0.5272 -0.5143
  292TMC3     O 4405   0.161   1.382   0.183  0.0841  0.0255  0.1248
  292TMC3     H 4406   4.688   1.363   0.334 -3.1408 -0.4174  2.6824
  292TMC3    H1 4407   0.050   1.044   0.069 -0.5871 -2.5868  0.4050
  292TMC3    H2 4408   4.388   1.070   0.244  0.2356  0.1438  1.3891
  292TMC3    C7 4409   4.554   0.911   0.100  0.2407  0.5176 -0.4817
  292TMC3    C8 4410   4.439   1.294   0.370  0.7756  0.5946  0.1722
  292TMC3    O1 4411   4.651   0.852   0.051  0.2485 -0.3612  0.2787
  292TMC3    O2 4412   4.492   1.392   0.424  0.5072  0.1293  0.6399
  293MPD2     C 4413   2.113   2.332  12.329 -0.2360 -0.1476  0.2095
  293MPD2    C1 4414   2.038   2.280  12.429 -0.2325  0.0348 -0.3960
  293MPD2    C2 4415   2.060   2.318  12.557 -0.6913 -0.7830  0.2354
  293MPD2    C3 4416   2.147   2.424  12.578 -0.1368  0.3434 -0.2581
  293MPD2    C4 4417   2.217   2.478  12.482  0.2269  0.3332  0.0811
  293MPD2    C5 4418   2.211   2.418  12.359  0.7767  0.1573 -0.0038
  293MPD2     H 4419   2.005   2.285  12.644  0.3619  0.7852  1.4989
  293MPD2    H1 4420   2.301   2.545  12.496 -0.7638  1.6043 -0.0050
  293MPD2    H2 4421   2.099   2.309  12.224  0.7610  0.2437 -0.0067
  293MPD2    H3 4422   2.274   2.459  12.280  0.0858 -0.8026 -1.0490
  293MPD2     N 4423   2.156   2.467  12.712 -0.2353  0.0287 -1.2610
  293MPD2    H5 4424   2.095   2.421  12.779  1.7815 -1.7634 -0.6845
  293MPD2    N1 4425   1.923   2.207  12.390 -0.0837  0.2196 -0.4341
  293MPD2    H7 4426   1.910   2.192  12.290  0.9681  1.5951 -0.7814
  294TMC3    C1 4427   1.699   2.135  12.420 -0.1968  0.2148 -0.4132
  294TMC3    C2 4428   1.591   2.117  12.508  0.2286  0.2601  0.0107
  294TMC3    C3 4429   1.469   2.113  12.445 -0.0424 -0.1700  0.6713
  294TMC3    C4 4430   1.686   2.139  12.287  0.1225 -0.6428  1.5815
  294TMC3    C5 4431   1.559   2.141  12.229  0.1335 -0.0359  0.2272
  294TMC3    C6 4432   1.446   2.130  12.311 -0.2766  0.2420 -0.1167
  294TMC3     C 4433   1.826   2.161  12.481  0.0776  0.5332 -0.4336
  294TMC3     O 4434   1.830   2.149  12.603  0.0464 -0.1982 -0.5710
  294TMC3     H 4435   1.610   2.133  12.614  1.1207  2.7166 -0.5160
  294TMC3    H1 4436   1.773   2.115  12.227  1.0762  0.1531  2.6661
  294TMC3    H2 4437   1.350   2.133  12.261  0.7507  0.2919 -2.0692
  294TMC3    C7 4438   1.543   2.032  12.133 -0.1580  0.2161  0.8700
  294TMC3    C8 4439   1.387   2.014  12.509 -0.2538 -0.6251 -0.1355
  294TMC3    O1 4440   1.450   1.960  12.159 -0.5878  0.3020  0.3017
  294TMC3    O2 4441   1.379   2.024  12.631 -0.5998  0.0702 -0.1385
  295MPD2     C 4442   2.301   1.174  17.496  0.2743 -0.3469  0.3979
  295MPD2    C1 4443   2.375   1.173  17.611 -0.3516  0.1439 -0.1774
  295MPD2    C2 4444   2.332   1.237   0.029  0.7505  0.1151  0.0531
  295MPD2    C3 4445   2.209   1.308   0.021  0.3227 -0.1127  0.3156
  295MPD2    C4 4446   2.139   1.299  17.603 -0.2121 -0.5121  0.3158
  295MPD2    C5 4447   2.184   1.243  17.496 -0.0008  0.2635  0.3591
  295MPD2     H 4448   2.396   1.240   0.116 -2.2782 -1.4324  2.3602
  295MPD2    H1 4449   2.049   1.358  17.597  0.2720  0.0257 -1.7780
  295MPD2    H2 4450   2.321   1.121  17.403 -0.3423  1.3591 -0.6986
  295MPD2    H3 4451   2.119   1.247  17.409  1.3315  1.6304 -0.5655
  295MPD2     N 4452   2.162   1.390   0.128 -0.1034 -0.9836 -0.1616
  295MPD2    H5 4453   2.081   1.449   0.113 -0.8992 -2.2344 -0.8064
  295MPD2    N1 4454   2.506   1.113  17.618 -0.2868 -0.0170  0.1611
  295MPD2    H7 4455   2.563   1.127  17.700  0.6657 -0.7053 -0.3771
  296TMC3    C1 4456   2.152   1.485   0.342  0.0275  0.7559  0.6770
  296TMC3    C2 4457   2.070   1.591   0.292  0.0016  0.0715 -0.2881
  296TMC3    C3 4458   2.004   1.662   0.384 -0.6604 -0.0169 -0.7599
  296TMC3    C4 4459   2.156   1.460   0.481 -0.7207 -0.2599 -0.3584
  296TMC3    C5 4460   2.082   1.543   0.566  0.7089 -0.0458  0.3243
  296TMC3    C6 4461   2.003   1.645   0.521 -0.0760  0.2490  0.4569
  296TMC3     C 4462   2.224   1.388   0.251 -0.2060  0.1951  0.0151
  296TMC3     O 4463   2.298   1.307   0.308 -0.3645 -0.1094  0.1584
  296TMC3     H 4464   2.081   1.620   0.189  0.1618  0.1202 -0.2571
  296TMC3    H1 4465   2.235   1.390   0.506 -0.2565  1.4297  2.8888
  296TMC3    H2 4466   1.942   1.698   0.593 -0.7319  0.5841 -0.3398
  296TMC3    C7 4467   2.072   1.512   0.709 -0.3712 -0.1665 -0.4126
  296TMC3    C8 4468   1.921   1.763   0.323  0.3965  1.1731  0.2844
  296TMC3    O1 4469   1.994   1.575   0.780 -0.2750  0.3589  0.1101
  296TMC3    O2 4470   1.885   1.733   0.204 -0.0220 -0.4879 -0.0052
  297MPD2     C 4471   4.550   3.000  16.361 -0.3500  0.4791 -0.4405
  297MPD2    C1 4472   4.490   3.046  16.243 -0.0154 -0.3170 -0.5031
  297MPD2    C2 4473   4.543   3.161  16.189  0.3352  0.0831  0.4644
  297MPD2    C3 4474   4.664   3.223  16.232 -0.4809  0.9915  0.5196
  297MPD2    C4 4475   4.719   3.171  16.349 -0.4310  0.9137  0.2655
  297MPD2    C5 4476   4.658   3.063  16.416 -0.8052 -0.3207 -0.5555
  297MPD2     H 4477   4.481   3.207  16.114  3.6421  1.8005 -1.2277
  297MPD2    H1 4478   0.085   3.207  16.397  0.4040 -0.5892 -0.1875
  297MPD2    H2 4479   4.516   2.905  16.401  0.2966 -0.1715 -1.4509
  297MPD2    H3 4480   4.705   3.028  16.507 -0.2596  2.8633  0.3599
  297MPD2     N 4481   0.005   3.324  16.156 -0.2531 -0.0664 -0.6027
  297MPD2    H5 4482   0.084   3.373  16.198 -1.9008  0.6808  1.6505
  297MPD2    N1 4483   4.378   2.993  16.179 -0.4261  0.4359  0.0405
  297MPD2    H7 4484   4.361   3.030  16.086 -0.8562  1.3120  0.4600
  298TMC3    C1 4485   4.181   2.855  16.130 -0.0723  0.4929  0.5240
  298TMC3    C2 4486   4.193   2.877  15.995 -0.5194 -0.2837  0.1533
  298TMC3    C3 4487   4.073   2.863  15.933 -0.0208  0.1605  0.0817
  298TMC3    C4 4488   4.062   2.848  16.199  0.3142  0.5233 -0.3858
  298TMC3    C5 4489   3.947   2.851  16.133  0.8666 -0.5420  0.3162
  298TMC3    C6 4490   3.957   2.855  15.995 -0.1645 -0.4165  0.7609
  298TMC3     C 4491   4.293   2.884  16.221 -0.1964  0.2627  0.3807
  298TMC3     O 4492   4.312   2.815  16.322 -0.6282 -0.1478 -0.3608
  298TMC3     H 4493   4.292   2.874  15.949 -0.1458  2.8673  0.7765
  298TMC3    H1 4494   4.076   2.861  16.306  0.0111 -3.1163  0.0838
  298TMC3    H2 4495   3.869   2.848  15.932  0.2768  1.7227 -0.1046
  298TMC3    C7 4496   3.835   2.914  16.204 -0.0481 -0.0133 -0.1805
  298TMC3    C8 4497   4.069   2.887  15.789 -0.0100  0.4622 -0.5695
  298TMC3    O1 4498   3.852   2.936  16.322  0.1929  0.3987 -0.0456
  298TMC3    O2 4499   3.988   2.822  15.723  0.0162 -0.4654 -0.5314
  299MPD2     C 4500   0.441   2.091  10.692  0.6644 -0.2773 -0.3344
  299MPD2    C1 4501   0.444   2.219  10.652 -0.7136  1.0539 -0.3259
  299MPD2    C2 4502   0.345   2.262  10.567 -0.2789  0.0159 -0.3038
  299MPD2    C3 4503   0.266   2.168  10.508 -0.2091  0.0250  0.1149
  299MPD2    C4 4504   0.265   2.036  10.547  0.1066  0.3936 -0.1176
  299MPD2    C5 4505   0.352   1.995  10.643  1.1531 -0.1091  0.2508
  299MPD2     H 4506   0.338   2.364  10.530 -0.6664 -0.4651 -1.5793
  299MPD2    H1 4507   0.186   1.969  10.515 -0.4244  1.1708 -0.4401
  299MPD2    H2 4508   0.519   2.046  10.752 -0.1116 -0.8022  0.2959
  299MPD2    H3 4509   0.366   1.890  10.665  1.0004 -0.3267 -0.6841
  299MPD2     N 4510   0.167   2.200  10.413 -0.0183  0.6975 -0.2356
  299MPD2    H5 4511   0.085   2.140  10.413 -1.0977  2.1403  2.6345
  299MPD2    N1 4512   0.532   2.308  10.716  0.2654 -0.8377 -0.6157
  299MPD2    H7 4513   0.585   2.265  10.791  1.3918 -2.3184 -2.2646
  300TMC3    C1 4514   0.061   2.291  10.227 -0.0171  0.4643 -0.1583
  300TMC3    C2 4515   0.078   2.347  10.105  0.1514  0.0627 -0.5514
  300TMC3    C3 4516   4.697   2.351  10.026 -0.2930 -0.3173 -0.2809
  300TMC3    C4 4517   4.677   2.220  10.262 -0.8026 -0.6597  0.1721
  300TMC3    C5 4518   4.586   2.205  10.170  0.1108 -0.1723  0.4911
  300TMC3    C6 4519   4.588   2.276  10.056  0.7654  0.4369  0.5101
  300TMC3     C 4520   0.173   2.304  10.321  0.2477 -0.3598  0.0171
  300TMC3     O 4521   0.259   2.388  10.297 -0.7257 -0.3975 -0.0589
  300TMC3     H 4522   0.174   2.397  10.094  0.6633 -0.8376 -0.1994
  300TMC3    H1 4523   4.661   2.170  10.357  1.1587 -0.3550  0.6656
  300TMC3    H2 4524   4.505   2.270   9.985 -0.5814  0.0710  2.1067
  300TMC3    C7 4525   4.453   2.171  10.217 -0.5943 -0.0800 -0.2026
  300TMC3    C8 4526   4.672   2.476   9.968 -0.9277 -0.5070 -0.3453
  300TMC3    O1 4527   4.382   2.106  10.143 -0.7035  0.3990 -0.6632
  300TMC3    O2 4528   4.585   2.488   9.880  1.1117 -0.3737 -0.0743
  301MPD2     C 4529   2.833   4.612   0.690  0.0392  0.1285  0.3675
  301MPD2    C1 4530   2.780   4.609   0.821  0.0952  0.4010  0.1629
  301MPD2    C2 4531   2.772   4.489   0.887  0.4492 -0.3377  0.2317
  301MPD2    C3 4532   2.812   4.366   0.827  0.6057  0.0131  0.2206
  301MPD2    C4 4533   2.845   4.370   0.692 -0.6661  0.1066 -0.4008
  301MPD2    C5 4534   2.857   4.493   0.630 -0.8198  0.5567 -0.1597
  301MPD2     H 4535   2.733   4.492   0.988  1.5894  0.1669  0.6477
  301MPD2    H1 4536   2.862   4.285   0.627 -2.3595 -1.0179  0.6111
  301MPD2    H2 4537   2.857   4.702   0.636  0.7883  0.0644  0.6014
  301MPD2    H3 4538   2.887   4.481   0.526 -0.0077  0.4965  0.0789
  301MPD2     N 4539   2.820   4.244   0.892 -0.2863 -0.7798  0.1850
  301MPD2    H5 4540   2.842   4.158   0.842  3.5081  0.3891 -0.1906
  301MPD2    N1 4541   2.729   4.723   0.890  0.3083  0.1042 -0.3461
  301MPD2    H7 4542   2.696   4.711   0.985 -1.3532 -1.7641 -1.1552
  302TMC3    C1 4543   2.788   4.095   1.071  0.1394 -0.1618 -0.5552
  302TMC3    C2 4544   2.845   3.985   1.004 -0.1125 -0.1875 -0.1806
  302TMC3    C3 4545   2.817   3.862   1.051  0.0263  0.4448  0.5959
  302TMC3    C4 4546   2.707   4.076   1.176  0.1502  0.0169 -0.0143
  302TMC3    C5 4547   2.667   3.947   1.211 -0.4161 -0.7601 -0.0261
  302TMC3    C6 4548   2.728   3.838   1.158 -0.1213  0.4056  0.8406
  302TMC3     C 4549   2.799   4.232   1.028  0.0809 -0.3857  0.5534
  302TMC3     O 4550   2.766   4.314   1.109 -0.7807 -0.6280 -0.5012
  302TMC3     H 4551   2.893   3.986   0.906 -0.7228 -1.6453 -0.4961
  302TMC3    H1 4552   2.672   4.158   1.238  1.2433  1.4377 -1.2645
  302TMC3    H2 4553   2.694   3.740   1.187 -0.8465  0.8758  1.5706
  302TMC3    C7 4554   2.539   3.932   1.289 -0.0724 -0.3415 -0.3693
  302TMC3    C8 4555   2.874   3.742   0.981  0.2201 -0.2894 -0.1814
  302TMC3    O1 4556   2.531   3.832   1.358  0.0615  0.3444  0.3935
  302TMC3    O2 4557   2.946   3.760   0.881 -0.1213 -0.2567 -0.0494
  303MPD2     C 4558   2.915   1.299  10.007 -0.1685  0.2910  0.2392
  303MPD2    C1 4559   2.819   1.382  10.056 -0.2056  0.4453  0.1523
  303MPD2    C2 4560   2.807   1.513   9.998  0.5179  0.1712 -0.2177
  303MPD2    C3 4561   2.889   1.552   9.901 -0.1578  0.1285 -0.8054
  303MPD2    C4 4562   2.992   1.467   9.868 -0.5110  0.4926  0.3150
  303MPD2    C5 4563   3.007   1.344   9.919  0.5865  0.1960  0.0545
  303MPD2     H 4564   2.717   1.569  10.021  2.9323  2.9831  2.4625
  303MPD2    H1 4565   3.056   1.485   9.782  2.2145 -1.3789  1.9458
  303MPD2    H2 4566   2.922   1.201  10.053  0.7113  0.7537  1.0699
  303MPD2    H3 4567   3.089   1.282   9.884  1.3998  0.9123  0.7110
  303MPD2     N 4568   2.888   1.681   9.842 -0.2755 -0.3583  0.5176
  303MPD2    H5 4569   2.963   1.711   9.780 -1.1424  1.7227  0.4846
  303MPD2    N1 4570   2.722   1.330  10.143  0.4926 -0.3241 -0.1205
  303MPD2    H7 4571   2.711   1.231  10.164 -0.6913 -0.3210 -0.7046
  304TMC3    C1 4572   2.569   1.325  10.315 -0.3414 -0.2502  0.5960
  304TMC3    C2 4573   2.552   1.373  10.447  0.0035 -0.1939  0.0429
  304TMC3    C3 4574   2.426   1.372  10.496  0.4526 -0.5163 -0.3536
  304TMC3    C4 4575   2.470   1.257  10.246 -0.0950  0.3904  0.1470
  304TMC3    C5 4576   2.346   1.256  10.304  0.0377 -0.0766  0.2451
  304TMC3    C6 4577   2.332   1.299  10.434 -0.3253 -0.2992  0.1946
  304TMC3     C 4578   2.652   1.407  10.230 -0.0942  0.5412  0.2478
  304TMC3     O 4579   2.655   1.526  10.245  0.0216 -0.5742  0.0210
  304TMC3     H 4580   2.639   1.419  10.492  0.9619 -1.7191 -0.2450
  304TMC3    H1 4581   2.478   1.230  10.141  1.3425 -0.8523  0.5903
  304TMC3    H2 4582   2.228   1.287  10.463 -0.6093  0.4322 -0.5101
  304TMC3    C7 4583   2.234   1.295  10.224  0.4573  0.1210  0.4426
  304TMC3    C8 4584   2.375   1.495  10.547 -0.6724 -0.5437 -0.1248
  304TMC3    O1 4585   2.218   1.242  10.113 -0.0598  0.6079 -0.0562
  304TMC3    O2 4586   2.255   1.506  10.554 -0.1836  0.1723  0.1863
  305MPD2     C 4587   0.613   4.615  13.765  0.8171  0.2004  0.2908
  305MPD2    C1 4588   0.706   4.512  13.762 -0.3879  0.5315 -0.2025
  305MPD2    C2 4589   0.700   4.419  13.659  0.1413  0.1893 -0.1311
  305MPD2    C3 4590   0.591   4.411  13.567 -0.2842 -0.0201 -0.6962
  305MPD2    C4 4591   0.498   4.513  13.569  0.3516  0.8594  0.0823
  305MPD2    C5 4592   0.511   4.608  13.670  0.5556  0.1291 -0.0095
  305MPD2     H 4593   0.783   4.353  13.636 -0.3768 -0.7729  0.7580
  305MPD2    H1 4594   0.426   4.511  13.488  0.0008 -0.8500  0.4348
  305MPD2    H2 4595   0.613   4.693  13.839  2.1385  1.3322 -0.9007
  305MPD2    H3 4596   0.438   4.687  13.674  0.6988  0.1781  1.6961
  305MPD2     N 4597   0.598   4.311  13.469 -0.4704 -0.0620 -0.8443
  305MPD2    H5 4598   0.684   4.257  13.461 -1.1129 -0.8628 -2.2497
  305MPD2    N1 4599   0.791   4.510  13.872  0.4602  0.2755 -0.7335
  305MPD2    H7 4600   0.783   4.575  13.949  1.3456  0.2009 -0.5849
  306TMC3    C1 4601   0.926   4.407  14.044  0.1021 -0.2101 -0.4347
  306TMC3    C2 4602   0.984   4.292  14.088  0.6478  0.3688 -0.8928
  306TMC3    C3 4603   0.972   4.257  14.217  0.3370  0.2300 -0.1776
  306TMC3    C4 4604   0.879   4.503  14.133 -0.0078 -1.0170  0.3730
  306TMC3    C5 4605   0.883   4.465  14.266 -0.0931 -0.3956  0.2504
  306TMC3    C6 4606   0.915   4.340  14.311 -0.2417 -0.4995 -0.0865
  306TMC3     C 4607   0.865   4.401  13.914 -0.0581 -0.0070  0.8440
  306TMC3     O 4608   0.874   4.296  13.864  0.4335  0.1856 -0.4457
  306TMC3     H 4609   1.033   4.226  14.018 -0.6338 -0.1619 -1.2994
  306TMC3    H1 4610   0.817   4.589  14.110  0.3713 -0.2021  2.3417
  306TMC3    H2 4611   0.901   4.319  14.417  0.7998  0.2793  0.2034
  306TMC3    C7 4612   0.793   4.534  14.352 -0.0231 -0.3873  0.0057
  306TMC3    C8 4613   0.953   4.110  14.234  0.3275  0.4011  0.9854
  306TMC3    O1 4614   0.682   4.565  14.307  0.0788 -0.4508 -0.6244
  306TMC3    O2 4615   1.012   4.042  14.154 -0.3205 -0.3567 -0.3082
  307MPD2     C 4616   3.339   2.656  17.457 -0.0333 -0.1080 -0.3146
  307MPD2    C1 4617   3.260   2.710  17.556 -0.3423  0.2958 -0.0319
  307MPD2    C2 4618   3.228   2.637  17.669  0.1656 -0.4718  0.2690
  307MPD2    C3 4619   3.248   2.501  17.681 -0.1902 -0.9639  0.1615
  307MPD2    C4 4620   3.327   2.452  17.576  0.3031 -0.2514 -0.0169
  307MPD2    C5 4621   3.365   2.523  17.466  0.5658  0.1422  0.5121
  307MPD2     H 4622   3.174   2.687   0.046  0.3730 -0.5961  0.4907
  307MPD2    H1 4623   3.352   2.347  17.572  0.1000 -0.2260 -1.8369
  307MPD2    H2 4624   3.377   2.712  17.372 -0.3299 -1.0129 -1.0452
  307MPD2    H3 4625   3.424   2.468  17.394 -1.7427 -1.4565 -0.1634
  307MPD2     N 4626   3.226   2.429   0.098 -1.3192  0.4446 -0.1788
  307MPD2    H5 4627   3.184   2.479   0.175  0.0574  1.1729  0.1013
  307MPD2    N1 4628   3.220   2.843  17.565 -0.1320  0.0511  0.4277
  307MPD2    H7 4629   3.162   2.866  17.645 -2.5531  0.0333 -1.3481
  308TMC3    C1 4630   2.981   2.193   0.320 -0.4964  0.1855 -0.3697
  308TMC3    C2 4631   2.983   2.291   0.415  0.2770 -0.5739  0.6681
  308TMC3    C3 4632   3.100   2.373   0.422 -0.1633  0.4459 -0.1423
  308TMC3    C4 4633   3.090   2.171   0.241  0.6118  0.3045  0.2569
  308TMC3    C5 4634   3.205   2.246   0.251 -0.1635 -0.4804  0.7040
  308TMC3    C6 4635   3.209   2.342   0.352  0.4603 -0.1348  0.3735
  308TMC3     C 4636   2.860   2.119   0.291 -0.5394  0.4904 -0.1179
  308TMC3     O 4637   2.867   2.004   0.250 -0.4223 -0.8328 -0.3545
  308TMC3     H 4638   2.909   2.296   0.495  0.7340 -3.3847  1.2695
  308TMC3    H1 4639   3.072   2.110   0.153 -0.1605 -0.4917  0.9619
  308TMC3    H2 4640   3.302   2.396   0.364  0.3329 -0.1290  1.2958
  308TMC3    C7 4641   3.253   2.289   0.120 -0.4257 -0.4661  0.1629
  308TMC3    C8 4642   3.110   2.458   0.536  0.1744 -0.7210 -0.4546
  308TMC3    O1 4643   3.301   2.202   0.049 -0.6476 -0.3556  0.0142
  308TMC3    O2 4644   3.216   2.481   0.593 -0.1071 -0.9261  0.0708
  309MPD2     C 4645   2.303   2.691  16.858  0.1249  0.1901 -1.2992
  309MPD2    C1 4646   2.238   2.753  16.752 -0.1384  0.3282  0.5280
  309MPD2    C2 4647   2.127   2.819  16.775  0.5016 -1.2942  0.1551
  309MPD2    C3 4648   2.082   2.839  16.902  0.2699 -0.5009 -0.4662
  309MPD2    C4 4649   2.160   2.796  17.004  0.4279  0.4739  0.1781
  309MPD2    C5 4650   2.273   2.724  16.982  0.6660  0.6316 -1.0780
  309MPD2     H 4651   2.076   2.864  16.691 -2.3343 -0.7514  2.1874
  309MPD2    H1 4652   2.139   2.819  17.107 -2.7608 -2.3643  0.1632
  309MPD2    H2 4653   2.390   2.630  16.837  2.4675  2.2421  2.4708
  309MPD2    H3 4654   2.335   2.680  17.059  1.5473  0.2197 -2.0319
  309MPD2     N 4655   1.964   2.903  16.942  0.2977  0.7332 -0.1913
  309MPD2    H5 4656   1.947   2.914  17.042 -0.1199 -0.3000 -0.1537
  309MPD2    N1 4657   2.264   2.723  16.610  0.7058 -0.1097 -0.1285
  309MPD2    H7 4658   2.193   2.744  16.541  0.5280  2.2417  0.7906
  310TMC3    C1 4659   2.373   2.646  16.429  0.1480  0.2871  0.0737
  310TMC3    C2 4660   2.309   2.736  16.350 -0.5807 -0.4055 -0.3263
  310TMC3    C3 4661   2.326   2.733  16.215  0.0498  0.3224 -0.2743
  310TMC3    C4 4662   2.450   2.548  16.369 -0.7352 -0.1349  0.0134
  310TMC3    C5 4663   2.476   2.567  16.237  0.4996 -0.3956 -0.1929
  310TMC3    C6 4664   2.417   2.653  16.156  0.1545 -0.0372  0.5920
  310TMC3     C 4665   2.381   2.662  16.566  0.0894 -0.2823  0.2145
  310TMC3     O 4666   2.489   2.636  16.617  0.6596  0.5666 -1.0420
  310TMC3     H 4667   2.254   2.814  16.401  0.4637  0.0080  0.1691
  310TMC3    H1 4668   2.507   2.474  16.425 -1.2981 -0.4854  0.1254
  310TMC3    H2 4669   2.427   2.647  16.049  1.0631 -0.1157  0.6863
  310TMC3    C7 4670   2.574   2.482  16.179  1.1725 -0.4185 -0.5521
  310TMC3    C8 4671   2.254   2.820  16.121  0.5472  0.6559 -0.4969
  310TMC3    O1 4672   2.591   2.378  16.240 -0.1975  0.3980 -0.0328
  310TMC3    O2 4673   2.297   2.821  16.006  0.2515 -0.2533 -0.0572
  311MPD2     C 4674   4.515   3.691  12.475  0.4851 -0.0946 -0.3727
  311MPD2    C1 4675   4.508   3.827  12.510 -0.6024  1.0078  0.5401
  311MPD2    C2 4676   4.397   3.863  12.585  0.1925  0.1954 -0.4632
  311MPD2    C3 4677   4.298   3.773  12.628  0.1871  0.3510 -0.2468
  311MPD2    C4 4678   4.307   3.641  12.581 -0.8629  0.7616  0.9452
  311MPD2    C5 4679   4.418   3.601  12.512 -0.0630 -1.1483 -0.1418
  311MPD2     H 4680   4.395   3.966  12.618 -0.3852  0.1447 -0.3345
  311MPD2    H1 4681   4.239   3.559  12.600  2.5365 -2.0414  1.1332
  311MPD2    H2 4682   4.598   3.649  12.419  0.2325 -0.4535 -0.4798
  311MPD2    H3 4683   4.421   3.497  12.479  0.6533 -1.9448  2.3880
  311MPD2     N 4684   4.193   3.825  12.705 -0.0095  0.1211 -0.2511
  311MPD2    H5 4685   4.205   3.920  12.739 -1.2281  0.9367 -2.1530
  311MPD2    N1 4686   4.598   3.928  12.470  0.3323 -0.0468 -0.3930
  311MPD2    H7 4687   4.578   4.023  12.500 -1.1445 -1.2803  2.5460
  312TMC3    C1 4688   3.987   3.839  12.815  0.2244  0.6311 -0.0373
  312TMC3    C2 4689   3.854   3.804  12.809  0.3479 -0.1732 -1.1866
  312TMC3    C3 4690   3.766   3.906  12.837  0.0661  0.2573  0.6353
  312TMC3    C4 4691   4.025   3.968  12.845 -0.4936  0.1286 -0.3046
  312TMC3    C5 4692   3.929   4.063  12.866 -0.5196  1.1839  0.2783
  312TMC3    C6 4693   3.797   4.030  12.865 -0.0071  0.0539  0.0012
  312TMC3     C 4694   4.081   3.759  12.747 -0.8029 -0.2608  0.8993
  312TMC3     O 4695   4.046   3.647  12.708 -0.9311  0.5029 -0.3858
  312TMC3     H 4696   3.823   3.709  12.767 -1.2597 -0.2267  0.1094
  312TMC3    H1 4697   4.128   3.998  12.861 -0.6374  0.0908  0.6891
  312TMC3    H2 4698   3.721   4.102  12.893  2.0217  1.7684  1.1104
  312TMC3    C7 4699   3.961   4.199  12.886  0.0752  0.7614  0.0847
  312TMC3    C8 4700   3.628   3.883  12.801 -0.0441 -0.5309 -0.0255
  312TMC3    O1 4701   3.879   4.278  12.842  0.1368  0.1756  0.1485
  312TMC3    O2 4702   3.591   3.766  12.819  0.7511  1.1277 -0.2408
  313MPD2     C 4703   4.262   2.937  10.644 -0.3157  0.7251 -0.1259
  313MPD2    C1 4704   4.211   2.995  10.532 -0.0992  0.8289  0.0999
  313MPD2    C2 4705   4.229   2.933  10.410 -0.2618  0.3369  0.3083
  313MPD2    C3 4706   4.302   2.819  10.397 -0.1960 -0.3775 -0.2895
  313MPD2    C4 4707   4.366   2.766  10.504 -0.1110  0.5885 -0.5747
  313MPD2    C5 4708   4.344   2.819  10.627  0.1290  0.3816 -0.0029
  313MPD2     H 4709   4.176   2.981  10.329 -3.1237 -2.2371  0.6357
  313MPD2    H1 4710   4.428   2.677  10.497  2.3474  2.3720 -1.4858
  313MPD2    H2 4711   4.249   2.972  10.746  0.1040  0.1595  0.1171
  313MPD2    H3 4712   4.373   2.755  10.709 -0.0095 -1.9219 -1.7770
  313MPD2     N 4713   4.301   2.759  10.269 -0.0600 -0.0671  0.3539
  313MPD2    H5 4714   4.249   2.801  10.193 -1.3025  0.5781  1.5728
  313MPD2    N1 4715   4.131   3.114  10.533  0.2501  0.5808  0.0415
  313MPD2    H7 4716   4.096   3.132  10.439  0.3319 -0.6158 -0.2168
  314TMC3    C1 4717   4.006   3.299  10.613  0.0156 -0.2287  0.2231
  314TMC3    C2 4718   3.957   3.375  10.717  0.0634  0.0468  0.6042
  314TMC3    C3 4719   3.874   3.478  10.693 -0.3220  0.5008 -0.7310
  314TMC3    C4 4720   3.964   3.324  10.483 -0.4242  0.1324 -0.0693
  314TMC3    C5 4721   3.869   3.419  10.470  0.4972  0.6558 -0.4365
  314TMC3    C6 4722   3.814   3.494  10.571  0.1271 -0.0831 -0.3865
  314TMC3     C 4723   4.102   3.193  10.640  0.3907 -0.4841 -0.0180
  314TMC3     O 4724   4.127   3.171  10.759 -0.3454 -0.3838 -0.2165
  314TMC3     H 4725   3.987   3.345  10.818  1.0194  3.0465  1.1989
  314TMC3    H1 4726   4.008   3.280  10.394 -2.2239 -1.9632  0.0860
  314TMC3    H2 4727   3.749   3.579  10.552 -0.2174 -0.5733 -1.4280
  314TMC3    C7 4728   3.834   3.445  10.338  0.3468  0.1220 -0.3248
  314TMC3    C8 4729   3.900   3.595  10.766 -0.0870  0.5201 -0.3402
  314TMC3    O1 4730   3.928   3.453  10.261 -0.4141 -0.6238  0.4228
  314TMC3    O2 4731   3.899   3.699  10.704  0.0980  0.2161 -0.1311
  315MPD2     C 4732   3.742   2.470  17.025  0.0498  0.2730 -0.4039
  315MPD2    C1 4733   3.747   2.456  17.164 -0.5136  0.4784 -0.1846
  315MPD2    C2 4734   3.704   2.561  17.240 -0.3609 -0.7272 -1.2813
  315MPD2    C3 4735   3.663   2.679  17.192 -1.5171 -0.3691 -0.9868
  315MPD2    C4 4736   3.659   2.691  17.057 -0.7059 -0.1477  0.4613
  315MPD2    C5 4737   3.700   2.588  16.974  0.5118  1.2415  0.3265
  315MPD2     H 4738   3.703   2.543  17.347  1.6649  1.5042 -0.8743
  315MPD2    H1 4739   3.602   2.767  17.006  0.9499  0.3608 -0.6202
  315MPD2    H2 4740   3.768   2.389  16.959 -0.6742  0.4874 -0.9530
  315MPD2    H3 4741   3.697   2.604  16.867 -0.0505 -1.1550 -0.0118
  315MPD2     N 4742   3.645   2.786  17.286 -0.1320 -0.2271 -0.5441
  315MPD2    H5 4743   3.678   2.765  17.379  0.7918  0.6923 -0.6625
  315MPD2    N1 4744   3.789   2.335  17.226 -0.8725 -0.1686 -0.0979
  315MPD2    H7 4745   3.757   2.328  17.322 -3.3269 -0.7955 -0.9761
  316TMC3    C1 4746   3.582   3.005  17.372 -0.6919 -0.6908 -0.3612
  316TMC3    C2 4747   3.589   2.969  17.506  0.3678  0.4726  0.1122
  316TMC3    C3 4748   3.562   3.076  17.597  0.0897 -0.0316 -0.4733
  316TMC3    C4 4749   3.588   3.135  17.324 -0.0657 -0.0433  0.4698
  316TMC3    C5 4750   3.578   3.238  17.426 -0.3670 -0.2340  0.3518
  316TMC3    C6 4751   3.561   3.208  17.557 -0.4278  0.5318 -0.6443
  316TMC3     C 4752   3.596   2.911  17.256 -0.1005  0.2217 -0.4839
  316TMC3     O 4753   3.548   2.944  17.149  0.3145 -0.3738 -0.1198
  316TMC3     H 4754   3.560   2.867  17.527 -0.0349  0.2136 -1.7578
  316TMC3    H1 4755   3.604   3.150  17.218  2.3057 -0.4260  0.7556
  316TMC3    H2 4756   3.577   3.284  17.633 -1.1327  0.5257 -0.4911
  316TMC3    C7 4757   3.625   3.373  17.390 -0.1154 -0.4459 -0.2523
  316TMC3    C8 4758   3.620   3.064   0.030  0.2466 -0.1576  0.6231
  316TMC3    O1 4759   3.657   3.447  17.486 -0.7171  0.4926  0.3592
  316TMC3    O2 4760   3.563   3.118   0.127 -0.7479  0.5346  0.0743
  317MPD2     C 4761   0.692   0.802  12.307 -0.6525 -0.4627 -0.7781
  317MPD2    C1 4762   0.804   0.734  12.264  0.3105 -0.8019  0.9160
  317MPD2    C2 4763   0.864   0.633  12.342 -0.3567  0.3733 -0.5706
  317MPD2    C3 4764   0.816   0.611  12.470 -0.0231  0.8669 -0.0207
  317MPD2    C4 4765   0.709   0.682  12.520 -0.1260  0.2820 -0.1949
  317MPD2    C5 4766   0.651   0.780  12.437 -0.0510  0.2384  0.4046
  317MPD2     H 4767   0.951   0.579  12.306 -2.1128 -2.2493 -0.8894
  317MPD2    H1 4768   0.654   0.673  12.614 -0.3300 -1.2531 -0.4632
  317MPD2    H2 4769   0.651   0.888  12.255 -0.2400  0.2043 -0.0055
  317MPD2    H3 4770   0.576   0.841  12.485 -1.9862 -1.0005 -1.0399
  317MPD2     N 4771   0.885   0.512  12.547  0.1834 -0.7469 -0.7223
  317MPD2    H5 4772   0.976   0.478  12.519  0.0348 -3.4076  2.0575
  317MPD2    N1 4773   0.849   0.747  12.133 -0.5582 -0.2479  0.3521
  317MPD2    H7 4774   0.927   0.687  12.109 -0.3530  0.6142 -1.1967
  318TMC3    C1 4775   0.938   0.421  12.755 -0.1488 -0.4395  0.2876
  318TMC3    C2 4776   0.873   0.351  12.853 -0.5122 -0.2516  0.5873
  318TMC3    C3 4777   0.911   0.371  12.980 -0.2200 -1.0498  0.2947
  318TMC3    C4 4778   1.045   0.500  12.790  1.1111  0.3376 -0.1285
  318TMC3    C5 4779   1.093   0.503  12.918 -0.1870 -0.3038 -0.6447
  318TMC3    C6 4780   1.021   0.443  13.017  0.0305 -0.0979  0.1861
  318TMC3     C 4781   0.844   0.494  12.680 -0.1767 -0.6471 -0.0778
  318TMC3     O 4782   0.736   0.496  12.736  0.3763  0.1803 -0.6849
  318TMC3     H 4783   0.796   0.283  12.818 -0.8263 -0.6759  2.1215
  318TMC3    H1 4784   1.089   0.563  12.714  1.4947 -0.5851 -0.6702
  318TMC3    H2 4785   1.041   0.467  13.121 -0.5808 -1.6974  0.6772
  318TMC3    C7 4786   1.194   0.605  12.945 -0.0308  0.0343 -0.3271
  318TMC3    C8 4787   0.816   0.353  13.082 -0.0408 -0.0290 -0.0697
  318TMC3    O1 4788   1.191   0.704  12.865 -0.0103  0.1488 -0.5487
  318TMC3    O2 4789   0.850   0.347  13.200 -0.4456  0.6499  0.1429
  319MPD2     C 4790   1.880   2.478  16.717 -0.2410 -0.0499  0.5637
  319MPD2    C1 4791   1.858   2.344  16.697  0.3675 -0.1686  0.1239
  319MPD2    C2 4792   1.744   2.305  16.636 -0.0163 -0.3535  0.0365
  319MPD2    C3 4793   1.659   2.396  16.577  0.5718 -0.5898  0.1874
  319MPD2    C4 4794   1.684   2.527  16.599  0.2540  0.1048 -0.3670
  319MPD2    C5 4795   1.796   2.568  16.663 -0.0403  0.1731 -0.3789
  319MPD2     H 4796   1.733   2.199  16.619  1.6699 -0.7034  1.1751
  319MPD2    H1 4797   1.609   2.602  16.575  0.4698  0.1961 -0.7567
  319MPD2    H2 4798   1.965   2.509  16.776  0.0848 -0.9369  0.5668
  319MPD2    H3 4799   1.809   2.675  16.679 -0.5593  0.0431  0.8695
  319MPD2     N 4800   1.542   2.363  16.505  0.2270  0.1789  0.4878
  319MPD2    H5 4801   1.488   2.440  16.466 -1.5172  0.2649  3.0608
  319MPD2    N1 4802   1.943   2.243  16.757 -0.1253  0.4696 -0.2177
  319MPD2    H7 4803   1.907   2.150  16.772 -1.8578  1.2154  0.2631
  320TMC3    C1 4804   1.394   2.218  16.383  0.2650  0.2296 -1.0417
  320TMC3    C2 4805   1.371   2.319  16.288 -0.5238 -0.3145 -0.6965
  320TMC3    C3 4806   1.282   2.278  16.188  0.2080 -0.0055  0.2535
  320TMC3    C4 4807   1.333   2.097  16.388  0.0942  0.2244  0.1582
  320TMC3    C5 4808   1.232   2.076  16.300  0.2473 -0.3052 -0.5052
  320TMC3    C6 4809   1.204   2.164  16.198  0.1738  0.4821 -0.1360
  320TMC3     C 4810   1.508   2.229  16.480 -0.1427  0.5410  0.4109
  320TMC3     O 4811   1.558   2.123  16.517 -0.4778  0.0641  0.2452
  320TMC3     H 4812   1.435   2.406  16.276  1.3302 -1.6425 -0.4029
  320TMC3    H1 4813   1.362   2.031  16.469 -0.0454 -1.3241 -1.0492
  320TMC3    H2 4814   1.131   2.149  16.119 -1.9648  2.5488  1.4408
  320TMC3    C7 4815   1.186   1.937  16.272  0.3086 -0.1619  0.1407
  320TMC3    C8 4816   1.242   2.386  16.103 -0.9616  0.1147  0.1335
  320TMC3    O1 4817   1.088   1.923  16.197  0.1016  0.6001 -0.1212
  320TMC3    O2 4818   1.294   2.494  16.129 -0.2515 -0.0116  0.1048
  321TMC3    C1 4819   2.137   2.161  16.880  0.6564  0.0729 -0.8088
  321TMC3    C2 4820   2.067   2.036  16.888  0.4151  0.8876 -0.5989
  321TMC3    C3 4821   2.110   1.955  16.997 -0.1439 -0.9539  0.0996
  321TMC3    C4 4822   2.240   2.192  16.960 -0.1227 -0.5823  0.2679
  321TMC3    C5 4823   2.272   2.118  17.066 -0.3457 -0.2674 -0.0716
  321TMC3    C6 4824   2.198   2.005  17.090 -0.1478  0.0621 -0.4799
  321TMC3     C 4825   2.073   2.274  16.811 -0.1480 -0.0217  0.4579
  321TMC3     O 4826   2.141   2.373  16.802  0.2106  0.2479  0.1855
  321TMC3     H 4827   2.003   2.004  16.806 -0.1251 -2.1627  1.0282
  321TMC3    H1 4828   2.289   2.288  16.948 -0.5530 -0.4203 -0.1912
  321TMC3    H2 4829   2.236   1.944  17.171  3.1994  1.6212 -0.9173
  321TMC3    C7 4830   2.412   2.102  17.093 -0.3351  0.1757  0.5865
  321TMC3    C8 4831   2.134   1.821  16.962  0.3736 -0.1353  0.1760
  321TMC3    O1 4832   2.431   1.979  17.095  0.2112 -0.3034 -0.0416
  321TMC3    O2 4833   2.038   1.758  16.919  0.6097  0.2131  0.1447
  322MPD2     C 4834   0.790   3.751  13.153 -0.4188 -0.0375 -0.4598
  322MPD2    C1 4835   0.740   3.718  13.280 -0.8764 -0.7796  0.7005
  322MPD2    C2 4836   0.702   3.587  13.295  0.5683 -0.2852 -0.2909
  322MPD2    C3 4837   0.714   3.487  13.197 -0.6703  0.1804 -0.4206
  322MPD2    C4 4838   0.769   3.523  13.074  0.0552  0.0745  0.9938
  322MPD2    C5 4839   0.813   3.655  13.054  0.0866  0.2274 -0.1247
  322MPD2     H 4840   0.673   3.560  13.396  3.2419 -0.1156  0.5214
  322MPD2    H1 4841   0.790   3.451  12.996  0.7583  0.1319  1.1235
  322MPD2    H2 4842   0.826   3.852  13.137  0.9488 -0.7413 -1.7671
  322MPD2    H3 4843   0.866   3.676  12.962 -2.0113  2.4886 -0.8203
  322MPD2     N 4844   0.664   3.359  13.220  0.3538 -0.1811  0.4313
  322MPD2    H5 4845   0.600   3.338  13.295 -0.2474 -0.7178 -0.2306
  322MPD2    N1 4846   0.728   3.824  13.376 -0.8470 -0.4804 -0.4258
  322MPD2    H7 4847   0.794   3.901  13.370  0.0501 -1.1543  1.0349
  323TMC3    C1 4848   0.693   3.896  13.601 -0.3145 -0.8586  0.0480
  323TMC3    C2 4849   0.805   3.979  13.574 -0.9610  0.1580  1.0567
  323TMC3    C3 4850   0.878   4.018  13.683  0.3833 -0.3988  0.7416
  323TMC3    C4 4851   0.675   3.837  13.725 -0.7238 -0.3721  0.8950
  323TMC3    C5 4852   0.750   3.892  13.829 -0.1333  0.1878 -0.0075
  323TMC3    C6 4853   0.855   3.978  13.809 -0.8255 -0.1570 -0.0414
  323TMC3     C 4854   0.659   3.806  13.492  0.5648  0.0469  0.2573
  323TMC3     O 4855   0.566   3.729  13.524 -0.7163  0.4007  0.1736
  323TMC3     H 4856   0.818   4.028  13.478  1.9374  0.9567  1.8385
  323TMC3    H1 4857   0.613   3.750  13.741 -0.7497 -0.4505  0.3731
  323TMC3    H2 4858   0.919   3.997  13.894 -1.9430 -1.8552  1.1888
  323TMC3    C7 4859   0.784   3.792  13.924 -0.0610 -0.8768  0.1873
  323TMC3    C8 4860   1.013   4.047  13.650 -0.4819  0.3895  0.6664
  323TMC3    O1 4861   0.900   3.762  13.937  1.1136 -0.5276  0.4800
  323TMC3    O2 4862   1.067   3.991  13.553 -0.2202  0.1688 -0.3494
  324MPD2     C 4863   2.431   0.107  13.688  0.1926 -0.4381  0.1006
  324MPD2    C1 4864   2.409   0.224  13.755 -0.4412  0.5872 -0.1625
  324MPD2    C2 4865   2.274   0.259  13.772  0.7938 -0.2166  0.0316
  324MPD2    C3 4866   2.175   0.180  13.719  0.0517  0.2482 -0.3882
  324MPD2    C4 4867   2.210   0.069  13.645  0.3297 -0.3737  0.6458
  324MPD2    C5 4868   2.337   0.035  13.622 -0.1484 -0.4154  0.1853
  324MPD2     H 4869   2.246   0.337  13.841  1.3998  0.5162 -0.5626
  324MPD2    H1 4870   2.137   0.003  13.599 -0.1772  0.8553 -0.3063
  324MPD2    H2 4871   2.533   0.073  13.672  1.2840  2.7174  0.2603
  324MPD2    H3 4872   2.365   4.671  13.566  3.2123  0.9883 -0.3828
  324MPD2     N 4873   2.039   0.211  13.742  0.8783 -0.2567  0.1405
  324MPD2    H5 4874   1.976   0.145  13.697  2.2313  0.3111 -2.6265
  324MPD2    N1 4875   2.508   0.311  13.812 -0.3666  0.1771 -0.0577
  324MPD2    H7 4876   2.474   0.391  13.864  0.3948 -1.0507  2.3408
  325TMC3    C1 4877   1.847   0.311  13.815 -0.1245  0.2356  0.8743
  325TMC3    C2 4878   1.778   0.197  13.808 -0.0946 -0.0008 -0.5691
  325TMC3    C3 4879   1.650   0.187  13.844 -0.8521  0.1229  0.2099
  325TMC3    C4 4880   1.786   0.422  13.868 -0.0767 -0.2277 -0.1550
  325TMC3    C5 4881   1.659   0.409  13.900 -0.5743 -0.6624  0.3268
  325TMC3    C6 4882   1.583   0.298  13.883 -0.7036  0.3146  1.0812
  325TMC3     C 4883   1.988   0.317  13.807  0.4398  0.0740 -0.1981
  325TMC3     O 4884   2.043   0.403  13.875  0.0348 -0.5666  0.2947
  325TMC3     H 4885   1.821   0.101  13.782  0.1051 -0.1454  0.2978
  325TMC3    H1 4886   1.841   0.514  13.884  0.3594 -0.9489  2.4993
  325TMC3    H2 4887   1.475   0.306  13.896 -1.0732  1.5074 -2.7988
  325TMC3    C7 4888   1.611   0.525  13.972  0.1786  0.5246  0.2937
  325TMC3    C8 4889   1.580   0.077  13.788  0.1654 -0.2311  0.2482
  325TMC3    O1 4890   1.687   0.621  13.981  0.1303 -0.3054 -0.4447
  325TMC3    O2 4891   1.628   0.007  13.698 -0.1297 -0.1957 -0.1532
  326MPD2     C 4892   3.606   0.642  10.933 -0.1725 -0.0963 -0.2137
  326MPD2    C1 4893   3.572   0.679  10.800 -0.0805 -0.7734 -0.0632
  326MPD2    C2 4894   3.642   0.774  10.731 -0.2640 -0.0339  0.3748
  326MPD2    C3 4895   3.747   0.847  10.791 -0.0422  0.1241  0.4257
  326MPD2    C4 4896   3.778   0.822  10.922  0.6293 -0.7527 -0.4378
  326MPD2    C5 4897   3.711   0.718  10.986 -0.2904  0.0496 -0.1851
  326MPD2     H 4898   3.614   0.780  10.627 -0.3598  0.7880  0.4481
  326MPD2    H1 4899   3.851   0.878  10.979 -1.3345  1.2893  0.0442
  326MPD2    H2 4900   3.542   0.583  10.997 -0.0050 -1.9862 -1.7987
  326MPD2    H3 4901   3.729   0.697  11.091  0.7104  1.5243 -0.0763
  326MPD2     N 4902   3.828   0.954  10.735 -0.2701  0.3918  0.3530
  326MPD2    H5 4903   3.902   0.991  10.795  1.6594 -0.5529 -1.4773
  326MPD2    N1 4904   3.458   0.624  10.738  0.8161  0.2011  0.3094
  326MPD2    H7 4905   3.403   0.680  10.674 -0.1476 -3.1498 -1.8142
  327TMC3    C1 4906   3.287   0.476  10.694 -0.1518  0.0406  0.0810
  327TMC3    C2 4907   3.205   0.582  10.657 -0.1425  0.9050 -0.0626
  327TMC3    C3 4908   3.169   0.579  10.530  0.4723 -0.2353 -0.3826
  327TMC3    C4 4909   3.323   0.372  10.613  0.1961  0.0415 -0.1519
  327TMC3    C5 4910   3.281   0.380  10.484 -0.1882  0.2920  0.4014
  327TMC3    C6 4911   3.188   0.476  10.451 -1.0849  0.7101  0.6222
  327TMC3     C 4912   3.402   0.508  10.778 -0.0574 -0.2123 -0.3574
  327TMC3     O 4913   3.461   0.411  10.830  0.3684 -0.1403 -0.0649
  327TMC3     H 4914   3.206   0.678  10.709 -0.7719  0.4533  0.7712
  327TMC3    H1 4915   3.390   0.296  10.649  1.5578  1.4548  0.3051
  327TMC3    H2 4916   3.158   0.471  10.347 -1.0664 -0.7836  0.6989
  327TMC3    C7 4917   3.400   0.384  10.399  0.1756 -0.0196 -0.0576
  327TMC3    C8 4918   3.123   0.701  10.463 -0.8111  1.2774 -0.5247
  327TMC3    O1 4919   3.386   0.396  10.279  0.4362 -0.6668 -0.6463
  327TMC3    O2 4920   3.167   0.726  10.348 -0.3915 -0.0602 -0.0453
  328MPD2     C 4921   0.569   0.786  16.960 -0.2721  0.3353 -0.8980
  328MPD2    C1 4922   0.689   0.826  16.918  0.1623  0.1515 -0.0035
  328MPD2    C2 4923   0.718   0.965  16.902  0.4056 -0.3985 -0.1713
  328MPD2    C3 4924   0.621   1.061  16.923 -0.1851 -0.0055 -0.1254
  328MPD2    C4 4925   0.497   1.009  16.964  0.3902  0.1466 -0.1135
  328MPD2    C5 4926   0.471   0.878  16.991  0.3495  0.3896  0.0492
  328MPD2     H 4927   0.810   1.002  16.858 -0.0138  1.5837  0.5974
  328MPD2    H1 4928   0.418   1.074  17.000  1.3058 -0.2915  2.6586
  328MPD2    H2 4929   0.555   0.681  16.982  0.1997 -0.0946 -2.6658
  328MPD2    H3 4930   0.375   0.851  17.033 -1.0705  1.0894 -2.7700
  328MPD2     N 4931   0.618   1.198  16.899 -0.0549 -0.3811 -0.0437
  328MPD2    H5 4932   0.534   1.253  16.905 -0.9902 -1.5549 -2.1931
  328MPD2    N1 4933   0.782   0.722  16.882 -0.3174  0.3087  0.2008
  328MPD2    H7 4934   0.759   0.631  16.921  0.4091  1.0856  2.3892
  329TMC3    C1 4935   0.990   0.636  16.803  0.4651 -1.0029 -0.1401
  329TMC3    C2 4936   0.994   0.545  16.904 -0.1934  0.0696 -0.1732
  329TMC3    C3 4937   1.059   0.426  16.882  1.2284  1.2020 -0.3031
  329TMC3    C4 4938   1.063   0.632  16.693  0.8948  0.2148  0.9083
  329TMC3    C5 4939   1.106   0.502  16.668  0.7854 -0.0633  0.3704
  329TMC3    C6 4940   1.109   0.397  16.761  0.5872  0.3984 -0.0546
  329TMC3     C 4941   0.893   0.744  16.806 -0.1284  0.3329  0.4655
  329TMC3     O 4942   0.903   0.827  16.717  0.2912  0.1824  0.3380
  329TMC3     H 4943   0.937   0.580  16.989  1.2304 -1.3043  1.3351
  329TMC3    H1 4944   1.069   0.705  16.614 -0.4289  0.6884  1.2504
  329TMC3    H2 4945   1.161   0.302  16.749 -1.4227 -0.6515 -0.5497
  329TMC3    C7 4946   1.133   0.470  16.526  0.1786  0.3126 -0.1040
  329TMC3    C8 4947   1.072   0.324  16.988 -0.2008 -0.5616  0.7937
  329TMC3    O1 4948   1.158   0.567  16.450 -0.8698 -0.4439 -0.6262
  329TMC3    O2 4949   1.105   0.209  16.953  0.4463 -0.0500  0.3702
  330TMC3    C1 4950   4.080   0.242   9.261 -0.1171 -0.2119  0.3414
  330TMC3    C2 4951   4.032   0.198   9.139 -0.8854  0.0288 -0.0038
  330TMC3    C3 4952   4.028   0.066   9.116  0.0633 -0.8027 -0.3768
  330TMC3    C4 4953   4.125   0.153   9.359  0.3153  0.0984  0.0515
  330TMC3    C5 4954   4.105   0.018   9.337  0.1622  0.4063 -0.1507
  330TMC3    C6 4955   4.067   4.698   9.216  0.6836 -0.1620  0.0117
  330TMC3     C 4956   4.090   0.388   9.293  0.1747 -0.2821 -0.2093
  330TMC3     O 4957   4.152   0.426   9.394 -0.1243 -0.3701 -0.6645
  330TMC3     H 4958   4.004   0.272   9.064  0.8345  1.0068  0.3198
  330TMC3    H1 4959   4.172   0.181   9.452  0.3160  2.1318 -0.5679
  330TMC3    H2 4960   4.055   4.590   9.209 -0.7206 -0.0099 -0.0093
  330TMC3    C7 4961   4.101   4.646   9.442 -0.5504 -1.0149 -0.3412
  330TMC3    C8 4962   3.941   0.027   9.006 -0.1439  0.0392  0.4673
  330TMC3    O1 4963   4.013   4.567   9.447 -0.7006 -0.9006 -0.0402
  330TMC3    O2 4964   3.894   0.116   8.937  0.3169 -0.0744  0.3890
  331MPD2     C 4965   1.275   4.074  12.472 -0.3715 -0.5024 -0.3234
  331MPD2    C1 4966   1.401   4.122  12.471 -0.7910 -0.1749  0.2170
  331MPD2    C2 4967   1.506   4.031  12.473 -0.1994  0.5227 -0.1393
  331MPD2    C3 4968   1.479   3.898  12.479 -0.9494  0.3323 -0.2225
  331MPD2    C4 4969   1.351   3.854  12.498  0.3736  0.8323  1.0367
  331MPD2    C5 4970   1.249   3.946  12.503 -0.4654 -1.0040 -0.3408
  331MPD2     H 4971   1.610   4.061  12.468  0.1754 -1.0134 -1.6580
  331MPD2    H1 4972   1.324   3.750  12.517 -0.5844  0.2975 -3.2054
  331MPD2    H2 4973   1.192   4.142  12.456  0.7249  0.3718 -2.2586
  331MPD2    H3 4974   1.147   3.913  12.515 -0.9723 -0.7325 -3.8975
  331MPD2     N 4975   1.592   3.823  12.457 -0.0302 -0.0072  0.6514
  331MPD2    H5 4976   1.680   3.873  12.448  0.1187  0.1228  2.7545
  331MPD2    N1 4977   1.424   4.261  12.456 -0.0234  0.0145 -0.1155
  331MPD2    H7 4978   1.349   4.316  12.415  1.8217  2.6795  0.0948
  332TMC3    C1 4979   1.734   3.639  12.408 -0.2794  0.0255  0.0582
  332TMC3    C2 4980   1.812   3.732  12.346  0.4585  0.5987 -0.2834
  332TMC3    C3 4981   1.944   3.726  12.366  0.0647 -0.1337 -0.3168
  332TMC3    C4 4982   1.780   3.533  12.483  0.9211 -0.1323  0.2597
  332TMC3    C5 4983   1.917   3.538  12.500 -0.5846 -1.0481  0.9441
  332TMC3    C6 4984   1.997   3.632  12.446  0.3353  0.0162 -0.5034
  332TMC3     C 4985   1.604   3.683  12.445 -0.1834 -0.6197  0.0317
  332TMC3     O 4986   1.517   3.600  12.474 -0.0858 -0.2605 -0.3234
  332TMC3     H 4987   1.765   3.805  12.281 -2.7107  0.4591  1.8896
  332TMC3    H1 4988   1.718   3.451  12.517  0.9959 -0.6002 -0.7440
  332TMC3    H2 4989   2.105   3.626  12.456  0.5158 -0.2372 -2.5569
  332TMC3    C7 4990   1.978   3.414  12.554 -0.5101  0.1915  0.7187
  332TMC3    C8 4991   2.033   3.789  12.272  0.3029  0.1238  0.2253
  332TMC3    O1 4992   1.907   3.316  12.544 -0.3147  0.0497 -0.4674
  332TMC3    O2 4993   2.143   3.833  12.316 -0.7927 -0.1788  0.1366
  333MPD2     C 4994   2.231   3.798  11.437 -0.0791  0.4977  0.8452
  333MPD2    C1 4995   2.263   3.696  11.343 -0.1159  0.7449  0.0655
  333MPD2    C2 4996   2.171   3.595  11.320 -1.1316 -0.2423 -0.4851
  333MPD2    C3 4997   2.062   3.579  11.402  0.1652  0.5366 -0.1190
  333MPD2    C4 4998   2.050   3.667  11.510 -0.5568  0.7816 -0.7573
  333MPD2    C5 4999   2.131   3.778  11.523  0.3234  0.1756 -0.1632
  333MPD2     H 5000   2.196   3.513  11.255  0.6354  0.9114 -1.2872
  333MPD2    H1 5001   1.976   3.662  11.589 -0.5845  1.6945 -0.7184
  333MPD2    H2 5002   2.293   3.886  11.455 -0.0840  0.5273  0.7155
  333MPD2    H3 5003   2.104   3.844  11.605 -1.0341 -0.8433  0.1939
  333MPD2     N 5004   1.976   3.468  11.385  0.1947 -0.1805  0.0117
  333MPD2    H5 5005   1.990   3.410  11.303 -0.7231  0.0412 -0.3016
  333MPD2    N1 5006   2.381   3.718  11.271 -0.3093  0.4334 -0.1923
  333MPD2    H7 5007   2.427   3.807  11.287 -0.9693  0.6485  0.5362
  334TMC3    C1 5008   2.532   3.705  11.118  0.3287  0.4332 -0.0940
  334TMC3    C2 5009   2.624   3.619  11.062 -0.2287 -0.6961 -0.0427
  334TMC3    C3 5010   2.714   3.670  10.970 -0.9627  0.0512 -0.7065
  334TMC3    C4 5011   2.549   3.842  11.111  0.3099 -0.6330  0.1166
  334TMC3    C5 5012   2.642   3.890  11.022  0.5603 -0.8798 -0.6704
  334TMC3    C6 5013   2.720   3.807  10.943 -0.4723 -0.3846  0.0572
  334TMC3     C 5014   2.420   3.648  11.162 -0.6674 -0.8318  0.0003
  334TMC3     O 5015   2.377   3.540  11.124  0.2664 -0.0396  0.1309
  334TMC3     H 5016   2.620   3.511  11.069 -0.7854 -0.5139  2.5386
  334TMC3    H1 5017   2.493   3.917  11.167  1.1552 -0.8150  1.1942
  334TMC3    H2 5018   2.791   3.853  10.877  0.3653  0.3203  1.4568
  334TMC3    C7 5019   2.629   4.025  10.986 -0.3239 -0.2965  0.1958
  334TMC3    C8 5020   2.802   3.575  10.898  0.1484 -0.2943 -0.0163
  334TMC3    O1 5021   2.552   4.088  11.055  0.6635  0.1237 -0.1700
  334TMC3    O2 5022   2.795   3.461  10.940  0.1059 -0.4343 -0.0638
  335TMC3    C1 5023   1.622   1.228  16.954  0.0930  0.5663 -0.1543
  335TMC3    C2 5024   1.606   1.148  16.845  0.0221  0.8514 -0.2112
  335TMC3    C3 5025   1.716   1.126  16.763 -0.2853 -0.3946 -0.1426
  335TMC3    C4 5026   1.746   1.273  16.986  0.2724 -0.0554 -0.2272
  335TMC3    C5 5027   1.852   1.258  16.905 -0.4212  0.3514 -0.3355
  335TMC3    C6 5028   1.838   1.181  16.791 -0.3176  0.3638  0.2083
  335TMC3     C 5029   1.514   1.246  17.060 -0.2835  0.0808 -0.4499
  335TMC3     O 5030   1.554   1.304  17.161  0.0351  0.0341 -0.7459
  335TMC3     H 5031   1.507   1.116  16.817  0.7202 -2.1952  0.7983
  335TMC3    H1 5032   1.752   1.306  17.089 -2.5979 -1.4586  0.3884
  335TMC3    H2 5033   1.924   1.150  16.733 -1.6029 -2.4558 -0.1941
  335TMC3    C7 5034   1.979   1.253  16.971 -0.5988  0.2323  0.4262
  335TMC3    C8 5035   1.703   1.011  16.670 -0.5908  0.5820 -1.3218
  335TMC3    O1 5036   2.069   1.194  16.915 -0.0272 -0.4484 -0.6769
  335TMC3    O2 5037   1.785   1.005  16.575  0.0117 -0.0486 -0.3831
  336MPD2     C 5038   1.426   3.613  16.080 -0.0620  0.1499  0.4593
  336MPD2    C1 5039   1.415   3.513  15.983 -0.0136 -0.2305 -0.3322
  336MPD2    C2 5040   1.426   3.375  16.014  0.1229  0.0162 -0.1459
  336MPD2    C3 5041   1.444   3.337  16.148 -0.3178  0.1503 -0.1608
  336MPD2    C4 5042   1.444   3.434  16.240  0.6522 -0.2912  0.0040
  336MPD2    C5 5043   1.429   3.567  16.206 -0.5682 -0.2402 -0.2962
  336MPD2     H 5044   1.400   3.311  15.930 -0.7432 -1.3973  1.2149
  336MPD2    H1 5045   1.451   3.405  16.345  0.8573 -0.9492 -0.1916
  336MPD2    H2 5046   1.415   3.716  16.049 -0.6413 -0.5331 -1.6482
  336MPD2    H3 5047   1.424   3.639  16.288  1.3115 -0.5908  0.1199
  336MPD2     N 5048   1.458   3.206  16.196  0.2798 -0.3095 -0.2621
  336MPD2    H5 5049   1.470   3.188  16.295 -0.1176  0.0024 -0.1565
  336MPD2    N1 5050   1.385   3.559  15.853 -0.0345 -0.1495  0.7150
  336MPD2    H7 5051   1.405   3.494  15.778  1.2018  0.1411  0.8051
  337TMC3    C1 5052   1.337   3.703  15.668 -0.0947  0.4130  0.1783
  337TMC3    C2 5053   1.219   3.746  15.613  0.4577 -0.8523 -0.2188
  337TMC3    C3 5054   1.202   3.727  15.481 -0.7382  0.7009 -0.0152
  337TMC3    C4 5055   1.440   3.664  15.599 -0.3697 -0.1499  0.1012
  337TMC3    C5 5056   1.415   3.629  15.464 -0.1221  0.2312  0.5090
  337TMC3    C6 5057   1.296   3.662  15.404  0.0831  0.0422  0.9076
  337TMC3     C 5058   1.339   3.687  15.814  0.5124 -0.1355 -0.1316
  337TMC3     O 5059   1.269   3.765  15.880 -0.1303  0.7408 -0.7221
  337TMC3     H 5060   1.141   3.785  15.678  1.1529 -1.1345  0.7822
  337TMC3    H1 5061   1.531   3.635  15.650  0.3664  0.9413 -0.5989
  337TMC3    H2 5062   1.283   3.665  15.296  0.8188  2.1142  0.8788
  337TMC3    C7 5063   1.528   3.638  15.367 -0.0953 -0.4572 -0.0056
  337TMC3    C8 5064   1.096   3.809  15.418  0.2615 -0.2650  1.3790
  337TMC3    O1 5065   1.498   3.621  15.248 -0.0526 -0.0890 -0.0636
  337TMC3    O2 5066   1.060   3.911  15.477 -0.2372  0.5178  0.6036
  338MPD2     C 5067   2.211   2.911   0.656 -0.1664 -0.5833  0.8517
  338MPD2    C1 5068   2.131   2.960   0.554 -0.8394  0.4356 -0.1058
  338MPD2    C2 5069   2.064   3.085   0.572  0.2258  0.0695  0.0289
  338MPD2    C3 5070   2.070   3.155   0.695  0.1652 -0.3940 -0.9407
  338MPD2    C4 5071   2.164   3.115   0.789  0.1753 -0.8258  0.7271
  338MPD2    C5 5072   2.226   2.993   0.766 -0.7921  0.3256  0.4702
  338MPD2     H 5073   1.986   3.117   0.504 -2.3910  0.2990  3.1751
  338MPD2    H1 5074   2.174   3.157   0.888  0.1628  1.5168 -0.2724
  338MPD2    H2 5075   2.274   2.823   0.654 -0.4850 -0.7753 -0.5769
  338MPD2    H3 5076   2.300   2.956   0.837 -1.9426 -1.5973  0.6711
  338MPD2     N 5077   1.978   3.260   0.716 -0.1239 -0.4592  0.0835
  338MPD2    H5 5078   1.928   3.287   0.633 -0.3262  1.4398  0.8179
  338MPD2    N1 5079   2.103   2.896   0.434  0.1780  0.4888 -0.2070
  338MPD2    H7 5080   2.048   2.943   0.364  1.6254  1.3103 -0.7897
  339TMC3    C1 5081   1.848   3.425   0.819 -0.1326  0.0088  0.1279
  339TMC3    C2 5082   1.772   3.437   0.933 -0.4177  0.6613 -0.7737
  339TMC3    C3 5083   1.640   3.463   0.921  0.0186 -0.3330  0.0262
  339TMC3    C4 5084   1.788   3.440   0.699 -0.0544 -0.6138 -0.4402
  339TMC3    C5 5085   1.649   3.456   0.689 -0.8168  0.3183  0.5770
  339TMC3    C6 5086   1.576   3.476   0.804 -1.0617  0.2596 -0.0319
  339TMC3     C 5087   1.954   3.331   0.833 -0.6602 -0.6667 -0.6223
  339TMC3     O 5088   2.010   3.322   0.948  0.1453  0.1726  0.3880
  339TMC3     H 5089   1.822   3.437   1.029  0.1683  1.1787 -1.0808
  339TMC3    H1 5090   1.849   3.450   0.610 -1.7708 -0.8493 -1.6257
  339TMC3    H2 5091   1.474   3.513   0.806 -1.8526 -1.9365  0.3356
  339TMC3    C7 5092   1.595   3.468   0.554  0.3475  0.6214 -0.2918
  339TMC3    C8 5093   1.582   3.522   1.040 -0.8712 -0.6398  0.5116
  339TMC3    O1 5094   1.672   3.476   0.460  0.2208  0.2127  0.2230
  339TMC3    O2 5095   1.657   3.593   1.105 -0.0357 -0.2520 -0.2115
  340MPD2     C 5096   2.171   0.385   9.568  0.6226  0.5837  0.1271
  340MPD2    C1 5097   2.197   0.258   9.622 -0.1412 -0.7676 -0.1642
  340MPD2    C2 5098   2.282   0.253   9.730 -0.3343 -0.5957 -0.5726
  340MPD2    C3 5099   2.342   0.368   9.782 -0.1975  0.0485 -0.0662
  340MPD2    C4 5100   2.306   0.492   9.732  0.4943  0.5717  0.5048
  340MPD2    C5 5101   2.226   0.501   9.623  0.1671 -0.0874  0.5054
  340MPD2     H 5102   2.317   0.158   9.770  0.0534  0.6612  2.0555
  340MPD2    H1 5103   2.342   0.581   9.783  0.8938  1.5494 -1.4948
  340MPD2    H2 5104   2.097   0.394   9.490 -0.0586  2.1625  0.9641
  340MPD2    H3 5105   2.203   0.599   9.584 -1.0159 -0.6627 -0.2414
  340MPD2     N 5106   2.429   0.370   9.889  0.4399  0.3306  0.4965
  340MPD2    H5 5107   2.481   0.456   9.908  0.4658  0.5310 -0.4699
  340MPD2    N1 5108   2.123   0.150   9.561 -1.2081 -0.5912 -0.6977
  340MPD2    H7 5109   2.070   0.172   9.478 -0.9652 -1.3116 -1.0423
  341TMC3    C1 5110   2.028   4.664   9.531 -0.0375 -0.6494  0.1414
  341TMC3    C2 5111   1.984   4.547   9.586  0.3861  0.1229 -0.5830
  341TMC3    C3 5112   1.911   4.461   9.510 -0.0771  0.1626  0.5216
  341TMC3    C4 5113   2.026   4.680   9.398 -0.2538  0.2243 -0.0703
  341TMC3    C5 5114   1.956   4.594   9.318 -1.1812 -0.6808  0.3796
  341TMC3    C6 5115   1.892   4.489   9.378  0.3540 -0.7179  0.6763
  341TMC3     C 5116   2.101   0.032   9.620  0.3625 -0.7921 -0.4652
  341TMC3     O 5117   2.136   4.718   9.730 -0.6397 -0.4363 -0.1625
  341TMC3     H 5118   2.003   4.526   9.690  1.4836 -1.2981 -1.0724
  341TMC3    H1 5119   2.099   0.025   9.359  2.1281 -1.3340  1.5361
  341TMC3    H2 5120   1.838   4.417   9.318  1.5325 -0.4481 -0.7128
  341TMC3    C7 5121   2.020   4.569   9.188  0.0794  0.3953 -0.0388
  341TMC3    C8 5122   1.844   4.354   9.578 -0.0103 -0.4626  0.1536
  341TMC3    O1 5123   2.142   4.576   9.191  0.8310 -0.3087  0.1733
  341TMC3    O2 5124   1.905   4.317   9.679  0.6976  0.0548  0.6610
  342MPD2     C 5125   4.331   4.175  17.378  0.8341  0.4488  0.3668
  342MPD2    C1 5126   4.417   4.222  17.282  0.3888 -0.3849 -0.3145
  342MPD2    C2 5127   4.466   4.355  17.289  0.5652  0.2181  0.2147
  342MPD2    C3 5128   4.410   4.444  17.389  0.2990 -0.6532 -0.0741
  342MPD2    C4 5129   4.309   4.391  17.482 -0.0804  0.1441  0.2271
  342MPD2    C5 5130   4.280   4.254  17.484 -0.5544 -0.1101  0.0087
  342MPD2     H 5131   4.544   4.384  17.220 -1.9367  2.7773 -1.5693
  342MPD2    H1 5132   4.275   4.449  17.568  0.9796  0.5054  0.4079
  342MPD2    H2 5133   4.308   4.071  17.397  1.0877  0.1786 -0.8624
  342MPD2    H3 5134   4.225   4.213  17.568 -2.1384 -1.8682 -1.9081
  342MPD2     N 5135   4.449   4.574  17.414 -0.3899  0.4322 -0.2200
  342MPD2    H5 5136   4.409   4.635  17.484  0.0638 -1.5339  1.7314
  342MPD2    N1 5137   4.459   4.138  17.175 -0.3692 -0.2874 -0.1066
  342MPD2    H7 5138   4.519   4.172  17.100  1.3836 -1.9149  0.5470
  343TMC3    C1 5139   4.471   3.935  17.054 -0.5673 -0.1983  0.4351
  343TMC3    C2 5140   4.603   3.957  17.006  0.3695  0.1669  0.5373
  343TMC3    C3 5141   4.655   3.864  16.914 -1.1209 -0.1354 -0.4708
  343TMC3    C4 5142   4.404   3.828  17.013 -0.1671  0.1100 -0.7567
  343TMC3    C5 5143   4.459   3.738  16.930 -0.7068 -0.0676  0.1462
  343TMC3    C6 5144   4.577   3.759  16.865 -0.4545  0.6101 -0.0236
  343TMC3     C 5145   4.417   4.004  17.168 -0.0249  0.2274  0.3267
  343TMC3     O 5146   4.379   3.928  17.255 -0.0856 -0.5361  0.2542
  343TMC3     H 5147   4.666   4.034  17.048  1.2577 -0.4387  0.3059
  343TMC3    H1 5148   4.301   3.808  17.041 -0.0741  0.7626  0.0358
  343TMC3    H2 5149   4.611   3.680  16.799 -0.1962  2.7307 -2.4079
  343TMC3    C7 5150   4.444   3.601  16.973  0.8367 -0.0753 -0.9092
  343TMC3    C8 5151   0.069   3.875  16.887  0.0372 -0.5288 -0.2378
  343TMC3    O1 5152   4.457   3.510  16.889 -0.2374  0.3298 -0.0054
  343TMC3    O2 5153   0.130   3.975  16.925  0.4646 -0.3984  0.0633
  344MPD2     C 5154   0.886   3.087  10.814 -0.3704 -0.7867 -0.8967
  344MPD2    C1 5155   0.885   2.992  10.717  0.0199  0.4634  0.2194
  344MPD2    C2 5156   0.934   3.027  10.589  0.1357 -0.1014 -0.0185
  344MPD2    C3 5157   0.992   3.154  10.571  0.0175  0.2453 -0.1385
  344MPD2    C4 5158   1.013   3.234  10.678  0.4369  0.0067  0.6481
  344MPD2    C5 5159   0.956   3.201  10.794 -0.6381 -0.2613 -0.1857
  344MPD2     H 5160   0.922   2.968  10.499 -0.0913  1.4988 -1.0378
  344MPD2    H1 5161   1.074   3.323  10.687 -0.9086  0.9889  0.0543
  344MPD2    H2 5162   0.846   3.072  10.914  0.3772 -0.3278 -0.5244
  344MPD2    H3 5163   0.979   3.272  10.873  0.6180 -0.6236 -0.2248
  344MPD2     N 5164   1.048   3.202  10.453  0.3410  0.2272 -0.5626
  344MPD2    H5 5165   1.097   3.291  10.452  0.8261 -0.0310  0.0236
  344MPD2    N1 5166   0.843   2.859  10.740  0.6836  0.2734  0.1955
  344MPD2    H7 5167   0.836   2.798  10.660 -1.7124  0.0900  0.5460
  345TMC3    C1 5168   1.159   3.219  10.271 -0.7708 -0.5717 -0.1869
  345TMC3    C2 5169   1.272   3.249  10.347  0.0578  0.6746 -0.5369
  345TMC3    C3 5170   1.358   3.340  10.295 -0.3211  0.4208 -0.1795
  345TMC3    C4 5171   1.129   3.287  10.154 -0.3237  0.6226 -0.1487
  345TMC3    C5 5172   1.228   3.367  10.105 -0.5961  0.1666  0.2850
  345TMC3    C6 5173   1.341   3.405  10.170  0.7765  0.2554 -0.5176
  345TMC3     C 5174   1.056   3.146  10.331  0.1356 -0.0509  0.5214
  345TMC3     O 5175   1.034   3.031  10.289 -0.1069  0.2245  0.2232
  345TMC3     H 5176   1.295   3.190  10.435  0.2296  0.5620 -0.6567
  345TMC3    H1 5177   1.026   3.269  10.122 -0.3842  1.3240 -0.3501
  345TMC3    H2 5178   1.406   3.477  10.121  1.3258  0.9154  1.1776
  345TMC3    C7 5179   1.180   3.466  10.020  0.3857  0.3891  1.1999
  345TMC3    C8 5180   1.427   3.425  10.392 -0.7522 -0.1470 -0.4193
  345TMC3    O1 5181   1.186   3.573  10.083  0.1615 -0.0395 -0.3936
  345TMC3    O2 5182   1.378   3.413  10.507  0.6013  0.8793  0.2225
  346MPD2     C 5183   0.593   0.211  13.615 -0.3522  0.2273 -0.0217
  346MPD2    C1 5184   0.710   0.203  13.678  0.7153  0.1249 -0.5006
  346MPD2    C2 5185   0.727   0.273  13.799  0.0646 -0.1480 -0.0096
  346MPD2    C3 5186   0.629   0.344  13.862  0.1234  0.7417  0.0155
  346MPD2    C4 5187   0.506   0.352  13.797 -0.6903  0.0720 -0.6159
  346MPD2    C5 5188   0.485   0.275  13.682  0.5226 -0.3829 -0.2333
  346MPD2     H 5189   0.829   0.278  13.834 -0.4950 -1.1258  1.7678
  346MPD2    H1 5190   0.418   0.404  13.833 -0.5087 -0.6886  0.9036
  346MPD2    H2 5191   0.572   0.152  13.526  0.3431  0.3976 -0.2998
  346MPD2    H3 5192   0.389   0.281  13.632 -0.6700 -0.0991  2.0939
  346MPD2     N 5193   0.662   0.414  13.979 -0.4868 -0.6628  0.0986
  346MPD2    H5 5194   0.761   0.414  14.004 -0.3799 -0.4203 -0.3166
  346MPD2    N1 5195   0.830   0.142  13.625  0.5123 -0.5762 -0.0544
  346MPD2    H7 5196   0.915   0.159  13.677 -0.1245 -0.8058  1.0623
  347TMC3    C1 5197   0.659   0.561  14.154  0.3274  0.1885  0.0013
  347TMC3    C2 5198   0.795   0.561  14.144 -0.2173 -0.2370 -0.3061
  347TMC3    C3 5199   0.875   0.594  14.249 -0.3688  0.0971  0.1667
  347TMC3    C4 5200   0.596   0.610  14.272  0.0694 -0.1161  0.0495
  347TMC3    C5 5201   0.677   0.637  14.380 -0.3369 -0.5004  0.0720
  347TMC3    C6 5202   0.818   0.632  14.368 -0.0025 -0.7202 -0.5738
  347TMC3     C 5203   0.576   0.492  14.058 -0.0211  0.5011  0.0985
  347TMC3     O 5204   0.457   0.518  14.050 -0.0858 -0.7317 -0.5750
  347TMC3     H 5205   0.846   0.532  14.053 -1.1055  1.0783 -1.2085
  347TMC3    H1 5206   0.488   0.609  14.275  0.0918 -2.8326  0.6114
  347TMC3    H2 5207   0.881   0.643  14.455 -2.4062 -1.0069  1.2064
  347TMC3    C7 5208   0.615   0.634  14.505  0.4129  0.0832  0.4804
  347TMC3    C8 5209   1.014   0.563  14.232  0.1398 -0.1684 -0.0880
  347TMC3    O1 5210   0.497   0.609  14.506  0.5017  0.3352  0.1277
  347TMC3    O2 5211   1.037   0.466  14.162 -0.1183 -0.4614 -0.1880
  348MPD2     C 5212   4.488   4.642  11.876  0.3191  0.3378 -0.5794
  348MPD2    C1 5213   4.586   4.588  11.790 -0.7512 -0.7433 -0.3356
  348MPD2    C2 5214   4.570   4.601  11.651 -0.1209  0.0636 -0.1355
  348MPD2    C3 5215   4.454   4.652  11.592  0.3530  0.2455  0.3250
  348MPD2    C4 5216   4.354   4.695  11.682 -0.0028 -0.3329  0.7910
  348MPD2    C5 5217   4.375   4.700  11.821  0.2930  0.0765 -0.6656
  348MPD2     H 5218   4.656   4.584  11.587  0.9264 -2.6524  2.0054
  348MPD2    H1 5219   4.253   4.721  11.653 -0.0696 -2.1011 -0.6113
  348MPD2    H2 5220   4.498   4.636  11.984  2.1788 -0.6950 -0.8056
  348MPD2    H3 5221   4.289   0.007  11.879 -0.4255 -0.3144 -1.5139
  348MPD2     N 5222   4.456   4.669  11.454 -0.4681 -0.2436 -0.0197
  348MPD2    H5 5223   4.545   4.654  11.408 -0.3959 -0.0402  0.0552
  348MPD2    N1 5224   4.698   4.519  11.838  0.0417 -0.4145  0.0937
  348MPD2    H7 5225   0.043   4.500  11.767  0.9104  1.5660  0.4045
  349TMC3    C1 5226   0.097   4.400  11.985 -0.2627 -0.2858  0.2685
  349TMC3    C2 5227   0.088   4.267  12.011  0.5876 -0.4386  0.1376
  349TMC3    C3 5228   0.180   4.187  11.968 -0.1641  0.7013 -0.2132
  349TMC3    C4 5229   0.198   4.457  11.913 -0.0826  0.0947  0.6764
  349TMC3    C5 5230   0.301   4.370  11.880 -0.5405  0.1976 -0.1206
  349TMC3    C6 5231   0.292   4.232  11.905  0.0372  0.4074  0.6760
  349TMC3     C 5232   4.706   4.467  11.964  0.2746 -0.3067 -0.0847
  349TMC3     O 5233   4.618   4.448  12.049  0.1591 -0.9590  0.4988
  349TMC3     H 5234   4.720   4.228  12.052  0.8870 -1.5433 -0.2478
  349TMC3    H1 5235   0.208   4.562  11.891  0.3711 -0.4652 -1.8132
  349TMC3    H2 5236   0.382   4.173  11.894  0.3033  0.8226  0.6047
  349TMC3    C7 5237   0.428   4.418  11.840 -0.4599  1.0306  0.0172
  349TMC3    C8 5238   0.152   4.049  12.004 -0.0657  0.1097  0.1663
  349TMC3    O1 5239   0.522   4.365  11.902 -0.4304  0.3876 -0.1359
  349TMC3    O2 5240   0.065   4.028  12.090 -0.3882 -0.2112  0.4161
  350MPD2     C 5241   3.591   2.705   9.945 -0.4427  0.8692  0.3286
  350MPD2    C1 5242   3.651   2.589   9.896 -0.0335 -0.1966  0.9177
  350MPD2    C2 5243   3.785   2.583   9.864 -0.4122 -0.5160 -0.1953
  350MPD2    C3 5244   3.873   2.690   9.891 -0.0476  0.1447 -0.9675
  350MPD2    C4 5245   3.812   2.807   9.936  0.2207  0.8047 -0.1882
  350MPD2    C5 5246   3.675   2.814   9.955  0.1192  0.2985 -1.3191
  350MPD2     H 5247   3.828   2.493   9.822  0.7460  0.0893 -0.2968
  350MPD2    H1 5248   3.874   2.894   9.952 -1.0463  1.2907  2.0165
  350MPD2    H2 5249   3.486   2.724   9.964 -0.7342 -1.3440  0.9424
  350MPD2    H3 5250   3.637   2.910   9.989  0.7335 -0.4374  1.4660
  350MPD2     N 5251   4.005   2.660   9.868  0.1530 -0.8185 -0.1818
  350MPD2    H5 5252   4.024   2.566   9.834  1.0115 -0.8181  0.2841
  350MPD2    N1 5253   3.574   2.473   9.867 -0.0076 -0.4386  0.5594
  350MPD2    H7 5254   3.624   2.393   9.829  0.4264  0.6120 -1.0679
  351TMC3    C1 5255   3.383   2.322   9.904 -0.0646 -0.1688  0.5329
  351TMC3    C2 5256   3.478   2.225   9.887 -0.2168 -0.1028 -0.7591
  351TMC3    C3 5257   3.457   2.110   9.951 -0.1258 -0.4736 -0.2994
  351TMC3    C4 5258   3.270   2.305   9.978 -0.2501  0.5633 -0.3236
  351TMC3    C5 5259   3.254   2.186  10.043 -0.4942 -0.5708 -0.1568
  351TMC3    C6 5260   3.345   2.089  10.030 -0.0344  0.0202 -0.3312
  351TMC3     C 5261   3.430   2.459   9.885 -0.2826  0.5885 -0.6461
  351TMC3     O 5262   3.343   2.544   9.899 -0.0425 -0.7454 -0.2480
  351TMC3     H 5263   3.563   2.239   9.822  1.4475 -0.9375  1.2555
  351TMC3    H1 5264   3.197   2.385   9.979  0.3529  1.1693 -4.4203
  351TMC3    H2 5265   3.341   2.005  10.098 -0.2695  1.4880  1.4797
  351TMC3    C7 5266   3.120   2.173  10.092  0.3111 -0.0239  0.4701
  351TMC3    C8 5267   3.541   1.993   9.922  0.0135 -0.4329 -0.3434
  351TMC3    O1 5268   3.045   2.265  10.102 -0.1912  0.1797  0.5652
  351TMC3    O2 5269   3.620   2.006   9.830 -0.3090 -0.8262  0.1499
  352MPD2     C 5270   2.440   0.825   0.446 -0.0818  0.1911  0.3699
  352MPD2    C1 5271   2.349   0.802   0.547  0.4133  0.5033  0.1374
  352MPD2    C2 5272   2.380   0.703   0.641  0.1747 -0.2925 -0.0150
  352MPD2    C3 5273   2.502   0.637   0.641  0.5981  0.0374 -0.8370
  352MPD2    C4 5274   2.595   0.666   0.544 -0.1894 -0.1760  0.9060
  352MPD2    C5 5275   2.564   0.765   0.450 -0.3246 -0.1263 -1.1973
  352MPD2     H 5276   2.299   0.689   0.712 -0.5958  0.4051 -0.7581
  352MPD2    H1 5277   2.694   0.622   0.534 -1.2335 -1.8849 -1.9454
  352MPD2    H2 5278   2.422   0.897   0.367 -0.9270  1.5296  1.7727
  352MPD2    H3 5279   2.640   0.784   0.376 -0.0144  1.4019 -0.4779
  352MPD2     N 5280   2.533   0.544   0.741 -0.3415 -0.3692 -0.5292
  352MPD2    H5 5281   2.613   0.485   0.719  1.0758  1.1186  0.6331
  352MPD2    N1 5282   2.221   0.866   0.537 -0.0379  0.1988 -0.6195
  352MPD2    H7 5283   2.207   0.932   0.462 -2.6489 -0.1460 -0.4375
  353TMC3    C1 5284   2.504   0.406   0.931  0.3634  0.8192  0.0010
  353TMC3    C2 5285   2.622   0.337   0.884 -0.1492 -0.3005 -0.1452
  353TMC3    C3 5286   2.629   0.204   0.920  0.1198  1.0938  0.4016
  353TMC3    C4 5287   2.392   0.341   0.987 -0.0566 -0.0423 -0.0887
  353TMC3    C5 5288   2.404   0.205   1.007 -0.9916  0.0009  0.1957
  353TMC3    C6 5289   2.516   0.142   0.965 -0.2268 -0.4363 -0.3553
  353TMC3     C 5290   2.467   0.524   0.861 -0.0938 -0.0165 -0.8850
  353TMC3     O 5291   2.386   0.602   0.902 -0.3549 -0.1441  0.9259
  353TMC3     H 5292   2.699   0.384   0.823  1.3237 -3.2175 -0.5464
  353TMC3    H1 5293   2.303   0.399   1.007  1.6578  1.8747  1.8908
  353TMC3    H2 5294   2.508   0.036   0.984  0.1364  0.0023  2.2299
  353TMC3    C7 5295   2.284   0.123   1.015 -0.2565 -0.5574  0.4293
  353TMC3    C8 5296   2.721   0.126   0.846  0.2278  0.4891 -0.3065
  353TMC3    O1 5297   2.285   4.722   1.028  0.2138  0.2130 -0.3351
  353TMC3    O2 5298   2.762   0.176   0.745  0.0781 -0.2495 -0.5235
  354TMC3    C1 5299   3.559   1.254  13.293  0.8279  0.2375 -0.1534
  354TMC3    C2 5300   3.649   1.355  13.281 -0.2797  0.3652 -0.1719
  354TMC3    C3 5301   3.740   1.347  13.178 -0.9158  0.4304  0.3864
  354TMC3    C4 5302   3.535   1.171  13.184  0.0307 -0.1719 -0.0620
  354TMC3    C5 5303   3.627   1.163  13.085  0.3019 -0.3022 -0.0963
  354TMC3    C6 5304   3.740   1.236  13.095 -0.0509 -0.6858  0.2801
  354TMC3     C 5305   3.499   1.233  13.425 -0.2143 -0.0099  0.1719
  354TMC3     O 5306   3.397   1.162  13.428  0.9853 -0.7976  0.5393
  354TMC3     H 5307   3.635   1.450  13.331 -1.0539  0.0162  0.2918
  354TMC3    H1 5308   3.455   1.099  13.194 -1.5618  1.8165  1.6365
  354TMC3    H2 5309   3.809   1.242  13.012 -1.4100  2.0455 -0.6768
  354TMC3    C7 5310   3.560   1.174  12.956  0.5683 -0.4668 -0.4485
  354TMC3    C8 5311   3.780   1.470  13.109  1.0843  0.9278 -0.2568
  354TMC3    O1 5312   3.445   1.222  12.961  0.4668  0.0984  0.0826
  354TMC3    O2 5313   3.695   1.557  13.093 -0.0495 -0.0364  0.0644
  355MPD2     C 5314   3.544   1.909  11.660  0.6122 -0.7671  1.0013
  355MPD2    C1 5315   3.625   1.864  11.563  0.3511  0.3007  0.2944
  355MPD2    C2 5316   3.760   1.852  11.586  0.5682  0.0002  0.1359
  355MPD2    C3 5317   3.815   1.877  11.709 -0.1095 -0.6138  0.5764
  355MPD2    C4 5318   3.730   1.931  11.808  0.3507 -0.1175  0.2799
  355MPD2    C5 5319   3.594   1.937  11.783  0.6620 -0.3267 -0.3036
  355MPD2     H 5320   3.828   1.846  11.502  0.4788  0.7767  0.0071
  355MPD2    H1 5321   3.753   1.950  11.912 -2.7203 -0.4637  1.0135
  355MPD2    H2 5322   3.438   1.914  11.639  0.9334 -0.2915 -0.5021
  355MPD2    H3 5323   3.528   1.957  11.867 -0.1000  2.6023 -1.5849
  355MPD2     N 5324   3.953   1.875  11.732 -0.0650 -0.8117 -0.0301
  355MPD2    H5 5325   3.988   1.900  11.824 -0.2379  0.1471 -0.2283
  355MPD2    N1 5326   3.566   1.857  11.436 -0.5270  0.2439  0.1394
  355MPD2    H7 5327   3.467   1.883  11.435 -1.0708 -1.8341  0.4732
  356TMC3    C1 5328   4.175   1.870  11.667 -0.4300 -0.0697 -0.0560
  356TMC3    C2 5329   4.233   1.909  11.559  0.1493  0.0677  0.0028
  356TMC3    C3 5330   4.319   2.019  11.561  0.9383  0.1087  0.9244
  356TMC3    C4 5331   4.192   1.930  11.785 -0.2295  0.2230 -0.5844
  356TMC3    C5 5332   4.274   2.035  11.787 -0.0451 -0.0594 -0.0148
  356TMC3    C6 5333   4.348   2.084  11.679  0.1752  0.5069  0.2696
  356TMC3     C 5334   4.044   1.821  11.640 -0.3238 -0.3084 -1.0897
  356TMC3     O 5335   4.032   1.752  11.541  0.4245  0.4214 -0.3107
  356TMC3     H 5336   4.208   1.859  11.466  1.9479  1.0577 -1.0161
  356TMC3    H1 5337   4.172   1.881  11.880  1.8072  3.0604  1.2925
  356TMC3    H2 5338   4.428   2.156  11.688  0.1045  0.5290  0.6965
  356TMC3    C7 5339   4.335   2.057  11.916  0.5591  0.0373 -0.3535
  356TMC3    C8 5340   4.361   2.069  11.434 -0.5081 -0.6033 -0.1743
  356TMC3    O1 5341   4.315   1.986  12.015 -0.1180  0.2705  0.7231
  356TMC3    O2 5342   4.316   2.030  11.326 -0.2902 -0.5707 -0.4573
  357MPD2     C 5343   2.402   2.800   1.099 -0.1973 -0.5717  0.2953
  357MPD2    C1 5344   2.433   2.705   1.006 -0.0507 -0.1804 -0.3086
  357MPD2    C2 5345   2.321   2.660   0.925  0.0563 -0.0034 -0.8524
  357MPD2    C3 5346   2.194   2.707   0.940  0.1615 -0.2399  0.1830
  357MPD2    C4 5347   2.176   2.810   1.029 -0.3602  0.5618 -0.1427
  357MPD2    C5 5348   2.276   2.852   1.107 -0.1900  0.1643  0.2032
  357MPD2     H 5349   2.338   2.593   0.842 -0.4761 -2.6471  1.1872
  357MPD2    H1 5350   2.084   2.864   1.044 -0.8972 -0.8332  1.5815
  357MPD2    H2 5351   2.482   2.848   1.155 -0.6386  0.9062 -0.3557
  357MPD2    H3 5352   2.258   2.930   1.180 -1.1864 -0.1154  0.2586
  357MPD2     N 5353   2.083   2.673   0.853  0.1191 -0.6065 -0.1854
  357MPD2    H5 5354   1.996   2.725   0.862 -0.6792 -1.8242 -0.8347
  357MPD2    N1 5355   2.565   2.651   0.996  0.0136  0.3068 -0.2213
  357MPD2    H7 5356   2.635   2.706   1.044 -3.1944  1.4377  3.1390
  358TMC3    C1 5357   2.750   2.504   0.940 -0.1400 -0.1033  0.3716
  358TMC3    C2 5358   2.806   2.409   0.853 -0.1224  0.1343 -0.2873
  358TMC3    C3 5359   2.928   2.350   0.881 -0.5990  0.4241 -0.2233
  358TMC3    C4 5360   2.799   2.523   1.065  0.3444 -0.2217  0.6691
  358TMC3    C5 5361   2.927   2.469   1.082 -0.0995 -0.0621 -0.3183
  358TMC3    C6 5362   2.991   2.382   0.994  0.0724 -0.9989 -0.1390
  358TMC3     C 5363   2.609   2.550   0.913  0.2460 -0.3108 -0.1818
  358TMC3     O 5364   2.549   2.488   0.829  0.3757  0.4139  0.9849
  358TMC3     H 5365   2.737   2.389   0.772 -1.7353  1.3862  0.7590
  358TMC3    H1 5366   2.757   2.594   1.136  1.1482 -1.6355  2.5638
  358TMC3    H2 5367   3.081   2.331   1.027 -0.3702 -1.6647  0.0236
  358TMC3    C7 5368   3.005   2.504   1.197  0.5405 -0.2582 -0.2942
  358TMC3    C8 5369   2.967   2.240   0.795  0.1335 -0.2095  0.0883
  358TMC3    O1 5370   3.128   2.509   1.178  0.1644  0.4590  0.1165
  358TMC3    O2 5371   2.887   2.190   0.723  0.1451  0.0102  0.3365
  359MPD2     C 5372   4.395   0.688  12.472  0.2054  0.2461 -0.3977
  359MPD2    C1 5373   4.295   0.724  12.377 -0.3692 -0.3380  0.1479
  359MPD2    C2 5374   4.163   0.737  12.421 -0.2429 -0.4452 -0.4534
  359MPD2    C3 5375   4.131   0.713  12.551  0.0393  0.2125  0.2434
  359MPD2    C4 5376   4.222   0.672  12.640  0.5265 -0.2326  0.0487
  359MPD2    C5 5377   4.355   0.657  12.600 -0.7580 -0.5650 -0.3063
  359MPD2     H 5378   4.077   0.760  12.358 -1.4146 -0.4773  1.1396
  359MPD2    H1 5379   4.202   0.644  12.743 -1.6951  1.2337  0.0066
  359MPD2    H2 5380   4.499   0.673  12.446 -0.2922 -0.5333 -1.9436
  359MPD2    H3 5381   4.430   0.633  12.674  0.1297  0.5262 -0.8481
  359MPD2     N 5382   4.003   0.722  12.596 -0.3019 -0.1103 -0.0866
  359MPD2    H5 5383   3.988   0.690  12.691  2.1360 -3.3849 -0.8152
  359MPD2    N1 5384   4.315   0.726  12.238 -0.2295 -0.4595  0.1845
  359MPD2    H7 5385   4.230   0.734  12.183 -0.0357  1.9032  0.2014
  360TMC3    C1 5386   4.417   0.744  12.028  0.5319 -0.0772  0.3924
  360TMC3    C2 5387   4.501   0.823  11.960 -0.2902  0.0336  0.4143
  360TMC3    C3 5388   4.476   0.832  11.828 -0.6187 -1.0567  0.4167
  360TMC3    C4 5389   4.312   0.682  11.976 -0.3942 -0.1093  0.0042
  360TMC3    C5 5390   4.289   0.698  11.846 -0.2152  0.3863  0.1580
  360TMC3    C6 5391   4.374   0.770  11.766  0.1033 -1.1829  0.1722
  360TMC3     C 5392   4.437   0.744  12.175 -0.8521  0.3874  0.1452
  360TMC3     O 5393   4.542   0.762  12.229 -0.0741  0.0074  0.4263
  360TMC3     H 5394   4.595   0.855  12.005 -0.6973  0.8745  0.6823
  360TMC3    H1 5395   4.248   0.611  12.028 -0.6240  1.1125  1.4044
  360TMC3    H2 5396   4.367   0.755  11.659 -0.6860  0.1424  0.0336
  360TMC3    C7 5397   4.224   0.575  11.788 -0.2077 -0.1751 -0.2666
  360TMC3    C8 5398   4.575   0.907  11.750  0.1302  0.1025 -0.7514
  360TMC3    O1 5399   4.221   0.474  11.857  0.0770  0.2625  0.2509
  360TMC3    O2 5400   4.640   0.985  11.816 -0.3373  0.3483  0.4408
  361MPD2     C 5401   0.695   4.502  16.637  0.3839  0.3380 -0.5478
  361MPD2    C1 5402   0.756   4.564  16.743  0.5807  0.0175 -0.6105
  361MPD2    C2 5403   0.878   4.516  16.778 -0.2289 -0.0887 -0.3730
  361MPD2    C3 5404   0.932   4.399  16.718 -0.0037  0.7860 -0.0107
  361MPD2    C4 5405   0.862   4.334  16.626 -1.0916 -0.2927 -0.2974
  361MPD2    C5 5406   0.744   4.388  16.585  0.9422  0.1604  0.3284
  361MPD2     H 5407   0.926   4.553  16.869 -0.3746 -0.5550 -0.1073
  361MPD2    H1 5408   0.895   4.238  16.590  0.2846 -0.4376  1.3346
  361MPD2    H2 5409   0.606   4.539  16.587 -0.0381 -1.6571 -1.2867
  361MPD2    H3 5410   0.684   4.334  16.512  0.3796  1.1701  0.0322
  361MPD2     N 5411   1.046   4.329  16.764  0.2818 -0.6282 -0.1633
  361MPD2    H5 5412   1.061   4.231  16.742 -1.8673 -0.9938  0.0778
  361MPD2    N1 5413   0.701   4.680  16.807  0.0589  0.1487  0.6924
  361MPD2    H7 5414   0.747   4.710  16.892  0.8169 -0.9359  0.6674
  362TMC3    C1 5415   0.577   0.145  16.854  0.9572 -0.9352  0.0024
  362TMC3    C2 5416   0.465   0.127  16.930  0.3129 -0.1441  0.6497
  362TMC3    C3 5417   0.372   0.222  16.937  0.0173 -0.4571 -0.4360
  362TMC3    C4 5418   0.602   0.263  16.793  0.2071 -0.1019 -0.8404
  362TMC3    C5 5419   0.505   0.359  16.806 -0.1739 -0.3122 -0.4673
  362TMC3    C6 5420   0.387   0.339  16.871 -0.4335 -0.2992  0.0875
  362TMC3     C 5421   0.606   0.039  16.764 -0.2904 -0.1476  0.4702
  362TMC3     O 5422   0.541   0.047  16.659 -0.0271 -0.0495  0.2674
  362TMC3     H 5423   0.443   0.030  16.971 -0.5571  0.1249  0.8176
  362TMC3    H1 5424   0.685   0.264  16.723  2.0310  1.1730  1.3311
  362TMC3    H2 5425   0.305   0.408  16.853 -0.8453 -1.0644 -0.9705
  362TMC3    C7 5426   0.508   0.470  16.708  0.6982 -0.4125 -0.1018
  362TMC3    C8 5427   0.244   0.183  16.988 -0.3640  0.0075 -0.6110
  362TMC3    O1 5428   0.406   0.534  16.702  0.1477  0.1564  0.3904
  362TMC3    O2 5429   0.218   0.062  16.968 -0.3004  0.6708 -0.3756
  363TMC3    C1 5430   3.919   1.863   8.884 -0.2952 -0.4256 -1.1761
  363TMC3    C2 5431   3.985   1.778   8.969 -0.5764  0.3934 -0.1570
  363TMC3    C3 5432   3.927   1.753   9.089  0.0936  0.3897  1.0901
  363TMC3    C4 5433   3.796   1.916   8.913  0.4663 -0.4848 -0.2506
  363TMC3    C5 5434   3.748   1.889   9.035  0.1287  0.1606 -0.1050
  363TMC3    C6 5435   3.805   1.808   9.121  0.0915  0.1981 -0.2411
  363TMC3     C 5436   3.976   1.895   8.753 -0.2268 -0.4768  0.4328
  363TMC3     O 5437   3.961   2.003   8.696  0.5488 -0.1307 -0.1353
  363TMC3     H 5438   4.090   1.762   8.947 -0.9447  0.9252 -2.2923
  363TMC3    H1 5439   3.741   1.971   8.838  0.7215 -1.6557 -1.2858
  363TMC3    H2 5440   3.764   1.788   9.220 -0.3805  2.4155  0.0020
  363TMC3    C7 5441   3.630   1.958   9.073  0.0102  0.6304 -0.3090
  363TMC3    C8 5442   3.986   1.658   9.186 -0.0010 -0.3147  0.4705
  363TMC3    O1 5443   3.611   2.073   9.026  0.5296 -0.5836  0.4014
  363TMC3    O2 5444   3.935   1.658   9.299  0.2745 -0.1579 -0.5056
  364MPD2     C 5445   2.891   1.158  10.527 -0.5230  0.4177  0.4290
  364MPD2    C1 5446   2.989   1.123  10.433 -0.4227  0.0136 -0.9414
  364MPD2    C2 5447   3.026   0.988  10.431  0.0534 -0.6417 -0.7514
  364MPD2    C3 5448   2.979   0.895  10.521  0.2086 -0.0996 -0.2579
  364MPD2    C4 5449   2.895   0.942  10.621  0.0752  0.1947 -0.5923
  364MPD2    C5 5450   2.850   1.071  10.629 -0.5137  0.3137 -0.4046
  364MPD2     H 5451   3.095   0.957  10.353  3.0785  0.5301  1.4744
  364MPD2    H1 5452   2.869   0.867  10.695  1.7782 -0.7453 -0.9301
  364MPD2    H2 5453   2.872   1.264  10.538  0.3380  0.3059  2.8183
  364MPD2    H3 5454   2.787   1.105  10.710 -0.5529  2.2375 -1.2331
  364MPD2     N 5455   3.027   0.764  10.544  0.3628  0.0876  0.4853
  364MPD2    H5 5456   2.984   0.713  10.620  2.1091 -1.3155  0.5335
  364MPD2    N1 5457   3.054   1.223  10.347 -0.4976  0.5404 -0.2539
  364MPD2    H7 5458   3.017   1.318  10.349  2.8894  1.9163 -3.1503
  365TMC3    C1 5459   3.235   1.322  10.225  0.2623 -0.3938  0.0960
  365TMC3    C2 5460   3.294   1.312  10.104 -0.4292  0.5641 -0.7011
  365TMC3    C3 5461   3.319   1.435  10.042  0.1927  0.0058 -0.5090
  365TMC3    C4 5462   3.220   1.440  10.296 -0.0791 -0.0986 -0.0928
  365TMC3    C5 5463   3.257   1.552  10.233  0.2733 -0.3215 -0.3324
  365TMC3    C6 5464   3.295   1.556  10.105  0.0522 -0.2810  0.4260
  365TMC3     C 5465   3.171   1.200  10.277 -0.2578 -0.0752 -0.1531
  365TMC3     O 5466   3.227   1.092  10.260 -0.1061  0.0822  0.2729
  365TMC3     H 5467   3.292   1.216  10.054 -2.5851  0.9728 -1.4048
  365TMC3    H1 5468   3.175   1.442  10.394 -0.6810  1.2306 -0.3892
  365TMC3    H2 5469   3.307   1.653  10.058  0.4796 -0.1720  0.7618
  365TMC3    C7 5470   3.224   1.680  10.292 -0.3421  0.0955 -0.7392
  365TMC3    C8 5471   3.342   1.436   9.900  0.3204  0.6722  0.2383
  365TMC3    O1 5472   3.242   1.773  10.219 -0.3382 -0.5593  0.1886
  365TMC3    O2 5473   3.321   1.541   9.840  0.1013  0.1256  0.4947
  366MPD2     C 5474   1.423   2.273  15.272 -0.5946 -0.2357 -0.5774
  366MPD2    C1 5475   1.388   2.383  15.200 -0.4100  0.1161 -0.1382
  366MPD2    C2 5476   1.484   2.446  15.127  0.2379 -0.9052 -0.5135
  366MPD2    C3 5477   1.616   2.411  15.149  0.1143  0.1140  0.6293
  366MPD2    C4 5478   1.654   2.296  15.214  0.4549 -0.1162 -0.1235
  366MPD2    C5 5479   1.550   2.228  15.277 -1.4736 -0.3846 -0.7096
  366MPD2     H 5480   1.459   2.537  15.073 -0.7923  0.6677  2.6531
  366MPD2    H1 5481   1.754   2.254  15.214  0.5441  0.1233  1.7911
  366MPD2    H2 5482   1.354   2.212  15.329  0.7339 -0.1628  1.1415
  366MPD2    H3 5483   1.567   2.134  15.329 -0.8880  0.8894  1.4201
  366MPD2     N 5484   1.719   2.497  15.097  0.5072  0.1552 -0.1678
  366MPD2    H5 5485   1.673   2.569  15.042 -1.9533 -1.0335  0.3164
  366MPD2    N1 5486   1.260   2.439  15.214 -0.2447 -0.1600 -0.2899
  366MPD2    H7 5487   1.244   2.515  15.148 -0.9296 -0.1827 -0.1481
  367TMC3    C1 5488   1.108   2.563  15.329 -0.2307  0.0870 -0.4987
  367TMC3    C2 5489   1.098   2.617  15.456  0.5192  0.4054  0.1139
  367TMC3    C3 5490   1.054   2.742  15.472  0.0490 -0.8018 -0.6373
  367TMC3    C4 5491   1.072   2.634  15.215 -0.3776  0.2831 -0.1945
  367TMC3    C5 5492   1.002   2.749  15.241 -0.0762  0.4988  0.0395
  367TMC3    C6 5493   0.990   2.800  15.367 -0.2108 -0.8204 -0.3284
  367TMC3     C 5494   1.193   2.449  15.330  0.3742 -0.1379  0.0037
  367TMC3     O 5495   1.201   2.382  15.432  0.0877  0.3237  0.0838
  367TMC3     H 5496   1.168   2.580  15.530  2.0129  1.2075 -0.8923
  367TMC3    H1 5497   1.072   2.583  15.119 -0.5849 -0.8037  0.3740
  367TMC3    H2 5498   0.922   2.884  15.377  0.9924  0.4808 -2.8243
  367TMC3    C7 5499   0.958   2.827  15.131 -0.5186 -0.4898  0.2106
  367TMC3    C8 5500   1.162   2.822  15.518 -0.3680  0.7829  0.2629
  367TMC3    O1 5501   0.877   2.916  15.156 -0.0224  0.0619  0.2090
  367TMC3    O2 5502   1.270   2.781  15.493 -0.2769 -0.0819 -0.0916
  368MPD2     C 5503   2.408   0.162  12.915 -0.1003 -0.4763 -0.6601
  368MPD2    C1 5504   2.328   0.216  12.820  0.6191  0.2237  0.3545
  368MPD2    C2 5505   2.385   0.299  12.724 -0.2027  0.1961  0.9240
  368MPD2    C3 5506   2.519   0.319  12.720  0.0178 -0.0780 -0.6809
  368MPD2    C4 5507   2.598   0.266  12.818 -0.9089 -0.1436 -0.5073
  368MPD2    C5 5508   2.538   0.198  12.922 -0.2229  0.2296 -0.7150
  368MPD2     H 5509   2.324   0.334  12.641  0.8730  0.5232  0.2711
  368MPD2    H1 5510   2.706   0.268  12.826 -1.0198  2.0265  0.5751
  368MPD2    H2 5511   2.368   0.109  13.001  0.7954  1.0081  0.6794
  368MPD2    H3 5512   2.595   0.165  13.008 -2.5071  0.3611  0.8329
  368MPD2     N 5513   2.582   0.396  12.626  0.0091 -0.2085  0.6312
  368MPD2    H5 5514   2.683   0.407  12.624 -0.2578  2.0547 -0.1702
  368MPD2    N1 5515   2.187   0.225  12.833  0.3983  0.6648  0.3656
  368MPD2    H7 5516   2.138   0.296  12.779 -0.8905  0.1434  0.8634
  369TMC3    C1 5517   1.969   0.198  12.914  0.8977 -0.0605 -0.0709
  369TMC3    C2 5518   1.935   0.329  12.904  0.6097 -0.9383 -0.0606
  369TMC3    C3 5519   1.803   0.356  12.884  0.2455  0.4454  0.3752
  369TMC3    C4 5520   1.881   0.091  12.910  0.6764  0.0952  0.0753
  369TMC3    C5 5521   1.751   0.129  12.894  0.8782  0.6835  0.0679
  369TMC3    C6 5522   1.709   0.255  12.877 -0.3844  0.2820 -0.6452
  369TMC3     C 5523   2.111   0.150  12.912  1.2686 -0.4317 -0.1884
  369TMC3     O 5524   2.135   0.053  12.975 -0.0981 -0.3457  0.5548
  369TMC3     H 5525   2.011   0.405  12.889 -0.0145 -0.0465  1.3449
  369TMC3    H1 5526   1.909   0.002  12.964  2.5857  1.2178  0.9294
  369TMC3    H2 5527   1.608   0.291  12.860 -0.0650  0.9144 -1.2392
  369TMC3    C7 5528   1.656   0.024  12.929 -0.2859  0.1002 -0.2305
  369TMC3    C8 5529   1.789   0.448  12.776 -0.0543 -0.1115  0.2777
  369TMC3    O1 5530   1.689   4.663  13.012 -0.4370 -0.3854 -0.2320
  369TMC3    O2 5531   1.773   0.398  12.665  0.2218  0.4339 -0.3460
  370TMC3    C1 5532   1.859   0.607  15.986 -0.1489 -0.2463  0.4723
  370TMC3    C2 5533   1.786   0.544  16.084 -0.5176  0.1565  0.2185
  370TMC3    C3 5534   1.727   0.422  16.046 -0.4523  0.3880  0.3123
  370TMC3    C4 5535   1.865   0.561  15.859 -0.1160  0.2720  0.4511
  370TMC3    C5 5536   1.814   0.435  15.832  0.1006 -0.5013 -0.6485
  370TMC3    C6 5537   1.742   0.363  15.920 -0.5130  0.3722  0.6336
  370TMC3     C 5538   1.980   0.669  16.034  0.3549 -0.4963 -0.2852
  370TMC3     O 5539   2.044   0.608  16.119  0.2530  0.5861  0.0545
  370TMC3     H 5540   1.777   0.592  16.180  2.6114  1.1628  0.0120
  370TMC3    H1 5541   1.933   0.603  15.786  2.0238  0.0234  2.3068
  370TMC3    H2 5542   1.690   0.269  15.903 -1.2110  0.7467  0.6870
  370TMC3    C7 5543   1.841   0.380  15.705 -0.1594  0.0422 -0.6989
  370TMC3    C8 5544   1.710   0.331  16.158 -0.7013 -0.1867  0.0404
  370TMC3    O1 5545   1.834   0.462  15.613 -0.5549 -0.3650 -0.2277
  370TMC3    O2 5546   1.665   0.219  16.135 -0.3246 -0.2816 -0.5322
  371TMC3    C1 5547   3.215   3.598  15.227 -0.1043  0.0639 -0.0291
  371TMC3    C2 5548   3.091   3.580  15.279 -0.0774 -0.6072 -0.3612
  371TMC3    C3 5549   3.011   3.691  15.276 -0.2544  0.3930 -0.5013
  371TMC3    C4 5550   3.268   3.722  15.200 -0.2492  0.0916  0.4005
  371TMC3    C5 5551   3.184   3.821  15.194  0.4519  0.4479 -0.2931
  371TMC3    C6 5552   3.051   3.813  15.235 -0.4802  0.7109 -0.1151
  371TMC3     C 5553   3.281   3.489  15.160 -0.3748  0.1589 -0.3378
  371TMC3     O 5554   3.362   3.518  15.072 -0.0475 -0.1883 -0.0639
  371TMC3     H 5555   3.050   3.490  15.324  0.6351 -0.8564 -0.2092
  371TMC3    H1 5556   3.374   3.736  15.179 -0.2710 -0.3969 -0.0319
  371TMC3    H2 5557   2.985   3.899  15.235 -1.2163  0.1475  0.8782
  371TMC3    C7 5558   3.195   3.926  15.092  0.2042 -0.8267  0.4409
  371TMC3    C8 5559   2.874   3.660  15.303 -0.6743 -0.1803 -0.1154
  371TMC3    O1 5560   3.118   4.017  15.093 -0.0053  0.1454 -0.2783
  371TMC3    O2 5561   2.826   3.546  15.307 -0.0607  0.0683  0.3792
  372MPD2     C 5562   2.736   4.683  12.836 -1.1325  0.4243  0.0005
  372MPD2    C1 5563   2.827   4.669  12.941 -0.2417 -0.4370  0.0547
  372MPD2    C2 5564   2.783   4.602  13.049 -0.8187  0.5083  0.9332
  372MPD2    C3 5565   2.661   4.541  13.065 -0.1936  0.2022 -0.0841
  372MPD2    C4 5566   2.586   4.538  12.953 -0.0588 -0.7251  0.0960
  372MPD2    C5 5567   2.620   4.611  12.842 -0.2337 -0.2684  0.0181
  372MPD2     H 5568   2.846   4.589  13.137 -0.4106 -1.6773  0.3385
  372MPD2    H1 5569   2.492   4.486  12.935  0.3771 -0.9366 -1.5765
  372MPD2    H2 5570   2.742   0.023  12.749  0.5656 -0.2623 -0.3914
  372MPD2    H3 5571   2.552   4.609  12.758 -0.4010 -0.4989  0.1592
  372MPD2     N 5572   2.642   4.471  13.184 -0.2497 -0.8276 -0.1144
  372MPD2    H5 5573   2.719   4.472  13.250  0.5683 -0.6316 -1.0578
  372MPD2    N1 5574   2.949   0.015  12.955 -0.2835 -0.4665  0.2901
  372MPD2    H7 5575   2.998   4.723  13.042 -1.4690  1.7772  1.3948
  373TMC3    C1 5576   2.532   4.336  13.349  0.4071  0.2305 -0.1307
  373TMC3    C2 5577   2.421   4.311  13.409 -0.4920  0.2501 -0.0341
  373TMC3    C3 5578   2.413   4.200  13.483 -0.2265  0.0667 -0.2186
  373TMC3    C4 5579   2.637   4.252  13.359 -0.0703  0.4294 -0.6253
  373TMC3    C5 5580   2.625   4.134  13.431 -0.2347  0.0021 -0.1306
  373TMC3    C6 5581   2.510   4.102  13.499  0.8110  0.0130 -0.9495
  373TMC3     C 5582   2.525   4.427  13.235 -0.0573  0.5066 -0.0486
  373TMC3     O 5583   2.413   4.457  13.193 -0.1330 -0.3874 -0.2254
  373TMC3     H 5584   2.329   4.367  13.392 -1.5476 -1.8103 -1.1822
  373TMC3    H1 5585   2.726   4.283  13.307  0.5179 -1.8942 -1.0107
  373TMC3    H2 5586   2.490   4.017  13.564  0.2987  0.5064 -0.4709
  373TMC3    C7 5587   2.741   4.042  13.441  0.6273 -0.0468  1.0347
  373TMC3    C8 5588   2.292   4.196  13.565  0.3098  0.0611 -0.2255
  373TMC3    O1 5589   2.848   4.072  13.386  0.2109 -0.1305 -0.1828
  373TMC3    O2 5590   2.192   4.237  13.511  0.6486  0.0164  0.0219
  374TMC3    C1 5591   3.461   4.516   9.270 -0.5763  0.3675  0.4426
  374TMC3    C2 5592   3.562   4.588   9.330 -0.2609 -0.2293  0.3801
  374TMC3    C3 5593   3.617   4.691   9.246  0.3067 -0.6248  0.0985
  374TMC3    C4 5594   3.414   4.545   9.146  0.1517 -0.3027 -0.5231
  374TMC3    C5 5595   3.474   4.644   9.069  0.6357 -0.7781 -0.8774
  374TMC3    C6 5596   3.574   4.720   9.118  0.4226 -1.6405  0.0973
  374TMC3     C 5597   3.413   4.391   9.324  0.9063  0.4667 -0.2663
  374TMC3     O 5598   3.329   4.323   9.264  0.5272 -0.1393  0.3984
  374TMC3     H 5599   3.581   4.570   9.435 -1.7965 -1.0178  0.5302
  374TMC3    H1 5600   3.334   4.483   9.109 -0.1159  0.7647 -1.7345
  374TMC3    H2 5601   3.610   0.082   9.064  0.5438 -1.4084  0.5546
  374TMC3    C7 5602   3.404   4.692   8.949  0.1841 -0.6736  0.2376
  374TMC3    C8 5603   3.688   0.071   9.308  0.3288  0.8906 -0.4969
  374TMC3    O1 5604   3.436   0.082   8.911 -0.3876 -0.1489  0.0749
  374TMC3    O2 5605   3.729   0.158   9.233 -0.0450 -0.0333  0.1594
  375MPD2     C 5606   3.279   1.171  17.003 -0.6024 -0.4476 -0.2891
  375MPD2    C1 5607   3.179   1.127  16.922 -0.0328 -0.7392 -0.0331
  375MPD2    C2 5608   3.213   1.087  16.795  0.1814  0.3278  0.1319
  375MPD2    C3 5609   3.338   1.091  16.743  0.1832  0.0753  0.2856
  375MPD2    C4 5610   3.439   1.139  16.828  0.2770 -0.6767 -0.4735
  375MPD2    C5 5611   3.404   1.185  16.953  0.2954  0.6457 -0.1887
  375MPD2     H 5612   3.131   1.048  16.736 -1.3842  0.3894  2.2712
  375MPD2    H1 5613   3.542   1.152  16.796 -0.0820  2.9059 -0.1289
  375MPD2    H2 5614   3.254   1.215  17.099 -0.6288  0.5228 -0.7380
  375MPD2    H3 5615   3.485   1.224  17.014  2.7835  1.1144 -3.8041
  375MPD2     N 5616   3.371   1.035  16.619  0.3545  0.3355 -0.2897
  375MPD2    H5 5617   3.470   1.029  16.598  0.5332 -0.5436  0.7715
  375MPD2    N1 5618   3.048   1.085  16.966 -0.1144  0.7962  0.2517
  375MPD2    H7 5619   2.985   1.055  16.892  0.9642 -0.5378 -0.1153
  376TMC3    C1 5620   3.350   0.904  16.419  0.5940 -0.1811  0.1586
  376TMC3    C2 5621   3.482   0.865  16.422  0.8331 -0.3378 -0.4086
  376TMC3    C3 5622   3.528   0.811  16.309  0.1963  0.0956 -0.4985
  376TMC3    C4 5623   3.266   0.887  16.309  0.2954 -0.6129 -0.4520
  376TMC3    C5 5624   3.320   0.828  16.200  0.4722  0.7731  0.4047
  376TMC3    C6 5625   3.455   0.792  16.195 -0.0801 -0.1054  0.0184
  376TMC3     C 5626   3.286   0.963  16.537 -0.3728 -0.6496 -0.4546
  376TMC3     O 5627   3.164   0.959  16.536 -0.7766  0.5636  0.4540
  376TMC3     H 5628   3.529   0.854  16.519 -2.1273  1.7802  1.2501
  376TMC3    H1 5629   3.165   0.926  16.309  0.9466  1.0825  0.3052
  376TMC3    H2 5630   3.498   0.750  16.106  0.7827  1.9837 -0.5326
  376TMC3    C7 5631   3.247   0.813  16.081  0.5084  0.0210 -0.4902
  376TMC3    C8 5632   3.669   0.788  16.307 -1.3838  0.1074  1.1841
  376TMC3    O1 5633   3.310   0.771  15.986 -0.4826  0.7681 -0.1517
  376TMC3    O2 5634   3.718   0.818  16.197  0.0839  0.2375 -0.1670
  377MPD2     C 5635   0.883   0.420  11.821 -1.0342 -0.0177  0.3433
  377MPD2    C1 5636   0.967   0.388  11.928  0.2927 -0.1010  0.0902
  377MPD2    C2 5637   0.910   0.387  12.059  0.2697 -0.2566 -0.4518
  377MPD2    C3 5638   0.775   0.411  12.079  0.2187  0.1620 -0.8042
  377MPD2    C4 5639   0.704   0.450  11.969  0.7395  0.0106 -0.4161
  377MPD2    C5 5640   0.755   0.456  11.841  0.5555  0.8150  0.0045
  377MPD2     H 5641   0.971   0.352  12.142  0.6681 -1.6533 -1.3368
  377MPD2    H1 5642   0.596   0.455  11.981  0.8390  3.0326 -0.7738
  377MPD2    H2 5643   0.927   0.418  11.722 -2.3276  0.6462 -0.2512
  377MPD2    H3 5644   0.695   0.472  11.753 -0.9499  0.7846  1.0320
  377MPD2     N 5645   0.701   0.384  12.200  0.8559  0.6769  0.2001
  377MPD2    H5 5646   0.610   0.427  12.206  0.7833  0.4722  0.5476
  377MPD2    N1 5647   1.103   0.340  11.901  0.8103  0.5205 -0.1020
  377MPD2    H7 5648   1.135   0.331  11.805  0.6807 -0.5970 -0.0383
  378TMC3    C1 5649   1.521   0.358  11.799  0.0330 -0.3152 -0.5207
  378TMC3    C2 5650   1.387   0.356  11.822  0.0429  0.3923 -0.3507
  378TMC3    C3 5651   1.340   0.305  11.939 -0.3594  0.1276  0.4554
  378TMC3    C4 5652   1.616   0.333  11.890  0.2782  0.5094  0.5281
  378TMC3    C5 5653   1.570   0.277  12.011 -0.8731 -0.3539  0.3080
  378TMC3    C6 5654   1.436   0.269  12.035 -0.1788 -0.4349 -0.4631
  378TMC3     C 5655   1.555   0.366  11.659 -0.2658 -0.1105 -0.2664
  378TMC3     O 5656   1.463   0.398  11.586 -0.3242 -0.1025 -0.0542
  378TMC3     H 5657   1.311   0.383  11.750 -0.0515  0.4300 -0.2382
  378TMC3    H1 5658   1.719   0.315  11.863 -0.1940 -0.8872 -0.3619
  378TMC3    H2 5659   1.391   0.241  12.130 -1.0786 -1.5760 -1.2217
  378TMC3    C7 5660   1.648   0.261  12.133  0.4123  0.0059 -0.8225
  378TMC3    C8 5661   1.202   0.331  11.992  0.2238  0.2970  0.1808
  378TMC3    O1 5662   1.592   0.231  12.237 -0.5633  0.1017 -0.2120
  378TMC3    O2 5663   1.203   0.359  12.113 -0.4759 -0.6634  0.4424
  379MPD2     C 5664   1.860   3.123  16.020 -0.1284 -0.1510  0.1369
  379MPD2    C1 5665   1.966   3.081  15.943  0.7823  0.1308  0.1590
  379MPD2    C2 5666   2.068   3.003  15.996  0.7106 -1.1634  0.1584
  379MPD2    C3 5667   2.050   2.957  16.127 -0.1164 -0.4283 -1.1360
  379MPD2    C4 5668   1.947   3.006  16.203 -0.3775 -0.0309 -0.7107
  379MPD2    C5 5669   1.847   3.085  16.149  0.1620  0.3152 -0.6308
  379MPD2     H 5670   2.138   2.966  15.922 -0.1824 -1.8891 -0.3307
  379MPD2    H1 5671   1.938   2.980  16.307 -0.6075  1.3704 -0.3802
  379MPD2    H2 5672   1.782   3.184  15.976 -0.5685  0.2856  1.4962
  379MPD2    H3 5673   1.769   3.128  16.210 -0.3989 -1.2622 -0.2616
  379MPD2     N 5674   2.145   2.876  16.183 -0.4525 -0.3837 -0.0043
  379MPD2    H5 5675   2.128   2.840  16.277 -0.4307 -0.3035  0.0304
  379MPD2    N1 5676   1.951   3.117  15.809 -0.8250 -0.2462 -0.0025
  379MPD2    H7 5677   1.862   3.145  15.770 -0.7504  3.6659  2.5664
  380TMC3    C1 5678   1.994   3.138  15.581  0.4655  0.4705  0.3667
  380TMC3    C2 5679   2.079   3.176  15.487 -0.1201 -0.3373  0.2787
  380TMC3    C3 5680   2.029   3.238  15.371 -0.2680 -0.0595  0.8468
  380TMC3    C4 5681   1.857   3.146  15.566  0.2122  0.3140 -0.6489
  380TMC3    C5 5682   1.811   3.197  15.448  0.1608  0.8321 -0.6587
  380TMC3    C6 5683   1.891   3.248  15.350  0.6963 -0.2883 -0.4550
  380TMC3     C 5684   2.046   3.109  15.715  0.4369 -0.7075 -0.2203
  380TMC3     O 5685   2.167   3.082  15.725  0.8680 -0.3332  0.1280
  380TMC3     H 5686   2.183   3.155  15.509  0.1868  0.0917 -0.7568
  380TMC3    H1 5687   1.785   3.113  15.641  0.5728 -0.8808 -0.8258
  380TMC3    H2 5688   1.845   3.308  15.272 -1.4290 -1.5267 -0.1702
  380TMC3    C7 5689   1.672   3.232  15.445 -0.6426 -0.0800  0.2738
  380TMC3    C8 5690   2.129   3.290  15.272 -0.1962  0.2615  0.7504
  380TMC3    O1 5691   1.644   3.328  15.376 -0.3934  0.3822 -0.4872
  380TMC3    O2 5692   2.239   3.305  15.316  0.3295  0.3636  0.5918
  381TMC3    C1 5693   1.669   4.259  15.880  0.5294 -0.8054 -0.3192
  381TMC3    C2 5694   1.770   4.348  15.852  0.1300 -0.6150 -0.1577
  381TMC3    C3 5695   1.815   4.415  15.965  1.0434 -0.4822 -0.0734
  381TMC3    C4 5696   1.619   4.235  16.004 -0.5141  0.0115  0.5602
  381TMC3    C5 5697   1.675   4.302  16.111 -0.1884  0.1159  0.0711
  381TMC3    C6 5698   1.770   4.397  16.094  0.0881  0.1173 -0.4207
  381TMC3     C 5699   1.597   4.200  15.772  0.0757 -0.4161 -0.5005
  381TMC3     O 5700   1.478   4.181  15.791  0.0372  0.1747  0.6144
  381TMC3     H 5701   1.809   4.373  15.754 -1.4392  2.4231  0.0051
  381TMC3    H1 5702   1.537   4.164  16.008 -0.8985  0.4808  0.9854
  381TMC3    H2 5703   1.827   4.436  16.178 -1.6130 -1.9007  1.6388
  381TMC3    C7 5704   1.635   4.259  16.243 -0.3822 -0.1765  0.4799
  381TMC3    C8 5705   1.921   4.513  15.942 -0.3899  0.4834  0.2348
  381TMC3    O1 5706   1.658   4.146  16.271 -0.7097 -0.2637  0.6223
  381TMC3    O2 5707   1.991   4.496  15.844 -0.0879 -0.2090  0.3350
  382MPD2     C 5708   1.663   2.184  17.003 -0.2014  0.2787 -0.5369
  382MPD2    C1 5709   1.535   2.221  16.976  0.2084 -0.4190  0.3009
  382MPD2    C2 5710   1.437   2.124  16.977  0.6576  0.6100  0.2199
  382MPD2    C3 5711   1.462   1.999  17.027 -0.7878  0.3553  0.0188
  382MPD2    C4 5712   1.590   1.964  17.042  0.2801  0.5311  0.3944
  382MPD2    C5 5713   1.691   2.057  17.029  0.5647 -0.5354 -0.2514
  382MPD2     H 5714   1.334   2.147  16.953  0.0717 -0.1700  1.9428
  382MPD2    H1 5715   1.612   1.860  17.061  1.4798  0.9377  1.2892
  382MPD2    H2 5716   1.746   2.253  17.006 -0.3502  0.5305 -2.3451
  382MPD2    H3 5717   1.793   2.034  17.055  0.2212 -3.1404 -1.1979
  382MPD2     N 5718   1.368   1.903  17.048  0.3042 -0.6607  0.2472
  382MPD2    H5 5719   1.404   1.812  17.075  0.1456 -1.7032 -3.0576
  382MPD2    N1 5720   1.499   2.352  16.923  0.3964  0.4927  0.4697
  382MPD2    H7 5721   1.402   2.370  16.897  0.4422 -1.5640 -1.1384
  383TMC3    C1 5722   1.166   1.781  17.066 -0.0084 -0.2447 -0.2678
  383TMC3    C2 5723   1.038   1.775  17.026  0.6785 -0.5817 -0.0742
  383TMC3    C3 5724   0.958   1.688  17.093  0.6264 -0.1751  0.2916
  383TMC3    C4 5725   1.215   1.705  17.170 -0.4067 -0.1179 -0.1811
  383TMC3    C5 5726   1.127   1.616  17.228  0.2500 -0.8798  0.1399
  383TMC3    C6 5727   0.999   1.599  17.184  0.0439 -0.1048 -0.2183
  383TMC3     C 5728   1.231   1.913  17.048 -0.0421 -0.1761  0.4463
  383TMC3     O 5729   1.159   2.006  17.029  0.1622  0.4885  0.2514
  383TMC3     H 5730   0.997   1.844  16.953 -0.8227  2.6466  3.7844
  383TMC3    H1 5731   1.319   1.712  17.201 -0.4258 -1.1342  0.1214
  383TMC3    H2 5732   0.927   1.537  17.235  2.0919 -1.6064  0.8483
  383TMC3    C7 5733   1.175   1.539  17.341 -0.3268 -0.2833 -0.6254
  383TMC3    C8 5734   0.819   1.696  17.074 -0.1495 -0.3267  0.2039
  383TMC3    O1 5735   1.298   1.524  17.340  0.1661 -0.0475  0.0927
  383TMC3    O2 5736   0.755   1.592  17.091  0.5125  0.3719 -0.3240
  384MPD2     C 5737   2.689   3.286  11.705 -0.0367 -0.0712  1.0139
  384MPD2    C1 5738   2.747   3.238  11.818  0.3154  0.0434  0.0868
  384MPD2    C2 5739   2.826   3.124  11.808  0.1599  0.3470  0.1765
  384MPD2    C3 5740   2.844   3.057  11.687  0.6232  0.3829 -0.3600
  384MPD2    C4 5741   2.779   3.105  11.576  0.0164 -0.4489  0.6164
  384MPD2    C5 5742   2.703   3.216  11.590 -0.5134 -0.5374  0.2254
  384MPD2     H 5743   2.886   3.086  11.890  3.4774  0.6335 -2.1258
  384MPD2    H1 5744   2.768   3.046  11.485 -4.0160  1.1500  0.0624
  384MPD2    H2 5745   2.611   3.361  11.713 -0.8880 -1.0320  1.7935
  384MPD2    H3 5746   2.635   3.246  11.510 -1.2845  1.5581  1.6817
  384MPD2     N 5747   2.940   2.949  11.677 -0.5377 -0.2286 -0.0311
  384MPD2    H5 5748   2.991   2.931  11.763  1.1721  1.7504 -0.6182
  384MPD2    N1 5749   2.723   3.280  11.944  0.3507 -0.3753 -1.0017
  384MPD2    H7 5750   2.742   3.210  12.016 -0.9663  1.5305  1.2130
  385TMC3    C1 5751   3.018   2.741  11.632  0.6493 -0.1698 -0.5958
  385TMC3    C2 5752   2.946   2.626  11.623 -0.2958 -0.3719  0.2209
  385TMC3    C3 5753   2.957   2.541  11.726 -0.5770  0.1455  0.4736
  385TMC3    C4 5754   3.101   2.766  11.742 -0.5027 -0.2170  0.1202
  385TMC3    C5 5755   3.095   2.690  11.851 -0.0752  0.4694  0.5868
  385TMC3    C6 5756   3.024   2.578  11.845 -0.2424  0.3191  0.4903
  385TMC3     C 5757   2.953   2.858  11.582  0.4553 -0.2350 -0.0069
  385TMC3     O 5758   2.883   2.848  11.483 -0.0341 -0.3761  0.2022
  385TMC3     H 5759   2.868   2.615  11.548 -0.1135  0.6990 -0.1312
  385TMC3    H1 5760   3.169   2.850  11.733 -1.3546  0.5054  0.4066
  385TMC3    H2 5761   3.019   2.517  11.935  0.5565 -3.5048 -2.0550
  385TMC3    C7 5762   3.059   2.779  11.962 -0.3440  0.0336  0.5719
  385TMC3    C8 5763   2.886   2.415  11.736  0.0673 -0.6209  0.0815
  385TMC3    O1 5764   3.031   2.894  11.934  0.3242  0.0268 -0.2433
  385TMC3    O2 5765   2.871   2.367  11.848  0.4438 -0.1812  0.5379
  386TMC3    C1 5766   3.272   0.683  11.939 -0.8940 -0.4471 -0.1448
  386TMC3    C2 5767   3.262   0.628  11.815  0.0670  0.7103  0.3292
  386TMC3    C3 5768   3.138   0.634  11.748  0.0120 -0.1849 -0.0758
  386TMC3    C4 5769   3.157   0.737  11.997 -0.0256 -0.4018 -0.2940
  386TMC3    C5 5770   3.043   0.741  11.928 -0.2000  0.4051 -0.3771
  386TMC3    C6 5771   3.027   0.682  11.809 -0.4775 -0.6523  0.0883
  386TMC3     C 5772   3.393   0.683  12.015 -0.1271 -0.7762  0.5090
  386TMC3     O 5773   3.404   0.768  12.102  0.9993 -0.5801 -0.1514
  386TMC3     H 5774   3.342   0.587  11.755  0.4393  1.3170  0.4126
  386TMC3    H1 5775   3.169   0.766  12.101  0.1935 -0.5136 -0.2889
  386TMC3    H2 5776   2.931   0.681  11.760  0.2092 -0.6702 -1.2665
  386TMC3    C7 5777   2.914   0.748  11.993 -0.2522  0.7719  0.1298
  386TMC3    C8 5778   3.108   0.550  11.639 -0.0992 -0.7960 -0.5025
  386TMC3    O1 5779   2.821   0.674  11.966  0.0807  0.3337 -0.1120
  386TMC3    O2 5780   3.004   0.580  11.576  0.2510 -0.0090 -0.3842
  387MPD2     C 5781   0.691   0.208   9.796 -0.2206  0.1225 -0.7704
  387MPD2    C1 5782   0.751   0.158   9.909 -0.2807  0.1663  0.2427
  387MPD2    C2 5783   0.743   0.019   9.922 -0.0261 -0.3165 -0.0254
  387MPD2    C3 5784   0.696   4.657   9.827 -0.5776 -0.0552  0.0489
  387MPD2    C4 5785   0.659   4.707   9.704  0.3061 -0.1312 -0.6647
  387MPD2    C5 5786   0.659   0.122   9.693  0.8373  0.3242 -0.6388
  387MPD2     H 5787   0.776   4.694  10.012 -0.9606  0.0540  0.5180
  387MPD2    H1 5788   0.632   4.647   9.617  1.2563 -0.2492 -0.8741
  387MPD2    H2 5789   0.691   0.316   9.788  0.7629  0.0739 -1.4625
  387MPD2    H3 5790   0.635   0.162   9.595  1.2264  0.3693 -0.7146
  387MPD2     N 5791   0.711   4.516   9.855  0.2448  0.2276 -0.3297
  387MPD2    H5 5792   0.753   4.492   9.944  3.1552  1.3321 -1.4305
  387MPD2    N1 5793   0.796   0.248  10.006 -0.9112 -0.0564  0.8728
  387MPD2    H7 5794   0.779   0.347   9.993  1.4178  0.1970 -0.1934
  388TMC3    C1 5795   0.898   0.324  10.213 -0.1679 -0.0709  0.3089
  388TMC3    C2 5796   0.980   0.405  10.142  0.1541 -0.4112  0.3902
  388TMC3    C3 5797   1.108   0.423  10.185  0.6708  0.3470  0.6087
  388TMC3    C4 5798   0.941   0.280  10.339  0.6483  0.4369  0.7668
  388TMC3    C5 5799   1.073   0.297  10.386  0.0446  0.1042  0.2129
  388TMC3    C6 5800   1.155   0.374  10.307 -0.1678  0.4444 -0.2590
  388TMC3     C 5801   0.854   0.210  10.130 -0.0798  0.0287 -0.3544
  388TMC3     O 5802   0.884   0.098  10.166  0.0067 -0.0681 -0.4202
  388TMC3     H 5803   0.947   0.433  10.042 -0.0417 -0.5832  0.4058
  388TMC3    H1 5804   0.874   0.216  10.394 -0.5313  0.8104 -0.2343
  388TMC3    H2 5805   1.263   0.369  10.321  0.0865 -1.1215 -2.6845
  388TMC3    C7 5806   1.143   0.174  10.410  0.5400  0.1073  0.3801
  388TMC3    C8 5807   1.197   0.411  10.074  0.6573 -0.0711 -0.2379
  388TMC3    O1 5808   1.256   0.187  10.459  0.3067 -0.1138 -0.6981
  388TMC3    O2 5809   1.300   0.344  10.097 -0.0051 -0.4216 -0.6287
  389MPD2     C 5810   0.101   3.142  11.206  0.0177 -0.3721  0.0254
  389MPD2    C1 5811   0.048   3.043  11.121  0.8457  0.0344  0.5643
  389MPD2    C2 5812   4.698   2.940  11.176  0.2498 -0.7781  0.2911
  389MPD2    C3 5813   4.665   2.942  11.312  0.7203 -0.4082  0.2573
  389MPD2    C4 5814   0.002   3.033  11.398  0.2889 -0.4439 -0.4689
  389MPD2    C5 5815   0.084   3.134  11.345  0.3519  0.0901  0.4828
  389MPD2     H 5816   4.653   2.864  11.114 -1.2810 -0.3291  0.8561
  389MPD2    H1 5817   4.702   3.032  11.504 -1.2772  1.7746 -0.8099
  389MPD2    H2 5818   0.161   3.215  11.155  1.2851 -0.3704  1.5267
  389MPD2    H3 5819   0.121   3.217  11.405  0.1503  1.9817 -2.0209
  389MPD2     N 5820   4.569   2.864  11.375 -0.5226  0.5962  1.0608
  389MPD2    H5 5821   4.564   2.876  11.476 -0.5680  0.7715  1.0373
  389MPD2    N1 5822   0.078   3.063  10.984  0.1939 -0.2703 -0.2326
  389MPD2    H7 5823   0.132   3.141  10.947  1.5246 -0.2873  1.6698
  390TMC3    C1 5824   4.373   2.722  11.383  0.0414 -0.9319 -0.2148
  390TMC3    C2 5825   4.303   2.618  11.312 -0.0099  0.5012 -0.1436
  390TMC3    C3 5826   4.221   2.539  11.383  0.1369  0.0968  0.2156
  390TMC3    C4 5827   4.352   2.742  11.518 -0.4795 -0.4313  0.3943
  390TMC3    C5 5828   4.248   2.668  11.580 -0.0605  0.8905 -0.2789
  390TMC3    C6 5829   4.187   2.567  11.515 -0.0876  0.5510  0.2023
  390TMC3     C 5830   4.483   2.776  11.307  0.4403 -0.1653  0.4244
  390TMC3     O 5831   4.483   2.741  11.186  0.2714  0.0092 -0.1271
  390TMC3     H 5832   4.328   2.583  11.212  1.6659  1.9372 -0.2113
  390TMC3    H1 5833   4.399   2.828  11.565  0.4320 -1.2749  1.0530
  390TMC3    H2 5834   4.104   2.509  11.554  1.3908 -1.4611  0.3602
  390TMC3    C7 5835   4.170   2.756  11.666 -0.3464 -0.2835  0.5837
  390TMC3    C8 5836   4.110   2.500  11.308  0.0866  0.1374 -0.0218
  390TMC3    O1 5837   4.235   2.846  11.713  0.0810  0.1945  0.5236
  390TMC3    O2 5838   4.123   2.410  11.232  0.3851  0.1170  0.2042
  391MPD2     C 5839   3.941   4.538  10.872  0.0019  0.0512  0.4077
  391MPD2    C1 5840   4.065   4.572  10.831 -0.0352  0.7639  0.1523
  391MPD2    C2 5841   4.084   4.591  10.692 -0.2292 -0.0063  0.3872
  391MPD2    C3 5842   3.988   4.547  10.603 -0.4424  0.0417  0.6668
  391MPD2    C4 5843   3.866   4.500  10.643  0.3992 -0.2618 -0.3409
  391MPD2    C5 5844   3.846   4.504  10.780  0.0875 -0.0542  0.9252
  391MPD2     H 5845   4.173   4.636  10.650 -1.3266  1.0536 -0.7863
  391MPD2    H1 5846   3.787   4.461  10.580  1.9213 -1.1342 -1.7520
  391MPD2    H2 5847   3.914   4.549  10.977  1.5886 -0.7487  0.9009
  391MPD2    H3 5848   3.749   4.480  10.822  1.2537 -0.6454  3.3056
  391MPD2     N 5849   4.028   4.556  10.466 -0.1598  0.4252 -0.2034
  391MPD2    H5 5850   4.124   4.584  10.449 -0.0698 -0.0003 -0.3866
  391MPD2    N1 5851   4.165   4.597  10.928  0.1672 -0.2086  0.2807
  391MPD2    H7 5852   4.135   4.585  11.024 -0.5257  2.0824  0.3526
  392TMC3    C1 5853   4.027   4.591  10.240  1.1467  0.2440 -0.5057
  392TMC3    C2 5854   3.971   4.577  10.117 -0.2778 -0.5205 -0.1711
  392TMC3    C3 5855   4.045   4.649  10.018 -0.3191 -0.3381 -0.0023
  392TMC3    C4 5856   4.125   4.687  10.263 -0.3735 -0.2239  0.3133
  392TMC3    C5 5857   4.187   0.023  10.160 -0.5978  0.2296  0.2960
  392TMC3    C6 5858   4.152   0.008  10.032 -0.0038 -0.0439  0.5166
  392TMC3     C 5859   3.948   4.549  10.356  0.3550  0.0512 -0.4278
  392TMC3     O 5860   3.825   4.546  10.350 -0.1794  0.7044 -0.2343
  392TMC3     H 5861   3.888   4.510  10.098 -0.6477 -0.2748  0.5803
  392TMC3    H1 5862   4.163   4.716  10.360 -0.5504  0.2251  0.2508
  392TMC3    H2 5863   4.216   0.028   9.947  1.0997 -2.5362  0.7495
  392TMC3    C7 5864   4.288   0.116  10.194  0.5629  0.5188  0.7392
  392TMC3    C8 5865   3.961   4.684   9.903  0.0150 -0.0057 -0.6494
  392TMC3    O1 5866   4.265   0.187  10.290 -0.0679 -0.2721 -0.3684
  392TMC3    O2 5867   3.876   4.603   9.869 -0.3491 -0.2595  0.2924
  393TMC3    C1 5868   3.265   2.633  10.240 -0.0274 -0.3398  0.3721
  393TMC3    C2 5869   3.161   2.587  10.313 -0.2930  0.5489 -0.2091
  393TMC3    C3 5870   3.173   2.488  10.399  0.6893 -0.0624 -0.0967
  393TMC3    C4 5871   3.387   2.568  10.246 -0.7886 -0.5169 -0.3625
  393TMC3    C5 5872   3.402   2.470  10.346 -0.3672 -0.4902  0.1967
  393TMC3    C6 5873   3.296   2.429  10.419  0.3922  0.7064  0.9603
  393TMC3     C 5874   3.237   2.732  10.143 -0.1808  0.0797 -0.5611
  393TMC3     O 5875   3.132   2.715  10.082 -0.4217  0.0064 -0.6982
  393TMC3     H 5876   3.068   2.640  10.297  0.3086  1.3572 -1.0908
  393TMC3    H1 5877   3.467   2.599  10.180 -0.7059 -1.0705 -0.5183
  393TMC3    H2 5878   3.299   2.337  10.477  0.4946  1.9713  2.9442
  393TMC3    C7 5879   3.503   2.367  10.312  0.4237 -0.4698 -0.1738
  393TMC3    C8 5880   3.058   2.438  10.474 -0.6325  0.3892 -0.2930
  393TMC3    O1 5881   3.482   2.251  10.354  0.1217  0.0705 -0.1709
  393TMC3    O2 5882   3.082   2.365  10.567 -0.1035  0.1652 -0.3581
  394TMC3    C1 5883   0.048   3.024  10.754  1.2553  0.1667  0.5224
  394TMC3    C2 5884   4.692   2.987  10.651  0.3957 -0.7228 -0.3054
  394TMC3    C3 5885   4.718   3.026  10.524 -0.0945 -0.0431  0.7605
  394TMC3    C4 5886   0.161   3.098  10.732 -0.3012 -0.2423  0.2322
  394TMC3    C5 5887   0.186   3.125  10.600 -0.1571 -0.0562  0.1663
  394TMC3    C6 5888   0.100   3.100  10.500 -0.3335  0.1937 -0.3493
  394TMC3     C 5889   0.026   2.979  10.889 -0.4243 -0.1372 -0.1655
  394TMC3     O 5890   4.704   2.863  10.889  0.1093  0.1553  0.2929
  394TMC3     H 5891   4.597   2.937  10.668  0.2112 -0.5380 -0.7914
  394TMC3    H1 5892   0.238   3.105  10.808 -0.2527  0.9891  0.0707
  394TMC3    H2 5893   0.110   3.141  10.400 -3.5334 -1.2900 -1.2778
  394TMC3    C7 5894   0.300   3.197  10.555  0.0796  0.3954 -0.6874
  394TMC3    C8 5895   4.696   2.925  10.430 -0.3198 -0.3005  0.5193
  394TMC3    O1 5896   0.337   3.304  10.606 -0.5005  0.8543 -0.5176
  394TMC3    O2 5897   4.669   2.813  10.470 -0.2717 -0.2670  0.0462
  395TMC3    C1 5898   3.720   0.745  14.387  0.4209 -0.9400  0.1338
  395TMC3    C2 5899   3.624   0.722  14.488  0.3310 -0.4192  0.2253
  395TMC3    C3 5900   3.634   0.787  14.607  0.4585  0.0121 -0.3779
  395TMC3    C4 5901   3.817   0.841  14.414 -0.6427 -0.1255 -0.0046
  395TMC3    C5 5902   3.820   0.908  14.537  0.8402  0.0609  0.3294
  395TMC3    C6 5903   3.734   0.876  14.633  0.3262  0.3595 -0.2347
  395TMC3     C 5904   3.788   0.624  14.354  0.1422 -0.1741 -0.4540
  395TMC3     O 5905   3.908   0.638  14.342  0.4633  0.4720 -0.2126
  395TMC3     H 5906   3.538   0.659  14.476  0.5966 -0.1364 -3.1298
  395TMC3    H1 5907   3.889   0.867  14.337 -3.0277  3.0993 -1.1367
  395TMC3    H2 5908   3.745   0.916  14.733  0.7488  2.2787 -1.0404
  395TMC3    C7 5909   3.953   0.936  14.590 -0.4600  0.2228 -0.3048
  395TMC3    C8 5910   3.571   0.728  14.726  0.1804 -0.2322  1.0380
  395TMC3    O1 5911   3.964   1.003  14.691 -0.0516  0.4156 -0.2546
  395TMC3    O2 5912   3.569   0.797  14.824 -0.0827  0.4738  0.0283
  396MPD2     C 5913   4.024   1.911  17.000  1.5733 -0.0389  0.5041
  396MPD2    C1 5914   4.153   1.941  17.034  0.8447 -0.1030  0.2940
  396MPD2    C2 5915   4.221   2.049  16.965  0.2118  0.5928 -0.7000
  396MPD2    C3 5916   4.152   2.119  16.862  0.4683  1.1472  0.6446
  396MPD2    C4 5917   4.018   2.085  16.834 -0.4962 -0.3140 -0.7485
  396MPD2    C5 5918   3.956   1.988  16.904  0.5115  0.6228  0.7364
  396MPD2     H 5919   4.323   2.077  16.990 -0.3834  1.7700  0.4100
  396MPD2    H1 5920   3.968   2.146  16.760 -0.5592 -0.3498 -0.7355
  396MPD2    H2 5921   3.973   1.843  17.067 -1.9434  0.8092 -1.2990
  396MPD2    H3 5922   3.853   1.967  16.879  0.5187  1.1026  0.3188
  396MPD2     N 5923   4.216   2.221  16.785 -0.2511 -0.0050 -0.1889
  396MPD2    H5 5924   4.309   2.245  16.818 -0.0297 -1.2478  0.1214
  396MPD2    N1 5925   4.201   1.879  17.148  0.2347 -0.1192 -0.6003
  396MPD2    H7 5926   4.146   1.805  17.191 -0.8436  0.8441 -0.3270
  397TMC3    C1 5927   4.360   1.767  17.270 -0.7259  0.6959 -0.1278
  397TMC3    C2 5928   4.499   1.744  17.259  0.0903  0.3167  0.0791
  397TMC3    C3 5929   4.558   1.621  17.256 -0.0273  0.2913  0.6543
  397TMC3    C4 5930   4.293   1.652  17.249 -0.4407  0.0801 -0.9427
  397TMC3    C5 5931   4.348   1.533  17.267  0.6022  0.0560 -0.4669
  397TMC3    C6 5932   4.480   1.508  17.271  0.1776  0.3038 -0.2965
  397TMC3     C 5933   4.327   1.887  17.191 -0.3161  0.2027 -0.5666
  397TMC3     O 5934   4.408   1.978  17.191 -0.5394  0.1123 -0.0744
  397TMC3     H 5935   4.563   1.830  17.277 -0.1403  0.8541 -1.6525
  397TMC3    H1 5936   4.186   1.661  17.261 -0.1822 -0.3446  1.7561
  397TMC3    H2 5937   4.527   1.410  17.270 -1.5957 -0.5466  1.3550
  397TMC3    C7 5938   4.257   1.420  17.269 -0.3574 -0.3208 -1.2089
  397TMC3    C8 5939   4.700   1.606  17.260  0.5411 -0.1849 -1.1415
  397TMC3    O1 5940   4.293   1.323  17.206  0.5086 -0.0484 -0.1592
  397TMC3    O2 5941   0.023   1.496  17.293 -0.0093 -0.0435  0.1708
  398MPD2     C 5942   2.154   2.989  17.562 -0.3368  0.0743 -0.8019
  398MPD2    C1 5943   2.244   2.891  17.604 -0.5708 -0.3277  0.7807
  398MPD2    C2 5944   2.298   2.899   0.024 -0.4930 -0.7696  0.6822
  398MPD2    C3 5945   2.273   3.014   0.097  0.0258 -0.7279  0.1284
  398MPD2    C4 5946   2.189   3.115   0.055 -0.0578 -0.1805  0.1606
  398MPD2    C5 5947   2.120   3.093  17.641  0.5088 -0.2965  0.4050
  398MPD2     H 5948   2.366   2.825   0.066 -0.7223 -1.3662  0.0175
  398MPD2    H1 5949   2.169   3.209   0.106  0.1598  0.6952 -1.3861
  398MPD2    H2 5950   2.109   2.983  17.463 -1.0866 -1.0604 -0.3840
  398MPD2    H3 5951   2.056   3.174  17.607 -0.5469 -2.2207 -2.1527
  398MPD2     N 5952   2.351   3.027   0.217  0.1071 -0.3486  0.8206
  398MPD2    H5 5953   2.426   2.962   0.235  0.5699  0.3830  1.5316
  398MPD2    N1 5954   2.264   2.774  17.530  0.4397  0.3579  0.3070
  398MPD2    H7 5955   2.317   2.701  17.577 -0.4071  0.4587  1.4159
  399TMC3    C1 5956   2.192   2.590  17.389  0.1545  0.6722  0.6840
  399TMC3    C2 5957   2.308   2.516  17.403 -0.1791 -0.0645 -0.1317
  399TMC3    C3 5958   2.293   2.379  17.386 -0.2456 -0.2811 -0.0083
  399TMC3    C4 5959   2.064   2.543  17.365  0.3804  0.2173 -0.0690
  399TMC3    C5 5960   2.058   2.406  17.353  0.0047 -0.5487  0.4710
  399TMC3    C6 5961   2.170   2.320  17.368 -0.9089  0.0696  0.1380
  399TMC3     C 5962   2.196   2.740  17.410 -0.0259  0.3162  0.3999
  399TMC3     O 5963   2.133   2.805  17.328 -0.2628  0.2333  0.0703
  399TMC3     H 5964   2.401   2.565  17.428 -1.9449  3.5051 -0.4404
  399TMC3    H1 5965   1.980   2.611  17.372  0.4486 -0.0128  2.9008
  399TMC3    H2 5966   2.145   2.215  17.358  1.4870 -0.3955 -0.8180
  399TMC3    C7 5967   1.922   2.342  17.354 -0.2964  1.0008 -0.3381
  399TMC3    C8 5968   2.420   2.301  17.394 -0.3127 -0.5511  0.7614
  399TMC3    O1 5969   1.903   2.239  17.411  0.2925 -0.2177  0.3300
  399TMC3    O2 5970   2.518   2.372  17.398 -0.1372  0.1433  0.2252
  400TMC3    C1 5971   0.710   1.407  16.813  0.1571 -0.2729  0.0121
  400TMC3    C2 5972   0.597   1.449  16.757 -0.8092 -0.1195 -0.7021
  400TMC3    C3 5973   0.594   1.555  16.678 -0.0312  0.4950 -0.4843
  400TMC3    C4 5974   0.819   1.479  16.790 -0.9643 -0.1942 -0.2821
  400TMC3    C5 5975   0.811   1.591  16.714  1.0454 -0.2338  0.2488
  400TMC3    C6 5976   0.699   1.637  16.651 -0.0644  0.2228 -0.2876
  400TMC3     C 5977   0.733   1.270  16.864 -0.4307  0.5315  0.1715
  400TMC3     O 5978   0.845   1.228  16.863 -0.1225  0.3825  0.0406
  400TMC3     H 5979   0.503   1.396  16.770 -0.0134 -1.1996  0.7554
  400TMC3    H1 5980   0.913   1.452  16.837 -0.6572  1.1734 -0.1169
  400TMC3    H2 5981   0.703   1.717  16.578  1.4061  0.1825 -0.2605
  400TMC3    C7 5982   0.921   1.676  16.725  0.4195  0.6573 -0.0937
  400TMC3    C8 5983   0.498   1.568  16.578 -0.4223  0.2804  0.3456
  400TMC3    O1 5984   1.032   1.633  16.739 -0.1969 -0.3570  0.2448
  400TMC3    O2 5985   0.456   1.679  16.545 -0.0011  0.0796  0.5271
  401MPD2     C 5986   3.441   0.593   0.103 -0.0027  0.3164 -0.0369
  401MPD2    C1 5987   3.457   0.596   0.239  0.1362 -0.6163  0.1273
  401MPD2    C2 5988   3.486   0.476   0.307 -0.5300 -0.6169  0.0889
  401MPD2    C3 5989   3.480   0.351   0.240  0.3237 -0.3547  0.0705
  401MPD2    C4 5990   3.455   0.359   0.103 -0.8916 -0.4098 -0.3092
  401MPD2    C5 5991   3.427   0.477   0.038  0.0812 -0.4086 -0.1083
  401MPD2     H 5992   3.503   0.489   0.413 -1.0622 -0.7524  0.1870
  401MPD2    H1 5993   3.454   0.267   0.045 -1.0089 -0.8037  0.3147
  401MPD2    H2 5994   3.431   0.686   0.048  0.7259  2.1404  2.9229
  401MPD2    H3 5995   3.391   0.474  17.637 -1.9195 -1.1895  0.6027
  401MPD2     N 5996   3.504   0.232   0.316 -0.0851  0.2946  0.2028
  401MPD2    H5 5997   3.531   0.245   0.413  1.1915  1.4263 -0.3114
  401MPD2    N1 5998   3.480   0.712   0.315  0.1511  0.0215  0.5720
  401MPD2    H7 5999   3.513   0.715   0.411  1.0021 -0.4025  0.2925
  402TMC3    C1 6000   3.524   4.722   0.356  0.2481  0.1829 -0.0220
  402TMC3    C2 6001   3.556   0.024   0.486 -0.2870 -0.0150 -0.1044
  402TMC3    C3 6002   3.592   4.644   0.567  1.0934 -0.5052 -0.3424
  402TMC3    C4 6003   3.527   4.594   0.307 -0.3004 -0.3666 -0.1603
  402TMC3    C5 6004   3.565   4.496   0.388  0.4281 -0.0154  0.5304
  402TMC3    C6 6005   3.589   4.515   0.525 -0.1517  0.1330 -0.0854
  402TMC3     C 6006   3.496   0.105   0.262 -0.1998 -0.7691  0.6100
  402TMC3     O 6007   3.488   0.068   0.144 -0.1862  0.0278  0.0597
  402TMC3     H 6008   3.577   0.125   0.518 -1.0058 -0.2785  1.1898
  402TMC3    H1 6009   3.531   4.581   0.200 -1.4295 -0.6153 -0.1729
  402TMC3    H2 6010   3.624   4.444   0.599  1.7687  0.1681 -0.9565
  402TMC3    C7 6011   3.659   4.407   0.323 -0.0513 -0.2330  0.3563
  402TMC3    C8 6012   3.712   4.672   0.647 -0.0748  0.7664  1.2138
  402TMC3    O1 6013   3.621   4.292   0.307  0.1742  0.3332  0.3867
  402TMC3    O2 6014   3.807   4.594   0.631 -0.1319 -0.6408  0.3073
  403MPD2     C 6015   2.458   3.140  13.034  0.4120  0.2098 -0.1593
  403MPD2    C1 6016   2.473   3.014  13.092  0.0767  0.7144 -0.2298
  403MPD2    C2 6017   2.590   2.989  13.168  0.0112 -0.5527 -0.7622
  403MPD2    C3 6018   2.687   3.082  13.197  0.4681  0.0052 -0.3075
  403MPD2    C4 6019   2.677   3.206  13.135 -0.1021 -0.3538 -0.1742
  403MPD2    C5 6020   2.562   3.231  13.062  0.1943 -0.5467  0.1173
  403MPD2     H 6021   2.609   2.890  13.208  1.5307 -0.8389 -2.2123
  403MPD2    H1 6022   2.739   3.294  13.148 -0.9826  0.4024 -1.0935
  403MPD2    H2 6023   2.367   3.173  12.986 -1.8339 -0.5478  3.5776
  403MPD2    H3 6024   2.559   3.328  13.014 -3.0849 -1.6579 -1.9170
  403MPD2     N 6025   2.781   3.052  13.301  0.1047 -0.1506 -0.2816
  403MPD2    H5 6026   2.776   2.957  13.336  1.0444 -0.5643 -1.2484
  403MPD2    N1 6027   2.366   2.923  13.073  0.6303  0.7663  0.0313
  403MPD2    H7 6028   2.289   2.954  13.016 -0.6317 -0.3628  1.1158
  404TMC3    C1 6029   2.257   2.723  13.096  0.1746 -0.1848  0.1019
  404TMC3    C2 6030   2.229   2.618  13.186  0.4657  0.7861 -0.3236
  404TMC3    C3 6031   2.181   2.503  13.121  0.1257  0.6058  0.4961
  404TMC3    C4 6032   2.240   2.719  12.963  0.4008  0.1797  0.3811
  404TMC3    C5 6033   2.212   2.595  12.913  0.5548 -0.1797  0.2290
  404TMC3    C6 6034   2.169   2.489  12.990  0.8095 -0.2260 -0.0318
  404TMC3     C 6035   2.341   2.822  13.157  0.1268 -0.1708  0.2973
  404TMC3     O 6036   2.408   2.787  13.252  0.3158  0.0061 -0.0244
  404TMC3     H 6037   2.247   2.627  13.292  1.3547  1.9335 -0.5702
  404TMC3    H1 6038   2.266   2.798  12.894 -0.0399 -1.1404 -1.3092
  404TMC3    H2 6039   2.160   2.392  12.943  0.3468  0.6496 -1.7346
  404TMC3    C7 6040   2.225   2.578  12.767  0.2066  0.6554  0.0193
  404TMC3    C8 6041   2.210   2.379  13.187  0.2065 -0.3712  0.1181
  404TMC3    O1 6042   2.287   2.659  12.704  0.3036  0.2014  0.5288
  404TMC3    O2 6043   2.245   2.283  13.121  0.4387  0.2199 -0.5712
  405MPD2     C 6044   2.704   3.298  14.180  0.0371  0.6002 -0.5912
  405MPD2    C1 6045   2.650   3.175  14.173  0.5305  1.0917 -0.0821
  405MPD2    C2 6046   2.555   3.152  14.074 -0.0762 -0.6194  0.5229
  405MPD2    C3 6047   2.507   3.247  13.986  0.0826  0.8169  0.7928
  405MPD2    C4 6048   2.563   3.374  13.991  0.0812 -0.0373  0.3323
  405MPD2    C5 6049   2.664   3.386  14.081  0.2312  0.0253  0.1261
  405MPD2     H 6050   2.507   3.056  14.062 -2.5836  0.4058  2.3727
  405MPD2    H1 6051   2.538   3.457  13.926  0.2570 -1.3159 -1.3960
  405MPD2    H2 6052   2.788   3.323  14.244 -0.7408  0.0359  0.6468
  405MPD2    H3 6053   2.700   3.487  14.102  2.3509 -0.7468  0.2221
  405MPD2     N 6054   2.404   3.205  13.901 -0.4811  0.5278 -0.1758
  405MPD2    H5 6055   2.373   3.108  13.901  0.1076  0.3384 -0.0999
  405MPD2    N1 6056   2.683   3.079  14.270 -0.3046  0.0657  0.6104
  405MPD2    H7 6057   2.751   3.112  14.337 -0.1804  1.0976 -0.0278
  406TMC3    C1 6058   1.985   3.299  13.802  0.2625  0.3661  0.9047
  406TMC3    C2 6059   1.949   3.171  13.809 -0.7569 -0.3945 -0.5810
  406TMC3    C3 6060   2.050   3.084  13.821 -0.2897  0.4229  0.1222
  406TMC3    C4 6061   2.115   3.334  13.778 -0.0030 -0.2474  0.4403
  406TMC3    C5 6062   2.210   3.237  13.769 -0.4948 -0.2654  0.5542
  406TMC3    C6 6063   2.184   3.111  13.795 -0.9267 -0.0471 -0.0013
  406TMC3     C 6064   1.887   3.405  13.796  0.1640  0.4457  0.3581
  406TMC3     O 6065   1.911   3.504  13.727  0.0900  0.1511 -0.1868
  406TMC3     H 6066   1.844   3.145  13.817 -0.8125  0.6499  1.9870
  406TMC3    H1 6067   2.131   3.438  13.752 -0.7217 -0.5152 -1.0691
  406TMC3    H2 6068   2.260   3.035  13.789 -0.1992  0.5885  1.1810
  406TMC3    C7 6069   2.341   3.289  13.815 -0.4085 -0.0535  0.5383
  406TMC3    C8 6070   2.019   2.971  13.914 -0.5099 -0.4103  0.8390
  406TMC3    O1 6071   2.368   3.404  13.788 -0.0747  0.9649 -0.4384
  406TMC3    O2 6072   1.899   2.952  13.932  0.3681 -0.1017 -0.4279
  407MPD2     C 6073   0.460   4.189   9.248  0.2099  0.4877 -0.6979
  407MPD2    C1 6074   0.524   4.267   9.348  0.4479 -0.5845  0.6232
  407MPD2    C2 6075   0.471   4.390   9.387  0.0338  0.7468 -0.5366
  407MPD2    C3 6076   0.352   4.431   9.342 -0.2609 -0.3759  0.2006
  407MPD2    C4 6077   0.291   4.352   9.243  0.1483  0.0117  0.5063
  407MPD2    C5 6078   0.342   4.236   9.203 -0.2975  0.7509  0.2389
  407MPD2     H 6079   0.526   4.453   9.455  1.6441 -0.8393 -0.3834
  407MPD2    H1 6080   0.200   4.383   9.194  1.9938 -0.0038 -2.9356
  407MPD2    H2 6081   0.509   4.106   9.199  1.1506  1.7089 -1.8212
  407MPD2    H3 6082   0.282   4.184   9.130 -1.3298 -1.7002  2.8167
  407MPD2     N 6083   0.298   4.556   9.373  0.4401 -0.1839 -0.7726
  407MPD2    H5 6084   0.218   4.590   9.321 -0.3205  1.0421  1.1887
  407MPD2    N1 6085   0.655   4.241   9.399  0.2505 -0.3627  0.4433
  407MPD2    H7 6086   0.691   4.303   9.471 -1.6975  2.2236 -0.8222
  408TMC3    C1 6087   0.871   4.178   9.396 -0.1436 -0.4487 -0.3196
  408TMC3    C2 6088   0.959   4.074   9.400  0.2020 -0.8665  0.1698
  408TMC3    C3 6089   1.078   4.091   9.462  0.8528  0.3991  0.6084
  408TMC3    C4 6090   0.908   4.303   9.444 -0.3450  0.3245  0.3375
  408TMC3    C5 6091   1.035   4.314   9.501  0.0745  0.3804  0.2493
  408TMC3    C6 6092   1.117   4.212   9.511 -0.9610 -0.5057 -0.2673
  408TMC3     C 6093   0.738   4.151   9.344  0.7895  0.2007 -0.2696
  408TMC3     O 6094   0.713   4.049   9.288  0.5604 -0.0291  1.2351
  408TMC3     H 6095   0.944   3.976   9.355 -0.3554  0.3312 -2.2802
  408TMC3    H1 6096   0.849   4.394   9.436 -1.2063 -0.1348  1.3499
  408TMC3    H2 6097   1.211   4.226   9.562 -1.0558  0.8254 -0.4616
  408TMC3    C7 6098   1.071   4.448   9.542 -0.0946 -0.0149 -0.2737
  408TMC3    C8 6099   1.159   3.978   9.506  0.2198 -0.1655 -0.1253
  408TMC3    O1 6100   1.024   4.540   9.475  0.7326  0.6094 -0.4636
  408TMC3    O2 6101   1.129   3.876   9.448 -0.0080 -0.1027 -0.1889
  409MPD2     C 6102   4.229   1.007  16.852  0.1200  0.9473  0.3068
  409MPD2    C1 6103   4.294   1.050  16.968 -0.5311  0.4995 -0.4046
  409MPD2    C2 6104   4.388   1.146  16.952  0.3524 -0.0854 -0.0579
  409MPD2    C3 6105   4.413   1.216  16.835  0.4039 -0.1516  0.5721
  409MPD2    C4 6106   4.339   1.184  16.727  0.9062 -0.0059 -0.1591
  409MPD2    C5 6107   4.255   1.077  16.735  0.0683  0.4441 -0.3300
  409MPD2     H 6108   4.452   1.177  17.034  1.1145 -1.6949 -0.0452
  409MPD2    H1 6109   4.366   1.233  16.634  0.1048  2.2514  0.8002
  409MPD2    H2 6110   4.157   0.926  16.845 -0.7007  1.6284  0.8179
  409MPD2    H3 6111   4.195   1.058  16.646  0.1110  0.5250 -0.3759
  409MPD2     N 6112   4.512   1.315  16.815 -0.4088  0.1798 -0.0918
  409MPD2    H5 6113   4.504   1.357  16.724  0.7889 -1.1553 -0.8171
  409MPD2    N1 6114   4.261   1.013  17.101  0.3237 -0.0701 -0.1107
  409MPD2    H7 6115   4.316   1.062  17.172  1.6140 -0.3670 -0.9073
  410TMC3    C1 6116   4.685   1.459  16.844  0.7114  0.2513 -0.8837
  410TMC3    C2 6117   0.079   1.488  16.900  0.2413  0.5558 -0.1215
  410TMC3    C3 6118   0.159   1.589  16.841  0.8143  0.0681 -0.5382
  410TMC3    C4 6119   4.638   1.537  16.745 -0.0545 -0.0893 -0.4737
  410TMC3    C5 6120   4.712   1.643  16.693 -0.2025 -0.0878 -0.8356
  410TMC3    C6 6121   0.113   1.669  16.738  0.1389 -0.3414  0.0716
  410TMC3     C 6122   4.608   1.359  16.903 -0.0443  0.8893 -0.5835
  410TMC3     O 6123   4.642   1.312  17.009  0.5766 -0.0764  0.1272
  410TMC3     H 6124   0.118   1.430  16.983  0.3655  1.5291  0.5119
  410TMC3    H1 6125   4.537   1.518  16.710 -0.5896  0.1070  0.9136
  410TMC3    H2 6126   0.191   1.719  16.682 -0.0824  1.4177  1.3449
  410TMC3    C7 6127   4.683   1.677  16.561  0.1113 -0.3357  0.1713
  410TMC3    C8 6128   0.280   1.630  16.906 -0.0451 -0.3494  0.7894
  410TMC3    O1 6129   4.596   1.606  16.515  0.5638  0.3577 -0.2532
  410TMC3    O2 6130   0.357   1.545  16.955  0.3833 -0.0776 -0.6897
  411MPD2     C 6131   0.232   1.467  14.633  0.2371  0.2570 -0.1105
  411MPD2    C1 6132   0.107   1.528  14.629  0.3540 -0.6493 -0.5728
  411MPD2    C2 6133   4.716   1.460  14.639  0.0009  0.2858 -0.4588
  411MPD2    C3 6134   4.716   1.325  14.648  1.0890  0.2682 -0.0941
  411MPD2    C4 6135   0.115   1.263  14.662  0.4050  0.0627  0.3550
  411MPD2    C5 6136   0.229   1.331  14.653 -0.4519  0.8615 -0.1552
  411MPD2     H 6137   4.626   1.518  14.621 -0.0324  0.4046  0.0804
  411MPD2    H1 6138   0.121   1.154  14.657  0.8294  0.0917  0.2729
  411MPD2    H2 6139   0.331   1.511  14.620  0.6814  0.0631  2.7756
  411MPD2    H3 6140   0.328   1.288  14.645  0.2656  2.5372 -0.3951
  411MPD2     N 6141   4.604   1.253  14.625  0.0076  0.6047  0.0167
  411MPD2    H5 6142   4.612   1.152  14.622  2.6317  0.8323 -0.0663
  411MPD2    N1 6143   0.085   1.664  14.603  0.1822 -0.0063  0.8135
  411MPD2    H7 6144   4.718   1.693  14.570  0.7510  0.1790 -0.5893
  412TMC3    C1 6145   4.390   1.216  14.535 -0.2789  0.3761  0.0031
  412TMC3    C2 6146   4.263   1.229  14.553 -0.4304 -0.0314  0.1780
  412TMC3    C3 6147   4.184   1.199  14.444 -0.4004 -0.0819 -0.7757
  412TMC3    C4 6148   4.451   1.174  14.424  0.8253 -0.1295 -0.4322
  412TMC3    C5 6149   4.369   1.150  14.316  0.0983 -0.3979 -0.0075
  412TMC3    C6 6150   4.230   1.152  14.331 -0.5524 -0.1639 -0.2111
  412TMC3     C 6151   4.477   1.305  14.612 -0.2294  0.2026 -0.1033
  412TMC3     O 6152   4.423   1.403  14.662  0.2853 -0.7022 -0.1660
  412TMC3     H 6153   4.228   1.281  14.642 -0.1871 -1.5559  1.1623
  412TMC3    H1 6154   4.558   1.190  14.412  0.7104  0.5131 -0.6297
  412TMC3    H2 6155   4.155   1.136  14.254  0.7646  1.0110 -1.7206
  412TMC3    C7 6156   4.404   1.239  14.208 -0.1031 -0.5130 -0.3971
  412TMC3    C8 6157   4.065   1.282  14.425  0.2755 -0.2752 -0.3591
  412TMC3    O1 6158   4.301   1.288  14.158 -0.7009  0.1109 -0.2409
  412TMC3    O2 6159   3.973   1.265  14.502  0.2937 -0.8343 -0.0708
  413MPD2     C 6160   1.611   4.652  15.519 -0.4936 -0.0481 -0.3649
  413MPD2    C1 6161   1.562   4.614  15.399  0.0859 -0.3145  0.2154
  413MPD2    C2 6162   1.619   4.511  15.325  0.4576 -0.1966  0.0467
  413MPD2    C3 6163   1.731   4.451  15.378 -0.3298  0.2644  0.0034
  413MPD2    C4 6164   1.776   4.485  15.505  0.0940 -0.4380 -0.4060
  413MPD2    C5 6165   1.728   4.594  15.567 -0.4677 -0.0033 -0.4686
  413MPD2     H 6166   1.591   4.491  15.222  1.8555 -0.4617 -0.2757
  413MPD2    H1 6167   1.864   4.435  15.544 -1.0448 -0.3763  2.1852
  413MPD2    H2 6168   1.567   0.014  15.567 -1.2257 -0.4065 -0.3867
  413MPD2    H3 6169   1.772   4.630  15.660  0.0375 -0.2007 -0.6307
  413MPD2     N 6170   1.789   4.357  15.290 -0.3488  0.0155 -0.3717
  413MPD2    H5 6171   1.742   4.352  15.200  2.3240  2.7217 -1.8898
  413MPD2    N1 6172   1.450   4.681  15.347 -0.5781  1.0426 -0.6892
  413MPD2    H7 6173   1.402   0.013  15.416 -1.6082 -0.1751 -0.3880
  414TMC3    C1 6174   1.960   4.214  15.200 -0.0370 -0.6090  0.6595
  414TMC3    C2 6175   2.078   4.147  15.223  0.1604  0.0622 -0.4227
  414TMC3    C3 6176   2.100   4.027  15.163  0.0534 -0.1916 -0.1554
  414TMC3    C4 6177   1.871   4.168  15.111 -0.5429 -0.0072  1.2195
  414TMC3    C5 6178   1.905   4.060  15.032 -0.1691 -0.2013 -0.7531
  414TMC3    C6 6179   2.005   3.977  15.076 -0.4590 -0.0217  0.1672
  414TMC3     C 6180   1.915   4.297  15.314 -0.8440 -0.1419 -0.4162
  414TMC3     O 6181   1.984   4.291  15.417 -0.4542  0.3162  0.4204
  414TMC3     H 6182   2.159   4.195  15.277 -0.9460  0.4189  0.9171
  414TMC3    H1 6183   1.775   4.219  15.102 -1.8184 -2.2158  2.1910
  414TMC3    H2 6184   2.036   3.888  15.021 -0.9229 -0.5792  0.8128
  414TMC3    C7 6185   1.795   4.010  14.953 -0.8037 -0.1802  1.2445
  414TMC3    C8 6186   2.239   3.974  15.142  0.6520 -0.1979 -0.6668
  414TMC3    O1 6187   1.687   4.019  15.011 -0.0167 -0.5182  0.0529
  414TMC3    O2 6188   2.250   3.876  15.069  0.5333  0.1688 -0.2841
  415TMC3    C1 6189   2.815   1.901   9.798 -0.8046 -0.1922  0.6009
  415TMC3    C2 6190   2.941   1.953   9.806  0.4962  0.2084 -0.5520
  415TMC3    C3 6191   2.973   2.065   9.733  0.4868 -1.1550  0.5263
  415TMC3    C4 6192   2.714   1.982   9.761  0.1348  0.2421  0.4971
  415TMC3    C5 6193   2.745   2.104   9.715 -0.3838  0.3062 -0.0670
  415TMC3    C6 6194   2.872   2.141   9.675  0.0785 -0.0512  0.0195
  415TMC3     C 6195   2.784   1.771   9.853  0.1403  0.4424 -0.5330
  415TMC3     O 6196   2.664   1.751   9.878  0.3505  0.1679 -0.6013
  415TMC3     H 6197   3.019   1.901   9.861  0.4993  1.6937  0.8586
  415TMC3    H1 6198   2.612   1.959   9.788 -0.0598 -0.5235 -0.8623
  415TMC3    H2 6199   2.891   2.233   9.620 -0.9959 -0.1269 -0.4910
  415TMC3    C7 6200   2.650   2.214   9.706 -0.5023 -0.6182  0.2376
  415TMC3    C8 6201   3.115   2.087   9.706 -0.0660  0.1175 -0.1892
  415TMC3    O1 6202   2.665   2.308   9.629  0.1385  0.1109 -0.4905
  415TMC3    O2 6203   3.174   1.978   9.709 -0.9626  0.1323  0.2348
  416MPD2     C 6204   4.268   1.260  11.313  0.0230 -0.1312  0.0254
  416MPD2    C1 6205   4.144   1.230  11.249 -0.0262 -0.3264 -0.3030
  416MPD2    C2 6206   4.147   1.139  11.140  0.4710  0.5718  0.6662
  416MPD2    C3 6207   4.265   1.087  11.090  0.1072  0.3827  0.2953
  416MPD2    C4 6208   4.383   1.125  11.152 -0.1762 -0.5168 -0.8087
  416MPD2    C5 6209   4.382   1.200  11.266 -0.3201 -0.1117  0.5431
  416MPD2     H 6210   4.053   1.101  11.102  1.3550 -1.1776  0.1963
  416MPD2    H1 6211   4.478   1.079  11.128  1.0620  1.3872  0.5018
  416MPD2    H2 6212   4.265   1.316  11.405 -0.0418  0.1953 -0.1749
  416MPD2    H3 6213   4.476   1.220  11.314 -1.4344  2.1966  1.7464
  416MPD2     N 6214   4.280   0.999  10.975 -0.4244 -0.7711 -0.2759
  416MPD2    H5 6215   4.372   0.962  10.954 -0.3804 -0.0237 -1.3617
  416MPD2    N1 6216   4.037   1.294  11.306  0.4422  0.0164 -0.2983
  416MPD2    H7 6217   4.054   1.349  11.389 -1.1550 -0.5097  0.3785
  417TMC3    C1 6218   3.820   1.360  11.350 -0.7513  0.6979 -0.1196
  417TMC3    C2 6219   3.853   1.398  11.480 -0.3364 -0.4232 -0.6431
  417TMC3    C3 6220   3.749   1.456  11.552 -0.3819  0.3068  0.5737
  417TMC3    C4 6221   3.697   1.370  11.301  0.1801 -0.3889 -0.5183
  417TMC3    C5 6222   3.600   1.433  11.373  0.2625  0.4459 -0.2805
  417TMC3    C6 6223   3.625   1.484  11.502 -0.4721 -0.4919 -0.8228
  417TMC3     C 6224   3.904   1.279  11.270 -0.3901  0.2419 -0.3374
  417TMC3     O 6225   3.858   1.217  11.180 -0.2755  0.4180 -0.5299
  417TMC3     H 6226   3.938   1.352  11.530 -0.6510  0.0945  0.3720
  417TMC3    H1 6227   3.669   1.338  11.201  1.2897 -0.7227 -0.7251
  417TMC3    H2 6228   3.551   1.521  11.572  0.5341 -0.4923  0.2506
  417TMC3    C7 6229   3.501   1.504  11.293 -0.4575  0.4072 -0.1047
  417TMC3    C8 6230   3.773   1.491  11.691 -0.0813 -0.4157  0.0143
  417TMC3    O1 6231   3.520   1.515  11.170  0.0515 -0.1501 -0.2846
  417TMC3    O2 6232   3.673   1.499  11.763  0.2723 -0.0015  0.0490
  418TMC3    C1 6233   2.577   3.242   0.561 -0.3371 -0.0680 -0.8660
  418TMC3    C2 6234   2.480   3.247   0.465 -0.6585 -0.2527  0.3939
  418TMC3    C3 6235   2.433   3.129   0.413 -0.2964  0.5048  0.2943
  418TMC3    C4 6236   2.624   3.127   0.606 -0.4401 -0.2377  0.4181
  418TMC3    C5 6237   2.571   3.008   0.557 -0.4275 -0.2492 -0.2248
  418TMC3    C6 6238   2.477   3.006   0.455 -0.2858  0.0245 -0.2984
  418TMC3     C 6239   2.671   3.354   0.559  0.1563  0.3424 -0.0153
  418TMC3     O 6240   2.618   3.462   0.564  0.4306  0.6417 -0.3364
  418TMC3     H 6241   2.447   3.344   0.428  1.3230  0.1839 -0.1803
  418TMC3    H1 6242   2.689   3.122   0.693 -1.1285  2.0453  1.0669
  418TMC3    H2 6243   2.425   2.915   0.427  0.8481 -0.3319 -1.2191
  418TMC3    C7 6244   2.614   2.877   0.603 -0.2731 -0.9116  0.0380
  418TMC3    C8 6245   2.348   3.140   0.299  0.0699 -0.3039  0.0445
  418TMC3    O1 6246   2.590   2.785   0.523 -0.0504 -0.2663  0.3832
  418TMC3    O2 6247   2.293   3.250   0.293  0.1534 -0.1986  0.0372
  419MPD2     C 6248   1.185   0.872  12.398  0.2243  0.0788 -0.3443
  419MPD2    C1 6249   1.098   0.966  12.345  0.6027  0.4020 -0.0853
  419MPD2    C2 6250   0.994   1.004  12.422  0.5912  0.5465  0.4474
  419MPD2    C3 6251   0.971   0.942  12.548  0.2206  0.2072  0.3406
  419MPD2    C4 6252   1.064   0.844  12.595 -0.4885 -0.1421 -0.7814
  419MPD2    C5 6253   1.159   0.801  12.514 -0.2015 -0.0953  0.6722
  419MPD2     H 6254   0.926   1.081  12.387 -0.8000 -1.4776 -1.2594
  419MPD2    H1 6255   1.056   0.790  12.688  0.3147 -0.6974 -1.0326
  419MPD2    H2 6256   1.271   0.839  12.340 -1.2907 -1.3516 -1.8071
  419MPD2    H3 6257   1.218   0.714  12.541  1.1856  1.2406  1.9526
  419MPD2     N 6258   0.860   0.984  12.618  0.1520 -0.2808  0.0038
  419MPD2    H5 6259   0.820   1.072  12.589  0.3080  0.0686  0.8422
  419MPD2    N1 6260   1.119   1.029  12.226  0.2229 -0.2703 -0.3514
  419MPD2    H7 6261   1.057   1.102  12.193 -0.9737 -1.5047 -0.8166
  420TMC3    C1 6262   0.744   1.022  12.821  0.1712  0.2672 -0.3398
  420TMC3    C2 6263   0.683   1.128  12.765  0.2650 -0.1664  0.5887
  420TMC3    C3 6264   0.619   1.216  12.844 -0.0733  0.6637 -0.6608
  420TMC3    C4 6265   0.771   1.025  12.957  0.0889  0.4307  0.0755
  420TMC3    C5 6266   0.705   1.114  13.036  0.5621 -0.2091 -0.3785
  420TMC3    C6 6267   0.628   1.210  12.984 -0.2008  0.4333  0.1759
  420TMC3     C 6268   0.820   0.928  12.740  0.5368 -0.8812 -0.3511
  420TMC3     O 6269   0.856   0.829  12.806  0.3109  0.5322 -0.1970
  420TMC3     H 6270   0.680   1.136  12.657 -0.6430  0.9843  0.6926
  420TMC3    H1 6271   0.815   0.939  13.005 -1.9488 -0.1677  0.8659
  420TMC3    H2 6272   0.582   1.287  13.045  1.0920 -0.2188  1.9652
  420TMC3    C7 6273   0.754   1.128  13.168 -0.3283 -0.6736 -0.6380
  420TMC3    C8 6274   0.577   1.340  12.784  0.2260  0.1013 -0.3137
  420TMC3    O1 6275   0.865   1.086  13.186 -1.2508  0.5942  0.0979
  420TMC3    O2 6276   0.643   1.381  12.689  0.0197  0.2522  0.2301
  421TMC3    C1 6277   2.969   3.067  13.450  0.2204  0.1882 -0.6109
  421TMC3    C2 6278   3.018   3.130  13.556 -0.8859 -0.2373  0.9655
  421TMC3    C3 6279   3.098   3.069  13.645 -0.4363 -0.6743  0.0524
  421TMC3    C4 6280   3.000   2.931  13.434 -0.0985  0.1219 -0.3216
  421TMC3    C5 6281   3.068   2.865  13.533  0.2059 -0.2767  0.0671
  421TMC3    C6 6282   3.128   2.937  13.639 -0.1239  0.1779  0.6269
  421TMC3     C 6283   2.873   3.131  13.363 -0.2421 -0.5219  0.3504
  421TMC3     O 6284   2.859   3.249  13.383 -0.2659 -0.0290  0.0753
  421TMC3     H 6285   3.005   3.237  13.553 -1.6138 -0.4246 -2.2170
  421TMC3    H1 6286   2.970   2.874  13.346 -0.5077  1.1402 -0.8327
  421TMC3    H2 6287   3.196   2.881  13.702 -0.4318 -0.7954  0.1074
  421TMC3    C7 6288   3.128   2.735  13.509 -0.1531  0.3106 -0.5692
  421TMC3    C8 6289   3.143   3.147  13.757  0.2986 -0.0903  0.3582
  421TMC3    O1 6290   3.193   2.682  13.598 -0.5022  0.1925  0.1139
  421TMC3    O2 6291   3.254   3.125  13.805 -0.1309 -0.6467 -0.2645
  422TMC3    C1 6292   0.281   4.129  12.370 -0.1599  0.3781  0.6959
  422TMC3    C2 6293   0.239   4.255  12.407  0.7364 -0.0847  0.2331
  422TMC3    C3 6294   0.101   4.268  12.424 -0.1983  0.2934  0.0806
  422TMC3    C4 6295   0.195   4.020  12.361 -0.6126  0.4845 -0.3803
  422TMC3    C5 6296   0.063   4.037  12.391 -0.7444 -0.5822 -0.0456
  422TMC3    C6 6297   0.018   4.162  12.436 -0.0374  0.3065 -0.9181
  422TMC3     C 6298   0.401   4.132  12.290 -0.3403 -0.5975  0.1826
  422TMC3     O 6299   0.453   4.243  12.264  0.2838 -0.3739 -0.3562
  422TMC3     H 6300   0.306   4.341  12.407  1.5183 -0.6922 -0.8583
  422TMC3    H1 6301   0.230   3.920  12.337  0.3982  0.8171 -0.2902
  422TMC3    H2 6302   4.638   4.174  12.458 -0.3931 -0.1362 -2.3644
  422TMC3    C7 6303   4.713   3.914  12.398  0.2132 -0.4249  0.2667
  422TMC3    C8 6304   0.054   4.396  12.462 -0.7858  0.1505  0.1480
  422TMC3    O1 6305   0.035   3.811  12.351  0.2376 -0.0697  0.5724
  422TMC3    O2 6306   0.140   4.465  12.509 -0.0150  0.2842 -0.1739
  423MPD2     C 6307   1.587   1.007   0.141  0.4118  0.2332 -0.6018
  423MPD2    C1 6308   1.658   0.908   0.213 -0.4265 -0.3913 -0.0834
  423MPD2    C2 6309   1.674   0.781   0.160  0.5030 -0.0245 -0.0596
  423MPD2    C3 6310   1.605   0.751   0.043 -0.4527  0.2500  0.3007
  423MPD2    C4 6311   1.535   0.848  17.678 -0.2440 -0.1310  0.1474
  423MPD2    C5 6312   1.532   0.974   0.022  0.2480 -0.2744 -0.0837
  423MPD2     H 6313   1.742   0.715   0.213 -0.4254 -1.2910 -0.4456
  423MPD2    H1 6314   1.489   0.835  17.581 -2.4788  2.4485  0.8752
  423MPD2    H2 6315   1.573   1.107   0.182 -1.2978 -0.0612 -0.4631
  423MPD2    H3 6316   1.471   1.044  17.667  1.7966  0.8993 -0.3145
  423MPD2     N 6317   1.620   0.627  17.686 -0.0188  1.2416  0.7505
  423MPD2    H5 6318   1.584   0.612  17.592  1.6860  0.3769  0.2358
  423MPD2    N1 6319   1.735   0.938   0.329 -0.6993  0.4855 -0.5843
  423MPD2    H7 6320   1.797   0.862   0.355  0.1219  1.9680  1.8346
  424TMC3    C1 6321   1.834   1.061   0.499  0.3424  0.1543 -0.3671
  424TMC3    C2 6322   1.943   0.978   0.498 -0.5464  0.1833  0.5495
  424TMC3    C3 6323   2.029   0.980   0.606 -1.0910 -0.1312 -0.3812
  424TMC3    C4 6324   1.811   1.150   0.602 -0.2927  0.2148  0.1060
  424TMC3    C5 6325   1.890   1.149   0.709  0.1988 -0.2290  0.2121
  424TMC3    C6 6326   2.004   1.070   0.712 -0.0881 -0.7817  0.0799
  424TMC3     C 6327   1.732   1.054   0.397  0.8542  0.1801  0.4525
  424TMC3     O 6328   1.663   1.152   0.388 -0.3192  0.5185 -0.3507
  424TMC3     H 6329   1.951   0.902   0.421 -1.0551  1.5195 -0.8224
  424TMC3    H1 6330   1.715   1.201   0.608 -0.2584  0.5044 -1.6545
  424TMC3    H2 6331   2.068   1.063   0.799  1.0988 -1.7030 -0.8604
  424TMC3    C7 6332   1.837   1.218   0.835  0.0807  0.1036  0.2085
  424TMC3    C8 6333   2.122   0.871   0.630 -0.3203  0.2585 -0.6651
  424TMC3    O1 6334   1.764   1.309   0.803  0.0043 -0.3334  0.0776
  424TMC3    O2 6335   2.116   0.816   0.738 -0.1066  0.1659  0.0124
  425MPD2     C 6336   0.653   0.105  17.287 -1.2056 -0.1079 -0.0902
  425MPD2    C1 6337   0.575   0.003  17.231 -0.6058 -0.3966  0.4456
  425MPD2    C2 6338   0.433   0.034  17.229  0.0157  0.0034 -0.8070
  425MPD2    C3 6339   0.371   0.139  17.295 -1.2371  0.5267  0.2113
  425MPD2    C4 6340   0.458   0.237  17.347 -0.1930  0.5949  0.1185
  425MPD2    C5 6341   0.599   0.225  17.340  0.7103 -0.2614  0.0284
  425MPD2     H 6342   0.370   4.691  17.173  0.1620 -1.1081  0.3530
  425MPD2    H1 6343   0.429   0.322  17.408 -0.3825 -0.6170  1.7239
  425MPD2    H2 6344   0.761   0.094  17.295 -1.3620 -1.3936  0.2323
  425MPD2    H3 6345   0.666   0.301  17.379 -0.0874  0.2552  0.3977
  425MPD2     N 6346   0.229   0.148  17.309  0.6256  0.1876 -0.4208
  425MPD2    H5 6347   0.168   0.081  17.262 -0.7544  1.7574 -0.8694
  425MPD2    N1 6348   0.638   4.606  17.188 -0.0743  0.0001  0.7868
  425MPD2    H7 6349   0.738   4.604  17.209  0.8119  1.8420 -3.1285
  426TMC3    C1 6350   0.654   4.404  17.097 -0.7639 -0.2178 -0.5600
  426TMC3    C2 6351   0.640   4.336  16.979 -0.6784 -0.3880  0.1253
  426TMC3    C3 6352   0.670   4.204  16.988 -0.4371 -0.3640 -0.0540
  426TMC3    C4 6353   0.679   4.349  17.221 -0.0729  0.7833  0.0247
  426TMC3    C5 6354   0.691   4.212  17.222 -0.1376  0.6696 -0.2659
  426TMC3    C6 6355   0.695   4.141  17.107  0.1946  0.6318  0.4004
  426TMC3     C 6356   0.569   4.521  17.111 -0.0192  0.0634 -0.0246
  426TMC3     O 6357   0.452   4.520  17.064 -0.0352  0.2003  0.2610
  426TMC3     H 6358   0.630   4.388  16.885  0.2070  0.6990  0.6385
  426TMC3    H1 6359   0.679   4.398  17.318  0.4022  0.9991 -0.0868
  426TMC3    H2 6360   0.710   4.034  17.110  0.1086  0.6160  0.2611
  426TMC3    C7 6361   0.661   4.136  17.338  0.7964 -0.5727  0.1972
  426TMC3    C8 6362   0.659   4.129  16.870 -0.2646  0.6557  0.3907
  426TMC3    O1 6363   0.691   4.015  17.325 -0.0739  0.3272  0.1916
  426TMC3    O2 6364   0.728   4.029  16.855  0.1496 -0.2774 -0.1620
  427MPD2     C 6365   4.149   1.728  14.540  0.3720 -0.1594  0.0576
  427MPD2    C1 6366   4.085   1.654  14.646 -0.0101  0.2803 -1.7689
  427MPD2    C2 6367   3.943   1.640  14.635  0.2233  0.4659 -0.6554
  427MPD2    C3 6368   3.869   1.680  14.526  0.2446  0.7858 -0.0205
  427MPD2    C4 6369   3.942   1.724  14.417 -0.7852 -0.0558  0.0356
  427MPD2    C5 6370   4.074   1.750  14.427  0.6273  0.1923 -0.4153
  427MPD2     H 6371   3.898   1.602  14.727 -1.5935 -1.6407 -2.4228
  427MPD2    H1 6372   3.897   1.750  14.322  1.0002 -1.7719 -1.2818
  427MPD2    H2 6373   4.256   1.748  14.536  0.5714 -1.2935 -0.3366
  427MPD2    H3 6374   4.122   1.796  14.342  0.2370  3.4538  1.1191
  427MPD2     N 6375   3.728   1.681  14.538 -0.0270  0.0012  0.5209
  427MPD2    H5 6376   3.678   1.665  14.625 -1.5227 -0.5512 -0.4513
  427MPD2    N1 6377   4.155   1.594  14.753 -0.2816 -0.7868 -0.1277
  427MPD2    H7 6378   4.256   1.610  14.757 -0.4295  0.0507  0.2142
  428TMC3    C1 6379   4.202   1.419  14.908 -0.2770 -0.2863  0.3192
  428TMC3    C2 6380   4.186   1.287  14.933  0.5605 -0.9222  0.2660
  428TMC3    C3 6381   4.238   1.250  15.054 -0.4470  0.9461  0.5520
  428TMC3    C4 6382   4.281   1.507  14.988  0.2886  0.2798  0.4222
  428TMC3    C5 6383   4.332   1.460  15.105 -0.7642 -0.1944  0.3713
  428TMC3    C6 6384   4.311   1.327  15.141  0.2679 -0.1235 -0.4695
  428TMC3     C 6385   4.106   1.479  14.816  0.6676 -0.5886 -0.0311
  428TMC3     O 6386   4.022   1.397  14.771 -0.4937  0.6321 -0.1786
  428TMC3     H 6387   4.124   1.227  14.867 -2.2371  0.5855  1.5156
  428TMC3    H1 6388   4.278   1.614  14.970 -1.3759  0.1816  0.1945
  428TMC3    H2 6389   4.352   1.278  15.229 -1.0376  0.5165  0.4960
  428TMC3    C7 6390   4.445   1.526  15.153  0.6828  0.2932  0.2894
  428TMC3    C8 6391   4.214   1.104  15.087  0.0545 -0.1432  0.1950
  428TMC3    O1 6392   4.480   1.493  15.266  0.0138  0.7395 -0.0559
  428TMC3    O2 6393   4.217   1.026  14.992  0.6695 -0.8215 -0.1056
  429MPD2     C 6394   0.163   2.153  17.392 -0.1893 -0.2391  0.0147
  429MPD2    C1 6395   0.283   2.087  17.379  0.7363 -0.3436  0.0706
  429MPD2    C2 6396   0.384   2.152  17.313  0.5032  0.3300 -0.1707
  429MPD2    C3 6397   0.371   2.276  17.264  0.4804  0.7371  0.1893
  429MPD2    C4 6398   0.245   2.331  17.268 -0.8466  0.9168  0.8369
  429MPD2    C5 6399   0.146   2.275  17.340  0.2295 -0.2795  0.5052
  429MPD2     H 6400   0.482   2.109  17.296  0.2655 -0.8959  1.5639
  429MPD2    H1 6401   0.227   2.425  17.217  1.9843  2.0065  1.8162
  429MPD2    H2 6402   0.072   2.113  17.435  0.4614 -1.7828 -0.0582
  429MPD2    H3 6403   0.046   2.317  17.340  0.5562  0.5545  2.2956
  429MPD2     N 6404   0.488   2.340  17.211 -0.2131  0.0281 -0.0559
  429MPD2    H5 6405   0.572   2.283  17.212 -0.6759 -0.6395  0.2287
  429MPD2    N1 6406   0.312   1.957  17.431 -0.8527 -0.2884 -0.8383
  429MPD2    H7 6407   0.408   1.928  17.443 -0.7222  0.8948  1.0309
  430TMC3    C1 6408   0.620   2.494  17.083 -0.2676 -0.2619  0.1857
  430TMC3    C2 6409   0.636   2.618  17.010  0.2658 -0.2405 -0.1623
  430TMC3    C3 6410   0.720   2.620  16.903  0.0297 -0.3454 -0.4021
  430TMC3    C4 6411   0.700   2.390  17.050 -0.4159 -0.1966 -0.1805
  430TMC3    C5 6412   0.793   2.409  16.946  0.4989 -0.1371 -0.7239
  430TMC3    C6 6413   0.805   2.521  16.876  0.0921 -0.0358 -0.0342
  430TMC3     C 6414   0.491   2.462  17.145  0.1344  0.2437 -0.2874
  430TMC3     O 6415   0.403   2.541  17.122 -0.6070 -0.6028 -0.1035
  430TMC3     H 6416   0.561   2.696  17.013  1.6301  0.9865  2.5188
  430TMC3    H1 6417   0.685   2.287  17.077  2.1452 -0.3592  0.6923
  430TMC3    H2 6418   0.872   2.519  16.791 -0.6274 -0.9613 -0.5744
  430TMC3    C7 6419   0.811   2.289  16.867  0.4178  0.3710 -0.0497
  430TMC3    C8 6420   0.643   2.629  16.776 -0.0636  0.0584 -0.0784
  430TMC3    O1 6421   0.705   2.239  16.833  0.0191 -0.1235  0.2733
  430TMC3    O2 6422   0.656   2.543  16.692  0.4841 -0.7958 -0.0205
  431MPD2     C 6423   1.223   1.783  12.567  0.3625  0.1152 -0.4723
  431MPD2    C1 6424   1.277   1.811  12.443 -0.1351  0.0979  0.1040
  431MPD2    C2 6425   1.281   1.718  12.337 -0.1507 -0.8340 -0.3994
  431MPD2    C3 6426   1.223   1.592  12.362 -0.2746  0.0438  0.8539
  431MPD2    C4 6427   1.156   1.567  12.477 -0.1177 -0.1859  0.2163
  431MPD2    C5 6428   1.157   1.662  12.581  0.1825  0.4835  0.1789
  431MPD2     H 6429   1.330   1.741  12.244  2.0663 -0.6911  0.8053
  431MPD2    H1 6430   1.092   1.483  12.498  0.8404 -1.3628 -1.5486
  431MPD2    H2 6431   1.220   1.851  12.651  0.8081  1.8127 -1.8399
  431MPD2    H3 6432   1.104   1.641  12.673  1.1082  1.7746  0.9973
  431MPD2     N 6433   1.234   1.487  12.264 -0.2040  0.5721  0.3827
  431MPD2    H5 6434   1.204   1.396  12.297 -0.5238  1.2618  2.0195
  431MPD2    N1 6435   1.335   1.933  12.416 -0.5452  0.1519  0.0682
  431MPD2    H7 6436   1.360   1.945  12.318  1.3364 -2.5662  0.2331
  432TMC3    C1 6437   1.311   1.364  12.079  0.6602  0.0578 -0.3043
  432TMC3    C2 6438   1.385   1.353  11.969  0.2447 -0.3367 -0.5074
  432TMC3    C3 6439   1.410   1.227  11.922 -0.8391  0.1739  0.2618
  432TMC3    C4 6440   1.245   1.252  12.130  0.6395 -0.4745  0.4489
  432TMC3    C5 6441   1.267   1.130  12.069 -0.5679  0.4665 -0.5577
  432TMC3    C6 6442   1.345   1.114  11.960 -0.0758 -0.0223  0.3191
  432TMC3     C 6443   1.317   1.486  12.152 -0.5841  0.0194 -0.7702
  432TMC3     O 6444   1.385   1.574  12.100 -0.3152  0.2787  0.1866
  432TMC3     H 6445   1.418   1.441  11.916 -2.8261  2.1647  1.6952
  432TMC3    H1 6446   1.183   1.262  12.218  1.4796 -1.2728  1.1364
  432TMC3    H2 6447   1.365   1.020  11.911 -1.1220  0.4246 -0.9691
  432TMC3    C7 6448   1.231   1.010  12.152  0.3232  0.0675  0.4931
  432TMC3    C8 6449   1.498   1.219  11.811  0.1862  0.2314  0.3528
  432TMC3    O1 6450   1.278   0.901  12.124  0.1513 -0.2899  0.4845
  432TMC3    O2 6451   1.486   1.123  11.731  0.1971  0.0959 -0.3331
  433MPD2     C 6452   0.206   0.519  10.252  0.4095 -0.2004  0.4718
  433MPD2    C1 6453   0.181   0.419  10.346 -0.1130 -0.0346  0.1499
  433MPD2    C2 6454   0.171   0.461  10.473  0.3334  0.1658 -0.3710
  433MPD2    C3 6455   0.174   0.590  10.515 -0.4793  0.3892  0.1688
  433MPD2    C4 6456   0.191   0.697  10.423  0.3065  0.0406 -0.5018
  433MPD2    C5 6457   0.216   0.649  10.294 -0.8105  1.7403 -0.3112
  433MPD2     H 6458   0.157   0.382  10.546  2.2811  0.2015  0.0490
  433MPD2    H1 6459   0.195   0.803  10.446  0.1710  0.1552 -1.0203
  433MPD2    H2 6460   0.239   0.495  10.151  1.6847  0.1572  0.7972
  433MPD2    H3 6461   0.247   0.723  10.222  0.8185  0.9776 -0.3783
  433MPD2     N 6462   0.171   0.606  10.662 -0.0915 -0.2150 -0.1845
  433MPD2    H5 6463   0.175   0.527  10.725 -2.1443 -0.9497 -0.9770
  433MPD2    N1 6464   0.165   0.281  10.310  0.6494  0.2124 -0.2737
  433MPD2    H7 6465   0.182   0.249  10.216 -2.2546  1.8727 -1.3806
  434TMC3    C1 6466   0.086   0.062  10.310  0.2264 -0.4565 -0.3714
  434TMC3    C2 6467   0.112   4.683  10.393  0.4448  0.7442  0.1454
  434TMC3    C3 6468   0.163   4.567  10.332 -0.3358 -0.1282  0.0606
  434TMC3    C4 6469   0.109   0.055  10.172 -0.0623 -0.2810  0.0999
  434TMC3    C5 6470   0.171   4.673  10.122  0.4711  0.1775  0.0497
  434TMC3    C6 6471   0.194   4.564  10.201  0.0411  0.0017 -0.4356
  434TMC3     C 6472   0.089   0.187  10.378 -0.3538  0.0404  0.8071
  434TMC3     O 6473   0.056   0.192  10.499  0.1560 -0.0097  0.5479
  434TMC3     H 6474   0.111   4.690  10.501 -0.7937 -0.6235  0.2149
  434TMC3    H1 6475   0.091   0.140  10.108  2.2914 -1.0443 -1.5780
  434TMC3    H2 6476   0.245   4.476  10.164 -0.6234  0.2165 -1.8795
  434TMC3    C7 6477   0.130   4.648   9.986 -0.1307 -0.0340  0.2654
  434TMC3    C8 6478   0.257   4.487  10.411  0.2926  0.4200  0.2086
  434TMC3    O1 6479   0.103   0.009   9.907 -0.1687 -0.4928 -0.1421
  434TMC3    O2 6480   0.376   4.480  10.380  0.1444 -0.7756 -0.5534
  435MPD2     C 6481   1.969   0.647  15.221  0.2585 -0.1393  0.1231
  435MPD2    C1 6482   1.957   0.636  15.357 -0.3859  0.1584  0.2409
  435MPD2    C2 6483   2.051   0.576  15.432 -0.4534 -0.3889 -0.1582
  435MPD2    C3 6484   2.171   0.534  15.375 -0.4782 -0.1266 -0.6026
  435MPD2    C4 6485   2.189   0.556  15.241  0.2606  0.4498  0.2034
  435MPD2    C5 6486   2.087   0.602  15.162 -0.3393  1.5458  0.3191
  435MPD2     H 6487   2.044   0.566  15.540  0.0683 -2.2809 -0.2998
  435MPD2    H1 6488   2.283   0.532  15.194  0.0057  1.2278 -0.7099
  435MPD2    H2 6489   1.893   0.685  15.153  0.9213  2.4851  0.8713
  435MPD2    H3 6490   2.109   0.627  15.059  0.7536  2.2870  0.7206
  435MPD2     N 6491   2.263   0.468  15.462  0.6664 -0.2673  0.3416
  435MPD2    H5 6492   2.239   0.468  15.561 -1.8775  0.4721 -0.2744
  435MPD2    N1 6493   1.845   0.676  15.433  0.6418  0.0799  0.2736
  435MPD2    H7 6494   1.847   0.636  15.526 -0.8707 -1.3382 -0.3162
  436TMC3    C1 6495   1.616   0.781  15.712  0.7430 -0.4747  0.6063
  436TMC3    C2 6496   1.695   0.793  15.604  0.4937  0.5823  0.7209
  436TMC3    C3 6497   1.641   0.756  15.487 -0.1925 -0.3174 -0.6216
  436TMC3    C4 6498   1.488   0.738  15.711 -0.2181 -0.7383 -0.1983
  436TMC3    C5 6499   1.436   0.715  15.583  0.2211  0.0115 -0.3910
  436TMC3    C6 6500   1.515   0.716  15.467  0.0309 -0.2525 -0.3128
  436TMC3     C 6501   1.669   0.844  15.833 -0.5122 -0.2921 -0.5220
  436TMC3     O 6502   1.787   0.874  15.839 -0.5522  0.3391 -0.0647
  436TMC3     H 6503   1.790   0.844  15.617 -1.5922  4.2457  1.3393
  436TMC3    H1 6504   1.433   0.709  15.800 -0.0667 -0.1784  0.0788
  436TMC3    H2 6505   1.475   0.691  15.370 -1.2393  0.5172  0.0132
  436TMC3    C7 6506   1.329   0.621  15.579  0.2946  0.4136  0.0660
  436TMC3    C8 6507   1.730   0.732  15.379  0.0007  0.0112 -0.0746
  436TMC3    O1 6508   1.310   0.564  15.684  0.2146  0.2566 -0.5659
  436TMC3    O2 6509   1.705   0.785  15.270 -0.5245 -1.1307  0.6175
  437TMC3    C1 6510   1.198   1.780  11.844 -0.1496  0.4385  0.5775
  437TMC3    C2 6511   1.155   1.821  11.966  0.1314 -0.5809  0.1780
  437TMC3    C3 6512   1.143   1.956  11.985  0.1770 -0.2744 -0.0201
  437TMC3    C4 6513   1.233   1.869  11.750  0.0371  0.2733 -0.5143
  437TMC3    C5 6514   1.216   1.998  11.774  0.0531  0.0220 -0.2483
  437TMC3    C6 6515   1.179   2.043  11.892  0.2969  0.3358  0.0692
  437TMC3     C 6516   1.168   1.647  11.798 -0.0135  0.1061 -0.1192
  437TMC3     O 6517   1.232   1.603  11.706  0.1247  0.5186  0.0903
  437TMC3     H 6518   1.141   1.747  12.044  1.3112 -0.7152  0.2645
  437TMC3    H1 6519   1.292   1.839  11.663 -0.4019  1.4648 -1.2196
  437TMC3    H2 6520   1.156   2.149  11.900  0.2871  0.2932  0.5952
  437TMC3    C7 6521   1.307   2.085  11.700  0.2872  0.5029 -0.0511
  437TMC3    C8 6522   1.106   2.008  12.116 -0.2592 -0.2301  1.0423
  437TMC3    O1 6523   1.327   2.051  11.584 -0.6023 -0.4891 -0.1229
  437TMC3    O2 6524   1.136   2.122  12.146 -0.4945 -0.2408  0.8900
  438MPD2     C 6525   2.981   3.210  16.460 -0.1724  0.0899 -0.6968
  438MPD2    C1 6526   3.036   3.090  16.502 -0.1364  0.8650  0.4532
  438MPD2    C2 6527   3.009   3.039  16.627 -0.4279 -0.8658  0.0855
  438MPD2    C3 6528   2.923   3.108  16.708 -0.0678 -0.0590 -0.1777
  438MPD2    C4 6529   2.864   3.225  16.664 -0.6253  0.1394  0.0744
  438MPD2    C5 6530   2.897   3.273  16.541  0.4408  0.2869  0.4020
  438MPD2     H 6531   3.054   2.947  16.660  0.4400 -0.4493  0.0527
  438MPD2    H1 6532   2.793   3.283  16.721 -2.3173 -1.5321 -0.3129
  438MPD2    H2 6533   3.008   3.257  16.366  0.5110  2.4841  0.7111
  438MPD2    H3 6534   2.855   3.368  16.510  0.9384  0.0931 -0.8937
  438MPD2     N 6535   2.897   3.065  16.843  0.2511  0.2673  0.3431
  438MPD2    H5 6536   2.845   3.131  16.901 -1.9166  1.3838 -2.8331
  438MPD2    N1 6537   3.126   3.018  16.424 -0.5126 -0.7024  0.0271
  438MPD2    H7 6538   3.160   2.932  16.465 -0.8739 -0.1516  1.4796
  439TMC3    C1 6539   3.241   2.950  16.230  0.0450 -0.8052 -0.5503
  439TMC3    C2 6540   3.231   2.882  16.117  0.8341  0.6819  0.4578
  439TMC3    C3 6541   3.301   2.769  16.088 -1.0249  1.3736 -0.2687
  439TMC3    C4 6542   3.333   2.904  16.320  0.0040 -0.1041  0.4963
  439TMC3    C5 6543   3.425   2.814  16.275  0.2621  0.4715  0.1182
  439TMC3    C6 6544   3.413   2.746  16.160 -0.3807  0.7972  0.1557
  439TMC3     C 6545   3.137   3.037  16.286  0.4120  0.3769 -0.0198
  439TMC3     O 6546   3.054   3.083  16.205 -0.0566  0.0949 -0.1658
  439TMC3     H 6547   3.168   2.922  16.039  0.4435  2.9310  1.8961
  439TMC3    H1 6548   3.355   2.959  16.411  0.1077  2.1409 -0.8949
  439TMC3    H2 6549   3.488   2.674  16.133  0.2465  0.9077  1.5859
  439TMC3    C7 6550   3.539   2.799  16.365  0.2024 -0.2238  0.3740
  439TMC3    C8 6551   3.329   2.740  15.947  0.0105  0.4846  0.3139
  439TMC3    O1 6552   3.568   2.894  16.438  0.1896  0.2631  0.0223
  439TMC3    O2 6553   3.364   2.624  15.916 -0.2130  0.2082 -0.0280
  440MPD2     C 6554   2.577   3.714  14.101 -0.5356  0.6840  0.2346
  440MPD2    C1 6555   2.498   3.644  14.195  0.4240 -0.2156 -0.3552
  440MPD2    C2 6556   2.548   3.622  14.324 -0.5380  0.1083 -0.3898
  440MPD2    C3 6557   2.679   3.663  14.354  0.5670  0.0433 -0.3398
  440MPD2    C4 6558   2.750   3.742  14.271 -0.2155  0.2901  1.0525
  440MPD2    C5 6559   2.706   3.754  14.138 -0.2520  1.0521  0.1649
  440MPD2     H 6560   2.495   3.546  14.380 -1.3485  1.8413  1.1906
  440MPD2    H1 6561   2.849   3.776  14.301  0.1838 -2.0004  2.3663
  440MPD2    H2 6562   2.549   3.729  13.997 -0.3564  0.4712  0.1533
  440MPD2    H3 6563   2.777   3.813  14.081  0.8735 -0.5240 -0.0903
  440MPD2     N 6564   2.736   3.618  14.481 -0.0045 -0.1733  0.8401
  440MPD2    H5 6565   2.828   3.659  14.496  0.0546  1.0683 -3.0085
  440MPD2    N1 6566   2.377   3.584  14.166 -0.7600 -0.0593  0.1562
  440MPD2    H7 6567   2.335   3.529  14.241 -2.2553  2.2479  1.0104
  441TMC3    C1 6568   2.767   3.511  14.695 -0.8886 -0.0554  0.1229
  441TMC3    C2 6569   2.827   3.618  14.756  0.2554  0.1911  0.1366
  441TMC3    C3 6570   2.807   3.636  14.892 -0.4805  0.0379  0.1938
  441TMC3    C4 6571   2.702   3.414  14.768 -0.1362  0.3137 -0.6568
  441TMC3    C5 6572   2.679   3.438  14.903 -0.1463 -0.0002  0.2173
  441TMC3    C6 6573   2.733   3.549  14.968  0.0584 -0.7251  0.1983
  441TMC3     C 6574   2.687   3.524  14.573 -0.0834 -0.2315  0.2684
  441TMC3     O 6575   2.590   3.455  14.567 -0.0587 -0.2117  0.0696
  441TMC3     H 6576   2.883   3.684  14.691 -1.7828  3.0008  1.2764
  441TMC3    H1 6577   2.672   3.324  14.715 -2.3261  0.0314  1.0498
  441TMC3    H2 6578   2.711   3.563  15.073  0.2787 -1.5407  0.3528
  441TMC3    C7 6579   2.556   3.387  14.965  0.1207  0.4699 -0.4121
  441TMC3    C8 6580   2.816   3.773  14.945 -0.2623 -0.1281 -0.9278
  441TMC3    O1 6581   2.552   3.371  15.083  0.3620  0.4020 -0.0768
  441TMC3    O2 6582   2.900   3.854  14.908  0.7794  0.8770  0.6977
  442MPD2     C 6583   0.053   4.296  16.289 -0.2793 -0.4108 -0.4258
  442MPD2    C1 6584   4.689   4.196  16.327  0.1501 -0.4728 -0.3958
  442MPD2    C2 6585   4.711   4.072  16.280 -0.4929 -0.3980  0.7323
  442MPD2    C3 6586   0.096   4.045  16.201 -0.3529 -0.3096  0.3346
  442MPD2    C4 6587   0.189   4.146  16.171  0.2635  0.3474  0.6346
  442MPD2    C5 6588   0.165   4.276  16.214  0.0178  0.4169  0.0783
  442MPD2     H 6589   4.636   3.996  16.299 -0.5182 -1.0444 -1.9011
  442MPD2    H1 6590   0.280   4.132  16.114 -0.7499 -0.1333 -0.8691
  442MPD2    H2 6591   0.037   4.400  16.316  0.6683  0.0159 -1.5192
  442MPD2    H3 6592   0.239   4.352  16.195 -0.3360  0.9638  0.8886
  442MPD2     N 6593   0.123   3.915  16.147  0.2114  0.4879 -0.1727
  442MPD2    H5 6594   0.204   3.907  16.087 -0.8309 -0.8491 -1.4198
  442MPD2    N1 6595   4.578   4.216  16.417  0.0116 -0.2092  0.7742
  442MPD2    H7 6596   4.523   4.133  16.440  0.0594 -1.2868 -2.9795
  443TMC3    C1 6597   4.424   4.351  16.557  0.3452  0.3686 -0.1956
  443TMC3    C2 6598   4.336   4.454  16.548 -0.3011 -0.3392 -0.2640
  443TMC3    C3 6599   4.210   4.439  16.602  0.1484 -0.5688 -0.4350
  443TMC3    C4 6600   4.403   4.249  16.648  0.2804 -0.6479 -0.5130
  443TMC3    C5 6601   4.297   4.259  16.731 -0.3161  0.1185 -0.1169
  443TMC3    C6 6602   4.201   4.350  16.706 -0.3343 -0.1832 -0.0191
  443TMC3     C 6603   4.540   4.343  16.470 -0.1355  0.6753  0.0866
  443TMC3     O 6604   4.579   4.452  16.434  0.0773  0.6607  0.5267
  443TMC3     H 6605   4.355   4.532  16.476 -3.4442  1.6132  1.0439
  443TMC3    H1 6606   4.478   4.174  16.670  1.4785  1.0404  1.1752
  443TMC3    H2 6607   4.105   4.345  16.757  0.4182 -3.2428  1.0487
  443TMC3    C7 6608   4.249   4.135  16.789 -0.0167  0.1481 -0.5443
  443TMC3    C8 6609   4.124   4.396  16.499  0.2813  0.3818 -0.0846
  443TMC3    O1 6610   4.284   4.036  16.732 -0.4972 -0.6259  0.4084
  443TMC3    O2 6611   4.082   4.283  16.509 -0.4103 -0.6796  0.3903
  444MPD2     C 6612   0.351   3.821  16.826  0.4930 -0.2026 -0.1525
  444MPD2    C1 6613   0.249   3.726  16.817 -0.0592  0.5833  0.8566
  444MPD2    C2 6614   0.278   3.604  16.777 -0.6488 -0.0725  0.4119
  444MPD2    C3 6615   0.409   3.564  16.749 -0.6138  0.8429  0.5933
  444MPD2    C4 6616   0.510   3.662  16.753  0.2528  0.3012  0.1603
  444MPD2    C5 6617   0.482   3.787  16.792  0.1142  0.0964  1.0223
  444MPD2     H 6618   0.204   3.525  16.780  0.0710 -0.6995  1.6489
  444MPD2    H1 6619   0.609   3.633  16.722 -0.3087 -0.2769 -1.0802
  444MPD2    H2 6620   0.342   3.921  16.865  0.0690 -1.0527  1.9276
  444MPD2    H3 6621   0.554   3.867  16.799  0.4383 -0.0208 -0.9908
  444MPD2     N 6622   0.431   3.433  16.701  0.5233  0.4608  0.4673
  444MPD2    H5 6623   0.353   3.370  16.688  1.2026  0.3854 -3.1913
  444MPD2    N1 6624   0.114   3.759  16.831 -0.4525  0.1008 -0.1581
  444MPD2    H7 6625   0.049   3.681  16.827 -1.5803  1.0352  0.2317
  445TMC3    C1 6626   0.556   3.238  16.640 -0.2782 -0.3656  0.2466
  445TMC3    C2 6627   0.471   3.209  16.539 -0.4088  0.1378  0.1331
  445TMC3    C3 6628   0.488   3.088  16.471  0.1026 -0.8639 -0.7364
  445TMC3    C4 6629   0.666   3.152  16.665 -0.1962 -0.2217  0.1780
  445TMC3    C5 6630   0.677   3.037  16.592  0.7180  0.3765  0.9422
  445TMC3    C6 6631   0.589   3.000  16.489 -0.4769  0.3289  0.6737
  445TMC3     C 6632   0.554   3.377  16.680  0.1335 -0.0204  0.4484
  445TMC3     O 6633   0.663   3.414  16.710 -0.4353 -0.3016  0.5818
  445TMC3     H 6634   0.408   3.283  16.492 -3.1864 -2.6657 -0.5104
  445TMC3    H1 6635   0.735   3.175  16.745  0.5012  0.0871 -0.5216
  445TMC3    H2 6636   0.609   2.922  16.417  0.0055  1.2269 -0.1768
  445TMC3    C7 6637   0.806   2.968  16.594 -0.2641 -1.0938 -0.9151
  445TMC3    C8 6638   0.387   3.065  16.361  0.5226  0.3697  0.8062
  445TMC3    O1 6639   0.904   3.020  16.644 -0.2351 -0.5682 -0.1673
  445TMC3    O2 6640   0.308   3.159  16.341 -0.2720  0.1903 -0.3849
  446MPD2     C 6641   0.082   4.404  11.026  0.3642 -0.0581  0.1568
  446MPD2    C1 6642   0.035   4.432  10.900 -0.0029  0.2670 -0.5003
  446MPD2    C2 6643   0.109   4.522  10.830  0.1208  0.3161  0.4102
  446MPD2    C3 6644   0.221   4.581  10.885 -0.1740  0.0898  0.5277
  446MPD2    C4 6645   0.264   4.553  11.010  0.0152  0.6163  0.0095
  446MPD2    C5 6646   0.187   4.467  11.078  0.1752  0.2889 -0.2558
  446MPD2     H 6647   0.072   4.539  10.730 -2.0334 -0.9967  0.9884
  446MPD2    H1 6648   0.352   4.593  11.059  0.0618  2.3704 -1.4928
  446MPD2    H2 6649   0.024   4.349  11.100  0.2462  1.2270  1.0195
  446MPD2    H3 6650   0.215   4.436  11.178 -1.6108 -1.0364 -0.1590
  446MPD2     N 6651   0.298   4.661  10.802  0.1814 -0.5051  0.5460
  446MPD2    H5 6652   0.266   4.672  10.707  0.1139 -0.0905  0.6156
  446MPD2    N1 6653   4.645   4.368  10.850 -0.6025  0.3465 -0.6242
  446MPD2    H7 6654   4.598   4.400  10.766 -0.5468 -0.2930 -0.9023
  447TMC3    C1 6655   0.492   0.049  10.720  0.0593 -0.0361  0.2854
  447TMC3    C2 6656   0.446   0.035  10.587 -0.1079  0.1626 -0.6217
  447TMC3    C3 6657   0.535   0.056  10.487 -0.6035 -0.4755 -0.2516
  447TMC3    C4 6658   0.615   0.105  10.745  0.0009  0.5203 -0.4804
  447TMC3    C5 6659   0.698   0.122  10.635  0.0477  0.1111  0.2380
  447TMC3    C6 6660   0.659   0.105  10.506  0.2241 -0.2884  0.2328
  447TMC3     C 6661   0.418   4.719  10.836  0.0366 -0.6553 -0.0265
  447TMC3     O 6662   0.476   4.724  10.944 -0.1572  0.6130  0.8498
  447TMC3     H 6663   0.360   4.701  10.558 -0.3636  0.4617 -0.4674
  447TMC3    H1 6664   0.654   0.118  10.845  1.5019 -0.2752 -0.9619
  447TMC3    H2 6665   0.731   0.121  10.427  0.6101 -0.6847  0.5086
  447TMC3    C7 6666   0.841   0.099  10.659  0.1474  0.1222 -0.0385
  447TMC3    C8 6667   0.480   0.084  10.358  0.7303 -0.4886  0.0249
  447TMC3    O1 6668   0.896   0.029  10.576  0.5296 -0.2236 -0.6103
  447TMC3    O2 6669   0.423   4.716  10.301  0.1165 -0.1547  0.4340
  448TMC3    C1 6670   3.310   0.049  16.248 -0.9381 -0.1495 -0.3203
  448TMC3    C2 6671   3.316   4.633  16.251  0.3656 -0.2437  0.0486
  448TMC3    C3 6672   3.377   4.571  16.353  0.6062  0.3404 -0.5086
  448TMC3    C4 6673   3.344   0.114  16.367 -0.2979 -0.2578 -0.4995
  448TMC3    C5 6674   3.417   0.047  16.463  0.5474  0.0904  0.0231
  448TMC3    C6 6675   3.433   4.639  16.458  0.3442  0.7875  0.1465
  448TMC3     C 6676   3.202   0.100  16.176 -0.5322 -0.1055 -0.3964
  448TMC3     O 6677   3.196   0.054  16.060 -0.0877  0.4896 -0.1509
  448TMC3     H 6678   3.276   4.580  16.165 -2.7403  1.9214  0.1786
  448TMC3    H1 6679   3.332   0.221  16.377  0.6457  0.1798 -3.8956
  448TMC3    H2 6680   3.485   4.581  16.533 -0.6251  0.9539  0.9473
  448TMC3    C7 6681   3.469   0.127  16.572  0.2256 -0.2180  0.4120
  448TMC3    C8 6682   3.349   4.426  16.383  0.0366 -0.4058  0.0868
  448TMC3    O1 6683   3.512   0.239  16.548 -0.2923 -0.6319  0.4119
  448TMC3    O2 6684   3.423   4.372  16.462 -0.2850  0.0290  0.3999
  449MPD2     C 6685   4.703   2.922  13.781  0.6308  0.2701  0.6098
  449MPD2    C1 6686   4.616   2.963  13.689 -0.3160 -0.0264  0.3390
  449MPD2    C2 6687   4.503   2.884  13.673  0.1889  0.1378  0.0099
  449MPD2    C3 6688   4.484   2.766  13.746  0.3510 -0.2113  0.7031
  449MPD2    C4 6689   4.579   2.731  13.842  0.0501 -0.1467 -0.4938
  449MPD2    C5 6690   4.686   2.812  13.854  0.0868 -0.2270  0.1611
  449MPD2     H 6691   4.435   2.910  13.593  0.5342 -1.3036 -0.7665
  449MPD2    H1 6692   4.567   2.648  13.910  0.2305 -1.4311 -2.0080
  449MPD2    H2 6693   0.064   2.984  13.804  1.2995 -0.8022  0.9788
  449MPD2    H3 6694   0.038   2.794  13.928 -1.0614 -1.1423  1.1330
  449MPD2     N 6695   4.367   2.697  13.722  0.1764 -0.7927  0.0968
  449MPD2    H5 6696   4.295   2.729  13.657  1.1748 -0.7981 -1.0196
  449MPD2    N1 6697   4.631   3.073  13.601  0.0452 -0.0611 -0.3742
  449MPD2    H7 6698   4.545   3.089  13.549  0.0920  1.3117 -0.0402
  450TMC3    C1 6699   4.721   3.233  13.461 -0.6231 -0.0042  0.4250
  450TMC3    C2 6700   0.089   3.217  13.370  0.0036  0.8193 -0.5567
  450TMC3    C3 6701   0.047   3.201  13.241 -0.7308 -0.1536 -0.0942
  450TMC3    C4 6702   4.587   3.261  13.436  0.0506  0.4526  0.3105
  450TMC3    C5 6703   4.545   3.249  13.305  0.1001  0.1342  0.6907
  450TMC3    C6 6704   4.638   3.208  13.211  0.0884 -0.0273  0.4571
  450TMC3     C 6705   0.017   3.147  13.578 -0.7186 -0.3882 -0.5566
  450TMC3     O 6706   0.127   3.130  13.627 -0.6426 -0.4769 -0.2848
  450TMC3     H 6707   0.188   3.185  13.401  0.6088  0.3155 -3.0609
  450TMC3    H1 6708   4.524   3.284  13.521 -1.3451 -1.9343 -0.0894
  450TMC3    H2 6709   4.587   3.163  13.126  0.7580 -1.9211  1.0621
  450TMC3    C7 6710   4.438   3.149  13.311  0.5855  0.7644  0.4275
  450TMC3    C8 6711   0.130   3.122  13.161 -0.3027  0.6948 -0.9816
  450TMC3    O1 6712   4.455   3.046  13.372  0.3157 -0.2960  0.1570
  450TMC3    O2 6713   0.213   3.058  13.225 -0.1960 -0.2153  0.1825
  451MPD2     C 6714   1.172   2.517   1.061  0.0213  0.9689  0.6770
  451MPD2    C1 6715   1.113   2.436   0.967  0.3575 -0.0491 -0.2309
  451MPD2    C2 6716   1.170   2.320   0.923 -0.4415 -1.1256 -0.1744
  451MPD2    C3 6717   1.301   2.291   0.967 -0.3454 -0.3738 -0.4774
  451MPD2    C4 6718   1.368   2.382   1.042  0.0933 -0.7373  0.3366
  451MPD2    C5 6719   1.299   2.482   1.099  0.2048 -0.4728  0.1596
  451MPD2     H 6720   1.112   2.257   0.857 -0.0821 -0.4965 -1.0935
  451MPD2    H1 6721   1.473   2.362   1.062  0.4878 -0.0822 -1.0643
  451MPD2    H2 6722   1.124   2.609   1.093  0.4708  0.7645  1.9273
  451MPD2    H3 6723   1.347   2.542   1.175  0.0694  0.1656 -0.2533
  451MPD2     N 6724   1.379   2.175   0.916  0.8233  0.1414 -0.1287
  451MPD2    H5 6725   1.480   2.180   0.924  1.0483 -1.1734 -2.2942
  451MPD2    N1 6726   0.981   2.469   0.927 -0.1110 -0.2791 -0.3910
  451MPD2    H7 6727   0.937   2.545   0.978 -1.1358  0.0385 -1.7401
  452TMC3    C1 6728   1.420   1.977   0.807 -0.0501  0.1171  0.6337
  452TMC3    C2 6729   1.547   1.978   0.854 -0.3116  0.3640 -0.3795
  452TMC3    C3 6730   1.638   1.897   0.795 -0.4448  0.3421 -0.5668
  452TMC3    C4 6731   1.387   1.909   0.694  0.1984  0.3799  0.5660
  452TMC3    C5 6732   1.478   1.836   0.628 -0.1625  0.0971  0.0509
  452TMC3    C6 6733   1.607   1.835   0.679 -0.2576 -0.4729 -0.8533
  452TMC3     C 6734   1.317   2.068   0.856  0.2959  0.0974  0.3792
  452TMC3     O 6735   1.204   2.039   0.836  0.1850 -0.6724  0.0759
  452TMC3     H 6736   1.583   2.036   0.938  2.1630 -1.6947 -0.0141
  452TMC3    H1 6737   1.282   1.911   0.666  0.0840  3.9213  1.2279
  452TMC3    H2 6738   1.679   1.779   0.621 -1.6019 -0.6165 -2.4036
  452TMC3    C7 6739   1.448   1.781   0.503  0.3768  0.4207 -0.1194
  452TMC3    C8 6740   1.780   1.886   0.838  0.0799  0.1733 -0.7156
  452TMC3    O1 6741   1.338   1.806   0.463 -0.0968 -0.3996  0.1905
  452TMC3    O2 6742   1.854   1.844   0.753  0.0377  0.0516  0.2814
  453TMC3    C1 6743   2.466   3.769  11.807  0.1817 -0.0855  0.3456
  453TMC3    C2 6744   2.385   3.667  11.840 -0.0223 -0.6816 -0.0468
  453TMC3    C3 6745   2.365   3.572  11.744 -0.0593  0.3240  0.2134
  453TMC3    C4 6746   2.528   3.768  11.686  0.2824 -0.0380 -0.8199
  453TMC3    C5 6747   2.494   3.679  11.588 -0.2852 -0.2803 -0.3032
  453TMC3    C6 6748   2.426   3.570  11.620  0.0042  0.1221 -0.1680
  453TMC3     C 6749   2.547   3.824  11.917 -0.0785  0.1140  0.0359
  453TMC3     O 6750   2.623   3.918  11.890 -0.0068  0.4635 -0.2955
  453TMC3     H 6751   2.333   3.664  11.936 -0.6756  0.2322 -0.3649
  453TMC3    H1 6752   2.592   3.853  11.669  1.0108 -0.2802  0.7141
  453TMC3    H2 6753   2.392   3.496  11.548 -0.5000  1.0225 -0.8519
  453TMC3    C7 6754   2.607   3.650  11.501  0.3409 -0.1767  0.4840
  453TMC3    C8 6755   2.299   3.449  11.790 -0.0585 -0.1776  0.0997
  453TMC3    O1 6756   2.604   3.544  11.450  0.0028  0.0887 -0.1859
  453TMC3    O2 6757   2.227   3.457  11.888 -0.8373  0.0328  0.1154
  454MPD2     C 6758   1.122   3.249  16.444  0.1946 -0.2327 -0.6621
  454MPD2    C1 6759   1.092   3.335  16.345  0.2157  0.0886 -0.0823
  454MPD2    C2 6760   1.041   3.458  16.382  0.4153  0.2780 -0.4228
  454MPD2    C3 6761   1.014   3.490  16.510 -0.2148 -0.2904 -0.0997
  454MPD2    C4 6762   1.034   3.395  16.604  0.3014 -0.3899  0.5711
  454MPD2    C5 6763   1.088   3.274  16.570 -0.0294 -0.4370 -0.1419
  454MPD2     H 6764   1.035   3.532  16.303 -1.1486  0.6294  0.0263
  454MPD2    H1 6765   1.013   3.416  16.708 -0.1682  2.2575 -0.0648
  454MPD2    H2 6766   1.162   3.152  16.419 -2.9597 -1.8609  0.5696
  454MPD2    H3 6767   1.107   3.195  16.641 -1.0046 -2.3729 -2.0140
  454MPD2     N 6768   0.946   3.608  16.559  0.1578  0.4879 -0.2781
  454MPD2    H5 6769   0.949   3.629  16.658 -1.2729  0.5267 -0.2488
  454MPD2    N1 6770   1.113   3.312  16.211 -0.3707 -0.0382 -0.4971
  454MPD2    H7 6771   1.099   3.391  16.149 -0.7643  0.5748  0.3725
  455TMC3    C1 6772   0.828   3.678  16.367 -0.0554  0.0258  0.7855
  455TMC3    C2 6773   0.809   3.791  16.295 -1.4961  1.0106 -0.6120
  455TMC3    C3 6774   0.700   3.793  16.217  0.8555 -0.1153 -0.1785
  455TMC3    C4 6775   0.750   3.570  16.365 -0.7116 -0.8317 -0.6099
  455TMC3    C5 6776   0.660   3.570  16.269  0.4099 -0.1960  0.6108
  455TMC3    C6 6777   0.627   3.684  16.195  0.4222 -0.6357 -0.2039
  455TMC3     C 6778   0.882   3.711  16.491  0.0825 -0.7921  0.0679
  455TMC3     O 6779   0.849   3.822  16.533  0.6041  0.1521 -0.6675
  455TMC3     H 6780   0.872   3.879  16.303 -0.5620  0.2497  0.4053
  455TMC3    H1 6781   0.772   3.485  16.429 -2.8374  0.1337  1.3832
  455TMC3    H2 6782   0.548   3.686  16.121  1.1167 -0.7098 -0.9454
  455TMC3    C7 6783   0.631   3.448  16.199  0.1640 -0.2601  0.0994
  455TMC3    C8 6784   0.608   3.903  16.243  0.4220  0.5097  0.1216
  455TMC3    O1 6785   0.541   3.443  16.112  0.0070  0.2737  0.3491
  455TMC3    O2 6786   0.511   3.925  16.172  0.0027 -0.5086 -0.3141
  456MPD2     C 6787   3.552   3.060  16.026 -0.1494  1.2061  0.9951
  456MPD2    C1 6788   3.649   3.057  16.119  0.2502  0.6212 -0.0250
  456MPD2    C2 6789   3.655   3.157  16.213 -0.0074  0.5601 -0.2200
  456MPD2    C3 6790   3.557   3.257  16.212  0.1981 -0.4726  0.1703
  456MPD2    C4 6791   3.444   3.235  16.129  0.4103  0.8062 -0.3463
  456MPD2    C5 6792   3.444   3.141  16.032  0.5567 -0.7908  0.4051
  456MPD2     H 6793   3.746   3.156  16.271  1.5130 -0.2837 -2.6474
  456MPD2    H1 6794   3.351   3.292  16.135 -0.4824 -0.6989 -0.0651
  456MPD2    H2 6795   3.556   2.977  15.955 -0.3022  0.2919  2.0658
  456MPD2    H3 6796   3.360   3.133  15.965  2.5753 -0.8478 -2.1269
  456MPD2     N 6797   3.562   3.363  16.311 -0.2510  0.5604 -0.4638
  456MPD2    H5 6798   3.642   3.381  16.370 -1.0118  1.1918  0.3636
  456MPD2    N1 6799   3.747   2.955  16.111  0.2518 -0.3839 -0.1086
  456MPD2    H7 6800   3.749   2.907  16.022 -0.5640 -0.1149 -0.2794
  457TMC3    C1 6801   3.492   3.559  16.410 -0.1844 -0.3224  0.2629
  457TMC3    C2 6802   3.445   3.681  16.383  0.2391  0.0792 -0.4112
  457TMC3    C3 6803   3.444   3.766  16.492 -0.6692 -0.4735 -0.0689
  457TMC3    C4 6804   3.536   3.525  16.537  0.4915  0.0651 -0.5276
  457TMC3    C5 6805   3.528   3.614  16.640  0.1219  0.0405 -0.6744
  457TMC3    C6 6806   3.487   3.738  16.613  0.1509  1.1577 -0.3896
  457TMC3     C 6807   3.466   3.459  16.314 -0.1849 -0.1707 -0.1865
  457TMC3     O 6808   3.364   3.477  16.247  0.4511 -0.7929  0.0132
  457TMC3     H 6809   3.424   3.717  16.282 -0.8210 -1.0898 -0.6184
  457TMC3    H1 6810   3.566   3.422  16.556  0.8357  0.7257  2.4122
  457TMC3    H2 6811   3.474   3.815  16.688  1.6577  1.4166 -0.3901
  457TMC3    C7 6812   3.563   3.561  16.771  0.0941 -0.2144 -0.0478
  457TMC3    C8 6813   3.369   3.899  16.491  0.0492  0.0514 -0.3840
  457TMC3    O1 6814   3.565   3.442  16.791 -0.1359  0.4237 -0.2799
  457TMC3    O2 6815   3.400   3.986  16.571  0.4656 -0.0952  0.1612
  458MPD2     C 6816   1.724   2.378  11.726  0.2856  0.0199  0.1403
  458MPD2    C1 6817   1.663   2.385  11.847 -0.0423 -0.0559  0.3570
  458MPD2    C2 6818   1.541   2.335  11.846 -0.8405 -0.1994 -0.0107
  458MPD2    C3 6819   1.483   2.259  11.741 -0.0970 -0.0893 -0.3239
  458MPD2    C4 6820   1.556   2.237  11.627 -0.2288  0.0770  1.0335
  458MPD2    C5 6821   1.671   2.307  11.618 -0.0997  0.6000  0.3324
  458MPD2     H 6822   1.492   2.341  11.942  1.0682 -4.5035  1.1937
  458MPD2    H1 6823   1.523   2.174  11.544 -0.4165  0.6618  0.6650
  458MPD2    H2 6824   1.811   2.442  11.719 -1.7768  2.9209  0.8096
  458MPD2    H3 6825   1.719   2.312  11.520 -0.2552  1.4971  0.3023
  458MPD2     N 6826   1.363   2.190  11.780  0.5525  0.8027  0.3667
  458MPD2    H5 6827   1.325   2.211  11.871 -0.6110  0.5487 -0.0581
  458MPD2    N1 6828   1.718   2.449  11.958  0.3978 -0.0845  0.8879
  458MPD2    H7 6829   1.810   2.490  11.942 -0.3668  1.2709  0.0252
  459TMC3    C1 6830   1.725   2.544  12.177  0.0585  1.1752 -0.4803
  459TMC3    C2 6831   1.825   2.627  12.134 -0.1559  0.3667 -0.2316
  459TMC3    C3 6832   1.918   2.668  12.227  0.5108  0.5304 -0.7832
  459TMC3    C4 6833   1.702   2.509  12.307  0.0979  0.1971 -0.5769
  459TMC3    C5 6834   1.792   2.567  12.399  0.7649 -0.0561 -0.0769
  459TMC3    C6 6835   1.906   2.635  12.361 -0.3197 -0.5743  0.1466
  459TMC3     C 6836   1.651   2.468  12.081  0.4319  0.1368 -0.1413
  459TMC3     O 6837   1.551   2.423  12.128  0.0539 -0.4115 -0.0988
  459TMC3     H 6838   1.817   2.681  12.040  1.6001  1.8677  0.4878
  459TMC3    H1 6839   1.611   2.463  12.345 -1.1470  0.7674 -2.7997
  459TMC3    H2 6840   1.987   2.660  12.429 -0.3312 -3.3253  1.1907
  459TMC3    C7 6841   1.784   2.544  12.542 -0.3792  0.2814  0.0280
  459TMC3    C8 6842   1.991   2.794  12.210 -0.1762  1.0436  0.1935
  459TMC3    O1 6843   1.702   2.460  12.576  0.5629  0.3081 -0.0788
  459TMC3    O2 6844   2.107   2.793  12.239 -0.2216  0.5454  0.5896
  460MPD2     C 6845   0.526   0.399  10.187 -0.0214  0.4443 -0.3018
  460MPD2    C1 6846   0.487   0.271  10.191 -0.5909 -0.3424  0.3586
  460MPD2    C2 6847   0.421   0.216  10.084  0.0757  0.1744  0.7532
  460MPD2    C3 6848   0.386   0.289   9.969  0.1950  0.4374  0.2238
  460MPD2    C4 6849   0.432   0.416   9.961 -0.1396 -0.3798 -0.2269
  460MPD2    C5 6850   0.504   0.470  10.068 -0.7153 -0.3798  0.0690
  460MPD2     H 6851   0.401   0.110  10.090  1.5580 -0.0749  1.3342
  460MPD2    H1 6852   0.424   0.477   9.872  4.0046 -0.2068 -0.5122
  460MPD2    H2 6853   0.571   0.438  10.277  0.4423  0.4302 -0.5290
  460MPD2    H3 6854   0.528   0.576  10.062 -1.9399 -0.0875  0.4023
  460MPD2     N 6855   0.306   0.232   9.866  0.4815 -0.3157  0.4625
  460MPD2    H5 6856   0.279   0.134   9.868 -0.8025 -0.0048 -1.5265
  460MPD2    N1 6857   0.515   0.213  10.319  0.3768  0.0707  0.3047
  460MPD2    H7 6858   0.552   0.269  10.395  0.1150  2.2704 -1.1691
  461TMC3    C1 6859   0.233   0.219   9.636  1.0038  0.1397  0.6813
  461TMC3    C2 6860   0.275   0.090   9.621 -0.0032  0.1534  0.8229
  461TMC3    C3 6861   0.261   0.031   9.499 -0.1205 -0.6415 -0.9239
  461TMC3    C4 6862   0.199   0.297   9.526 -0.0781  0.3594  0.2040
  461TMC3    C5 6863   0.191   0.232   9.404 -0.4094  0.6073 -0.3405
  461TMC3    C6 6864   0.231   0.104   9.389  0.3065  0.5893  0.8592
  461TMC3     C 6865   0.263   0.303   9.752 -0.1038 -0.6675 -0.2512
  461TMC3     O 6866   0.241   0.424   9.747  0.1704 -0.9319 -0.0846
  461TMC3     H 6867   0.294   0.027   9.707 -0.1291 -1.9519 -0.7177
  461TMC3    H1 6868   0.168   0.399   9.546  1.4210  0.9994 -0.6878
  461TMC3    H2 6869   0.233   0.053   9.293 -1.5387  1.5284  0.3263
  461TMC3    C7 6870   0.145   0.306   9.294  0.0053  0.6024  0.7880
  461TMC3    C8 6871   0.328   4.624   9.489  0.2148 -0.1679  0.1907
  461TMC3    O1 6872   0.131   0.425   9.327 -0.1348  0.1458  0.0669
  461TMC3    O2 6873   0.396   4.584   9.585  0.1334  0.1590 -0.1325
  462TMC3    C1 6874   0.912   0.619   0.274 -0.3548 -0.3047 -0.6986
  462TMC3    C2 6875   0.923   0.510   0.188  1.2629  0.1378  0.3238
  462TMC3    C3 6876   0.854   0.522   0.074  0.6803  0.0773 -0.0461
  462TMC3    C4 6877   0.830   0.729   0.256  0.3508  0.1632  0.5534
  462TMC3    C5 6878   0.756   0.730   0.137 -0.2699 -0.2883 -0.4312
  462TMC3    C6 6879   0.768   0.624   0.048  0.3042  0.1808  0.3232
  462TMC3     C 6880   1.010   0.626   0.381  0.1569  0.3571  0.2537
  462TMC3     O 6881   1.094   0.536   0.381  0.0205  0.7729 -0.0970
  462TMC3     H 6882   0.986   0.422   0.188 -0.0789 -0.8354 -0.2167
  462TMC3    H1 6883   0.806   0.804   0.331 -1.1380  0.1738  0.0754
  462TMC3    H2 6884   0.728   0.637  17.649  2.5890 -1.6307 -0.8145
  462TMC3    C7 6885   0.663   0.839   0.107  0.5002  0.3866  0.4139
  462TMC3    C8 6886   0.862   0.408  17.682  0.9778 -0.8670 -0.3088
  462TMC3    O1 6887   0.564   0.797   0.047  0.1263  0.3786  0.5493
  462TMC3    O2 6888   0.843   0.296   0.026 -0.4261  0.1089  0.0466
  463MPD2     C 6889   2.241   0.088   1.367 -0.8059  0.9406 -0.1384
  463MPD2    C1 6890   2.155   0.184   1.325 -0.5700 -0.3288 -0.6489
  463MPD2    C2 6891   2.201   0.315   1.309  0.4947 -0.5262 -0.2894
  463MPD2    C3 6892   2.336   0.345   1.312  0.2769 -0.2059  0.2395
  463MPD2    C4 6893   2.423   0.249   1.354  0.7807 -0.9046 -0.1544
  463MPD2    C5 6894   2.375   0.127   1.383  0.0780  0.2337  0.3615
  463MPD2     H 6895   2.126   0.386   1.277 -0.2065  0.1446  2.8379
  463MPD2    H1 6896   2.526   0.274   1.377  1.2339  0.3465 -3.4132
  463MPD2    H2 6897   2.215   4.709   1.380 -0.7575  1.1917  1.9830
  463MPD2    H3 6898   2.453   0.063   1.424  1.8464  1.1970 -1.4743
  463MPD2     N 6899   2.399   0.474   1.291  0.3928  0.9056 -0.4143
  463MPD2    H5 6900   2.499   0.485   1.285  0.3408  1.9343  0.8071
  463MPD2    N1 6901   2.017   0.155   1.303 -0.2367  0.4043 -0.0016
  463MPD2    H7 6902   1.972   0.241   1.272  1.9036  2.4103  2.4423
  464TMC3    C1 6903   1.816   0.025   1.276 -0.2169 -0.1237 -0.2476
  464TMC3    C2 6904   1.742   0.138   1.257  0.1092 -0.3779  0.1818
  464TMC3    C3 6905   1.609   0.132   1.229 -0.9392 -0.6368 -0.1555
  464TMC3    C4 6906   1.760   4.624   1.265 -0.0944 -0.1847 -0.2936
  464TMC3    C5 6907   1.625   4.623   1.250 -0.0084 -0.4471 -0.5605
  464TMC3    C6 6908   1.548   0.011   1.230 -0.0172 -0.4941 -0.3686
  464TMC3     C 6909   1.962   0.027   1.307 -0.1239  0.0601 -0.2478
  464TMC3     O 6910   2.013   4.644   1.326  0.9192 -0.4762  1.3440
  464TMC3     H 6911   1.784   0.236   1.277  0.7257 -0.4285 -0.8381
  464TMC3    H1 6912   1.815   4.534   1.290 -1.2304 -1.0059 -0.7764
  464TMC3    H2 6913   1.443   0.001   1.252 -0.3121 -0.5152 -1.7726
  464TMC3    C7 6914   1.554   4.499   1.255  0.3854  0.9011  1.2723
  464TMC3    C8 6915   1.534   0.246   1.192 -0.2179  0.1533  0.1632
  464TMC3    O1 6916   1.619   4.401   1.278  0.5530 -1.1299 -0.3678
  464TMC3    O2 6917   1.417   0.218   1.159  0.1432 -0.6986  0.0061
  465MPD2     C 6918   2.488   3.028  16.542 -0.1721  0.4536  0.1279
  465MPD2    C1 6919   2.390   3.087  16.616  0.0288  0.4793  0.6918
  465MPD2    C2 6920   2.288   3.155  16.555 -0.7393  0.0069  0.3480
  465MPD2    C3 6921   2.278   3.166  16.415 -0.0740 -0.0611 -0.5132
  465MPD2    C4 6922   2.369   3.094  16.339  0.4613 -0.5605 -0.1441
  465MPD2    C5 6923   2.480   3.031  16.401  0.1557 -0.6586  0.3881
  465MPD2     H 6924   2.207   3.206  16.605 -1.6231 -0.9695 -0.0813
  465MPD2    H1 6925   2.366   3.102  16.231 -1.2145  1.0662  0.0301
  465MPD2    H2 6926   2.568   2.980  16.597  0.6348  1.5440 -0.0867
  465MPD2    H3 6927   2.554   2.976  16.344  1.3645  0.0813  1.2406
  465MPD2     N 6928   2.173   3.250  16.364 -0.1563 -0.5826  0.4819
  465MPD2    H5 6929   2.116   3.294  16.436  2.3295  0.2861  1.8881
  465MPD2    N1 6930   2.390   3.083  16.758 -0.2300  0.0947  0.2471
  465MPD2    H7 6931   2.319   3.146  16.794  0.4386  0.5172  0.8267
  466TMC3    C1 6932   1.826   3.432  16.265  0.1077  0.4061 -0.3864
  466TMC3    C2 6933   1.835   3.532  16.171  0.7806  0.1733 -0.3605
  466TMC3    C3 6934   1.943   3.532  16.084  0.5249 -0.1910 -0.6661
  466TMC3    C4 6935   1.934   3.353  16.282 -0.1767 -0.4303 -0.1979
  466TMC3    C5 6936   2.051   3.369  16.207 -0.1567 -0.4135 -0.3788
  466TMC3    C6 6937   2.045   3.451  16.096  0.1021  0.7734  0.1853
  466TMC3     C 6938   1.736   3.453  16.376  0.1539 -0.3125  0.5049
  466TMC3     O 6939   1.727   3.359  16.455  0.1609  0.1963  0.0381
  466TMC3     H 6940   1.752   3.595  16.141  0.8334 -0.5597 -2.0234
  466TMC3    H1 6941   1.927   3.278  16.361 -0.3644 -0.2758 -0.0693
  466TMC3    H2 6942   2.128   3.462  16.027  0.6499 -0.5995  0.6310
  466TMC3    C7 6943   2.158   3.279  16.228  0.3266  0.3550  0.2371
  466TMC3    C8 6944   1.982   3.665  16.040 -0.5261  0.1691  0.3151
  466TMC3    O1 6945   2.238   3.270  16.138 -0.4192 -0.6076 -0.7327
  466TMC3    O2 6946   2.070   3.672  15.956 -0.2148  0.2505 -0.6533
  467TMC3    C1 6947   3.296   1.940  13.392 -1.7226 -0.9932 -0.1993
  467TMC3    C2 6948   3.343   1.961  13.261 -0.4650 -0.4501 -0.4408
  467TMC3    C3 6949   3.274   2.045  13.179 -0.9523 -0.1621 -0.3492
  467TMC3    C4 6950   3.188   2.013  13.439  0.7577 -0.1598 -0.5545
  467TMC3    C5 6951   3.121   2.093  13.348  0.1623  0.3640 -0.3820
  467TMC3    C6 6952   3.162   2.117  13.223 -0.1637 -0.2722  0.1578
  467TMC3     C 6953   3.401   1.928  13.489  0.0561 -0.4409 -0.0692
  467TMC3     O 6954   3.423   2.032  13.560 -0.0160 -0.0044  0.1903
  467TMC3     H 6955   3.436   1.914  13.231 -0.8436 -0.1413 -2.1087
  467TMC3    H1 6956   3.160   2.004  13.543 -1.7654  2.0485 -1.0017
  467TMC3    H2 6957   3.104   2.176  13.152 -1.2199  2.7638  3.5762
  467TMC3    C7 6958   2.982   2.147  13.379 -0.4940  0.6838 -0.1785
  467TMC3    C8 6959   3.348   2.097  13.061 -0.2607 -0.6453 -0.1013
  467TMC3    O1 6960   2.947   2.240  13.308  0.2784  0.2238 -0.2237
  467TMC3    O2 6961   3.295   2.185  12.993 -0.0877 -0.0506 -0.3831
  468MPD2     C 6962   2.628   4.451  10.720  0.0304 -0.4831  0.2818
  468MPD2    C1 6963   2.632   4.420  10.856 -0.2772  0.5443 -0.1971
  468MPD2    C2 6964   2.637   4.296  10.902 -0.0170  0.5465 -0.2824
  468MPD2    C3 6965   2.652   4.190  10.817 -0.5959  0.3549 -0.9644
  468MPD2    C4 6966   2.667   4.221  10.684  0.0692 -0.2051 -0.2612
  468MPD2    C5 6967   2.648   4.349  10.636  0.0776 -0.2921 -0.6563
  468MPD2     H 6968   2.674   4.276  11.002 -0.9828  1.0348  0.1704
  468MPD2    H1 6969   2.687   4.145  10.610 -1.3709 -1.5123  0.6822
  468MPD2    H2 6970   2.612   4.551  10.681 -2.5035 -1.2957 -0.7914
  468MPD2    H3 6971   2.633   4.356  10.529  0.8298  1.0567 -0.6847
  468MPD2     N 6972   2.671   4.061  10.859 -0.0298 -0.0554 -0.1433
  468MPD2    H5 6973   2.691   3.991  10.789  0.2690 -0.8962  0.7844
  468MPD2    N1 6974   2.632   4.523  10.953  0.1131 -0.0057 -0.4358
  468MPD2    H7 6975   2.655   4.496  11.047 -1.6958  1.4322  0.4206
  469TMC3    C1 6976   2.601   0.015  11.048 -0.2347 -0.2779  0.2569
  469TMC3    C2 6977   2.703   4.707  11.126 -0.1140  0.7416  0.6206
  469TMC3    C3 6978   2.711   0.047  11.252  0.3533  0.3410 -0.1704
  469TMC3    C4 6979   2.506   0.103  11.080  0.1007  0.8373 -0.1867
  469TMC3    C5 6980   2.515   0.159  11.203  0.8703 -0.3390  0.6245
  469TMC3    C6 6981   2.615   0.129  11.293  0.1729 -0.5030  0.1878
  469TMC3     C 6982   2.580   4.651  10.932 -0.6443  0.4255 -0.1230
  469TMC3     O 6983   2.501   4.688  10.844  0.7922  0.3171  0.6821
  469TMC3     H 6984   2.790   4.656  11.085  2.1556  3.2180  2.3884
  469TMC3    H1 6985   2.428   0.124  11.009 -2.4421 -2.5118  1.5858
  469TMC3    H2 6986   2.615   0.168  11.394  0.3768  0.4566 -0.1734
  469TMC3    C7 6987   2.399   0.243  11.247  0.1688 -0.2868 -0.1445
  469TMC3    C8 6988   2.838   0.039  11.325 -0.1542 -0.2233  0.7568
  469TMC3    O1 6989   2.299   0.228  11.179  0.0467  0.2110  0.1884
  469TMC3    O2 6990   2.894   4.663  11.297  0.5125  0.2042  0.5507
  470TMC3    C1 6991   4.180   1.186   0.862 -0.0623  1.1854  0.1200
  470TMC3    C2 6992   4.247   1.304   0.874  0.0168  0.4150  0.4913
  470TMC3    C3 6993   4.177   1.420   0.904 -0.1054 -0.3623  0.5697
  470TMC3    C4 6994   4.040   1.183   0.896  0.2095  0.0062  0.2151
  470TMC3    C5 6995   3.980   1.302   0.911 -0.0368 -0.9725 -0.2180
  470TMC3    C6 6996   4.041   1.419   0.921 -0.0753  0.5896  0.5215
  470TMC3     C 6997   4.214   1.077   0.779  0.3870 -0.2991  0.6622
  470TMC3     O 6998   4.130   0.994   0.754 -0.1047  0.0604 -0.2479
  470TMC3     H 6999   4.352   1.312   0.848 -0.4900  0.0015 -1.7229
  470TMC3    H1 7000   3.989   1.087   0.901  1.2404 -0.5890 -0.5618
  470TMC3    H2 7001   3.993   1.515   0.909  0.2960  0.8601  1.1909
  470TMC3    C7 7002   3.843   1.297   0.950  0.1542 -0.4523  1.0063
  470TMC3    C8 7003   4.239   1.549   0.933 -0.6379 -0.2504  0.4688
  470TMC3    O1 7004   3.787   1.185   0.944  0.5943 -0.0415  0.0637
  470TMC3    O2 7005   4.174   1.627   1.003 -0.0190  0.4513 -0.8630
  471MPD2     C 7006   0.228   2.804  16.526  0.4046  0.7333 -0.1040
  471MPD2    C1 7007   0.296   2.687  16.514  0.2496 -0.8081 -0.1076
  471MPD2    C2 7008   0.402   2.659  16.599 -0.0114  0.2657 -0.1856
  471MPD2    C3 7009   0.447   2.752  16.692 -0.4145 -0.0974  0.8823
  471MPD2    C4 7010   0.364   2.857  16.714  0.0572 -0.1961 -0.1496
  471MPD2    C5 7011   0.253   2.887  16.636  0.7525 -0.9419 -0.7873
  471MPD2     H 7012   0.450   2.562  16.591  0.9874  0.5629  2.6054
  471MPD2    H1 7013   0.384   2.924  16.797  0.9629  0.1645 -0.6452
  471MPD2    H2 7014   0.148   2.832  16.459  1.7776  0.6829 -1.7655
  471MPD2    H3 7015   0.190   2.973  16.661  2.0755  0.1213 -1.1363
  471MPD2     N 7016   0.552   2.735  16.780 -0.5014 -0.9986  0.8181
  471MPD2    H5 7017   0.569   2.799  16.858  1.0404  0.2276 -0.5328
  471MPD2    N1 7018   0.279   2.603  16.406 -0.1739 -0.4678 -0.0839
  471MPD2    H7 7019   0.355   2.537  16.394 -0.1713 -0.4312 -0.2821
  472TMC3    C1 7020   0.203   2.530  16.203 -0.4222 -0.2418  0.5864
  472TMC3    C2 7021   0.108   2.534  16.105  0.1413  0.0667 -0.8156
  472TMC3    C3 7022   0.093   2.427  16.014 -0.1624 -0.0159  0.4712
  472TMC3    C4 7023   0.271   2.410  16.220 -0.2226  0.0873 -0.2961
  472TMC3    C5 7024   0.259   2.301  16.142  0.0631 -0.4533 -0.6616
  472TMC3    C6 7025   0.167   2.313  16.033 -0.2245 -0.8412  0.2277
  472TMC3     C 7026   0.175   2.616  16.313  0.2633 -0.4919  0.1784
  472TMC3     O 7027   0.063   2.675  16.316 -0.1743 -0.4782  0.0653
  472TMC3     H 7028   0.039   2.617  16.106  0.8129  0.6253 -0.7546
  472TMC3    H1 7029   0.349   2.414  16.294  0.0625  1.2344 -0.6683
  472TMC3    H2 7030   0.147   2.235  15.961 -0.0222  0.5723 -1.3712
  472TMC3    C7 7031   0.251   2.170  16.208 -0.1029 -0.0364 -0.8778
  472TMC3    C8 7032   4.687   2.388  15.975 -0.8429  0.0421 -0.5376
  472TMC3    O1 7033   0.312   2.149  16.314  0.3817 -0.0222 -0.1091
  472TMC3    O2 7034   4.658   2.384  15.858 -0.7186 -0.6196 -0.1362
  473MPD2     C 7035   0.502   4.185  13.915 -0.7491  0.2178 -0.2829
  473MPD2    C1 7036   0.409   4.275  13.880  0.8365 -0.2574 -1.0113
  473MPD2    C2 7037   0.420   4.399  13.934  0.0080  0.1933 -0.7096
  473MPD2    C3 7038   0.507   4.433  14.032 -0.0008  0.8368  0.3183
  473MPD2    C4 7039   0.590   4.333  14.080  1.0957 -0.0024 -0.3425
  473MPD2    C5 7040   0.590   4.216  14.014 -0.0494  0.6620  0.1521
  473MPD2     H 7041   0.339   4.469  13.912  0.3679  0.5242 -0.9948
  473MPD2    H1 7042   0.656   4.349  14.165  0.1697 -2.1821  0.7861
  473MPD2    H2 7043   0.517   4.091  13.862 -0.8831  0.2829 -0.4356
  473MPD2    H3 7044   0.674   4.151  14.035 -2.6571 -2.1735  1.7754
  473MPD2     N 7045   0.509   4.563  14.092  0.3297 -0.5555 -0.3745
  473MPD2    H5 7046   0.577   4.571  14.167 -0.3733 -1.2163  0.3402
  473MPD2    N1 7047   0.301   4.241  13.795 -0.9340 -0.2359  0.0717
  473MPD2    H7 7048   0.233   4.313  13.774  0.1553  0.5682 -0.6738
  474TMC3    C1 7049   0.437   0.058  14.162  0.0122 -0.2399 -0.6685
  474TMC3    C2 7050   0.325   0.132  14.178  0.0536 -0.2145  0.1041
  474TMC3    C3 7051   0.334   0.251  14.251 -0.0643  0.5934 -0.2288
  474TMC3    C4 7052   0.562   0.098  14.222 -0.7826 -0.0881  0.0330
  474TMC3    C5 7053   0.557   0.209  14.306  0.0716 -0.7122  0.8129
  474TMC3    C6 7054   0.453   0.291  14.311 -0.3733 -0.5670  0.0121
  474TMC3     C 7055   0.430   4.669  14.061 -0.1361 -0.2929 -0.0372
  474TMC3     O 7056   0.339   4.685  13.985  0.3276  0.3049 -0.0743
  474TMC3     H 7057   0.234   0.087  14.140  1.3343  0.0172 -3.2113
  474TMC3    H1 7058   0.655   0.046  14.203 -0.6899 -0.2826  1.0020
  474TMC3    H2 7059   0.461   0.389  14.357  0.6900 -0.8160  0.3573
  474TMC3    C7 7060   0.681   0.260  14.354  0.5783  0.0173 -0.3807
  474TMC3    C8 7061   0.219   0.338  14.246 -0.0053 -0.3201  0.1472
  474TMC3    O1 7062   0.771   0.258  14.268 -0.5301  0.1448  0.4024
  474TMC3    O2 7063   0.129   0.316  14.166 -0.5322  0.1351 -0.5437
  475MPD2     C 7064   3.911   2.197  10.059  0.5982 -0.3811 -0.1707
  475MPD2    C1 7065   3.926   2.331  10.073  0.0682 -0.8053 -0.6716
  475MPD2    C2 7066   3.820   2.408  10.132  0.0459  0.1029 -0.1463
  475MPD2    C3 7067   3.707   2.340  10.177  0.3310  0.5908  0.1478
  475MPD2    C4 7068   3.696   2.203  10.160  0.1999  0.2518 -0.3708
  475MPD2    C5 7069   3.796   2.132  10.102  0.4051 -0.0217 -0.0008
  475MPD2     H 7070   3.828   2.515  10.143 -1.1488  0.3472 -1.6784
  475MPD2    H1 7071   3.602   2.156  10.186  1.0803 -3.2102 -3.4715
  475MPD2    H2 7072   3.998   2.136  10.036  0.0053 -1.0145 -0.7697
  475MPD2    H3 7073   3.790   2.023  10.103 -0.0938  0.0022 -1.0786
  475MPD2     N 7074   3.607   2.412  10.238  0.4820  0.0108  0.1502
  475MPD2    H5 7075   3.614   2.513  10.235 -3.7974  0.3094  0.8025
  475MPD2    N1 7076   4.055   2.390  10.057 -0.4733 -0.4736  0.4934
  475MPD2    H7 7077   4.075   2.471  10.115  0.3609  0.1706 -0.6706
  476TMC3    C1 7078   4.254   2.441   9.966 -0.1531 -0.0595  0.0710
  476TMC3    C2 7079   4.218   2.529   9.872  0.4688  0.1710 -0.5966
  476TMC3    C3 7080   4.237   2.662   9.898 -0.1049  0.3852  0.5599
  476TMC3    C4 7081   4.310   2.477  10.082  0.1897  0.2066 -0.2310
  476TMC3    C5 7082   4.358   2.606  10.097  0.0754  0.3049  0.2186
  476TMC3    C6 7083   4.312   2.703  10.004 -1.0122  0.6600 -0.0430
  476TMC3     C 7084   4.155   2.341   9.975  0.1066  0.1523  0.4404
  476TMC3     O 7085   4.140   2.266   9.880  0.0732 -0.0264  0.5222
  476TMC3     H 7086   4.164   2.488   9.788 -0.6815 -1.6540  1.0489
  476TMC3    H1 7087   4.324   2.395  10.152  0.6246  0.8915  0.4875
  476TMC3    H2 7088   4.328   2.808  10.024 -2.6839  0.3567  2.8804
  476TMC3    C7 7089   4.380   2.650  10.233 -0.3064  0.2704 -0.3228
  476TMC3    C8 7090   4.113   2.739   9.901  0.2603  0.0509  0.3940
  476TMC3    O1 7091   4.452   2.574  10.293 -0.9677 -0.4053  0.0454
  476TMC3    O2 7092   4.116   2.832   9.985 -0.4103 -0.2975 -0.7962
  477MPD2     C 7093   1.141   4.453  11.444  0.1194 -0.4779  0.2671
  477MPD2    C1 7094   1.076   4.344  11.413  0.6699 -0.2478  0.0479
  477MPD2    C2 7095   1.073   4.233  11.497 -0.0898 -0.2606  0.4561
  477MPD2    C3 7096   1.135   4.243  11.618  0.9344  0.4110  0.3655
  477MPD2    C4 7097   1.214   4.355  11.648 -0.2931 -0.6238  0.7780
  477MPD2    C5 7098   1.219   4.456  11.557  0.2413  0.2717  0.0413
  477MPD2     H 7099   1.014   4.144  11.479  0.6577 -0.2481 -2.0144
  477MPD2    H1 7100   1.278   4.366  11.735  0.1070 -0.4738  0.4698
  477MPD2    H2 7101   1.128   4.536  11.376 -0.2732 -0.2573  0.6095
  477MPD2    H3 7102   1.278   4.545  11.574 -2.9698  2.1633  1.3481
  477MPD2     N 7103   1.127   4.131  11.708 -0.1737 -0.2420 -0.1129
  477MPD2    H5 7104   1.074   4.053  11.671 -0.9718  1.2837 -2.1892
  477MPD2    N1 7105   1.013   4.358  11.286 -0.4672 -0.4001  0.0419
  477MPD2    H7 7106   1.005   4.448  11.239 -2.3031  0.2799  1.6915
  478TMC3    C1 7107   0.911   4.290  11.086 -0.1039 -0.1056 -0.7797
  478TMC3    C2 7108   0.939   4.420  11.069 -0.1822  0.3466 -0.5951
  478TMC3    C3 7109   0.853   4.511  11.035 -0.4108  0.1014 -0.3638
  478TMC3    C4 7110   0.790   4.236  11.050  0.3139  0.2125 -0.1233
  478TMC3    C5 7111   0.696   4.335  11.010 -0.4338  0.1794 -0.0284
  478TMC3    C6 7112   0.722   4.468  11.004 -0.6848 -0.2325  0.0780
  478TMC3     C 7113   0.964   4.249  11.214 -0.3634  0.0315 -0.2129
  478TMC3     O 7114   0.959   4.129  11.241 -0.1628  0.0871  0.8416
  478TMC3     H 7115   1.040   4.458  11.082  0.2291 -0.9951  0.1416
  478TMC3    H1 7116   0.756   4.135  11.072 -0.6955 -0.1390 -3.2261
  478TMC3    H2 7117   0.634   4.532  10.996 -1.4655 -0.8399  4.0016
  478TMC3    C7 7118   0.568   4.277  10.963 -0.0227  0.5657 -0.3084
  478TMC3    C8 7119   0.867   4.633  11.115 -0.1285 -0.1785 -0.1795
  478TMC3    O1 7120   0.529   4.178  11.018  0.1775  0.1778  0.3535
  478TMC3    O2 7121   0.963   4.635  11.184 -0.5949  0.2214 -0.1932
  479MPD2     C 7122   4.675   1.740  14.961  0.0288 -0.0191  0.0395
  479MPD2    C1 7123   4.624   1.675  15.068 -0.0700  0.4758 -0.2723
  479MPD2    C2 7124   4.698   1.679  15.185 -0.1527  0.8721 -0.0445
  479MPD2    C3 7125   0.093   1.758  15.188 -0.8379 -0.1090  0.2401
  479MPD2    C4 7126   0.157   1.796  15.073  0.4479 -0.4056 -0.1128
  479MPD2    C5 7127   0.073   1.803  14.967 -0.1990  0.5446 -0.3717
  479MPD2     H 7128   4.666   1.639  15.280  0.5550  1.8941  0.6268
  479MPD2    H1 7129   0.257   1.837  15.077  0.1404  0.2954  0.3105
  479MPD2    H2 7130   4.617   1.753  14.870 -1.2327 -0.5219  0.7806
  479MPD2    H3 7131   0.116   1.854  14.881 -1.7804  3.6411  0.6750
  479MPD2     N 7132   0.165   1.786  15.305  0.2042 -0.2674  0.0543
  479MPD2    H5 7133   0.263   1.809  15.292  0.4797 -1.0323  0.7440
  479MPD2    N1 7134   4.496   1.606  15.055  0.6080  0.4415  0.6553
  479MPD2    H7 7135   4.459   1.597  14.961  3.3652 -1.9601 -0.1886
  480TMC3    C1 7136   4.509   1.778  15.586 -0.0708 -0.2755 -0.0296
  480TMC3    C2 7137   4.444   1.858  15.503 -0.4208 -0.6254  0.5412
  480TMC3    C3 7138   4.509   1.935  15.406  0.4848  0.8462  0.3675
  480TMC3    C4 7139   4.646   1.759  15.565  0.2840 -0.6138  0.7210
  480TMC3    C5 7140   4.711   1.827  15.461  0.3889  0.4564 -0.5658
  480TMC3    C6 7141   4.646   1.930  15.393 -0.3938 -0.5444 -0.3531
  480TMC3     C 7142   4.455   1.701  15.696  0.2519 -0.1835 -0.6942
  480TMC3     O 7143   4.544   1.642  15.762 -0.0409 -0.4407 -0.5230
  480TMC3     H 7144   4.336   1.867  15.503 -0.3801 -0.0660 -2.0628
  480TMC3    H1 7145   4.705   1.683  15.616  0.7044  0.7844  2.3250
  480TMC3    H2 7146   4.702   1.970  15.309 -2.2251  2.5075 -0.0891
  480TMC3    C7 7147   0.125   1.784  15.439 -0.7057 -0.0168 -0.4698
  480TMC3    C8 7148   4.431   1.948  15.280  0.3646 -0.4867 -0.1367
  480TMC3    O1 7149   0.197   1.795  15.536 -0.5411 -0.9487 -1.1385
  480TMC3    O2 7150   4.332   1.879  15.260 -0.1830 -0.3748  0.7343
  481MPD2     C 7151   1.780   1.135  14.014 -0.1387  0.5144 -0.1627
  481MPD2    C1 7152   1.656   1.117  14.069  0.9171  0.4849 -0.0461
  481MPD2    C2 7153   1.643   1.141  14.202  0.4249 -0.8454  0.4899
  481MPD2    C3 7154   1.755   1.169  14.287 -0.1751 -0.4228  0.4411
  481MPD2    C4 7155   1.877   1.191  14.233 -0.2664  0.8176  0.3378
  481MPD2    C5 7156   1.885   1.186  14.094 -0.1424  0.3647  0.0101
  481MPD2     H 7157   1.541   1.156  14.236 -0.8518 -2.9225 -2.4326
  481MPD2    H1 7158   1.966   1.202  14.294 -0.6465  0.3808  0.9683
  481MPD2    H2 7159   1.801   1.122  13.909 -1.9577 -1.8464 -0.2289
  481MPD2    H3 7160   1.981   1.207  14.049 -0.9300  0.6894 -1.5199
  481MPD2     N 7161   1.740   1.199  14.424 -0.9500 -0.0148 -0.5796
  481MPD2    H5 7162   1.817   1.245  14.472 -0.1011  0.3219 -2.2475
  481MPD2    N1 7163   1.543   1.086  13.992  0.6315 -0.3821 -0.4016
  481MPD2    H7 7164   1.564   1.062  13.895  1.2008  1.3929 -0.7359
  482TMC3    C1 7165   1.324   1.058  13.905  0.6903  0.3535 -0.3241
  482TMC3    C2 7166   1.357   0.945  13.834 -0.0174 -0.9054  0.4167
  482TMC3    C3 7167   1.258   0.893  13.762  0.4395  0.3746  0.2158
  482TMC3    C4 7168   1.198   1.123  13.902 -0.1231  0.2042  0.2810
  482TMC3    C5 7169   1.111   1.075  13.803 -0.3136 -0.4879 -0.1361
  482TMC3    C6 7170   1.141   0.963  13.742  0.2759 -0.0343 -0.4901
  482TMC3     C 7171   1.406   1.097  14.021  0.0554  0.5513  0.4158
  482TMC3     O 7172   1.342   1.154  14.110 -0.8936  0.6711 -0.5325
  482TMC3     H 7173   1.442   0.884  13.861  0.5289 -0.4876 -0.3706
  482TMC3    H1 7174   1.179   1.215  13.956  2.3994 -1.1219  3.4929
  482TMC3    H2 7175   1.084   0.927  13.657 -1.1566 -0.0764  0.4875
  482TMC3    C7 7176   0.991   1.152  13.774  1.0998  0.1617  0.0189
  482TMC3    C8 7177   1.274   0.766  13.693 -0.7233  0.1911  0.8490
  482TMC3    O1 7178   0.958   1.244  13.849  0.3763  0.6237  0.3735
  482TMC3    O2 7179   1.170   0.702  13.678 -0.3229 -0.2102  0.4554
  483TMC3    C1 7180   3.490   0.940   0.370 -0.3040  0.3247  0.1372
  483TMC3    C2 7181   3.575   1.043   0.339 -0.2149 -0.3288 -0.1006
  483TMC3    C3 7182   3.652   1.109   0.433  0.0836 -0.0344 -0.4300
  483TMC3    C4 7183   3.481   0.898   0.497 -0.4778 -0.2579 -0.0925
  483TMC3    C5 7184   3.563   0.961   0.593  0.1339 -0.6920 -0.2010
  483TMC3    C6 7185   3.650   1.060   0.558  0.4833 -0.8018 -0.6867
  483TMC3     C 7186   3.462   0.842   0.262 -0.3428  0.5121  0.0906
  483TMC3     O 7187   3.466   0.884   0.147  0.6623 -0.2078  0.2616
  483TMC3     H 7188   3.590   1.072   0.236 -0.6943  3.0141  0.7586
  483TMC3    H1 7189   3.419   0.814   0.526  3.0046 -3.1505 -1.0334
  483TMC3    H2 7190   3.730   1.078   0.628  0.8845 -0.3188 -1.2651
  483TMC3    C7 7191   3.620   0.872   0.692  0.1834 -0.1301  0.0581
  483TMC3    C8 7192   3.779   1.156   0.400  1.5481  0.2912 -0.0199
  483TMC3    O1 7193   3.743   0.868   0.687 -0.8331 -0.3338  0.3570
  483TMC3    O2 7194   3.825   1.121   0.289 -0.7666 -0.2839  0.0972
  484MPD2     C 7195   1.850   3.135  12.172  0.3966  0.5018 -0.3970
  484MPD2    C1 7196   1.945   3.034  12.182  0.2796  0.3204  0.5781
  484MPD2    C2 7197   2.080   3.076  12.212  0.0431  0.0552  0.3644
  484MPD2    C3 7198   2.123   3.207  12.215  0.6688  0.2417 -0.1928
  484MPD2    C4 7199   2.019   3.301  12.210  0.1787  0.1916 -0.2531
  484MPD2    C5 7200   1.890   3.263  12.201  0.2756  0.2935  0.8059
  484MPD2     H 7201   2.153   3.001  12.238  0.4197  0.5723  0.7909
  484MPD2    H1 7202   2.046   3.406  12.210 -1.1299  0.5242  1.2649
  484MPD2    H2 7203   1.745   3.108  12.159  0.5878 -0.4570  0.0139
  484MPD2    H3 7204   1.819   3.344  12.195  0.5048  0.5160  1.0765
  484MPD2     N 7205   2.262   3.251  12.227 -0.6489 -0.1405  0.4957
  484MPD2    H5 7206   2.278   3.349  12.248  1.4565 -0.1976 -0.8292
  484MPD2    N1 7207   1.906   2.899  12.178 -0.0407  0.2141  0.1210
  484MPD2    H7 7208   1.811   2.872  12.154  0.2286  0.9467 -1.7668
  485TMC3    C1 7209   2.489   3.252  12.259  0.1538 -1.0963  0.3099
  485TMC3    C2 7210   2.598   3.197  12.320 -0.3302  0.4096 -0.2845
  485TMC3    C3 7211   2.720   3.247  12.290 -0.0553 -0.1605 -0.3291
  485TMC3    C4 7212   2.497   3.350  12.159 -0.4078 -0.9482  0.4565
  485TMC3    C5 7213   2.625   3.390  12.121 -0.4297 -0.0709  0.4065
  485TMC3    C6 7214   2.735   3.343  12.193  0.2374  0.4184  0.3647
  485TMC3     C 7215   2.373   3.168  12.242 -0.5492 -0.5588  0.3349
  485TMC3     O 7216   2.392   3.045  12.229  0.1782 -0.0233  0.1139
  485TMC3     H 7217   2.583   3.111  12.383  2.3691 -0.5468 -0.9464
  485TMC3    H1 7218   2.413   3.387  12.102 -0.8460  0.8500  2.2706
  485TMC3    H2 7219   2.833   3.386  12.172  0.6240 -1.4229 -1.6375
  485TMC3    C7 7220   2.655   3.398  11.983  0.5519 -0.7158  0.3706
  485TMC3    C8 7221   2.805   3.137  12.251  0.7310  0.2886 -0.3237
  485TMC3    O1 7222   2.601   3.477  11.907  0.3596 -0.2593 -0.0587
  485TMC3    O2 7223   2.855   3.147  12.140  0.5572  0.2598 -0.0893
  486MPD2     C 7224   4.611   1.806  12.777 -0.6183  0.5472  0.5613
  486MPD2    C1 7225   4.515   1.768  12.686 -0.1541 -0.0866 -0.0902
  486MPD2    C2 7226   4.453   1.857  12.597  0.4760  0.1610  0.3027
  486MPD2    C3 7227   4.489   1.986  12.602  0.3124 -0.1935 -0.2377
  486MPD2    C4 7228   4.582   2.030  12.694  0.6166  0.1313  0.1961
  486MPD2    C5 7229   4.644   1.939  12.782  0.6450  0.5349 -0.5255
  486MPD2     H 7230   4.392   1.820  12.516  0.3945 -0.8973  0.8388
  486MPD2    H1 7231   4.629   2.127  12.702  0.3298  0.3056 -0.2626
  486MPD2    H2 7232   4.662   1.731  12.836  2.5089  1.1760 -1.3440
  486MPD2    H3 7233   0.004   1.964  12.845  1.5054  0.4266 -1.6367
  486MPD2     N 7234   4.422   2.068  12.513 -0.2444  0.6189  0.7522
  486MPD2    H5 7235   4.374   2.021  12.437 -0.8427  1.6189  0.5145
  486MPD2    N1 7236   4.473   1.635  12.685 -0.1271 -0.2886 -0.5621
  486MPD2    H7 7237   4.545   1.584  12.736  1.0698 -0.9190 -2.8548
  487TMC3    C1 7238   4.343   1.441  12.656  0.2509 -0.4012  0.0295
  487TMC3    C2 7239   4.242   1.387  12.591  0.1730 -1.1287  0.2742
  487TMC3    C3 7240   4.195   1.275  12.652 -0.7242  0.2256  0.1540
  487TMC3    C4 7241   4.389   1.394  12.781 -0.2588  0.0444  1.0750
  487TMC3    C5 7242   4.340   1.275  12.831 -0.5392  0.2341 -0.2869
  487TMC3    C6 7243   4.240   1.212  12.761  0.6224  0.9525 -0.0062
  487TMC3     C 7244   4.367   1.576  12.614 -0.2338  0.1937 -0.0230
  487TMC3     O 7245   4.290   1.623  12.529 -0.2345  0.0622 -0.2640
  487TMC3     H 7246   4.197   1.427  12.501  1.8102 -1.3271 -0.6391
  487TMC3    H1 7247   4.471   1.435  12.838  0.1275 -1.7873  1.8380
  487TMC3    H2 7248   4.160   1.166  12.817  0.2575  1.8966  0.2506
  487TMC3    C7 7249   4.318   1.286  12.977 -1.2829  0.5032 -0.6169
  487TMC3    C8 7250   4.069   1.220  12.615  0.8368 -0.1313  0.5365
  487TMC3    O1 7251   4.372   1.382  13.033  0.0665  0.5695  0.1631
  487TMC3    O2 7252   4.062   1.097  12.623  0.1131 -0.0793 -0.0584
  488MPD2     C 7253   4.191   3.364  16.099  0.0730  0.0708  0.1565
  488MPD2    C1 7254   4.228   3.461  16.187  0.4541 -0.6999  0.6557
  488MPD2    C2 7255   4.188   3.451  16.325  0.9444 -0.4112  0.1740
  488MPD2    C3 7256   4.105   3.352  16.363 -0.9113  0.2525 -0.4131
  488MPD2    C4 7257   4.084   3.252  16.276 -0.3488  0.1964  0.8302
  488MPD2    C5 7258   4.131   3.255  16.148  0.2257 -0.7026  0.0588
  488MPD2     H 7259   4.209   3.535  16.390  0.0015  1.4064 -1.8642
  488MPD2    H1 7260   4.019   3.170  16.305  0.1800 -0.3200  0.5598
  488MPD2    H2 7261   4.206   3.368  15.991 -0.0398  0.8899  0.1773
  488MPD2    H3 7262   4.096   3.171  16.089  1.5270  0.3517 -2.2234
  488MPD2     N 7263   4.045   3.374  16.488  0.0021  0.2894  0.5209
  488MPD2    H5 7264   4.084   3.443  16.551 -0.5588 -0.9913  2.2915
  488MPD2    N1 7265   4.311   3.571  16.152 -0.6521  0.0264  0.0914
  488MPD2    H7 7266   4.315   3.651  16.215 -0.4463 -0.7644  1.0731
  489TMC3    C1 7267   3.892   3.353  16.660  0.8353  0.5209 -0.0043
  489TMC3    C2 7268   3.929   3.481  16.687  0.1615  0.2024 -0.6647
  489TMC3    C3 7269   3.939   3.527  16.812  0.2045  0.1224  0.4265
  489TMC3    C4 7270   3.868   3.262  16.762 -0.8130 -0.2815 -0.2544
  489TMC3    C5 7271   3.875   3.310  16.887  0.0137 -0.1095 -0.9637
  489TMC3    C6 7272   3.901   3.446  16.916 -0.8972  0.0478  0.3660
  489TMC3     C 7273   3.949   3.290  16.543 -0.3634  0.1223 -0.1364
  489TMC3     O 7274   3.899   3.187  16.496 -0.2283 -0.0117  0.3190
  489TMC3     H 7275   3.949   3.548  16.604 -0.2297 -0.0727 -0.9771
  489TMC3    H1 7276   3.834   3.160  16.749  0.6253 -0.8475  0.3814
  489TMC3    H2 7277   3.881   3.488  17.014 -0.1851  1.1104  0.0505
  489TMC3    C7 7278   3.855   3.218  16.993 -0.1411  0.5428  0.0760
  489TMC3    C8 7279   3.992   3.663  16.834  1.1684  0.3445  0.6072
  489TMC3    O1 7280   3.817   3.110  16.956  0.2971  0.2970  0.6298
  489TMC3    O2 7281   4.026   3.722  16.735 -0.2738 -0.7334 -0.1846
  490MPD2     C 7282   0.232   3.758  17.152  0.2080 -0.4456 -0.3931
  490MPD2    C1 7283   0.301   3.638  17.156  0.2675  0.2983  1.3694
  490MPD2    C2 7284   0.433   3.638  17.180  1.1079  0.2610 -0.9785
  490MPD2    C3 7285   0.501   3.760  17.190 -1.2144 -0.0857 -0.2635
  490MPD2    C4 7286   0.429   3.872  17.205 -0.4424  0.7793 -0.6418
  490MPD2    C5 7287   0.299   3.868  17.186  0.3507 -0.2866  0.0848
  490MPD2     H 7288   0.482   3.542  17.196  1.0399  0.1073 -1.6701
  490MPD2    H1 7289   0.480   3.963  17.232 -1.8263  1.1497  0.7503
  490MPD2    H2 7290   0.124   3.763  17.137  0.1288 -0.1998  0.2734
  490MPD2    H3 7291   0.244   3.960  17.169 -0.4945 -1.0221 -1.1449
  490MPD2     N 7292   0.638   3.765  17.207  0.0260 -1.0233 -0.6012
  490MPD2    H5 7293   0.682   3.850  17.243 -2.5305 -0.3521  0.9433
  490MPD2    N1 7294   0.234   3.507  17.141 -0.4164 -0.2368 -0.5326
  490MPD2    H7 7295   0.297   3.428  17.140 -1.7230 -1.2544 -2.7209
  491TMC3    C1 7296   0.069   3.339  17.154 -0.0131  0.4720 -0.1677
  491TMC3    C2 7297   0.136   3.272  17.256 -0.3260 -0.5474 -0.2545
  491TMC3    C3 7298   0.125   3.136  17.255 -0.4396 -0.1757  0.0769
  491TMC3    C4 7299   4.707   3.280  17.064 -0.1351  0.1385 -0.8734
  491TMC3    C5 7300   4.701   3.145  17.068 -0.0671 -0.1999  0.1419
  491TMC3    C6 7301   0.042   3.076  17.165  0.5714  0.6381  0.0235
  491TMC3     C 7302   0.100   3.476  17.132 -0.2575  0.8197  0.2846
  491TMC3     O 7303   0.002   3.554  17.118 -0.3656  0.2516  0.3580
  491TMC3     H 7304   0.188   3.325  17.334 -2.8253  0.2977  0.8192
  491TMC3    H1 7305   4.656   3.347  16.996  0.1108  0.5843 -0.6149
  491TMC3    H2 7306   0.040   2.968  17.170 -1.0645  0.6405 -0.6046
  491TMC3    C7 7307   4.632   3.060  16.976 -0.0954 -0.3170 -0.5248
  491TMC3    C8 7308   0.165   3.067  17.371 -0.8771  0.5252  0.0765
  491TMC3    O1 7309   4.636   2.943  16.995  0.3273 -0.7620  0.2754
  491TMC3    O2 7310   0.125   3.113  17.477 -0.2616  0.2887 -0.0014
  492MPD2     C 7311   0.728   2.757  11.415 -0.2256  0.2775 -0.7854
  492MPD2    C1 7312   0.667   2.648  11.354  0.3169 -0.2564 -0.5285
  492MPD2    C2 7313   0.571   2.579  11.433 -0.2532  0.1814 -0.0379
  492MPD2    C3 7314   0.543   2.608  11.563  0.8436  0.0607  0.7660
  492MPD2    C4 7315   0.617   2.702  11.630 -0.5958 -0.4960 -0.5570
  492MPD2    C5 7316   0.704   2.780  11.552 -0.1594  1.1381 -0.7033
  492MPD2     H 7317   0.516   2.501  11.382 -0.7422  0.5344 -0.0476
  492MPD2    H1 7318   0.610   2.728  11.735  0.8967  3.0934 -1.3086
  492MPD2    H2 7319   0.801   2.819  11.365  1.1563  1.2419  2.4113
  492MPD2    H3 7320   0.750   2.860  11.609  1.5821 -1.6657  1.8249
  492MPD2     N 7321   0.451   2.534  11.646 -0.8901  0.1354 -0.0283
  492MPD2    H5 7322   0.439   2.564  11.742  2.8905 -0.1792  0.5672
  492MPD2    N1 7323   0.700   2.620  11.222  0.5066 -0.3684  0.1162
  492MPD2    H7 7324   0.775   2.672  11.177 -0.0264 -0.5464 -0.9710
  493TMC3    C1 7325   0.717   2.497  11.028  0.3662 -0.4091 -0.3691
  493TMC3    C2 7326   0.790   2.602  10.984  0.2536  0.1791 -0.2630
  493TMC3    C3 7327   0.778   2.663  10.861 -0.0386  0.4861 -0.5769
  493TMC3    C4 7328   0.632   2.444  10.933 -0.1533 -0.0747 -0.0229
  493TMC3    C5 7329   0.627   2.503  10.808 -0.5449  0.4913 -0.8471
  493TMC3    C6 7330   0.696   2.614  10.769 -0.6529 -0.0374 -0.2199
  493TMC3     C 7331   0.662   2.506  11.158  0.2518  0.0756  0.6129
  493TMC3     O 7332   0.588   2.417  11.192 -0.0728  0.1961  0.3323
  493TMC3     H 7333   0.878   2.627  11.042 -0.1772  1.4064 -0.1484
  493TMC3    H1 7334   0.569   2.363  10.967  1.1047 -1.5450 -1.2038
  493TMC3    H2 7335   0.673   2.670  10.679 -2.6818 -0.4279  0.0555
  493TMC3    C7 7336   0.534   2.445  10.705 -0.0031 -1.4186  0.7668
  493TMC3    C8 7337   0.821   2.801  10.868  0.0474  0.1078  0.1170
  493TMC3    O1 7338   0.469   2.522  10.639  0.3815  0.1708  0.0266
  493TMC3    O2 7339   0.831   2.842  10.984  0.6654 -0.2152  0.0779
  494TMC3    C1 7340   1.016   0.035   0.285  0.1664 -0.1156 -0.6931
  494TMC3    C2 7341   1.039   4.634   0.317  0.2014 -0.3488  0.2161
  494TMC3    C3 7342   1.120   4.563   0.235  0.7260  0.2551 -0.6942
  494TMC3    C4 7343   1.072   0.096   0.173 -0.8784  0.1177  0.1519
  494TMC3    C5 7344   1.158   0.021   0.099 -0.3769  0.1933  0.0306
  494TMC3    C6 7345   1.175   4.613   0.125  0.1382  0.0521 -0.9392
  494TMC3     C 7346   0.934   0.114   0.373 -1.0302  0.5308 -0.1115
  494TMC3     O 7347   0.941   0.091   0.492  0.1290  1.0707  0.0200
  494TMC3     H 7348   1.005   4.598   0.414 -0.6555  0.5575  0.2547
  494TMC3    H1 7349   1.040   0.195   0.143  2.1531  0.5202 -1.7299
  494TMC3    H2 7350   1.242   4.566   0.053  0.3596 -0.2260 -0.5522
  494TMC3    C7 7351   1.221   0.077  17.681 -0.5597 -0.6237 -0.0353
  494TMC3    C8 7352   1.184   4.437   0.280 -0.1526  0.2344 -0.5927
  494TMC3    O1 7353   1.227   0.009  17.577  0.1592 -0.0837 -0.1829
  494TMC3    O2 7354   1.279   4.394   0.216 -0.2188  0.5591  0.1296
  495TMC3    C1 7355   0.160   1.888  14.572 -1.0828  0.3220  0.5365
  495TMC3    C2 7356   0.069   1.914  14.471 -0.2539 -0.1316  0.3286
  495TMC3    C3 7357   0.036   2.055  14.452  0.6739 -0.5580 -0.2758
  495TMC3    C4 7358   0.220   1.988  14.650  0.0563 -0.6729  0.6460
  495TMC3    C5 7359   0.166   2.116  14.648  0.2702  0.3494 -0.2470
  495TMC3    C6 7360   0.088   2.151  14.536 -0.3375  0.1665  0.4969
  495TMC3     C 7361   0.187   1.748  14.614  0.3035 -0.1329  0.6281
  495TMC3     O 7362   0.300   1.732  14.654 -0.6073 -0.2913  0.4987
  495TMC3     H 7363   0.037   1.831  14.409  0.3293  0.3008 -0.5496
  495TMC3    H1 7364   0.280   1.951  14.732 -0.8361  0.5089  1.8171
  495TMC3    H2 7365   0.048   2.251  14.527  2.2987  0.9705 -2.3467
  495TMC3    C7 7366   0.086   2.127  14.774  0.5100  0.2054 -0.2127
  495TMC3    C8 7367   4.624   2.085  14.398  0.7853  0.1915 -0.6942
  495TMC3    O1 7368   0.146   2.108  14.878 -0.0681  0.2619  0.2411
  495TMC3    O2 7369   4.541   1.992  14.414  0.1741 -0.2319  0.1118
  496MPD2     C 7370   1.586   1.987  14.997  1.4563 -1.0761  1.0212
  496MPD2    C1 7371   1.687   1.890  15.018  0.4645  0.6869  0.7623
  496MPD2    C2 7372   1.646   1.763  15.052  0.2118 -0.3632  0.0780
  496MPD2    C3 7373   1.510   1.742  15.089  0.3634  0.6619  0.5734
  496MPD2    C4 7374   1.421   1.843  15.087  0.2007 -0.4082 -0.0411
  496MPD2    C5 7375   1.458   1.959  15.028  0.2473 -0.9077 -0.2443
  496MPD2     H 7376   1.716   1.682  15.072  2.6277  1.9150  0.7265
  496MPD2    H1 7377   1.317   1.841  15.119 -0.4087  0.8913 -1.9708
  496MPD2    H2 7378   1.617   2.085  14.960  0.1803 -0.4557  1.6062
  496MPD2    H3 7379   1.390   2.043  15.013 -1.4100 -2.0417  0.8414
  496MPD2     N 7380   1.473   1.623  15.167  0.5539 -0.1680 -0.4604
  496MPD2    H5 7381   1.383   1.624  15.213  1.1145  0.7319  0.6282
  496MPD2    N1 7382   1.822   1.937  15.002 -0.1252  0.2024 -0.8580
  496MPD2    H7 7383   1.834   2.037  14.986  1.5633  0.3523  1.4557
  497TMC3    C1 7384   1.525   1.441  15.301 -0.2330  0.5052  0.0605
  497TMC3    C2 7385   1.623   1.347  15.309 -0.0425  0.4569  0.1322
  497TMC3    C3 7386   1.707   1.350  15.419  0.5123  0.0853  0.6624
  497TMC3    C4 7387   1.501   1.531  15.400  1.1057  0.0121 -0.5642
  497TMC3    C5 7388   1.585   1.520  15.510  0.2736  0.4436 -0.2920
  497TMC3    C6 7389   1.697   1.443  15.518  0.4374 -0.1037  0.2317
  497TMC3     C 7390   1.544   1.510  15.171  0.7044 -0.1397  0.4184
  497TMC3     O 7391   1.631   1.473  15.089  0.2412 -0.2621  0.2021
  497TMC3     H 7392   1.641   1.287  15.220  1.3283  0.2772  0.5308
  497TMC3    H1 7393   1.407   1.586  15.401  1.4891  0.7053 -3.0022
  497TMC3    H2 7394   1.747   1.412  15.609  1.3251  2.8337  0.7359
  497TMC3    C7 7395   1.536   1.574  15.637 -0.1972  0.2599  0.1225
  497TMC3    C8 7396   1.813   1.251  15.407  0.1262  0.4807  0.2397
  497TMC3    O1 7397   1.422   1.617  15.630 -0.1622  0.2733  0.4185
  497TMC3    O2 7398   1.791   1.147  15.343  0.8239 -0.4592 -0.2046
  498MPD2     C 7399   3.542   2.303   9.546 -0.6435  0.0544 -0.0680
  498MPD2    C1 7400   3.451   2.404   9.547  0.2103  0.7172  0.4996
  498MPD2    C2 7401   3.314   2.369   9.573  0.3489 -0.3901  0.0275
  498MPD2    C3 7402   3.280   2.240   9.600 -0.0519  0.0662  0.4150
  498MPD2    C4 7403   3.370   2.140   9.570 -0.2887 -0.8821  0.0469
  498MPD2    C5 7404   3.499   2.172   9.541 -0.0767  0.9981  0.4817
  498MPD2     H 7405   3.244   2.450   9.592  0.8135 -0.4843  2.0860
  498MPD2    H1 7406   3.343   2.036   9.583 -0.4829 -0.9771 -1.1621
  498MPD2    H2 7407   3.650   2.315   9.547 -0.6292 -0.0904  0.1364
  498MPD2    H3 7408   3.575   2.095   9.534 -0.0150  1.0392  0.7181
  498MPD2     N 7409   3.156   2.215   9.661  0.1669 -0.0622 -0.3285
  498MPD2    H5 7410   3.099   2.298   9.671 -0.3517 -0.2200 -1.9454
  498MPD2    N1 7411   3.483   2.540   9.538 -0.4018 -0.6809  0.5775
  498MPD2    H7 7412   3.399   2.597   9.537 -0.7421 -1.1651  1.1517
  499TMC3    C1 7413   3.603   2.736   9.550  0.2534  0.7339 -0.1221
  499TMC3    C2 7414   3.717   2.789   9.598  0.1450 -0.5433  0.5606
  499TMC3    C3 7415   3.719   2.925   9.611  0.2709 -0.2300 -0.4509
  499TMC3    C4 7416   3.490   2.805   9.521 -0.2607 -0.6978  0.3279
  499TMC3    C5 7417   3.495   2.936   9.544  0.1491 -0.2846  0.3164
  499TMC3    C6 7418   3.611   2.999   9.581 -0.3748 -0.2645 -0.6671
  499TMC3     C 7419   3.606   2.597   9.540 -0.2504  0.2542 -0.0731
  499TMC3     O 7420   3.711   2.540   9.533  0.7397  0.1137  0.1584
  499TMC3     H 7421   3.804   2.730   9.624  0.8867  0.2591 -0.1214
  499TMC3    H1 7422   3.405   2.749   9.485  0.0416 -1.7704  1.2361
  499TMC3    H2 7423   3.600   3.098   9.624  1.5382 -0.4399  0.2376
  499TMC3    C7 7424   3.384   3.015   9.506 -0.0162 -0.0986  0.2214
  499TMC3    C8 7425   3.837   2.995   9.666 -0.4097 -1.2139  0.7138
  499TMC3    O1 7426   3.400   3.126   9.469 -0.5389 -0.0109  0.5952
  499TMC3    O2 7427   3.828   3.111   9.705  0.1156  0.2196  0.0213
  500MPD2     C 7428   4.673   3.372   9.607 -1.2797  0.2779 -0.2382
  500MPD2    C1 7429   4.604   3.473   9.672  1.0536  0.2494 -0.3826
  500MPD2    C2 7430   4.468   3.494   9.645  0.7121 -0.5158 -0.3380
  500MPD2    C3 7431   4.398   3.407   9.564  0.0189 -0.3294  0.4006
  500MPD2    C4 7432   4.471   3.303   9.497 -0.4051 -0.2645  0.3099
  500MPD2    C5 7433   4.608   3.288   9.524 -0.4105 -0.0569 -0.7432
  500MPD2     H 7434   4.413   3.574   9.692 -1.1199 -2.3603  0.6418
  500MPD2    H1 7435   4.422   3.231   9.431 -1.6957  0.6777  0.2348
  500MPD2    H2 7436   0.056   3.356   9.612 -1.3140  0.6226  1.6157
  500MPD2    H3 7437   4.656   3.212   9.462  0.3641  0.0707 -0.3054
  500MPD2     N 7438   4.260   3.406   9.539 -0.1604  0.4508 -0.9199
  500MPD2    H5 7439   4.224   3.348   9.464 -0.8300 -2.2095  1.4604
  500MPD2    N1 7440   4.674   3.568   9.758  0.0583  0.5266  0.0982
  500MPD2    H7 7441   4.628   3.649   9.797  1.5571  0.5804  1.7431
  501TMC3    C1 7442   0.128   3.687   9.846 -0.1106 -0.2527 -0.4432
  501TMC3    C2 7443   0.063   3.805   9.816 -0.7336  0.4551  0.5028
  501TMC3    C3 7444   0.101   3.912   9.897  0.7400  0.7751  0.1958
  501TMC3    C4 7445   0.219   3.679   9.948  0.3801  0.9615  0.4921
  501TMC3    C5 7446   0.256   3.790  10.023  0.1764  0.6711 -0.1471
  501TMC3    C6 7447   0.192   3.910   9.998  0.0513 -0.3215 -0.5475
  501TMC3     C 7448   0.083   3.558   9.796 -0.1649 -0.4043 -0.0115
  501TMC3     O 7449   0.157   3.461   9.801 -0.9858  0.4055 -0.6852
  501TMC3     H 7450   4.711   3.827   9.743  0.0587 -1.8841 -1.0478
  501TMC3    H1 7451   0.271   3.589   9.979 -0.4528 -0.0892 -1.1534
  501TMC3    H2 7452   0.205   4.005  10.049 -3.2511  0.1306 -0.5875
  501TMC3    C7 7453   0.327   3.764  10.151 -0.6729 -0.4427  0.1055
  501TMC3    C8 7454   0.018   4.025   9.901 -1.1187 -0.2681  0.5374
  501TMC3    O1 7455   0.335   3.652  10.197  0.3396 -0.4511  0.1252
  501TMC3    O2 7456   4.712   4.065  10.013  0.0281 -0.2674 -0.7835
  502TMC3    C1 7457   4.048   2.935  14.633  0.1017  0.2667  0.2049
  502TMC3    C2 7458   4.022   3.069  14.633 -0.1258 -0.0161 -0.1749
  502TMC3    C3 7459   3.909   3.116  14.689  0.1665 -0.1929  0.8803
  502TMC3    C4 7460   3.955   2.855  14.688  0.4057 -0.6500 -0.2175
  502TMC3    C5 7461   3.842   2.903  14.749 -0.0046  0.1557 -0.0606
  502TMC3    C6 7462   3.815   3.034  14.745 -0.1555  0.9531 -0.3583
  502TMC3     C 7463   4.173   2.911  14.705 -0.1025 -0.4232  0.0128
  502TMC3     O 7464   4.266   2.989  14.686 -0.1166  0.4036  0.1612
  502TMC3     H 7465   4.090   3.137  14.584  1.8207  0.1830  2.7902
  502TMC3    H1 7466   3.970   2.749  14.698  2.6790 -0.1970  1.1917
  502TMC3    H2 7467   3.714   3.062  14.774  0.0548  1.7116 -0.3679
  502TMC3    C7 7468   3.792   2.816  14.853 -0.8106 -0.2706  0.5164
  502TMC3    C8 7469   3.904   3.260  14.714  0.1073 -0.3226 -0.0534
  502TMC3    O1 7470   3.883   2.759  14.915  0.9428  0.1583  0.4558
  502TMC3    O2 7471   3.996   3.333  14.674 -0.6879  0.3565 -0.2521
  503MPD2     C 7472   1.359   3.701  16.610 -0.2036  0.7779  0.4558
  503MPD2    C1 7473   1.399   3.712  16.742  0.8200 -0.0047 -0.0255
  503MPD2    C2 7474   1.442   3.596  16.811 -0.5906 -0.3968  0.6853
  503MPD2    C3 7475   1.444   3.480  16.747 -0.1985  0.1389  0.7377
  503MPD2    C4 7476   1.394   3.468  16.618  0.5489 -0.0873  0.3836
  503MPD2    C5 7477   1.351   3.574  16.548  0.3274  0.5743  0.2353
  503MPD2     H 7478   1.483   3.607  16.911 -1.1146 -0.2036  0.8800
  503MPD2    H1 7479   1.381   3.368  16.578  2.4319 -0.2846  0.2760
  503MPD2    H2 7480   1.317   3.780  16.549  0.6310  1.6577  1.0216
  503MPD2    H3 7481   1.305   3.555  16.452 -1.5226 -0.3709  1.2960
  503MPD2     N 7482   1.506   3.377  16.821 -0.2752  0.2769  0.1794
  503MPD2    H5 7483   1.559   3.403  16.904 -1.6191  0.5177  0.9708
  503MPD2    N1 7484   1.391   3.844  16.804 -0.7006  0.8357  0.0181
  503MPD2    H7 7485   1.421   3.852  16.901 -1.1842 -0.6536  0.2931
  504TMC3    C1 7486   1.600   3.188  16.875 -0.2990  0.1264 -0.0137
  504TMC3    C2 7487   1.610   3.234  17.005 -0.1814  0.3770 -0.6079
  504TMC3    C3 7488   1.693   3.162  17.082  0.0299  0.7836  0.1733
  504TMC3    C4 7489   1.669   3.079  16.836 -0.0919 -0.5541  0.9074
  504TMC3    C5 7490   1.763   3.020  16.914  0.4093 -0.3197 -0.9841
  504TMC3    C6 7491   1.781   3.067  17.044  0.2435 -0.6025  0.3434
  504TMC3     C 7492   1.521   3.249  16.778 -0.0152 -0.1587  0.0553
  504TMC3     O 7493   1.484   3.198  16.674 -0.0992  0.7381 -0.1230
  504TMC3     H 7494   1.536   3.299  17.051 -0.8007  0.9992 -2.4932
  504TMC3    H1 7495   1.658   3.033  16.739  0.9356  0.2635  0.4010
  504TMC3    H2 7496   1.855   3.025  17.111 -1.1222 -1.5576  1.2499
  504TMC3    C7 7497   1.869   2.940  16.855  0.7255  0.4568  0.4983
  504TMC3    C8 7498   1.685   3.197  17.224  0.8736  1.5354  0.0763
  504TMC3    O1 7499   1.865   2.938  16.733  0.2874  0.2576  0.0171
  504TMC3    O2 7500   1.655   3.312  17.261 -0.1766 -0.5106 -0.4885
  505MPD2     C 7501   2.439   1.995  10.649  0.8526  0.0781  0.7626
  505MPD2    C1 7502   2.337   1.928  10.594  1.0698 -0.7249  0.3134
  505MPD2    C2 7503   2.346   1.794  10.571 -0.5408 -0.0081  0.3759
  505MPD2    C3 7504   2.455   1.726  10.613  0.1196  0.5611 -0.1363
  505MPD2    C4 7505   2.556   1.797  10.669 -0.0818 -0.5263 -0.4274
  505MPD2    C5 7506   2.551   1.931  10.684 -0.2380 -0.4786 -0.0057
  505MPD2     H 7507   2.264   1.735  10.532 -0.8910 -0.3314  1.6102
  505MPD2    H1 7508   2.647   1.744  10.694 -0.1892  0.8484  2.8397
  505MPD2    H2 7509   2.425   2.101  10.664  1.7686  0.3098 -0.0239
  505MPD2    H3 7510   2.643   1.979  10.716 -0.4980  0.0196 -0.0017
  505MPD2     N 7511   2.474   1.581  10.591  0.2686  0.0599 -0.0815
  505MPD2    H5 7512   2.570   1.549  10.598 -0.0694 -1.0696 -0.4733
  505MPD2    N1 7513   2.225   2.006  10.562  0.1827  0.0818 -0.1269
  505MPD2    H7 7514   2.235   2.107  10.565  0.6076  0.0230  0.4977
  506TMC3    C1 7515   2.038   2.066  10.432 -0.4607  0.1422 -0.6479
  506TMC3    C2 7516   2.109   2.163  10.373 -0.4803 -0.3343 -0.7020
  506TMC3    C3 7517   2.076   2.205  10.248  0.7558 -0.2361  0.8513
  506TMC3    C4 7518   1.928   2.016  10.375  0.4535 -0.7385 -1.3145
  506TMC3    C5 7519   1.898   2.053  10.247  0.0696 -0.7352  0.1788
  506TMC3    C6 7520   1.977   2.144  10.182 -0.1973  0.0132 -0.6988
  506TMC3     C 7521   2.108   1.964  10.508 -0.3210 -0.7317  0.1099
  506TMC3     O 7522   2.075   1.847  10.486  0.0519 -0.2994  0.5600
  506TMC3     H 7523   2.200   2.209  10.412  0.4575 -1.1089 -1.9928
  506TMC3    H1 7524   1.869   1.951  10.439 -0.5782  2.4958  1.0609
  506TMC3    H2 7525   1.969   2.146  10.074 -0.3443  1.3404 -0.6656
  506TMC3    C7 7526   1.888   1.932  10.167  0.1686 -0.3157  0.4583
  506TMC3    C8 7527   2.196   2.213  10.168  0.2969 -0.5602 -0.8714
  506TMC3    O1 7528   1.873   1.958  10.046 -0.6511  0.1079 -1.0870
  506TMC3    O2 7529   2.287   2.132  10.183 -0.4136 -0.1463 -0.2909
  507TMC3    C1 7530   2.575   2.911  14.609 -0.0203 -0.2884 -0.4937
  507TMC3    C2 7531   2.518   2.789  14.611  0.2973  0.3753  0.2010
  507TMC3    C3 7532   2.525   2.724  14.487 -0.0510  0.4471  0.2011
  507TMC3    C4 7533   2.652   2.961  14.505 -0.0848 -0.2941  0.6994
  507TMC3    C5 7534   2.667   2.881  14.395 -0.0390  1.3429 -0.0687
  507TMC3    C6 7535   2.610   2.758  14.388  0.1039 -0.6702  0.2505
  507TMC3     C 7536   2.560   3.003  14.725  0.2632 -0.3557  0.3071
  507TMC3     O 7537   2.634   3.100  14.740  0.0694 -0.0283 -0.4322
  507TMC3     H 7538   2.461   2.745  14.692 -1.3858  0.9939 -0.6500
  507TMC3    H1 7539   2.687   3.064  14.509  0.5427 -0.3908 -1.8189
  507TMC3    H2 7540   2.607   2.694  14.300  1.6010  2.5860 -2.1486
  507TMC3    C7 7541   2.645   2.949  14.268  0.4640 -0.1565  0.1876
  507TMC3    C8 7542   2.396   2.681  14.433  0.7686 -0.3195 -0.4568
  507TMC3    O1 7543   2.600   2.884  14.177 -0.1646  0.0740 -0.2805
  507TMC3    O2 7544   2.310   2.652  14.516  0.3927  0.2019 -0.0545
  508MPD2     C 7545   2.891   0.863  16.043  0.1947  0.7401  0.2940
  508MPD2    C1 7546   3.014   0.851  16.002 -0.4190 -0.9046 -0.0666
  508MPD2    C2 7547   3.041   0.856  15.867  0.4135 -0.2099  0.1630
  508MPD2    C3 7548   2.946   0.888  15.774 -0.1965 -0.4906  0.0507
  508MPD2    C4 7549   2.818   0.904  15.816  0.0827 -0.2874  0.2476
  508MPD2    C5 7550   2.789   0.889  15.953  0.2036 -0.0516 -0.8008
  508MPD2     H 7551   3.144   0.829  15.846 -0.2584 -0.8519 -2.1738
  508MPD2    H1 7552   2.729   0.921  15.756 -0.2504 -1.4678  0.4148
  508MPD2    H2 7553   2.856   0.858  16.146  0.4942  3.6346  0.5493
  508MPD2    H3 7554   2.686   0.896  15.984  0.1615 -2.2472 -0.4690
  508MPD2     N 7555   2.989   0.879  15.639 -0.4950  0.6283  0.6140
  508MPD2    H5 7556   3.083   0.842  15.626 -0.8114  0.0734 -0.1105
  508MPD2    N1 7557   3.111   0.832  16.104  0.0735 -0.7357  0.5557
  508MPD2    H7 7558   3.071   0.841  16.197  0.4897  0.7478  0.5849
  509TMC3    C1 7559   3.024   1.051  15.209 -0.4461  0.2953  0.5452
  509TMC3    C2 7560   3.153   1.017  15.196  0.4100  0.3997 -1.0794
  509TMC3    C3 7561   3.197   0.937  15.295 -0.8660 -0.5814 -0.2486
  509TMC3    C4 7562   2.940   1.024  15.319 -0.1359 -1.0542 -0.8424
  509TMC3    C5 7563   2.992   0.945  15.414 -0.5914  0.4145 -0.3534
  509TMC3    C6 7564   3.121   0.904  15.405 -0.0384  0.0708 -0.2232
  509TMC3     C 7565   2.947   1.122  15.108 -0.0635 -0.6168 -0.0943
  509TMC3     O 7566   2.822   1.110  15.105  0.2366  0.1127 -0.8385
  509TMC3     H 7567   3.219   1.044  15.114 -0.4067  1.3938 -1.3994
  509TMC3    H1 7568   2.845   1.075  15.332  0.0043 -0.4938 -2.0083
  509TMC3    H2 7569   3.169   0.846  15.482 -1.1634 -1.9361 -1.0462
  509TMC3    C7 7570   2.912   0.925  15.535  0.2475  0.3703 -0.4216
  509TMC3    C8 7571   3.340   0.934  15.318 -0.1969  0.7026  0.1842
  509TMC3    O1 7572   2.801   0.980  15.533 -0.5554 -0.0571 -0.1255
  509TMC3    O2 7573   3.383   0.836  15.373 -0.1259  0.1092  0.0915
  510MPD2     C 7574   1.483   2.553  14.491 -0.1929 -0.1970 -1.2193
  510MPD2    C1 7575   1.500   2.420  14.531 -0.0914  0.1678  0.9166
  510MPD2    C2 7576   1.579   2.340  14.452 -0.0458  0.1182  0.6140
  510MPD2    C3 7577   1.656   2.391  14.350 -0.0617  0.5872  1.2128
  510MPD2    C4 7578   1.636   2.518  14.316 -0.2731 -0.6697 -1.2096
  510MPD2    C5 7579   1.557   2.607  14.385 -0.3721 -0.0119 -0.2214
  510MPD2     H 7580   1.580   2.233  14.471  0.4416 -0.3120 -1.9048
  510MPD2    H1 7581   1.704   2.563  14.245 -0.1986  1.4366  0.1976
  510MPD2    H2 7582   1.429   2.632  14.542  1.0644  1.7657 -2.9372
  510MPD2    H3 7583   1.557   2.712  14.361 -0.8335  0.4587  1.9028
  510MPD2     N 7584   1.752   2.303  14.292 -0.0751 -0.1105 -0.2344
  510MPD2    H5 7585   1.775   2.227  14.355 -0.3173 -0.6165 -0.7635
  510MPD2    N1 7586   1.427   2.362  14.639  0.8474 -0.2862 -0.1568
  510MPD2    H7 7587   1.448   2.265  14.663  0.3373 -0.4262 -0.2889
  511TMC3    C1 7588   1.261   2.333  14.800  0.1278  0.7495  0.7566
  511TMC3    C2 7589   1.152   2.384  14.868 -0.5060 -0.1329  0.0178
  511TMC3    C3 7590   1.050   2.292  14.903 -0.6595  0.5804 -0.0100
  511TMC3    C4 7591   1.263   2.199  14.766 -0.6159 -0.0753 -0.0491
  511TMC3    C5 7592   1.156   2.120  14.789  0.1685  0.1391  0.0242
  511TMC3    C6 7593   1.046   2.160  14.864 -0.2731 -0.3881 -1.1314
  511TMC3     C 7594   1.338   2.423  14.718  0.3283  0.5514 -0.2505
  511TMC3     O 7595   1.312   2.543  14.729  0.9116 -0.1281  0.0341
  511TMC3     H 7596   1.144   2.486  14.903  2.8285  0.2940 -0.4838
  511TMC3    H1 7597   1.341   2.164  14.700 -2.0391 -0.1703 -1.6970
  511TMC3    H2 7598   0.956   2.099  14.867 -1.0180  0.7173 -1.1726
  511TMC3    C7 7599   1.148   1.992  14.718  0.4709 -0.0207 -0.2366
  511TMC3    C8 7600   0.941   2.349  14.986  0.5297  0.1516 -0.1839
  511TMC3    O1 7601   1.221   1.982  14.619 -0.4663 -0.2877  0.2409
  511TMC3    O2 7602   0.933   2.469  14.984 -0.0260 -0.3155 -0.0882
  512TMC3    C1 7603   4.527   1.570  13.209  0.8833  0.3603  0.8479
  512TMC3    C2 7604   4.545   1.482  13.312  0.7301  0.7793  0.3370
  512TMC3    C3 7605   4.635   1.377  13.289  0.1548  0.6711 -0.4862
  512TMC3    C4 7606   4.594   1.552  13.090  0.4189  0.0022  0.1098
  512TMC3    C5 7607   4.677   1.445  13.071 -0.2282  0.3006 -0.3628
  512TMC3    C6 7608   4.702   1.360  13.172  0.0098 -0.4129  0.1928
  512TMC3     C 7609   4.417   1.664  13.215  0.7764 -0.2538 -0.1083
  512TMC3     O 7610   4.326   1.629  13.287  0.7557  0.0134  1.2524
  512TMC3     H 7611   4.508   1.490  13.414  2.0063 -0.2547  0.8779
  512TMC3    H1 7612   4.570   1.624  13.013 -1.3408 -1.1928 -0.4604
  512TMC3    H2 7613   0.045   1.276  13.166  3.1621  2.0355  1.9736
  512TMC3    C7 7614   4.703   1.397  12.939  0.0732 -0.4608 -0.3405
  512TMC3    C8 7615   4.721   1.329  13.393 -0.0052 -0.4085 -0.4640
  512TMC3    O1 7616   4.692   1.478  12.848 -0.2175 -0.1108  0.5081
  512TMC3    O2 7617   0.049   1.219  13.379 -0.1033  0.1305 -0.3741
  513MPD2     C 7618   1.960   1.596  13.369  0.7164  0.2374 -0.4612
  513MPD2    C1 7619   2.048   1.605  13.267  0.3638 -0.3017  0.3875
  513MPD2    C2 7620   2.179   1.640  13.293  0.5875  0.0219 -0.6311
  513MPD2    C3 7621   2.217   1.652  13.428 -1.1396 -0.2189  0.6391
  513MPD2    C4 7622   2.131   1.639  13.533 -0.5333  0.4850 -0.5813
  513MPD2    C5 7623   1.999   1.613  13.499 -0.2694  0.1957  0.1114
  513MPD2     H 7624   2.249   1.659  13.213 -1.4109  0.3904 -2.2971
  513MPD2    H1 7625   2.155   1.637  13.639 -0.5561 -3.3643 -0.6518
  513MPD2    H2 7626   1.854   1.579  13.357  0.8249 -0.5394 -0.3512
  513MPD2    H3 7627   1.918   1.604  13.572 -0.4078  1.0249  0.0531
  513MPD2     N 7628   2.348   1.680  13.454  0.0435 -0.0940  0.4991
  513MPD2    H5 7629   2.413   1.672  13.376  1.2288  1.0362  1.3832
  513MPD2    N1 7630   2.003   1.582  13.136 -0.0031  0.4919 -0.3312
  513MPD2    H7 7631   1.904   1.579  13.112  0.0200  2.4378 -0.6380
  514TMC3    C1 7632   2.038   1.563  12.896  0.1428  0.4909  0.2511
  514TMC3    C2 7633   1.977   1.675  12.851 -0.5185 -0.1423  0.3416
  514TMC3    C3 7634   2.010   1.713  12.726 -1.0219 -0.6848  0.2943
  514TMC3    C4 7635   2.119   1.484  12.821  0.5333  0.3571 -0.4643
  514TMC3    C5 7636   2.164   1.527  12.702 -0.7231 -0.1594 -0.0295
  514TMC3    C6 7637   2.100   1.638  12.652  0.5291  0.3086  0.0118
  514TMC3     C 7638   2.093   1.564  13.033  0.3272  0.9295  0.4874
  514TMC3     O 7639   2.213   1.549  13.035  0.0840 -0.1022  0.8187
  514TMC3     H 7640   1.914   1.740  12.911 -0.9332 -0.0227 -0.2224
  514TMC3    H1 7641   2.169   1.402  12.871  0.8114 -0.0520 -1.4231
  514TMC3    H2 7642   2.149   1.666  12.560 -2.5103 -2.6633 -2.4730
  514TMC3    C7 7643   2.307   1.518  12.684  0.5816  0.2139 -0.1419
  514TMC3    C8 7644   1.904   1.791  12.663  0.0900  0.9108 -0.2397
  514TMC3    O1 7645   2.357   1.516  12.568 -0.0338 -0.7923  0.4019
  514TMC3    O2 7646   1.787   1.771  12.696 -0.0835  0.2578 -0.2086
  515MPD2     C 7647   4.694   3.599  14.255 -0.1042  0.3548 -0.3619
  515MPD2    C1 7648   0.019   3.470  14.269 -0.2081  0.0888  0.2113
  515MPD2    C2 7649   0.127   3.446  14.355  0.8258  0.2679 -0.9873
  515MPD2    C3 7650   0.180   3.546  14.434 -0.0536  0.6790 -0.8415
  515MPD2    C4 7651   0.140   3.675  14.415 -0.2340  1.1749 -0.5634
  515MPD2    C5 7652   0.033   3.698  14.330  0.1626 -0.2338 -0.2808
  515MPD2     H 7653   0.163   3.345  14.369 -0.5052  0.0685  0.8730
  515MPD2    H1 7654   0.176   3.756  14.477  2.1233  0.8101 -1.4426
  515MPD2    H2 7655   4.612   3.616  14.186  1.1251  0.6030 -1.7553
  515MPD2    H3 7656   0.009   3.803  14.319 -2.9278 -0.8381  0.8554
  515MPD2     N 7657   0.288   3.524  14.516 -0.0458 -0.0330  0.3527
  515MPD2    H5 7658   0.342   3.603  14.551 -1.0274  1.1659 -0.8275
  515MPD2    N1 7659   4.683   3.365  14.204 -0.3666 -0.3176  0.3488
  515MPD2    H7 7660   4.592   3.385  14.162 -0.4058 -1.0260  0.0782
  516TMC3    C1 7661   4.620   3.146  14.136 -0.3286  0.2387  0.1906
  516TMC3    C2 7662   4.553   3.191  14.027  0.2395  0.5654  0.4067
  516TMC3    C3 7663   4.465   3.111  13.968  0.3947 -0.0164 -0.4398
  516TMC3    C4 7664   4.610   3.023  14.185 -0.0734  0.0928  0.8465
  516TMC3    C5 7665   4.522   2.942  14.124 -0.6473 -0.1378  0.8868
  516TMC3    C6 7666   4.446   2.982  14.019  0.1483 -0.9119  0.1640
  516TMC3     C 7667   4.713   3.229  14.213 -0.1571 -0.0605  0.3512
  516TMC3     O 7668   0.067   3.168  14.284 -0.1407 -0.0359 -0.0504
  516TMC3     H 7669   4.571   3.290  13.988 -2.0412  1.0559  0.5697
  516TMC3    H1 7670   4.662   3.000  14.278  2.8392  1.3294 -0.4649
  516TMC3    H2 7671   4.388   2.910  13.962  0.2532 -0.7327 -0.1670
  516TMC3    C7 7672   4.468   2.848  14.219  0.6073  0.0583  0.2561
  516TMC3    C8 7673   4.380   3.144  13.855  0.3589  0.1364 -0.6539
  516TMC3    O1 7674   4.551   2.809  14.302 -0.2943  0.4361 -0.1137
  516TMC3    O2 7675   4.281   3.078  13.843 -0.0602  0.6152  0.3148
  517MPD2     C 7676   4.249   0.560  17.595  0.4265  0.6378  0.2532
  517MPD2    C1 7677   4.384   0.554  17.619  0.6511  0.9846  0.6904
  517MPD2    C2 7678   4.440   0.657  17.682  0.0473 -0.0890  0.2251
  517MPD2    C3 7679   4.365   0.764   0.033  0.4172  0.6977  0.3742
  517MPD2    C4 7680   4.229   0.757   0.031  0.2139 -0.1523 -0.7973
  517MPD2    C5 7681   4.175   0.658  17.657  0.3540 -0.2914 -0.4119
  517MPD2     H 7682   4.546   0.668  17.701  0.0586  0.8469 -0.3616
  517MPD2    H1 7683   4.172   0.846   0.056  1.2765  1.4566 -4.2005
  517MPD2    H2 7684   4.195   0.492  17.530 -0.7726  0.6752  1.2159
  517MPD2    H3 7685   4.068   0.654  17.640  0.1433 -2.4705  1.4765
  517MPD2     N 7686   4.421   0.882   0.085  0.1349  0.0612 -0.1239
  517MPD2    H5 7687   4.350   0.949   0.112 -0.2314 -0.7276  0.8962
  517MPD2    N1 7688   4.469   0.442  17.586  0.7604 -0.4540 -0.0257
  517MPD2    H7 7689   4.570   0.442  17.596  0.6912  0.9305  0.7229
  518TMC3    C1 7690   4.537   0.234  17.496  0.6312 -0.8819  0.0956
  518TMC3    C2 7691   4.493   0.112  17.457  0.3333  0.4583  0.1598
  518TMC3    C3 7692   4.584   0.036  17.382  0.0585 -0.7904 -0.5685
  518TMC3    C4 7693   4.666   0.283  17.465 -0.2952  0.7230  0.5581
  518TMC3    C5 7694   0.029   0.195  17.408 -0.4655 -0.7319 -0.1844
  518TMC3    C6 7695   4.714   0.070  17.365  0.3090 -0.5964  0.3698
  518TMC3     C 7696   4.430   0.322  17.541  0.4253 -0.0560  0.7177
  518TMC3     O 7697   4.316   0.289  17.516 -0.0978  0.0799 -0.3851
  518TMC3     H 7698   4.389   0.083  17.471  0.4869 -0.2765 -0.1980
  518TMC3    H1 7699   4.705   0.384  17.476  1.5319  0.0722 -0.0525
  518TMC3    H2 7700   0.056   4.710  17.364 -0.1448 -0.9343 -0.7552
  518TMC3    C7 7701   0.164   0.236  17.392 -0.7278  0.5277  0.6371
  518TMC3    C8 7702   4.548   4.627  17.336 -0.2331  0.6035 -0.8128
  518TMC3    O1 7703   0.200   0.330  17.462 -0.5270 -0.2537  1.0016
  518TMC3    O2 7704   4.624   4.586  17.247 -0.1281 -0.3584 -0.6108
  519MPD2     C 7705   1.323   3.222  13.971  0.1438 -0.5251 -0.8014
  519MPD2    C1 7706   1.363   3.275  13.851  0.0168 -0.6024  0.3057
  519MPD2    C2 7707   1.450   3.201  13.772  0.1730  0.4310 -0.0741
  519MPD2    C3 7708   1.482   3.071  13.812 -0.7961  1.0001  0.3128
  519MPD2    C4 7709   1.434   3.014  13.929  0.2060 -0.4598 -0.1756
  519MPD2    C5 7710   1.361   3.097  14.009 -0.1131 -0.6419 -0.4095
  519MPD2     H 7711   1.503   3.244  13.688  0.7109 -0.6584 -0.3035
  519MPD2    H1 7712   1.436   2.907  13.945  1.7157 -0.7782 -2.4484
  519MPD2    H2 7713   1.255   3.279  14.032  1.0606  1.1887 -1.3522
  519MPD2    H3 7714   1.313   3.054  14.096  0.7327 -0.8269 -0.0385
  519MPD2     N 7715   1.574   2.993  13.742 -0.6391  0.2179  0.0984
  519MPD2    H5 7716   1.620   2.913  13.786 -2.6818 -1.6158 -1.0668
  519MPD2    N1 7717   1.300   3.395  13.812  0.7273  0.5611 -0.0682
  519MPD2    H7 7718   1.254   3.449  13.884 -0.3792  0.5729 -0.7825
  520TMC3    C1 7719   1.658   2.891  13.559 -0.8131 -0.5849  0.8999
  520TMC3    C2 7720   1.559   2.813  13.504  0.0579  0.5363  0.1844
  520TMC3    C3 7721   1.557   2.678  13.522 -0.2100  0.2702  0.6306
  520TMC3    C4 7722   1.764   2.831  13.621 -0.0473 -0.3908 -0.1158
  520TMC3    C5 7723   1.765   2.692  13.638  0.3653 -0.1517 -1.0307
  520TMC3    C6 7724   1.654   2.619  13.595 -0.8571 -0.0757  1.0079
  520TMC3     C 7725   1.611   3.020  13.612 -0.5771  0.1154  0.0273
  520TMC3     O 7726   1.560   3.090  13.527  0.2003  0.2918  0.4671
  520TMC3     H 7727   1.485   2.876  13.457  0.5222  1.0574  0.1427
  520TMC3    H1 7728   1.838   2.898  13.663 -0.6442 -0.1272  0.4994
  520TMC3    H2 7729   1.650   2.512  13.615 -0.7086 -0.7884 -2.7362
  520TMC3    C7 7730   1.879   2.621  13.702 -0.3025 -0.2477 -0.0601
  520TMC3    C8 7731   1.422   2.625  13.524 -0.1658  0.2269 -0.2567
  520TMC3    O1 7732   1.866   2.513  13.756 -0.1738  0.1625 -0.1243
  520TMC3    O2 7733   1.417   2.513  13.572 -0.4494  0.5045  0.2993
  521MPD2     C 7734   2.130   1.506  17.204  0.0801  1.1048 -0.0628
  521MPD2    C1 7735   2.111   1.382  17.143  0.2068  0.0676 -0.3155
  521MPD2    C2 7736   2.214   1.296  17.138  1.2124  0.4020  0.7512
  521MPD2    C3 7737   2.342   1.332  17.184  0.4447 -0.4717 -0.0380
  521MPD2    C4 7738   2.364   1.453  17.246  0.1047  0.5845 -0.3415
  521MPD2    C5 7739   2.254   1.540  17.254 -0.0096  0.6691 -0.8112
  521MPD2     H 7740   2.212   1.198  17.091  1.0050  0.6951  0.1476
  521MPD2    H1 7741   2.464   1.484  17.274 -1.1854  3.3193  1.2488
  521MPD2    H2 7742   2.042   1.570  17.206  0.6904  1.9566 -0.3229
  521MPD2    H3 7743   2.272   1.640  17.292 -0.8973  0.8916 -0.9690
  521MPD2     N 7744   2.447   1.242  17.160  0.5406  0.5758 -0.1259
  521MPD2    H5 7745   2.425   1.158  17.107 -0.5576  0.1696  0.9602
  521MPD2    N1 7746   1.994   1.347  17.068 -0.1798  0.6855 -0.0483
  521MPD2    H7 7747   1.919   1.413  17.088 -2.1509 -1.4814 -0.2518
  522TMC3    C1 7748   2.653   1.151  17.109  0.4567  0.0779  1.0524
  522TMC3    C2 7749   2.771   1.112  17.161 -0.2703  0.5694  0.9139
  522TMC3    C3 7750   2.854   1.031  17.096 -0.4288 -0.7400 -0.0984
  522TMC3    C4 7751   2.598   1.099  16.996  0.2617  0.1291  0.0731
  522TMC3    C5 7752   2.683   1.014  16.926 -0.2954  0.3611  1.0127
  522TMC3    C6 7753   2.810   0.988  16.975  0.7886  0.4836  1.0666
  522TMC3     C 7754   2.578   1.258  17.185 -1.0096  1.1878 -0.2394
  522TMC3     O 7755   2.636   1.327  17.271  0.4367 -0.1016 -0.9532
  522TMC3     H 7756   2.803   1.161  17.253 -0.0505  0.3920  0.9303
  522TMC3    H1 7757   2.507   1.131  16.946  0.4118  2.3503  1.2390
  522TMC3    H2 7758   2.867   0.908  16.929  0.2428  0.2317  0.8122
  522TMC3    C7 7759   2.677   0.999  16.780 -0.5576  0.4694  0.5840
  522TMC3    C8 7760   2.996   1.078  17.094 -0.4922 -0.0952  0.6879
  522TMC3    O1 7761   2.767   0.943  16.721  0.3808 -0.0978 -0.4888
  522TMC3    O2 7762   3.040   1.131  17.195  0.0045 -0.1519  0.4776
  523MPD2     C 7763   0.064   0.202   8.950  0.3354  0.3359  0.2114
  523MPD2    C1 7764   0.073   0.280   9.064 -0.2274  0.1416 -0.4070
  523MPD2    C2 7765   0.028   0.410   9.051  0.0009 -0.1097 -0.5328
  523MPD2    C3 7766   4.700   0.460   8.929  0.0645  0.5138  0.4599
  523MPD2    C4 7767   4.677   0.374   8.824 -0.5993 -0.0141  0.3989
  523MPD2    C5 7768   4.717   0.245   8.838  0.8364 -0.1680  0.4019
  523MPD2     H 7769   0.027   0.470   9.142 -2.0750  0.0541 -0.6544
  523MPD2    H1 7770   4.631   0.404   8.730 -0.8855  2.2534  1.2539
  523MPD2    H2 7771   0.101   0.100   8.944 -1.2967 -0.1684 -1.2147
  523MPD2    H3 7772   4.715   0.168   8.762  2.5688  0.9060 -0.7024
  523MPD2     N 7773   4.654   0.593   8.918  0.2391  0.3178  0.4808
  523MPD2    H5 7774   4.606   0.617   8.831 -0.3230 -1.0344  0.4156
  523MPD2    N1 7775   0.120   0.227   9.186 -0.0144  0.1242  0.1751
  523MPD2    H7 7776   0.150   0.131   9.198 -2.3559 -0.8836 -1.8682
  524TMC3    C1 7777   4.606   0.823   8.970 -0.3809  0.2262 -0.3578
  524TMC3    C2 7778   4.563   0.832   8.843 -0.6143 -0.3665 -0.7832
  524TMC3    C3 7779   4.502   0.955   8.814 -0.0967 -0.5325  0.0341
  524TMC3    C4 7780   4.587   0.915   9.071 -0.4301  0.0884 -0.6505
  524TMC3    C5 7781   4.527   1.032   9.033 -0.2018  0.0211 -0.6298
  524TMC3    C6 7782   4.488   1.053   8.904 -0.0396  0.3875 -0.5728
  524TMC3     C 7783   4.668   0.695   9.013  0.1820  0.0564  0.4470
  524TMC3     O 7784   0.002   0.684   9.122 -0.0618 -0.1482 -0.2719
  524TMC3     H 7785   4.604   0.767   8.767 -2.2902 -0.5479 -1.5389
  524TMC3    H1 7786   4.608   0.888   9.174  2.7203  2.9540 -0.5220
  524TMC3    H2 7787   4.445   1.147   8.870 -1.5623  0.0475  0.4098
  524TMC3    C7 7788   4.477   1.110   9.149 -0.4126 -0.0637 -0.1393
  524TMC3    C8 7789   4.470   0.987   8.671 -0.6375 -0.3372  0.1601
  524TMC3    O1 7790   4.482   1.054   9.257 -0.4874  0.4278  0.3552
  524TMC3    O2 7791   4.479   1.103   8.638 -0.2080 -0.2044  0.5958
  525MPD2     C 7792   2.842   2.456  14.334  0.4422 -0.0001 -0.3760
  525MPD2    C1 7793   2.939   2.486  14.426  0.4357 -0.4867  1.1035
  525MPD2    C2 7794   3.025   2.587  14.391  0.5841 -0.7968  0.0406
  525MPD2    C3 7795   3.012   2.659  14.273  0.0177  0.0208 -0.0243
  525MPD2    C4 7796   2.909   2.632  14.185 -0.3672  0.3615  0.7907
  525MPD2    C5 7797   2.824   2.531  14.220  0.4467  0.4791  0.1392
  525MPD2     H 7798   3.102   2.613  14.463  0.7095  1.1306 -0.7828
  525MPD2    H1 7799   2.888   2.671  14.087 -3.5930 -1.5023  0.7496
  525MPD2    H2 7800   2.785   2.365  14.347 -0.8025  1.1131  1.9384
  525MPD2    H3 7801   2.752   2.503  14.144  1.4209 -1.4717 -0.0443
  525MPD2     N 7802   3.083   2.779  14.244 -0.1389 -0.2139  0.1517
  525MPD2    H5 7803   3.052   2.839  14.169 -0.5221 -0.8964 -0.2356
  525MPD2    N1 7804   2.945   2.415  14.552  0.6299  0.2296 -0.3765
  525MPD2    H7 7805   3.033   2.406  14.602 -0.2320  1.5085  1.3491
  526TMC3    C1 7806   2.866   2.229  14.687  0.1440 -0.2230 -0.5494
  526TMC3    C2 7807   2.778   2.223  14.798  0.0379  0.1545  0.3866
  526TMC3    C3 7808   2.828   2.165  14.912 -0.0359 -0.5323  0.4002
  526TMC3    C4 7809   2.983   2.165  14.685  0.0046 -0.2026 -0.2075
  526TMC3    C5 7810   3.004   2.084  14.793  0.0934  0.0321 -0.1005
  526TMC3    C6 7811   2.934   2.082  14.909 -0.3067  0.3818  0.0175
  526TMC3     C 7812   2.841   2.336  14.588 -0.6251 -0.5064 -0.2156
  526TMC3     O 7813   2.722   2.351  14.562 -0.3666 -0.0936 -0.7875
  526TMC3     H 7814   2.687   2.281  14.802  1.1650  1.9435  0.2381
  526TMC3    H1 7815   3.051   2.175  14.600  1.8713  1.0094  1.4281
  526TMC3    H2 7816   2.988   2.046  14.995 -1.2399  1.0349  0.8679
  526TMC3    C7 7817   3.136   2.013  14.807 -0.2842 -0.5862  1.2696
  526TMC3    C8 7818   2.825   2.244  15.033 -0.1239 -0.0444 -0.8815
  526TMC3    O1 7819   3.152   1.933  14.897  0.6554 -0.1133  0.6618
  526TMC3    O2 7820   2.937   2.245  15.092  0.0559  0.1371 -0.4637
  527MPD2     C 7821   1.797   1.283   1.323 -0.0887  0.4763  0.0546
  527MPD2    C1 7822   1.921   1.222   1.301  0.0794  0.4514  0.5462
  527MPD2    C2 7823   1.952   1.201   1.174 -0.0895 -0.2163 -0.7042
  527MPD2    C3 7824   1.864   1.231   1.069 -0.4103  0.2300 -0.6549
  527MPD2    C4 7825   1.749   1.303   1.093 -0.6827 -0.0414  0.8166
  527MPD2    C5 7826   1.715   1.331   1.225 -0.0613 -0.3047  0.0434
  527MPD2     H 7827   2.043   1.150   1.143  1.3076  1.4111  0.7501
  527MPD2    H1 7828   1.676   1.336   1.021 -0.3253  0.7617  0.8186
  527MPD2    H2 7829   1.765   1.293   1.426  2.7438 -0.9062  1.0658
  527MPD2    H3 7830   1.621   1.380   1.248  0.0648 -0.0164 -0.0520
  527MPD2     N 7831   1.906   1.189   0.942  0.3122  0.5846 -0.2859
  527MPD2    H5 7832   1.996   1.142   0.937  1.2340  2.0259  2.2780
  527MPD2    N1 7833   2.022   1.189   1.396 -0.0940  0.0010 -0.3560
  527MPD2    H7 7834   2.105   1.148   1.354 -1.6526 -1.9209 -1.5228
  528TMC3    C1 7835   2.116   1.146   1.594 -0.1880 -0.2157  0.4343
  528TMC3    C2 7836   2.228   1.199   1.548  0.5378  0.1246  0.1520
  528TMC3    C3 7837   2.344   1.161   1.619 -0.5157  0.1843  0.2277
  528TMC3    C4 7838   2.111   1.066   1.702  0.2441 -0.4208 -0.1932
  528TMC3    C5 7839   2.227   1.019   1.758  0.6221 -0.4347 -0.2101
  528TMC3    C6 7840   2.344   1.070   1.724  0.3179  0.8510  0.3708
  528TMC3     C 7841   1.996   1.176   1.525  0.6223  1.0896 -0.6896
  528TMC3     O 7842   1.889   1.175   1.583 -0.0593 -0.0869  0.0644
  528TMC3     H 7843   2.233   1.276   1.472 -1.7579  1.6602  1.5363
  528TMC3    H1 7844   2.014   1.026   1.731 -1.1595  3.2664  0.1910
  528TMC3    H2 7845   2.438   1.051   1.775  0.6597  2.6182  0.4189
  528TMC3    C7 7846   2.239   0.876   1.759  0.3559 -0.8156 -0.0735
  528TMC3    C8 7847   2.465   1.159   1.545  0.2510 -0.6767  0.0545
  528TMC3    O1 7848   2.129   0.823   1.754  0.1425 -0.6419  0.1559
  528TMC3    O2 7849   2.542   1.069   1.571 -0.2044 -0.1431 -0.5578
  529MPD2     C 7850   3.189   0.141   0.453  0.1315 -0.1092 -0.3408
  529MPD2    C1 7851   3.177   0.015   0.387 -0.0578  0.2931  0.0628
  529MPD2    C2 7852   3.160   0.013   0.254  0.1792  0.3249  0.0115
  529MPD2    C3 7853   3.129   0.127   0.179  0.6442  0.4804 -0.1160
  529MPD2    C4 7854   3.136   0.252   0.234 -0.0378  0.5359 -0.4344
  529MPD2    C5 7855   3.171   0.256   0.373  0.3796 -0.4842 -0.0726
  529MPD2     H 7856   3.178   4.637   0.218  1.5787 -0.2096  2.2078
  529MPD2    H1 7857   3.127   0.345   0.180 -1.0871 -0.4373 -1.9485
  529MPD2    H2 7858   3.212   0.151   0.558 -0.9405 -0.6334 -0.0591
  529MPD2    H3 7859   3.183   0.358   0.409 -0.4088 -0.8979  1.3918
  529MPD2     N 7860   3.100   0.124   0.039  0.0116 -0.2266  0.3188
  529MPD2    H5 7861   3.096   0.209  17.686 -1.3646 -0.8161 -0.5185
  529MPD2    N1 7862   3.197   4.620   0.458 -0.0744  0.0145 -0.2293
  529MPD2    H7 7863   3.174   4.541   0.400  0.9627  0.8512 -1.7713
  530TMC3    C1 7864   3.226   4.463   0.637 -0.0299 -0.4367 -0.1104
  530TMC3    C2 7865   3.197   4.433   0.771 -0.4181 -0.4442  0.1712
  530TMC3    C3 7866   3.183   4.304   0.806 -0.0163  0.4654 -0.6270
  530TMC3    C4 7867   3.234   4.366   0.542 -0.5733  0.2565  0.8199
  530TMC3    C5 7868   3.217   4.238   0.580 -0.0967  0.0536  0.4043
  530TMC3    C6 7869   3.200   4.203   0.710 -0.0638 -0.6155 -0.1946
  530TMC3     C 7870   3.212   4.604   0.598 -0.6356 -0.0919  0.5627
  530TMC3     O 7871   3.218   4.691   0.686  0.2212 -0.1266  0.3752
  530TMC3     H 7872   3.163   4.512   0.837 -0.2346 -0.2468  0.0314
  530TMC3    H1 7873   3.263   4.391   0.441  0.8158  1.2392  1.4575
  530TMC3    H2 7874   3.205   4.100   0.745 -1.0416 -0.2078  1.1589
  530TMC3    C7 7875   3.231   4.142   0.471  0.5357  0.5233 -0.1600
  530TMC3    C8 7876   3.191   4.275   0.944  0.6971  0.2620  1.5128
  530TMC3    O1 7877   3.210   4.185   0.357  0.6509 -0.5142  0.1223
  530TMC3    O2 7878   3.146   4.361   1.017  0.4946 -0.8485  0.3672
  531MPD2     C 7879   2.769   1.599  12.908  0.1790 -0.4391  0.3202
  531MPD2    C1 7880   2.670   1.634  12.998  0.8138  0.0351 -0.2778
  531MPD2    C2 7881   2.540   1.618  12.952  0.0877  0.5177  0.0889
  531MPD2    C3 7882   2.511   1.567  12.824  0.1521 -0.0026 -0.6443
  531MPD2    C4 7883   2.613   1.529  12.734 -0.4817  1.3583 -0.4869
  531MPD2    C5 7884   2.740   1.553  12.785  0.5737 -0.1548 -0.4749
  531MPD2     H 7885   2.463   1.640  13.025  0.9959  2.4289  0.4577
  531MPD2    H1 7886   2.598   1.485  12.636  0.4853 -0.5685  0.2419
  531MPD2    H2 7887   2.872   1.621  12.934 -0.0630  1.6070 -0.4302
  531MPD2    H3 7888   2.824   1.544  12.717 -0.1225  0.6359 -1.4367
  531MPD2     N 7889   2.374   1.548  12.796 -0.2642  0.7870 -0.5843
  531MPD2    H5 7890   2.320   1.569  12.880 -1.5026 -1.5949 -0.7860
  531MPD2    N1 7891   2.706   1.691  13.124 -0.5078 -0.0820  0.6019
  531MPD2    H7 7892   2.799   1.716  13.157 -0.4459  1.4392 -0.7482
  532TMC3    C1 7893   2.654   1.762  13.347 -0.2792 -0.0386  0.4624
  532TMC3    C2 7894   2.544   1.804  13.413  0.7776 -0.4478 -0.0215
  532TMC3    C3 7895   2.534   1.777  13.544 -0.5903 -0.6707 -0.3319
  532TMC3    C4 7896   2.763   1.697  13.408  0.3955  0.6765  0.2464
  532TMC3    C5 7897   2.747   1.677  13.541 -0.4454 -0.0923 -0.2649
  532TMC3    C6 7898   2.634   1.716  13.614  0.4521  0.5168 -0.1232
  532TMC3     C 7899   2.613   1.707  13.224 -0.8432 -0.3449 -0.1894
  532TMC3     O 7900   2.508   1.646  13.242  0.0300 -0.4138  0.2334
  532TMC3     H 7901   2.473   1.860  13.354  1.5953 -0.2794 -0.8337
  532TMC3    H1 7902   2.835   1.644  13.346  0.0255  2.1096 -1.4211
  532TMC3    H2 7903   2.618   1.695  13.719 -0.2354 -0.0773 -0.3461
  532TMC3    C7 7904   2.823   1.570  13.604 -0.2310 -0.7064 -0.0019
  532TMC3    C8 7905   2.406   1.719  13.571  0.5459  0.1389 -0.4524
  532TMC3    O1 7906   2.842   1.582  13.723  0.4738  0.5258 -0.0321
  532TMC3    O2 7907   2.356   1.752  13.680  0.0551 -0.2328  0.0857
  533TMC3    C1 7908   3.216   2.965  14.291 -0.0306  0.1929 -0.1293
  533TMC3    C2 7909   3.340   3.006  14.334 -0.0136 -0.7023  0.3510
  533TMC3    C3 7910   3.352   3.147  14.335 -0.0182 -0.0268 -0.0019
  533TMC3    C4 7911   3.109   3.045  14.281 -0.4238 -0.5010 -0.4710
  533TMC3    C5 7912   3.113   3.181  14.311 -0.2351 -0.5380  0.6932
  533TMC3    C6 7913   3.240   3.235  14.329  0.0083 -0.4557 -0.8161
  533TMC3     C 7914   3.193   2.822  14.300  0.0965 -0.0630 -0.0356
  533TMC3     O 7915   3.279   2.750  14.356 -0.1064  0.4838 -0.7526
  533TMC3     H 7916   3.418   2.930  14.328 -1.0714 -1.5658 -2.4231
  533TMC3    H1 7917   3.011   3.003  14.260 -0.3016 -0.7783 -0.4830
  533TMC3    H2 7918   3.255   3.342  14.340  1.4002 -0.8076  0.8040
  533TMC3    C7 7919   3.004   3.229  14.398  0.7043  0.0369 -0.2969
  533TMC3    C8 7920   3.481   3.222  14.331  0.2478  0.3499  0.1648
  533TMC3    O1 7921   2.913   3.149  14.415  0.2146 -0.1835  0.1104
  533TMC3    O2 7922   3.479   3.342  14.354  0.2527 -0.0426 -0.3090
  534MPD2     C 7923   1.425   4.258   1.108  0.5915  0.5026 -0.2008
  534MPD2    C1 7924   1.387   4.391   1.105 -0.0854  0.2283  0.4147
  534MPD2    C2 7925   1.265   4.417   1.042 -0.2539 -0.2870  0.1853
  534MPD2    C3 7926   1.183   4.315   0.990  0.2054  0.3517 -0.3082
  534MPD2    C4 7927   1.231   4.186   0.980  0.5167 -0.5688  0.1389
  534MPD2    C5 7928   1.357   4.163   1.037 -0.5973  0.3527 -0.0267
  534MPD2     H 7929   1.238   4.521   1.031  0.2534 -0.2592 -0.7942
  534MPD2    H1 7930   1.167   4.101   0.960 -1.1258  0.5042  0.8267
  534MPD2    H2 7931   1.505   4.216   1.167  1.5773  2.0210 -0.4723
  534MPD2    H3 7932   1.393   4.061   1.046  1.1537  0.8633 -1.2665
  534MPD2     N 7933   1.053   4.340   0.936  0.0103 -0.0287  0.2686
  534MPD2    H5 7934   1.011   4.270   0.876 -0.5434  0.1526  0.4422
  534MPD2    N1 7935   1.437   4.502   1.176  0.0459 -0.5246 -0.6221
  534MPD2    H7 7936   1.400   4.588   1.139  0.8954 -0.1891 -0.6868
  535TMC3    C1 7937   0.854   4.460   0.895  0.1739  0.3779 -0.2860
  535TMC3    C2 7938   0.749   4.512   0.961  0.7763  0.1479  0.0954
  535TMC3    C3 7939   0.635   4.527   0.885  0.2190  0.1232  0.1902
  535TMC3    C4 7940   0.860   4.445   0.761 -0.4474  0.4818  0.0299
  535TMC3    C5 7941   0.748   4.479   0.692  0.0115 -0.4462 -0.0807
  535TMC3    C6 7942   0.631   4.509   0.752 -0.0443  0.5796 -0.6144
  535TMC3     C 7943   0.978   4.453   0.963 -0.6486  0.0886 -0.1130
  535TMC3     O 7944   0.992   4.529   1.057 -0.2209  0.1024 -0.3451
  535TMC3     H 7945   0.760   4.520   1.069 -0.3152 -0.3956  0.2429
  535TMC3    H1 7946   0.947   4.404   0.711  0.6253 -0.4030  2.5984
  535TMC3    H2 7947   0.541   4.538   0.698 -0.2367  0.7368 -0.2124
  535TMC3    C7 7948   0.773   4.485   0.547  0.6434  0.7194  0.2824
  535TMC3    C8 7949   0.500   4.546   0.943  0.0556  0.2536  0.4648
  535TMC3    O1 7950   0.874   4.442   0.497  0.3622 -0.0377 -0.1846
  535TMC3    O2 7951   0.402   4.533   0.869 -0.4795 -0.2346 -0.8866
  536MPD2     C 7952   4.518   2.726  16.042 -0.6093 -0.1613  0.1697
  536MPD2    C1 7953   4.430   2.624  16.069 -0.0403 -0.1361 -0.6464
  536MPD2    C2 7954   4.350   2.579  15.969  0.0002  0.1369  0.5552
  536MPD2    C3 7955   4.368   2.613  15.835 -0.3597  1.4382 -0.6496
  536MPD2    C4 7956   4.461   2.706  15.801  0.1027  0.1867  0.2981
  536MPD2    C5 7957   4.533   2.764  15.907 -0.5555 -0.1249  0.0392
  536MPD2     H 7958   4.275   2.505  15.993 -0.3536  0.9371  1.9526
  536MPD2    H1 7959   4.483   2.731  15.698  1.0020 -1.5980  0.0695
  536MPD2    H2 7960   4.575   2.770  16.122  0.6602 -1.7091  0.1191
  536MPD2    H3 7961   4.612   2.833  15.881 -0.7322 -0.1889 -0.6667
  536MPD2     N 7962   4.278   2.577  15.723 -0.2953  0.9247  0.2588
  536MPD2    H5 7963   4.291   2.625  15.634  0.6075  0.8708  0.3577
  536MPD2    N1 7964   4.430   2.576  16.206  0.2368  0.2745 -0.5192
  536MPD2    H7 7965   4.491   2.616  16.277  0.8857 -0.7759 -0.4872
  537TMC3    C1 7966   4.347   2.474  16.399 -0.1177 -0.0420  0.0816
  537TMC3    C2 7967   4.399   2.573  16.471  0.2497  0.5981  0.6160
  537TMC3    C3 7968   4.373   2.571  16.606 -0.1484 -0.4663  0.0897
  537TMC3    C4 7969   4.276   2.371  16.453  0.3601  0.1354 -0.2914
  537TMC3    C5 7970   4.274   2.359  16.587 -0.1290 -0.4063  0.4498
  537TMC3    C6 7971   4.316   2.465  16.669  0.1296  0.2063  0.5200
  537TMC3     C 7972   4.342   2.479  16.249 -0.7347 -0.1475 -0.1644
  537TMC3     O 7973   4.246   2.432  16.200 -0.5289 -0.2134  0.0635
  537TMC3     H 7974   4.465   2.652  16.438  0.6204  0.9915  2.3066
  537TMC3    H1 7975   4.223   2.299  16.392 -0.7692  0.6605  0.0589
  537TMC3    H2 7976   4.299   2.471  16.776  0.4051 -2.2708  0.7186
  537TMC3    C7 7977   4.181   2.263  16.654  0.6607  0.7767 -0.5994
  537TMC3    C8 7978   4.381   2.696  16.675 -1.1178  0.1794  0.2254
  537TMC3    O1 7979   4.110   2.206  16.570  0.2003  0.6463  0.5829
  537TMC3    O2 7980   4.414   2.690  16.791 -0.0122  0.1735 -0.3866
  538TMC3    C1 7981   0.797   1.022  10.484  0.4868  0.6096 -0.5021
  538TMC3    C2 7982   0.887   0.982  10.394 -0.2950  0.0199  0.8487
  538TMC3    C3 7983   0.852   1.011  10.260  0.1421 -0.5036 -0.1867
  538TMC3    C4 7984   0.679   1.083  10.446 -0.6469  0.0614  0.7080
  538TMC3    C5 7985   0.649   1.111  10.313 -0.6178 -0.1355 -0.2445
  538TMC3    C6 7986   0.728   1.063  10.220  0.2546  0.5695  0.3363
  538TMC3     C 7987   0.787   0.961  10.614  0.7139  0.0841 -1.1751
  538TMC3     O 7988   0.704   1.006  10.693 -0.2177  0.4841 -0.2360
  538TMC3     H 7989   0.984   0.957  10.436 -1.1354 -1.6862  1.8228
  538TMC3    H1 7990   0.613   1.129  10.519  0.9728  1.3006  1.3847
  538TMC3    H2 7991   0.699   1.080  10.117 -0.6651 -0.1555  0.4823
  538TMC3    C7 7992   0.508   1.079  10.290 -0.8180  0.7310  0.0142
  538TMC3    C8 7993   0.955   1.025  10.160 -0.4603 -0.5707 -0.7143
  538TMC3    O1 7994   0.453   1.008  10.374  0.4444  0.4422 -0.4336
  538TMC3    O2 7995   0.952   1.121  10.088 -0.2306  0.2352  0.4957
  539MPD2     C 7996   0.858   0.170  11.245 -0.1347  0.2488 -0.0875
  539MPD2    C1 7997   0.758   0.127  11.155  0.0510 -0.2102  0.1580
  539MPD2    C2 7998   0.655   0.217  11.107 -0.9147  0.6266  0.2616
  539MPD2    C3 7999   0.648   0.343  11.163  0.1238  0.2510  0.0104
  539MPD2    C4 8000   0.742   0.380  11.263  0.1508 -0.1476 -0.0382
  539MPD2    C5 8001   0.841   0.298  11.302 -0.2096 -0.2971  0.1605
  539MPD2     H 8002   0.588   0.174  11.033  3.8419 -2.6057 -2.1423
  539MPD2    H1 8003   0.742   0.478  11.308  0.6179  0.3006 -1.0313
  539MPD2    H2 8004   0.945   0.117  11.282 -0.5899 -0.0093  0.6205
  539MPD2    H3 8005   0.916   0.341  11.367 -0.5229 -1.7972  1.4979
  539MPD2     N 8006   0.569   0.449  11.118 -0.0351  0.0534 -0.2389
  539MPD2    H5 8007   0.584   0.537  11.166 -2.0186  0.8689 -1.1326
  539MPD2    N1 8008   0.769   0.004  11.090 -0.1298 -0.6923 -0.6378
  539MPD2    H7 8009   0.695   4.711  11.023 -0.5942 -0.6746 -0.1261
  540TMC3    C1 8010   0.388   0.545  10.997  0.4110  0.2535  0.5114
  540TMC3    C2 8011   0.345   0.574  10.873  0.2335 -0.2894  0.3739
  540TMC3    C3 8012   0.256   0.677  10.864  0.3853 -0.1800 -0.1768
  540TMC3    C4 8013   0.345   0.610  11.111  0.7054 -0.2116  0.1896
  540TMC3    C5 8014   0.251   0.708  11.099  0.6888 -0.6625 -0.0764
  540TMC3    C6 8015   0.209   0.745  10.976  0.0790  0.1800 -0.1070
  540TMC3     C 8016   0.478   0.431  11.013  0.3542 -0.0352 -0.1969
  540TMC3     O 8017   0.465   0.335  10.937 -0.6387 -0.3121 -1.2023
  540TMC3     H 8018   0.385   0.519  10.789 -1.8943  0.2632 -1.0169
  540TMC3    H1 8019   0.373   0.576  11.210 -3.6840 -2.8960  0.5064
  540TMC3    H2 8020   0.140   0.827  10.961  0.1738  0.0139 -1.4886
  540TMC3    C7 8021   0.159   0.737  11.204  0.0782  0.5710 -0.0003
  540TMC3    C8 8022   0.202   0.717  10.742 -0.0365  0.4575  0.4243
  540TMC3    O1 8023   0.139   0.646  11.285  0.0153 -0.0042 -0.4706
  540TMC3    O2 8024   0.172   0.834  10.721 -0.8569 -0.1280 -0.2253
  541MPD2     C 8025   4.091   1.581  12.981  0.2092 -0.5639  0.0517
  541MPD2    C1 8026   3.959   1.568  12.981  0.4083 -0.4350 -0.1564
  541MPD2    C2 8027   3.884   1.631  12.876 -0.6353 -0.4270  0.3747
  541MPD2    C3 8028   3.953   1.705  12.785  0.0015 -0.1019  0.0348
  541MPD2    C4 8029   4.091   1.710  12.783  0.3079 -0.0465  0.4131
  541MPD2    C5 8030   4.159   1.657  12.890 -0.0967 -1.0430 -0.7860
  541MPD2     H 8031   3.779   1.608  12.870 -0.9771  1.1931  0.2195
  541MPD2    H1 8032   4.143   1.774  12.712  0.7582 -0.1017  0.6899
  541MPD2    H2 8033   4.159   1.544  13.057 -0.6982 -1.6522  0.3348
  541MPD2    H3 8034   4.266   1.671  12.905 -0.2303 -1.3293  0.4107
  541MPD2     N 8035   3.900   1.764  12.666 -0.8137  0.2660 -0.3720
  541MPD2    H5 8036   3.961   1.816  12.604 -0.3791  1.6844  1.2371
  541MPD2    N1 8037   3.909   1.475  13.070 -0.8824 -0.4282  0.2791
  541MPD2    H7 8038   3.974   1.410  13.114 -1.5285 -1.4509 -0.2898
  542TMC3    C1 8039   3.734   1.845  12.519  0.2420  0.6045 -0.3876
  542TMC3    C2 8040   3.786   1.816  12.396 -0.0300  0.2450 -0.2567
  542TMC3    C3 8041   3.712   1.850  12.281  0.0526 -0.6893 -0.6508
  542TMC3    C4 8042   3.624   1.922  12.531 -0.1835  0.0167  0.0057
  542TMC3    C5 8043   3.553   1.944  12.412  0.2435 -0.4653 -0.1433
  542TMC3    C6 8044   3.594   1.902  12.285  0.5082 -0.2575 -0.0138
  542TMC3     C 8045   3.763   1.755  12.624 -0.3052 -0.0462 -0.2588
  542TMC3     O 8046   3.670   1.716  12.688 -0.2542 -0.0590  0.1391
  542TMC3     H 8047   3.876   1.758  12.388 -0.9034 -1.0021 -1.0516
  542TMC3    H1 8048   3.591   1.954  12.629  1.2178  1.4137  0.0221
  542TMC3    H2 8049   3.555   1.933  12.188  2.5253  0.0276 -0.7344
  542TMC3    C7 8050   3.416   1.998  12.422  0.0514 -0.4610 -1.2803
  542TMC3    C8 8051   3.753   1.791  12.156 -0.3760 -0.0605 -0.2552
  542TMC3    O1 8052   3.372   2.012  12.533 -0.2109 -0.1787  0.2162
  542TMC3    O2 8053   3.665   1.771  12.075 -0.0234 -0.1777 -0.5050
  543TMC3    C1 8054   2.898   2.906  17.026 -0.2413 -0.0683 -0.1863
  543TMC3    C2 8055   2.912   2.777  17.068  0.1618  0.0113  0.0945
  543TMC3    C3 8056   2.913   2.751  17.204 -0.0570 -0.2295 -0.9937
  543TMC3    C4 8057   2.895   3.004  17.119  0.1792  0.0355  0.0276
  543TMC3    C5 8058   2.912   2.975  17.250 -0.1218  0.4996 -0.6961
  543TMC3    C6 8059   2.918   2.848  17.300  0.2663  0.1359  0.2889
  543TMC3     C 8060   2.927   2.940  16.892 -0.3408  0.1839  0.0320
  543TMC3     O 8061   2.971   2.841  16.835  0.3566  0.6100 -0.4114
  543TMC3     H 8062   2.910   2.693  17.000  0.7069  1.5868 -1.8802
  543TMC3    H1 8063   2.909   3.106  17.086  1.0529 -0.2086 -0.3514
  543TMC3    H2 8064   2.923   2.830  17.407  0.3115 -1.2399  0.0491
  543TMC3    C7 8065   2.871   3.071  17.351 -0.6429  0.5449 -0.0351
  543TMC3    C8 8066   2.989   2.628  17.237  0.0533  0.3493  0.2114
  543TMC3    O1 8067   2.855   3.024  17.461  0.5048 -0.2355 -0.0255
  543TMC3    O2 8068   3.062   2.586  17.150 -0.2225  0.3281  0.2103
  544MPD2     C 8069   3.055   2.198  17.518  0.2629  0.5392 -0.3436
  544MPD2    C1 8070   3.115   2.244  17.406  0.5896  0.6578 -0.2919
  544MPD2    C2 8071   3.080   2.365  17.350  0.3090 -0.2335  0.2370
  544MPD2    C3 8072   2.979   2.447  17.406 -0.1907 -0.0789  0.4881
  544MPD2    C4 8073   2.924   2.401  17.522  0.4142 -0.7593 -0.0649
  544MPD2    C5 8074   2.966   2.284  17.581 -0.7538  0.2289 -0.0554
  544MPD2     H 8075   3.133   2.394  17.260  0.8378 -2.1687 -0.0780
  544MPD2    H1 8076   2.846   2.461  17.567  1.6913  0.2361  0.8545
  544MPD2    H2 8077   3.072   2.099  17.560 -1.7990  0.0727 -0.6119
  544MPD2    H3 8078   2.925   2.248  17.674 -3.3961 -0.5796 -1.5351
  544MPD2     N 8079   2.940   2.573  17.354  0.0103 -0.3165  0.8078
  544MPD2    H5 8080   2.868   2.615  17.413  1.9826  2.8990  0.9218
  544MPD2    N1 8081   3.219   2.161  17.352 -0.2280  0.3858  0.5955
  544MPD2    H7 8082   3.251   2.084  17.411  2.6562  0.0988 -1.3189
  545TMC3    C1 8083   3.393   2.083  17.212  0.1110  0.2991 -0.2145
  545TMC3    C2 8084   3.436   2.068  17.081  0.0110  0.2982 -0.1072
  545TMC3    C3 8085   3.532   1.975  17.053  0.1235 -0.1660 -0.1584
  545TMC3    C4 8086   3.442   2.001  17.307 -0.3197 -0.2264 -0.3324
  545TMC3    C5 8087   3.540   1.914  17.271  0.1756 -0.2335  0.4675
  545TMC3    C6 8088   3.588   1.896  17.145  0.0703  0.1902  0.0773
  545TMC3     C 8089   3.291   2.181  17.234  0.7372 -0.0246 -0.0080
  545TMC3     O 8090   3.270   2.258  17.141 -0.8339  0.3149  0.2397
  545TMC3     H 8091   3.393   2.132  17.005 -0.2671 -0.4480 -0.5687
  545TMC3    H1 8092   3.406   2.002  17.409  1.4416 -0.8968  0.2882
  545TMC3    H2 8093   3.667   1.830  17.109 -1.7107 -0.3036 -2.9556
  545TMC3    C7 8094   3.624   1.850  17.375 -0.7526  0.0899  0.4891
  545TMC3    C8 8095   3.586   1.963  16.916  0.3597  0.0320  0.0797
  545TMC3    O1 8096   3.694   1.755  17.337 -0.6591  0.1445  0.0280
  545TMC3    O2 8097   3.626   1.853  16.879  0.5818  0.5809 -0.1178
  546MPD2     C 8098   4.358   3.233  17.311  0.2996 -0.4586 -0.4792
  546MPD2    C1 8099   4.313   3.238  17.177 -0.8082 -0.5623  0.2243
  546MPD2    C2 8100   4.338   3.355  17.111  0.2592  0.4778 -0.3813
  546MPD2    C3 8101   4.391   3.467  17.168 -0.0490  0.0904  0.5717
  546MPD2    C4 8102   4.409   3.469  17.302 -0.1518  0.6281  0.3575
  546MPD2    C5 8103   4.395   3.352  17.376  0.0735  0.1553 -0.1113
  546MPD2     H 8104   4.322   3.357  17.004  0.8564 -1.7623 -0.5239
  546MPD2    H1 8105   4.437   3.562  17.351  0.6601  1.3200 -1.4326
  546MPD2    H2 8106   4.360   3.141  17.368 -1.9665 -0.9726 -1.1996
  546MPD2    H3 8107   4.414   3.359  17.482 -2.4473 -1.2540  0.4538
  546MPD2     N 8108   4.407   3.592  17.102  0.1022  0.4914 -0.0631
  546MPD2    H5 8109   4.431   3.668  17.164 -2.3622  3.1907 -2.4243
  546MPD2    N1 8110   4.257   3.130  17.110  0.5437  0.0794 -0.0409
  546MPD2    H7 8111   4.258   3.047  17.169  0.1151 -0.2819 -0.5350
  547TMC3    C1 8112   4.170   2.980  16.938 -0.4828 -0.2135 -0.1142
  547TMC3    C2 8113   4.064   2.969  16.851  0.3971 -0.3430  0.6296
  547TMC3    C3 8114   3.998   2.858  16.869 -0.0229  0.0891  0.3116
  547TMC3    C4 8115   4.229   2.882  17.009 -0.1659  0.6607 -0.4659
  547TMC3    C5 8116   4.160   2.763  17.014  0.2959 -0.4785  0.8233
  547TMC3    C6 8117   4.039   2.759  16.952  0.0552  0.3892  0.3633
  547TMC3     C 8118   4.184   3.119  16.985  0.4752  0.5824 -0.4649
  547TMC3     O 8119   4.147   3.214  16.919  0.3163  0.0472  0.0136
  547TMC3     H 8120   4.023   3.057  16.802  2.4224  0.2365  0.0155
  547TMC3    H1 8121   4.326   2.887  17.057 -0.1421  1.5179 -0.5932
  547TMC3    H2 8122   3.981   2.669  16.965 -1.5771  1.2931 -0.6267
  547TMC3    C7 8123   4.214   2.644  17.076  0.6065 -0.2723  0.9189
  547TMC3    C8 8124   3.928   2.817  16.744 -0.2996 -0.0406  0.1005
  547TMC3    O1 8125   4.130   2.564  17.115  0.1982 -0.6751  0.1432
  547TMC3    O2 8126   3.885   2.908  16.675 -0.2157 -0.7584 -0.0850
  548MPD2     C 8127   4.448   3.574  12.136 -0.3455  0.4504  0.2681
  548MPD2    C1 8128   4.391   3.456  12.177 -0.2731 -0.9367  0.1132
  548MPD2    C2 8129   4.466   3.342  12.147 -0.0439 -0.7439 -0.4852
  548MPD2    C3 8130   4.585   3.338  12.082  0.4443 -0.1996  0.5922
  548MPD2    C4 8131   4.639   3.461  12.052  1.0593 -0.1843  0.2918
  548MPD2    C5 8132   4.570   3.577  12.070  0.1119 -0.3520  0.0352
  548MPD2     H 8133   4.423   3.247  12.176 -0.5130 -0.9352 -1.8313
  548MPD2    H1 8134   0.011   3.474  12.005  1.2755 -1.2635  0.4251
  548MPD2    H2 8135   4.403   3.668  12.165  1.1982  1.9479 -2.1589
  548MPD2    H3 8136   4.621   3.673  12.061  0.2353 -0.3326  0.9357
  548MPD2     N 8137   4.663   3.220  12.068 -0.0869  0.5249  0.5149
  548MPD2    H5 8138   0.038   3.236  12.074 -0.1933  0.9232  1.2464
  548MPD2    N1 8139   4.269   3.455  12.241  0.3256  0.2721  0.5805
  548MPD2    H7 8140   4.221   3.544  12.251  1.6820  1.4123 -2.9191
  549TMC3    C1 8141   4.112   3.369  12.378 -0.1775 -0.1237 -0.4558
  549TMC3    C2 8142   4.053   3.487  12.387  0.4206  0.0294  0.6801
  549TMC3    C3 8143   3.923   3.485  12.423 -0.4999  0.6525 -0.0295
  549TMC3    C4 8144   4.055   3.246  12.411  0.1926 -0.3136  0.2413
  549TMC3    C5 8145   3.920   3.248  12.438 -0.6916 -0.3667 -0.2165
  549TMC3    C6 8146   3.852   3.366  12.449  0.3259  0.2756  0.6108
  549TMC3     C 8147   4.242   3.361  12.331 -0.5459 -1.2430 -0.3876
  549TMC3     O 8148   4.304   3.263  12.368 -0.4629 -0.4041 -0.9448
  549TMC3     H 8149   4.110   3.579  12.378  2.0845 -1.2421 -1.7350
  549TMC3    H1 8150   4.120   3.160  12.398  1.6094  0.8729 -0.4364
  549TMC3    H2 8151   3.745   3.359  12.462  0.0893  2.3054 -0.2077
  549TMC3    C7 8152   3.842   3.125  12.450 -0.1532 -0.2152 -0.3740
  549TMC3    C8 8153   3.836   3.604  12.425 -0.4064  1.2826 -0.1786
  549TMC3    O1 8154   3.721   3.122  12.461  0.1407  0.2754  0.2135
  549TMC3    O2 8155   3.711   3.596  12.432  0.4411  0.2249 -0.0115
  550TMC3    C1 8156   3.130   1.214  11.872  0.2688 -0.7350  1.2389
  550TMC3    C2 8157   3.241   1.251  11.947 -0.1129 -0.2795 -0.0342
  550TMC3    C3 8158   3.255   1.374  11.991 -0.6829 -0.1586  0.8396
  550TMC3    C4 8159   3.040   1.313  11.845  0.2805 -0.2113  0.0414
  550TMC3    C5 8160   3.067   1.440  11.874  0.5962  0.8864  0.0608
  550TMC3    C6 8161   3.175   1.472  11.950 -0.5010  0.0089  0.9985
  550TMC3     C 8162   3.152   1.112  11.776  0.5402  0.0839 -0.2690
  550TMC3     O 8163   3.270   1.091  11.758 -0.2388 -0.1806 -0.0136
  550TMC3     H 8164   3.320   1.180  11.969  1.1488  0.9750 -0.5593
  550TMC3    H1 8165   2.948   1.292  11.790 -1.6114  1.0059  2.7631
  550TMC3    H2 8166   3.209   1.573  11.968  2.4100 -1.1903  2.2363
  550TMC3    C7 8167   2.965   1.543  11.861  0.6388 -0.1886 -0.0881
  550TMC3    C8 8168   3.235   1.359  12.134  0.4898 -0.9143  0.0621
  550TMC3    O1 8169   2.881   1.526  11.778  0.1500  0.3995 -0.2661
  550TMC3    O2 8170   3.244   1.246  12.173  0.2920  0.3345  0.3646
  551TMC3    C1 8171   0.488   4.021  13.117 -0.1944 -0.4891 -0.4329
  551TMC3    C2 8172   0.613   4.048  13.056  0.6443 -0.0235  0.3415
  551TMC3    C3 8173   0.698   4.148  13.105  0.1763  0.3701 -0.1598
  551TMC3    C4 8174   0.451   4.098  13.222  0.0722 -0.0822  0.3917
  551TMC3    C5 8175   0.543   4.182  13.276 -0.2740  0.1125  0.1016
  551TMC3    C6 8176   0.660   4.220  13.213 -0.1115  0.2118 -0.2997
  551TMC3     C 8177   0.388   3.940  13.051  0.4853  0.9931  0.1419
  551TMC3     O 8178   0.396   3.930  12.929 -0.7423  0.0325 -0.0790
  551TMC3     H 8179   0.635   3.987  12.969 -2.9409 -2.8125  1.3731
  551TMC3    H1 8180   0.355   4.091  13.271  0.1315  1.3039  0.7093
  551TMC3    H2 8181   0.712   4.311  13.241  2.0607 -0.8314 -0.9687
  551TMC3    C7 8182   0.493   4.265  13.384  0.3570 -0.0350 -0.0886
  551TMC3    C8 8183   0.783   4.195  13.003  0.5854  0.4596  0.5566
  551TMC3    O1 8184   0.373   4.287  13.393 -0.1998  0.1609  0.4199
  551TMC3    O2 8185   0.828   4.105  12.935 -0.2323 -0.5342  0.2572
  552MPD2     C 8186   2.468   1.403  13.718  0.4636 -0.4909 -0.5470
  552MPD2    C1 8187   2.558   1.296  13.703  0.3666  0.1201 -0.2142
  552MPD2    C2 8188   2.657   1.276  13.800  0.6950  0.6971  0.4446
  552MPD2    C3 8189   2.674   1.361  13.904  0.1761  0.4940  0.1667
  552MPD2    C4 8190   2.589   1.472  13.912  0.0709 -0.2189 -0.2680
  552MPD2    C5 8191   2.485   1.490  13.826 -0.7020 -1.3039 -0.4709
  552MPD2     H 8192   2.728   1.197  13.778 -0.2824 -0.1126  0.2011
  552MPD2    H1 8193   2.588   1.537  13.999 -2.4231 -0.5326 -0.0599
  552MPD2    H2 8194   2.392   1.430  13.646 -0.2961 -0.6400  0.2008
  552MPD2    H3 8195   2.416   1.572  13.842 -0.6050 -1.1946 -0.6147
  552MPD2     N 8196   2.769   1.351  14.006  0.6133  0.1771 -0.2208
  552MPD2    H5 8197   2.780   1.430  14.067 -1.1477 -0.3641  0.7792
  552MPD2    N1 8198   2.553   1.198  13.607  0.4020 -0.4484  0.8411
  552MPD2    H7 8199   2.594   1.106  13.622  1.2697 -0.2632 -0.3480
  553TMC3    C1 8200   2.469   1.075  13.413 -0.0868  0.1222  0.1591
  553TMC3    C2 8201   2.360   1.047  13.336 -0.1716 -0.2029 -0.0150
  553TMC3    C3 8202   2.331   0.920  13.306  0.9964 -0.0597  0.0920
  553TMC3    C4 8203   2.551   0.972  13.453  0.2534  0.1555 -0.0023
  553TMC3    C5 8204   2.519   0.838  13.420 -0.2710  0.4146 -0.8727
  553TMC3    C6 8205   2.406   0.808  13.347  0.2212 -0.0606  0.6938
  553TMC3     C 8206   2.462   1.196  13.497  0.6177  0.3913 -0.3205
  553TMC3     O 8207   2.394   1.295  13.456  0.7745  0.1083 -0.4425
  553TMC3     H 8208   2.293   1.123  13.297 -0.6191  0.2585  1.6488
  553TMC3    H1 8209   2.654   0.991  13.479 -0.5951  1.3165  2.4782
  553TMC3    H2 8210   2.379   0.705  13.325 -0.8708  0.2742  0.4530
  553TMC3    C7 8211   2.620   0.732  13.424  0.2444  0.1589  0.2637
  553TMC3    C8 8212   2.199   0.891  13.253 -0.2586 -0.1790 -0.1131
  553TMC3    O1 8213   2.624   0.637  13.345  0.8247 -0.8223 -0.4490
  553TMC3    O2 8214   2.110   0.960  13.300 -0.0996  0.0808  0.0930
  554TMC3    C1 8215   4.404   4.719  11.237 -0.1160 -0.2797 -0.2057
  554TMC3    C2 8216   4.316   4.677  11.140  0.4124  0.1264 -0.5923
  554TMC3    C3 8217   4.361   4.687  11.010 -0.2109 -0.6098  0.1722
  554TMC3    C4 8218   4.524   0.051  11.210  0.4417 -0.2393 -0.1064
  554TMC3    C5 8219   4.560   0.075  11.078  0.3071 -0.8454 -0.0154
  554TMC3    C6 8220   4.481   0.025  10.977 -0.7340 -0.7703 -0.3087
  554TMC3     C 8221   4.354   4.711  11.375  0.6330 -0.2588  0.8441
  554TMC3     O 8222   4.237   4.693  11.398 -0.0531 -0.2663 -0.1260
  554TMC3     H 8223   4.225   4.627  11.169 -1.3797  2.9066 -1.4597
  554TMC3    H1 8224   4.597   0.062  11.290 -0.9323 -0.3632  1.1633
  554TMC3    H2 8225   4.497   0.058  10.875  1.4457  1.9701  0.9253
  554TMC3    C7 8226   4.612   0.207  11.046 -0.4212 -0.8320 -0.4002
  554TMC3    C8 8227   4.289   4.636  10.900 -0.1713 -0.5428 -0.1882
  554TMC3    O1 8228   4.679   0.226  10.946 -0.2692 -0.1427 -0.2082
  554TMC3    O2 8229   4.345   4.616  10.797 -0.2502 -0.1840  0.1223
  555TMC3    C1 8230   3.260   4.716  14.655  0.2664  0.1885  0.0592
  555TMC3    C2 8231   3.222   0.084  14.746 -0.1500 -0.2143 -0.2905
  555TMC3    C3 8232   3.199   0.043  14.875 -1.3604  0.0982 -0.0054
  555TMC3    C4 8233   3.282   4.580  14.697 -0.2100 -0.1157  0.5571
  555TMC3    C5 8234   3.253   4.547  14.825  0.0724  0.0947  0.1552
  555TMC3    C6 8235   3.225   4.641  14.918  0.1781  0.1301 -0.0029
  555TMC3     C 8236   3.315   0.018  14.525  0.2136  0.0953  0.4272
  555TMC3     O 8237   3.394   4.654  14.486 -0.3362  0.4451  0.0580
  555TMC3     H 8238   3.203   0.186  14.715  1.0701  0.3332  0.7964
  555TMC3    H1 8239   3.294   4.503  14.621 -1.7343  0.0238  0.1824
  555TMC3    H2 8240   3.209   4.614  15.021 -0.1450  0.8709  0.1420
  555TMC3    C7 8241   3.284   4.411  14.872  0.5110 -0.6882 -0.0374
  555TMC3    C8 8242   3.132   0.136  14.960  0.8848 -0.3281  0.1224
  555TMC3    O1 8243   3.223   4.379  14.973  0.0528  0.6839 -0.0462
  555TMC3    O2 8244   3.054   0.210  14.903  0.0357 -0.0383  0.2271
  556MPD2     C 8245   1.902   0.542  10.916  0.2158 -0.1154 -0.3126
  556MPD2    C1 8246   1.772   0.591  10.885  0.2123  0.2107 -0.4298
  556MPD2    C2 8247   1.700   0.545  10.776 -0.1297 -0.3086  0.3265
  556MPD2    C3 8248   1.756   0.447  10.693  0.0570 -0.0268  0.5469
  556MPD2    C4 8249   1.884   0.389  10.726  0.2024 -0.5530 -0.2572
  556MPD2    C5 8250   1.951   0.447  10.829  0.4266 -0.2218 -0.0666
  556MPD2     H 8251   1.600   0.577  10.750  0.5208  1.2860 -0.1477
  556MPD2    H1 8252   1.942   0.317  10.670  0.2749 -0.8940  0.2565
  556MPD2    H2 8253   1.964   0.582  10.996 -0.2431 -0.3486  0.1609
  556MPD2    H3 8254   2.051   0.407  10.840  1.0220  0.1077 -4.1463
  556MPD2     N 8255   1.690   0.414  10.575 -0.1477 -0.6441  0.3310
  556MPD2    H5 8256   1.600   0.459  10.565 -0.2646 -1.1552 -0.8355
  556MPD2    N1 8257   1.708   0.694  10.960  0.1533  0.6666 -0.0030
  556MPD2    H7 8258   1.616   0.720  10.925 -0.1233 -0.8444 -0.3777
  557TMC3    C1 8259   1.676   0.384  10.346  0.2925  0.4255  0.4985
  557TMC3    C2 8260   1.699   0.292  10.250 -0.2137  0.5001 -0.1339
  557TMC3    C3 8261   1.667   0.322  10.115  0.7277  0.0275  0.4506
  557TMC3    C4 8262   1.646   0.515  10.320 -0.1600  0.3319  0.0952
  557TMC3    C5 8263   1.612   0.546  10.194 -0.3348  0.4799  0.1634
  557TMC3    C6 8264   1.619   0.448  10.090 -0.0683 -0.0999  0.4705
  557TMC3     C 8265   1.739   0.345  10.474  0.2508  0.0618  0.1990
  557TMC3     O 8266   1.839   0.279  10.471 -0.2748  0.4063  0.2601
  557TMC3     H 8267   1.754   0.199  10.257  1.4343  1.6331  1.9885
  557TMC3    H1 8268   1.646   0.599  10.388 -2.8451 -3.5293  4.8428
  557TMC3    H2 8269   1.592   0.478   9.989 -0.3178 -0.4659  0.4290
  557TMC3    C7 8270   1.499   0.630  10.182 -0.2231  0.1271  0.4453
  557TMC3    C8 8271   1.655   0.214  10.017  0.3212  0.6167 -0.0995
  557TMC3    O1 8272   1.448   0.644  10.291  0.4924 -0.2323 -0.2553
  557TMC3    O2 8273   1.654   0.246   9.895  0.5856 -0.0648  0.6346
  558TMC3    C1 8274   4.030   3.460   9.581  0.4307  0.1024 -0.2300
  558TMC3    C2 8275   3.933   3.442   9.677  0.4173 -0.6233 -0.1821
  558TMC3    C3 8276   3.811   3.404   9.630 -0.0066  0.0152  0.1079
  558TMC3    C4 8277   4.001   3.467   9.445  0.0520 -0.3549 -0.2731
  558TMC3    C5 8278   3.868   3.444   9.412  0.4030 -0.0947  0.4033
  558TMC3    C6 8279   3.773   3.413   9.502 -0.2167  0.7752 -0.0977
  558TMC3     C 8280   4.169   3.465   9.625  0.4293 -0.4905  0.2387
  558TMC3     O 8281   4.181   3.484   9.744 -0.0886  0.1418  0.0372
  558TMC3     H 8282   3.971   3.401   9.769  1.6511 -0.0798 -0.4392
  558TMC3    H1 8283   4.081   3.492   9.376  1.4602 -1.2990  1.0204
  558TMC3    H2 8284   3.671   3.387   9.476 -0.2598  0.5393  0.3059
  558TMC3    C7 8285   3.828   3.499   9.282  0.2172  0.2417  0.4824
  558TMC3    C8 8286   3.693   3.416   9.719  0.7975 -0.3146  0.2367
  558TMC3    O1 8287   3.919   3.548   9.214  0.5393 -0.1489  0.0271
  558TMC3    O2 8288   3.581   3.375   9.680 -0.7229 -0.4116  0.2034
  559MPD2     C 8289   3.963   4.198  10.169  0.0384  0.8259  0.2038
  559MPD2    C1 8290   3.935   4.112  10.271 -0.1232  0.1318  0.7254
  559MPD2    C2 8291   4.014   4.117  10.387  0.2171 -0.3887 -0.2679
  559MPD2    C3 8292   4.117   4.212  10.390  0.1200 -0.0182 -0.1651
  559MPD2    C4 8293   4.152   4.292  10.281 -0.0247 -0.7752  0.4667
  559MPD2    C5 8294   4.077   4.278  10.167 -0.3402 -0.1500  0.9268
  559MPD2     H 8295   3.995   4.055  10.475 -2.2433  0.7492  0.0134
  559MPD2    H1 8296   4.234   4.362  10.286 -2.6448  2.2467  0.7585
  559MPD2    H2 8297   3.887   4.216  10.094 -0.0451  2.4119  0.6800
  559MPD2    H3 8298   4.099   4.348  10.088  1.5311 -2.5865 -0.7270
  559MPD2     N 8299   4.182   4.222  10.516 -0.0199 -0.3305  0.7383
  559MPD2    H5 8300   4.146   4.172  10.597 -0.0557  1.7992  2.0660
  559MPD2    N1 8301   3.816   4.046  10.269  0.3396  0.2237 -1.0688
  559MPD2    H7 8302   3.753   4.071  10.193 -0.1298  3.7291  0.5066
  560TMC3    C1 8303   4.290   4.307  10.697  0.2310  0.2827  0.7598
  560TMC3    C2 8304   4.189   4.239  10.765 -0.0311  0.3320 -0.0697
  560TMC3    C3 8305   4.220   4.184  10.883 -0.1497  0.6203  0.7535
  560TMC3    C4 8306   4.414   4.313  10.733 -0.8292 -0.6530 -0.0842
  560TMC3    C5 8307   4.441   4.249  10.850  0.0525  0.3392 -0.3982
  560TMC3    C6 8308   4.350   4.186  10.929 -0.0025  0.3048 -0.7314
  560TMC3     C 8309   4.266   4.321  10.558  0.2316  0.1045 -0.2638
  560TMC3     O 8310   4.343   4.398  10.498  0.6985 -0.5061  0.1947
  560TMC3     H 8311   4.083   4.247  10.743  0.9128  2.0700 -3.9106
  560TMC3    H1 8312   4.484   4.371  10.674 -1.9676 -1.7458 -2.4726
  560TMC3    H2 8313   4.377   4.119  11.010 -1.5057  2.7947  1.8098
  560TMC3    C7 8314   4.575   4.264  10.910  0.5558  0.4675  1.0194
  560TMC3    C8 8315   4.151   4.061  10.893 -0.5700 -0.3801  1.0903
  560TMC3    O1 8316   4.596   4.192  11.005 -0.5864  0.4612 -0.4490
  560TMC3    O2 8317   4.105   4.033  10.785 -0.0488 -0.3331  0.6335
  561TMC3    C1 8318   1.731   3.148  11.279  0.6704 -0.6586 -0.4224
  561TMC3    C2 8319   1.625   3.108  11.355  0.2795 -0.6577  0.5284
  561TMC3    C3 8320   1.597   3.195  11.457  0.1191  0.1010 -0.4404
  561TMC3    C4 8321   1.812   3.254  11.308  0.5115 -0.5936 -0.2035
  561TMC3    C5 8322   1.784   3.334  11.412 -0.2185 -0.3619 -0.0528
  561TMC3    C6 8323   1.674   3.307  11.490 -0.3854  0.2093  0.5359
  561TMC3     C 8324   1.738   3.079  11.155 -0.4177 -0.3336 -0.3547
  561TMC3     O 8325   1.675   2.974  11.160  0.8024 -0.2688 -0.4968
  561TMC3     H 8326   1.560   3.025  11.331 -0.8520  0.4295 -0.1641
  561TMC3    H1 8327   1.902   3.270  11.250  0.5379  0.3167  0.0822
  561TMC3    H2 8328   1.652   3.358  11.583 -1.3179  0.5187  0.1430
  561TMC3    C7 8329   1.872   3.433  11.468 -0.0937 -0.2588  0.0312
  561TMC3    C8 8330   1.467   3.185  11.511 -0.6036 -1.3819  1.2220
  561TMC3    O1 8331   1.858   3.471  11.585 -0.3993 -0.1528 -0.6410
  561TMC3    O2 8332   1.420   3.073  11.497 -0.6883  0.1793 -0.2550
  562TMC3    C1 8333   3.207   0.410  16.043  0.3379 -0.3526  0.1003
  562TMC3    C2 8334   3.091   0.473  16.007 -0.4650 -0.3721  0.3140
  562TMC3    C3 8335   3.041   0.452  15.883  0.5351  0.2003  0.1893
  562TMC3    C4 8336   3.268   0.325  15.951  0.2293 -0.8319 -0.0819
  562TMC3    C5 8337   3.212   0.303  15.829 -0.7462  0.0846  0.1307
  562TMC3    C6 8338   3.098   0.361  15.801  0.1989  0.0532  0.0790
  562TMC3     C 8339   3.278   0.436  16.164  0.6412 -0.4530 -0.2621
  562TMC3     O 8340   3.395   0.401  16.172 -0.1674  0.3691  0.4488
  562TMC3     H 8341   3.064   0.562  16.063 -1.2913 -0.6697  0.3810
  562TMC3    H1 8342   3.358   0.271  15.975 -0.0524 -1.1995  0.1405
  562TMC3    H2 8343   3.050   0.349  15.704  0.7642  2.9478 -0.5332
  562TMC3    C7 8344   3.263   0.212  15.728 -0.2731  0.2438 -0.0826
  562TMC3    C8 8345   2.914   0.514  15.851 -0.2164 -0.8472  0.6634
  562TMC3    O1 8346   3.178   0.152  15.665 -0.1656  0.3694 -0.7144
  562TMC3    O2 8347   2.848   0.555  15.946  0.5943 -0.7932 -0.2111
  563MPD2     C 8348   0.825   2.066  15.646  0.4231  0.1041 -0.0245
  563MPD2    C1 8349   0.739   1.961  15.684  0.1217 -0.3030 -0.6927
  563MPD2    C2 8350   0.783   1.829  15.667  0.6470 -0.0272 -0.0698
  563MPD2    C3 8351   0.914   1.810  15.612 -0.3378  0.5258 -0.3784
  563MPD2    C4 8352   0.991   1.913  15.569  0.3191 -0.4443  0.0181
  563MPD2    C5 8353   0.949   2.044  15.588  0.3227 -0.0171  0.3377
  563MPD2     H 8354   0.729   1.740  15.695 -0.4963  0.7678  0.2563
  563MPD2    H1 8355   1.095   1.896  15.543  0.1050 -0.9805 -0.4932
  563MPD2    H2 8356   0.790   2.167  15.664 -1.4891 -0.3492 -1.1635
  563MPD2    H3 8357   1.006   2.131  15.557  1.9113 -0.9392  0.6569
  563MPD2     N 8358   0.967   1.685  15.626 -0.4550 -0.4218 -0.0259
  563MPD2    H5 8359   0.912   1.611  15.669  2.6583 -2.3248  0.6280
  563MPD2    N1 8360   0.619   1.993  15.746 -0.0981  0.0253 -0.3202
  563MPD2    H7 8361   0.615   2.087  15.782 -1.5420 -0.4810  0.8240
  564TMC3    C1 8362   0.433   1.932  15.884  0.2071 -0.0613 -0.0180
  564TMC3    C2 8363   0.305   1.874  15.858  0.1551  0.0424  0.1371
  564TMC3    C3 8364   0.240   1.802  15.951  0.0146 -0.3534  0.4099
  564TMC3    C4 8365   0.500   1.909  15.999  0.3969  0.2640  0.0668
  564TMC3    C5 8366   0.433   1.830  16.091 -0.0154 -0.1375 -0.0274
  564TMC3    C6 8367   0.299   1.794  16.077  0.5218  0.3241 -0.5837
  564TMC3     C 8368   0.512   1.902  15.765  0.2665 -0.3852  1.0845
  564TMC3     O 8369   0.486   1.799  15.704 -0.2150  0.3083  0.6078
  564TMC3     H 8370   0.257   1.880  15.761 -2.0751  0.9045  1.2766
  564TMC3    H1 8371   0.605   1.934  15.990  0.7004 -0.4065  1.6329
  564TMC3    H2 8372   0.235   1.761  16.158  1.7695 -0.9622 -0.1215
  564TMC3    C7 8373   0.513   1.715  16.129  0.7035  0.0810  0.0670
  564TMC3    C8 8374   0.206   1.666  15.910 -0.0655 -0.2371  0.0735
  564TMC3    O1 8375   0.632   1.735  16.124 -0.0199 -0.4602 -0.1683
  564TMC3    O2 8376   0.182   1.580  15.993  0.6056 -0.4977 -0.3289
  565TMC3    C1 8377   1.135   2.238  10.210  0.4505 -0.5273  0.2584
  565TMC3    C2 8378   1.149   2.118  10.280 -0.2509  0.6540  0.3232
  565TMC3    C3 8379   1.078   2.013  10.243 -0.2566 -0.4027 -0.2547
  565TMC3    C4 8380   1.044   2.245  10.112 -0.0120 -0.6212 -0.6175
  565TMC3    C5 8381   0.966   2.136  10.074  0.4169 -0.1231  0.3142
  565TMC3    C6 8382   0.987   2.014  10.136 -0.1244 -0.2660  0.1818
  565TMC3     C 8383   1.213   2.356  10.247  0.1233 -0.2635  0.0775
  565TMC3     O 8384   1.212   2.444  10.162 -0.2890  0.3325  0.3041
  565TMC3     H 8385   1.227   2.108  10.355 -1.6361 -0.1369  1.6609
  565TMC3    H1 8386   1.048   2.335  10.051  3.2245 -0.1156  0.3726
  565TMC3    H2 8387   0.923   1.929  10.113 -1.1992  0.9121 -1.1906
  565TMC3    C7 8388   0.861   2.158   9.978  1.2587  0.0231 -1.0927
  565TMC3    C8 8389   1.133   1.889  10.291 -0.1522 -0.1838 -0.0503
  565TMC3    O1 8390   0.860   2.264   9.916  0.0245  0.5686  0.0631
  565TMC3    O2 8391   1.189   1.887  10.398  0.4252  0.3737 -0.2285
  566MPD2     C 8392   2.574   4.035  13.977 -0.4810  0.0491 -0.0675
  566MPD2    C1 8393   2.610   4.121  13.875  0.6908  0.5217 -0.9942
  566MPD2    C2 8394   2.520   4.154  13.780  0.6032 -0.4190 -0.4170
  566MPD2    C3 8395   2.390   4.104  13.785  0.0171  0.3397  0.9253
  566MPD2    C4 8396   2.355   4.016  13.888 -0.7632  0.0722 -0.3133
  566MPD2    C5 8397   2.452   3.977  13.978  0.1311  0.2036  0.3203
  566MPD2     H 8398   2.541   4.228  13.703  2.8568 -1.0820 -0.4382
  566MPD2    H1 8399   2.255   3.979  13.907 -0.0490 -1.1329  1.0447
  566MPD2    H2 8400   2.639   4.030  14.063 -1.1503 -2.2615  0.3017
  566MPD2    H3 8401   2.420   3.916  14.062 -3.0516  0.5702 -0.6395
  566MPD2     N 8402   2.286   4.132  13.691 -0.6148 -1.1221  0.0622
  566MPD2    H5 8403   2.192   4.108  13.720 -0.5642 -0.0283  1.1489
  566MPD2    N1 8404   2.735   4.171  13.881 -0.1961 -0.2912  0.2319
  566MPD2    H7 8405   2.791   4.142  13.960 -0.0870 -1.9691 -0.4622
  567TMC3    C1 8406   2.924   4.288  13.811  0.2923 -0.6455  0.0323
  567TMC3    C2 8407   2.997   4.343  13.706  0.1211 -0.1391  0.3456
  567TMC3    C3 8408   3.112   4.412  13.730 -0.0975 -0.4676  0.3842
  567TMC3    C4 8409   2.970   4.308  13.937  0.0368 -0.2267 -0.2903
  567TMC3    C5 8410   3.089   4.387  13.959  0.0543 -0.0485 -0.0011
  567TMC3    C6 8411   3.159   4.438  13.853 -0.0295 -0.2767 -0.3443
  567TMC3     C 8412   2.792   4.248  13.785  0.1647 -0.2505 -0.1032
  567TMC3     O 8413   2.749   4.285  13.678 -0.1412 -0.5983  0.4438
  567TMC3     H 8414   2.965   4.335  13.603  0.0123  0.6703  0.3230
  567TMC3    H1 8415   2.909   4.268  14.017  2.1372  1.3435  2.1122
  567TMC3    H2 8416   3.245   4.502  13.871  0.5599 -1.1526 -0.0694
  567TMC3    C7 8417   3.151   4.373  14.083  0.4758 -0.3666  0.0112
  567TMC3    C8 8418   3.169   4.489  13.621  0.2306  0.0760 -0.1110
  567TMC3    O1 8419   3.272   4.386  14.094  0.6880 -0.3479  0.1143
  567TMC3    O2 8420   3.091   4.525  13.533 -0.0634  0.2333  0.2910
  568MPD2     C 8421   0.782   0.549  16.487  0.6353 -0.7370 -0.3117
  568MPD2    C1 8422   0.652   0.548  16.529 -0.6917 -0.7751  0.0341
  568MPD2    C2 8423   0.555   0.620  16.455  0.6147  0.0477  0.3695
  568MPD2    C3 8424   0.591   0.688  16.344 -0.1926 -0.5200  0.1334
  568MPD2    C4 8425   0.724   0.681  16.301  0.9640 -0.6532  0.0267
  568MPD2    C5 8426   0.814   0.614  16.378  0.8483 -0.6109  0.6031
  568MPD2     H 8427   0.453   0.626  16.492 -0.5934 -0.2681 -2.8767
  568MPD2    H1 8428   0.754   0.710  16.201  3.7043 -1.2148  0.6858
  568MPD2    H2 8429   0.857   0.493  16.542  0.8479  1.1095  1.2976
  568MPD2    H3 8430   0.913   0.614  16.335 -0.1135  3.1598 -1.6542
  568MPD2     N 8431   0.494   0.758  16.272  0.0979 -0.0777  0.0248
  568MPD2    H5 8432   0.396   0.747  16.295 -0.5563  0.1724 -2.6542
  568MPD2    N1 8433   0.623   0.471  16.638  0.3215 -0.2922  0.1941
  568MPD2    H7 8434   0.691   0.402  16.668  0.5823  0.0150  0.3092
  569TMC3    C1 8435   0.407   0.880  16.095  0.6963  0.1173 -0.2538
  569TMC3    C2 8436   0.299   0.907  16.170 -0.1543  0.8246  0.5247
  569TMC3    C3 8437   0.193   0.957  16.105  0.5235 -0.0498  0.0718
  569TMC3    C4 8438   0.419   0.910  15.962  0.3684 -0.3444  0.1071
  569TMC3    C5 8439   0.311   0.942  15.898  0.7509 -0.9020  1.6300
  569TMC3    C6 8440   0.197   0.964  15.964 -0.4328  0.0209  0.5324
  569TMC3     C 8441   0.525   0.842  16.161 -0.3002 -0.2027  0.5996
  569TMC3     O 8442   0.631   0.876  16.109  0.1196 -0.8028 -0.0600
  569TMC3     H 8443   0.310   0.912  16.278 -0.9108  1.2585  0.5806
  569TMC3    H1 8444   0.508   0.886  15.905  0.1442 -3.7707  1.1799
  569TMC3    H2 8445   0.113   1.013  15.917  0.2458  0.7085  0.0470
  569TMC3    C7 8446   0.331   1.023  15.783 -0.2677  0.5791  0.0740
  569TMC3    C8 8447   0.138   1.083  16.167  0.3784 -0.2569 -0.1249
  569TMC3    O1 8448   0.420   0.990  15.710  0.2900  0.6041  0.4737
  569TMC3    O2 8449   0.051   1.136  16.102  0.3119 -0.3385 -0.0492
  570TMC3    C1 8450   4.419   3.722  16.016 -0.0266  0.0094 -0.6404
  570TMC3    C2 8451   4.513   3.746  15.928  0.7128  0.5296 -0.3213
  570TMC3    C3 8452   4.551   3.879  15.903 -0.0216 -0.0145 -0.3619
  570TMC3    C4 8453   4.356   3.830  16.084 -0.0338 -0.7076 -0.0533
  570TMC3    C5 8454   4.401   3.953  16.054  0.0662  0.7558  0.5151
  570TMC3    C6 8455   4.495   3.988  15.962 -0.3209 -0.1849  0.1186
  570TMC3     C 8456   4.369   3.590  16.030 -0.8256  0.5247 -0.0336
  570TMC3     O 8457   4.403   3.511  15.940 -0.1270 -0.2539  0.4757
  570TMC3     H 8458   4.572   3.666  15.887  0.2847  0.0864 -0.0755
  570TMC3    H1 8459   4.284   3.822  16.164 -1.4139  0.3833 -1.2052
  570TMC3    H2 8460   4.536   4.088  15.952 -3.6852  1.2730  0.7428
  570TMC3    C7 8461   4.339   4.061  16.137 -0.0296  0.0564 -0.0706
  570TMC3    C8 8462   4.661   3.906  15.805  0.0979 -0.9426  0.1099
  570TMC3    O1 8463   4.323   4.039  16.259  0.1119  0.3099  0.0932
  570TMC3    O2 8464   4.688   4.024  15.790  0.0394 -0.2363  0.2289
  571MPD2     C 8465   3.168   0.574  16.952 -0.4225 -0.5733  0.0314
  571MPD2    C1 8466   3.062   0.518  17.021 -0.3432  0.2763  0.2278
  571MPD2    C2 8467   3.015   0.577  17.136 -0.0382  0.2134  0.4142
  571MPD2    C3 8468   3.063   0.705  17.165 -0.1571  0.3625  0.2106
  571MPD2    C4 8469   3.160   0.758  17.091 -0.1073 -0.5570  0.3899
  571MPD2    C5 8470   3.219   0.697  16.984  0.6664  0.0453 -0.4068
  571MPD2     H 8471   2.958   0.517  17.206 -1.5574  1.8052  0.5533
  571MPD2    H1 8472   3.190   0.860  17.114 -0.8941 -0.1339 -0.4569
  571MPD2    H2 8473   3.224   0.531  16.870  1.3409  1.3165  0.2384
  571MPD2    H3 8474   3.289   0.743  16.915  0.7600 -0.6392 -0.7744
  571MPD2     N 8475   3.023   0.779  17.283 -0.5100 -0.4905  0.2039
  571MPD2    H5 8476   3.076   0.853  17.329 -2.3305  0.4853  0.7341
  571MPD2    N1 8477   3.007   0.391  16.978 -0.5586  1.2906  1.1684
  571MPD2    H7 8478   3.029   0.366  16.882 -0.4959 -2.8253  2.2560
  572TMC3    C1 8479   2.855   0.854  17.447 -0.6710 -0.4471 -0.5483
  572TMC3    C2 8480   2.719   0.865  17.465  0.0770  0.5212  0.2641
  572TMC3    C3 8481   2.686   0.982  17.533  0.1119 -1.0503 -0.7247
  572TMC3    C4 8482   2.950   0.938  17.514 -0.4820  0.3725  0.6592
  572TMC3    C5 8483   2.901   1.044  17.584  0.1965 -0.3220  0.3918
  572TMC3    C6 8484   2.769   1.066  17.600 -0.3859  0.2906 -0.6574
  572TMC3     C 8485   2.900   0.750  17.347  0.0057 -0.1016 -0.0351
  572TMC3     O 8486   2.814   0.662  17.316  0.0611 -0.3452 -0.0612
  572TMC3     H 8487   2.653   0.811  17.399 -0.7520  2.8928 -0.8306
  572TMC3    H1 8488   3.057   0.919  17.510 -0.6207 -0.0488 -1.0730
  572TMC3    H2 8489   2.742   1.168  17.625 -2.4767 -0.2161 -0.7819
  572TMC3    C7 8490   2.963   1.172  17.543  0.0701  0.2985 -0.3458
  572TMC3    C8 8491   2.549   1.026  17.518 -0.4248  0.1550 -0.0067
  572TMC3    O1 8492   2.891   1.247  17.483  0.1471  0.3488  0.5422
  572TMC3    O2 8493   2.491   0.976  17.425 -0.1090  0.1290  1.0614
  573MPD2     C 8494   3.111   2.055   0.614 -0.1088 -0.2920 -0.4279
  573MPD2    C1 8495   3.174   2.146   0.694  0.2533  0.2708  0.0897
  573MPD2    C2 8496   3.306   2.171   0.677  0.1068 -0.7482  0.3080
  573MPD2    C3 8497   3.387   2.102   0.585  0.1490 -0.8368  0.3344
  573MPD2    C4 8498   3.322   2.021   0.496 -0.6124  0.2323  0.1421
  573MPD2    C5 8499   3.186   1.993   0.515 -1.1308 -0.2934 -0.0167
  573MPD2     H 8500   3.341   2.246   0.747  1.8603 -0.3248 -1.0331
  573MPD2    H1 8501   3.387   1.956   0.437  0.2855  1.1337  0.1354
  573MPD2    H2 8502   3.009   2.018   0.619 -0.3635 -0.0065 -3.1310
  573MPD2    H3 8503   3.140   1.924   0.445  0.0409  0.2916 -1.3568
  573MPD2     N 8504   3.526   2.114   0.560 -0.0846  0.1092  0.0094
  573MPD2    H5 8505   3.561   2.061   0.481 -0.3880 -0.2916  0.1463
  573MPD2    N1 8506   3.104   2.223   0.788  0.4824  0.0168 -0.0297
  573MPD2    H7 8507   3.164   2.277   0.850  1.8026  0.2660 -1.5417
  574TMC3    C1 8508   3.747   2.172   0.581 -0.2158  0.2865 -0.2467
  574TMC3    C2 8509   3.774   2.122   0.448  0.1697 -0.0707  0.2164
  574TMC3    C3 8510   3.909   2.112   0.411 -0.1920 -0.1505 -0.2595
  574TMC3    C4 8511   3.847   2.217   0.657  1.2630  0.7372  0.4123
  574TMC3    C5 8512   3.978   2.211   0.609 -0.8605 -0.3900 -0.0551
  574TMC3    C6 8513   4.014   2.147   0.497  0.0306 -0.5295 -0.3151
  574TMC3     C 8514   3.615   2.190   0.632  0.0927 -0.5228  0.1321
  574TMC3     O 8515   3.605   2.232   0.748  0.0776  0.3149 -0.1386
  574TMC3     H 8516   3.687   2.107   0.384  1.7729  0.8827 -2.1705
  574TMC3    H1 8517   3.824   2.281   0.742  1.3788  0.2907  0.7832
  574TMC3    H2 8518   4.120   2.134   0.480  0.2524  0.4025  0.3747
  574TMC3    C7 8519   4.094   2.265   0.693 -0.0982  0.6971 -0.3260
  574TMC3    C8 8520   3.937   2.031   0.294 -0.4862  0.3479  0.6577
  574TMC3    O1 8521   4.202   2.208   0.692  0.1328 -0.5488  0.3688
  574TMC3    O2 8522   4.054   2.008   0.274  0.0942 -0.2253  0.1630
  575TMC3    C1 8523   1.460   1.381  10.846 -0.0907  0.4923  0.3762
  575TMC3    C2 8524   1.479   1.246  10.825  0.3895 -0.4401 -0.6373
  575TMC3    C3 8525   1.510   1.192  10.699 -0.3137 -0.0322 -0.3301
  575TMC3    C4 8526   1.463   1.461  10.736 -0.1381  0.0940  0.1958
  575TMC3    C5 8527   1.489   1.414  10.610 -0.7277 -0.5640  0.1456
  575TMC3    C6 8528   1.512   1.276  10.587 -0.5556 -1.1980 -0.3086
  575TMC3     C 8529   1.424   1.427  10.983 -0.9300  0.1359 -0.7717
  575TMC3     O 8530   1.374   1.334  11.049 -0.9225 -0.1941  0.3150
  575TMC3     H 8531   1.468   1.179  10.909  0.0908  0.5142  0.0875
  575TMC3    H1 8532   1.447   1.568  10.747 -0.0330  0.0783  0.4932
  575TMC3    H2 8533   1.533   1.252  10.484  1.5750 -1.0378  0.0956
  575TMC3    C7 8534   1.426   1.502  10.514  0.1746 -0.3217  0.1300
  575TMC3    C8 8535   1.585   1.071  10.711  0.5333  0.2250  0.4343
  575TMC3    O1 8536   1.409   1.617  10.549  0.1876 -0.0209 -0.5324
  575TMC3    O2 8537   1.625   1.033  10.817 -0.0687 -0.7853  0.1787
  576MPD2     C 8538   0.785   3.994  12.488 -0.6500  0.3309  0.3853
  576MPD2    C1 8539   0.788   4.089  12.385 -0.0669  0.2408  0.7776
  576MPD2    C2 8540   0.716   4.204  12.395 -0.1282  0.3622  0.0718
  576MPD2    C3 8541   0.648   4.235  12.506  0.1186  0.3297  0.0586
  576MPD2    C4 8542   0.652   4.150  12.611  0.0447 -0.5848 -0.2023
  576MPD2    C5 8543   0.720   4.032  12.602 -0.2140 -0.2324 -0.1913
  576MPD2     H 8544   0.722   4.280  12.318 -0.0473 -0.1197 -0.3981
  576MPD2    H1 8545   0.601   4.161  12.706  0.8414 -3.2504  0.5502
  576MPD2    H2 8546   0.848   3.906  12.492 -0.0817  0.8178  2.2362
  576MPD2    H3 8547   0.722   3.963  12.686 -0.8172  0.2076  0.1962
  576MPD2     N 8548   0.585   4.361  12.510  0.1035 -0.0898  1.2636
  576MPD2    H5 8549   0.607   4.419  12.430  0.9937 -1.4953  0.4944
  576MPD2    N1 8550   0.861   4.069  12.264 -0.4597  0.0926 -0.4001
  576MPD2    H7 8551   0.860   4.144  12.196  0.5063 -0.9756 -1.6153
  577TMC3    C1 8552   0.990   3.935  12.106  0.7861 -0.7320  0.6080
  577TMC3    C2 8553   0.995   3.803  12.063 -0.2713  0.3013 -0.6284
  577TMC3    C3 8554   1.053   3.779  11.941 -0.5817  0.0669  0.4686
  577TMC3    C4 8555   1.062   4.038  12.048 -0.3733 -0.3511 -0.0032
  577TMC3    C5 8556   1.113   4.008  11.919  0.2471  0.3315  0.2188
  577TMC3    C6 8557   1.110   3.882  11.868 -0.4003  0.3282  0.3259
  577TMC3     C 8558   0.920   3.945  12.233  0.1680  0.3026  0.1975
  577TMC3     O 8559   0.914   3.839  12.291  0.1706  0.0055  0.1062
  577TMC3     H 8560   0.964   3.715  12.118 -0.3116 -0.1460 -1.3581
  577TMC3    H1 8561   1.065   4.136  12.092 -1.5185 -0.3762  0.1356
  577TMC3    H2 8562   1.158   3.856  11.775 -0.3720 -1.0199  0.7086
  577TMC3    C7 8563   1.169   4.122  11.843 -0.2491  0.0230 -0.4387
  577TMC3    C8 8564   1.038   3.641  11.893 -0.3603 -0.2771 -0.3450
  577TMC3    O1 8565   1.205   4.217  11.913  0.6145 -0.5187 -0.4543
  577TMC3    O2 8566   0.935   3.588  11.933  0.1329  0.0184  0.4413
  578MPD2     C 8567   3.709   0.122   0.963 -0.5199  0.3178 -0.3677
  578MPD2    C1 8568   3.765   0.042   0.865 -0.2193 -0.1655 -0.5387
  578MPD2    C2 8569   3.896   4.722   0.876  0.2769  1.2011  0.1240
  578MPD2    C3 8570   3.972   0.007   0.993 -0.2247 -0.6175  0.4874
  578MPD2    C4 8571   3.913   0.072   1.096  0.1147 -0.1040  0.7523
  578MPD2    C5 8572   3.786   0.137   1.078  0.2725  0.6329 -0.6032
  578MPD2     H 8573   3.952   4.662   0.805 -2.0641  0.1204 -0.8105
  578MPD2    H1 8574   3.966   0.076   1.190 -0.5473 -1.6678  1.1921
  578MPD2    H2 8575   3.603   0.143   0.964 -0.3791  1.0229  0.2486
  578MPD2    H3 8576   3.740   0.181   1.165 -0.4591  0.6229 -0.9862
  578MPD2     N 8577   4.094   4.660   0.994  0.2863 -0.2681 -0.2117
  578MPD2    H5 8578   4.113   4.598   0.916 -0.3993 -3.0398  1.8253
  578MPD2    N1 8579   3.682   0.015   0.756  0.6773  0.1327  0.0945
  578MPD2    H7 8580   3.588   0.054   0.762  0.2982 -0.7891  0.1690
  579TMC3    C1 8581   4.298   4.578   1.084  0.3834  1.0173  0.3146
  579TMC3    C2 8582   4.405   4.606   1.167  0.6233 -0.2611  0.2431
  579TMC3    C3 8583   4.531   4.564   1.124 -0.9568 -0.3020 -0.4576
  579TMC3    C4 8584   4.315   4.495   0.981 -0.8348 -1.1397 -0.8747
  579TMC3    C5 8585   4.441   4.440   0.953 -0.4480  0.1518 -0.9738
  579TMC3    C6 8586   4.547   4.486   1.013 -0.0884 -0.6843  0.1701
  579TMC3     C 8587   4.181   4.659   1.103 -0.0769  0.7248 -0.2000
  579TMC3     O 8588   4.193   0.009   1.201 -0.2466  0.2194 -0.5384
  579TMC3     H 8589   4.389   4.659   1.260 -2.3143 -0.7844  0.0134
  579TMC3    H1 8590   4.227   4.469   0.923 -0.8464  1.0965 -1.8465
  579TMC3    H2 8591   4.641   4.434   0.998  0.4517 -0.0908  1.4914
  579TMC3    C7 8592   4.454   4.325   0.866 -0.4692 -0.2443 -0.6142
  579TMC3    C8 8593   4.637   4.630   1.196 -0.4162  0.3090 -0.2870
  579TMC3    O1 8594   4.568   4.293   0.830  0.7263  0.4505  0.0914
  579TMC3    O2 8595   4.609   4.696   1.297  0.4211  0.0049 -0.1527
  580TMC3    C1 8596   3.532   2.978  12.157  0.4443 -0.3132 -0.8832
  580TMC3    C2 8597   3.457   3.005  12.050  1.0160  0.4270 -0.0213
  580TMC3    C3 8598   3.406   2.907  11.972 -0.8105 -0.0163 -0.3101
  580TMC3    C4 8599   3.537   2.854  12.214  0.0901  0.2173 -0.1230
  580TMC3    C5 8600   3.484   2.755  12.132  0.7518 -0.0483 -0.5158
  580TMC3    C6 8601   3.421   2.777  12.010  0.3563 -0.3175  0.3428
  580TMC3     C 8602   3.663   3.043  12.151 -0.3937 -0.2748 -0.8537
  580TMC3     O 8603   3.764   2.974  12.130  0.1852  0.2876 -0.3236
  580TMC3     H 8604   3.469   3.101  12.001 -0.3427 -0.1017 -1.4014
  580TMC3    H1 8605   3.597   2.827  12.300 -1.8019 -1.2209  0.7425
  580TMC3    H2 8606   3.399   2.696  11.941 -1.7529  1.8247 -1.5086
  580TMC3    C7 8607   3.587   2.653  12.131  0.2272 -0.7008  0.2102
  580TMC3    C8 8608   3.475   2.924  11.844 -0.2216  0.2427  0.1526
  580TMC3    O1 8609   3.656   2.645  12.028 -0.2139 -0.7069 -0.0028
  580TMC3    O2 8610   3.430   3.013  11.771 -0.0335 -0.2145  0.8215
  581MPD2     C 8611   1.308   2.990  15.190 -0.8311  0.0709  0.3521
  581MPD2    C1 8612   1.410   2.990  15.099 -0.3534 -0.3525 -0.2821
  581MPD2    C2 8613   1.388   3.052  14.976 -0.6298 -0.5897 -0.1461
  581MPD2    C3 8614   1.268   3.113  14.955  0.1941  0.0474  0.8112
  581MPD2    C4 8615   1.174   3.116  15.059  0.1310  0.0233 -0.0607
  581MPD2    C5 8616   1.191   3.064  15.183  0.2094 -0.8082  0.5044
  581MPD2     H 8617   1.460   3.048  14.896 -1.9696 -2.1379 -1.2610
  581MPD2    H1 8618   1.078   3.164  15.044  0.1030 -0.1621 -0.4740
  581MPD2    H2 8619   1.314   2.926  15.277  0.6214 -1.4564 -0.8550
  581MPD2    H3 8620   1.116   3.061  15.262  0.3471 -0.5486  0.6468
  581MPD2     N 8621   1.246   3.167  14.830 -0.7529  0.0162 -0.8937
  581MPD2    H5 8622   1.327   3.177  14.770 -1.0816 -0.6254 -1.4368
  581MPD2    N1 8623   1.524   2.912  15.121 -0.4491  0.8534 -0.3089
  581MPD2    H7 8624   1.528   2.862  15.209 -1.0582  1.5177  0.0962
  582TMC3    C1 8625   1.737   2.823  15.115 -0.0476 -0.2172  0.8616
  582TMC3    C2 8626   1.772   2.867  15.229 -1.3052  0.4000 -0.4279
  582TMC3    C3 8627   1.862   2.790  15.306 -0.1287  0.3581  0.7350
  582TMC3    C4 8628   1.797   2.721  15.052 -0.5321  0.1478  0.5233
  582TMC3    C5 8629   1.887   2.646  15.119  0.4671  0.0016  0.2793
  582TMC3    C6 8630   1.936   2.688  15.240  0.3616 -0.7859 -0.3437
  582TMC3     C 8631   1.632   2.886  15.038 -0.0235 -0.7178  0.5605
  582TMC3     O 8632   1.651   2.912  14.920 -0.2990  0.5213 -0.0741
  582TMC3     H 8633   1.717   2.952  15.268 -2.0351 -0.5585  0.6019
  582TMC3    H1 8634   1.768   2.691  14.952  1.8699  0.7514 -0.3483
  582TMC3    H2 8635   2.004   2.626  15.297  1.5658 -0.5461 -1.5364
  582TMC3    C7 8636   1.849   2.507  15.126  0.0106  0.1763 -0.5103
  582TMC3    C8 8637   1.860   2.803  15.454 -0.2837  0.4323 -0.3196
  582TMC3    O1 8638   1.916   2.438  15.197 -0.2707 -0.1847 -0.0979
  582TMC3    O2 8639   1.771   2.869  15.500 -0.7287  0.4276 -0.4017
  583MPD2     C 8640   1.594   4.232  16.528 -0.1700 -0.1274  0.0121
  583MPD2    C1 8641   1.591   4.351  16.458  0.3713 -0.1831  0.3576
  583MPD2    C2 8642   1.555   4.460  16.528  0.6020  0.9000  0.1847
  583MPD2    C3 8643   1.546   4.458  16.667  0.7430 -0.4001  0.1771
  583MPD2    C4 8644   1.561   4.337  16.734 -0.0647 -0.8741  0.4003
  583MPD2    C5 8645   1.593   4.222  16.668 -0.0324 -0.1089 -1.0328
  583MPD2     H 8646   1.551   4.549  16.466 -0.7002 -0.3554 -1.5266
  583MPD2    H1 8647   1.557   4.341  16.842 -1.5189 -2.0889  0.3812
  583MPD2    H2 8648   1.614   4.136  16.483 -0.7197 -0.8789  1.3959
  583MPD2    H3 8649   1.598   4.126  16.718 -0.0740 -0.9023 -2.5579
  583MPD2     N 8650   1.510   4.574  16.735 -0.2249  0.1548  0.3668
  583MPD2    H5 8651   1.461   4.644  16.681  0.2900  0.9548  0.9407
  583MPD2    N1 8652   1.607   4.365  16.318 -0.3481 -0.8525  0.1678
  583MPD2    H7 8653   1.598   4.457  16.277 -0.1666 -1.9362 -2.2683
  584TMC3    C1 8654   1.485   0.016  16.892  0.2716 -0.3063  0.0285
  584TMC3    C2 8655   1.506   0.117  16.805  0.4309 -0.3441 -0.1766
  584TMC3    C3 8656   1.481   0.243  16.847 -0.3994 -0.2135  0.1769
  584TMC3    C4 8657   1.430   0.039  17.014  0.6898  0.0236 -0.4433
  584TMC3    C5 8658   1.419   0.161  17.057 -0.3026  0.3379 -0.0935
  584TMC3    C6 8659   1.443   0.268  16.976  0.2935 -0.7547  0.5234
  584TMC3     C 8660   1.523   4.605  16.870 -0.2500 -1.2073  0.2967
  584TMC3     O 8661   1.563   4.535  16.963  0.1564  0.2358  0.2277
  584TMC3     H 8662   1.546   0.109  16.704  0.5201 -1.5999 -0.0359
  584TMC3    H1 8663   1.398   4.678  17.073 -1.1077  1.1315  0.1788
  584TMC3    H2 8664   1.424   0.370  17.007  1.3063 -0.1735 -0.7246
  584TMC3    C7 8665   1.403   0.181  17.202  0.4780  0.6089 -1.0847
  584TMC3    C8 8666   1.439   0.334  16.742 -0.3505 -0.8224  0.0286
  584TMC3    O1 8667   1.429   0.088  17.276 -0.3035 -0.2027 -0.2400
  584TMC3    O2 8668   1.391   0.288  16.636 -0.1741  0.9440 -0.3743
  585MPD2     C 8669   1.183   3.978   0.225 -0.0140  0.5352  0.1441
  585MPD2    C1 8670   1.196   4.003   0.094  0.4704 -0.5724  0.7972
  585MPD2    C2 8671   1.161   3.911   0.004  0.0606 -0.2047  0.8068
  585MPD2    C3 8672   1.131   3.780   0.039  0.4356 -0.3622  0.1088
  585MPD2    C4 8673   1.141   3.747   0.171  0.1849  0.1626 -0.3073
  585MPD2    C5 8674   1.163   3.850   0.266 -0.5233  0.7603  0.2306
  585MPD2     H 8675   1.162   3.922  17.597  2.4550 -4.1545  0.4399
  585MPD2    H1 8676   1.145   3.646   0.209 -1.5678 -0.3132 -1.4076
  585MPD2    H2 8677   1.212   4.050   0.300 -1.1103 -0.9700  1.9969
  585MPD2    H3 8678   1.163   3.832   0.373 -2.0322  0.6366  0.2098
  585MPD2     N 8679   1.070   3.687  17.643 -0.2234 -0.1779  0.5170
  585MPD2    H5 8680   1.060   3.590  17.668  1.7404 -0.5944 -0.3019
  585MPD2    N1 8681   1.240   4.133   0.055 -0.5028 -0.1169  0.4051
  585MPD2    H7 8682   1.233   4.210   0.121 -3.9414 -1.2201  1.3532
  586TMC3    C1 8683   0.922   3.633  17.462 -0.6807 -0.5285  0.1271
  586TMC3    C2 8684   0.975   3.506  17.449 -0.2475  0.7158 -0.5965
  586TMC3    C3 8685   0.965   3.451  17.328  0.2739 -0.4160 -0.2597
  586TMC3    C4 8686   0.849   3.700  17.368 -0.0222  1.3248 -0.0814
  586TMC3    C5 8687   0.851   3.646  17.243 -0.6695  0.2482 -0.2582
  586TMC3    C6 8688   0.905   3.521  17.219 -0.1838  0.3459 -0.5686
  586TMC3     C 8689   0.994   3.736  17.537  0.3629  0.1360 -0.3409
  586TMC3     O 8690   0.963   3.853  17.513  0.4955 -0.4675 -0.0983
  586TMC3     H 8691   0.993   3.455  17.543 -0.9408  1.5975  0.0125
  586TMC3    H1 8692   0.810   3.801  17.382 -0.0833  0.9905  2.0371
  586TMC3    H2 8693   0.903   3.469  17.124 -1.6331  0.5856 -0.6633
  586TMC3    C7 8694   0.725   3.663  17.169  0.1081  0.5211 -0.5805
  586TMC3    C8 8695   1.037   3.328  17.297 -0.4168 -0.4198 -0.5748
  586TMC3    O1 8696   0.704   3.588  17.076 -0.2098 -0.0662  0.2063
  586TMC3    O2 8697   1.014   3.273  17.192  0.1259 -0.1123  0.4597
  587TMC3    C1 8698   3.119   1.811  16.049  0.6017  0.8955 -0.0791
  587TMC3    C2 8699   3.072   1.944  16.032 -0.0038  0.2727  0.3684
  587TMC3    C3 8700   3.166   2.042  16.020 -0.3355 -0.1181 -0.0877
  587TMC3    C4 8701   3.247   1.769  16.028 -0.8245  0.1053 -0.5148
  587TMC3    C5 8702   3.333   1.871  16.008 -0.1498  0.4559  0.7032
  587TMC3    C6 8703   3.295   2.003  16.002 -0.3450 -0.1379  0.6958
  587TMC3     C 8704   3.028   1.706  16.047 -0.3343  0.0056 -0.3361
  587TMC3     O 8705   3.060   1.609  15.980 -0.3578  0.3386 -0.0172
  587TMC3     H 8706   2.965   1.959  16.037 -0.0256 -0.0395  0.7857
  587TMC3    H1 8707   3.272   1.665  16.048 -3.4891 -0.6348 -0.9941
  587TMC3    H2 8708   3.368   2.083  16.003  0.0532 -0.5130  1.8761
  587TMC3    C7 8709   3.473   1.852  16.019 -0.2869 -0.1122  0.2680
  587TMC3    C8 8710   3.144   2.185  16.019 -0.6882  0.7057  0.5079
  587TMC3    O1 8711   3.511   1.747  16.069  0.7274 -0.3264 -0.2019
  587TMC3    O2 8712   3.233   2.253  15.975 -0.3357  0.0344 -0.9447
  588TMC3    C1 8713   0.817   4.317   9.810 -0.3105  1.3815 -1.1389
  588TMC3    C2 8714   0.800   4.196   9.749 -0.3456 -0.2764  0.2272
  588TMC3    C3 8715   0.886   4.091   9.791  0.1817 -0.2471 -0.3264
  588TMC3    C4 8716   0.927   4.348   9.881  0.3143  0.0151  0.5084
  588TMC3    C5 8717   1.011   4.250   9.919 -0.0015  0.6340 -0.4603
  588TMC3    C6 8718   0.994   4.120   9.874  1.0496  0.0858 -0.1377
  588TMC3     C 8719   0.733   4.423   9.760  0.5870  0.7133 -0.1029
  588TMC3     O 8720   0.710   4.424   9.642 -0.5077  0.0212 -1.0056
  588TMC3     H 8721   0.719   4.169   9.683 -0.3972 -0.6504  0.4414
  588TMC3    H1 8722   0.939   4.450   9.916 -1.9011  0.8305 -1.0968
  588TMC3    H2 8723   1.067   4.047   9.908  1.6602  0.9623  0.4310
  588TMC3    C7 8724   1.104   4.273  10.023  0.3268 -0.4635  0.1972
  588TMC3    C8 8725   0.867   3.960   9.728 -0.2832 -0.2020  0.5536
  588TMC3    O1 8726   1.203   4.210  10.050 -0.0932  0.5343 -0.1239
  588TMC3    O2 8727   0.775   3.948   9.647  0.0124  0.1288  0.0954
  589TMC3    C1 8728   4.153   2.395   1.165  0.0774  0.0620 -0.4995
  589TMC3    C2 8729   4.268   2.453   1.222  0.2437  0.3839 -0.6938
  589TMC3    C3 8730   4.391   2.404   1.185 -0.1588  0.0079  0.9051
  589TMC3    C4 8731   4.169   2.290   1.076  0.7149  0.1611  0.0082
  589TMC3    C5 8732   4.287   2.222   1.065  0.1161  0.1402  0.4455
  589TMC3    C6 8733   4.400   2.285   1.111  0.4196  0.6338  0.3722
  589TMC3     C 8734   4.022   2.450   1.193  0.5148  0.1639 -0.1792
  589TMC3     O 8735   3.932   2.422   1.118  0.4199  0.1280  0.1048
  589TMC3     H 8736   4.262   2.546   1.277  1.0119 -0.5043  0.8755
  589TMC3    H1 8737   4.078   2.245   1.036  0.7809  0.7246 -0.7914
  589TMC3    H2 8738   4.491   2.226   1.111 -0.6540 -1.0189  1.0785
  589TMC3    C7 8739   4.292   2.088   1.009  0.0216 -0.5150 -0.0361
  589TMC3    C8 8740   4.518   2.476   1.229  0.4172 -0.2944  0.0040
  589TMC3    O1 8741   4.189   2.023   1.010  0.0358  0.4116  0.4932
  589TMC3    O2 8742   4.494   2.558   1.316  0.2874  0.6335 -0.2595
  590MPD2     C 8743   3.912   0.657  16.540 -0.5742 -0.0345  0.6214
  590MPD2    C1 8744   3.871   0.744  16.442  0.3718 -0.0412 -0.6116
  590MPD2    C2 8745   3.964   0.801  16.353 -0.4389 -0.4141 -0.0075
  590MPD2    C3 8746   4.096   0.761  16.361  0.8380  0.9656  0.3597
  590MPD2    C4 8747   4.143   0.677  16.461 -0.0023 -0.5005 -0.7330
  590MPD2    C5 8748   4.050   0.629  16.554  0.2915  0.2788  0.6013
  590MPD2     H 8749   3.941   0.885  16.289  0.7290 -0.7810 -0.9073
  590MPD2    H1 8750   4.250   0.663  16.470  0.2137  2.2162  1.0708
  590MPD2    H2 8751   3.851   0.599  16.608 -1.2002  1.8802  1.6760
  590MPD2    H3 8752   4.089   0.562  16.629  0.3693 -0.8147 -0.4196
  590MPD2     N 8753   4.185   0.819  16.271  0.5183  0.0727  0.6020
  590MPD2    H5 8754   4.141   0.885  16.207  1.0240  1.7320  1.9574
  590MPD2    N1 8755   3.730   0.748  16.426  0.2106 -0.3521 -0.1245
  590MPD2    H7 8756   3.675   0.699  16.495 -0.7741 -0.8767 -1.2816
  591TMC3    C1 8757   4.405   0.897  16.212  0.2161  0.4097  0.0040
  591TMC3    C2 8758   4.486   0.843  16.113  0.6581  0.5117 -0.0991
  591TMC3    C3 8759   4.502   0.917  15.998 -0.8049 -0.1468  0.5487
  591TMC3    C4 8760   4.348   1.015  16.195 -0.1180  0.8174  0.3825
  591TMC3    C5 8761   4.367   1.092  16.085 -0.2016  0.4071 -0.1446
  591TMC3    C6 8762   4.442   1.037  15.981  0.2144 -0.0552  0.3207
  591TMC3     C 8763   4.319   0.792  16.266 -0.1314  0.0399 -0.8918
  591TMC3     O 8764   4.371   0.680  16.287 -0.2146  0.0666 -0.4267
  591TMC3     H 8765   4.519   0.740  16.124 -0.7014 -0.0862 -1.4504
  591TMC3    H1 8766   4.296   1.048  16.284  1.4302  0.8238  1.2787
  591TMC3    H2 8767   4.445   1.084  15.883 -1.8199  2.5215  1.5192
  591TMC3    C7 8768   4.279   1.204  16.066  0.8450 -0.8272 -0.4910
  591TMC3    C8 8769   4.578   0.859  15.891  0.4600  0.6630 -0.9337
  591TMC3    O1 8770   4.197   1.240  16.152 -0.0539  0.4936  0.2415
  591TMC3    O2 8771   4.631   0.752  15.920  0.2031 -0.2500  0.0593
  592MPD2     C 8772   4.602   2.427  11.151  0.1646 -0.0983 -0.4867
  592MPD2    C1 8773   4.659   2.439  11.280 -0.5733  0.6477  0.1259
  592MPD2    C2 8774   4.610   2.344  11.377 -0.1642 -0.0749 -0.1885
  592MPD2    C3 8775   4.505   2.263  11.345  0.4762 -0.0677  0.1864
  592MPD2    C4 8776   4.443   2.270  11.224 -0.4077  0.5065  0.3243
  592MPD2    C5 8777   4.498   2.341  11.124  0.1330 -0.3436  0.3722
  592MPD2     H 8778   4.653   2.344  11.476  1.5307 -0.6948 -0.9040
  592MPD2    H1 8779   4.355   2.213  11.197  1.0581 -1.4316 -0.4014
  592MPD2    H2 8780   4.643   2.490  11.073 -1.5087  1.4585 -0.1012
  592MPD2    H3 8781   4.448   2.342  11.028  2.5032 -2.0826 -0.8804
  592MPD2     N 8782   4.459   2.170  11.451  0.6335 -0.9487 -0.6322
  592MPD2    H5 8783   4.513   2.181  11.536 -0.1150 -1.7778 -0.0586
  592MPD2    N1 8784   0.009   2.555  11.307  0.0825  0.2540  0.7736
  592MPD2    H7 8785   0.043   2.610  11.229 -2.2161 -0.3945 -0.6740
  593TMC3    C1 8786   0.150   2.702  11.431 -0.1407  0.7413 -0.0658
  593TMC3    C2 8787   0.153   2.769  11.542 -0.2809 -0.0273  0.4544
  593TMC3    C3 8788   0.253   2.858  11.556  0.1740  0.2328  0.1746
  593TMC3    C4 8789   0.234   2.725  11.321 -0.2942 -0.3194 -0.6125
  593TMC3    C5 8790   0.332   2.823  11.338  0.2359 -0.6685  0.1812
  593TMC3    C6 8791   0.346   2.885  11.460 -1.4090  0.6947 -0.2601
  593TMC3     C 8792   0.047   2.594  11.432 -0.2436 -0.1786 -0.3726
  593TMC3     O 8793   0.008   2.563  11.542 -0.6117  0.2917 -0.1161
  593TMC3     H 8794   0.079   2.761  11.621 -3.4895 -0.2555 -2.5954
  593TMC3    H1 8795   0.228   2.662  11.232 -0.7693  0.4720 -1.1450
  593TMC3    H2 8796   0.413   2.970  11.471 -2.0626  1.2403 -0.5261
  593TMC3    C7 8797   0.388   2.890  11.219 -0.1214  0.1495 -0.5626
  593TMC3    C8 8798   0.259   2.935  11.680 -0.3865  0.5398  0.6684
  593TMC3    O1 8799   0.462   2.984  11.245  0.3547 -0.2910  0.5321
  593TMC3    O2 8800   0.156   2.949  11.748 -0.0425 -0.7863  0.0344
  594MPD2     C 8801   3.243   1.750  13.891  0.0993  0.6224  0.3154
  594MPD2    C1 8802   3.281   1.688  14.006  0.4600 -0.4764  0.1504
  594MPD2    C2 8803   3.400   1.732  14.061 -0.5564  0.3300  0.1692
  594MPD2    C3 8804   3.480   1.817  13.993  0.8874 -0.5005  0.2545
  594MPD2    C4 8805   3.443   1.882  13.879 -0.0491  0.4192  0.5274
  594MPD2    C5 8806   3.326   1.844  13.827 -0.0933 -0.3207 -0.0478
  594MPD2     H 8807   3.434   1.679  14.149  2.7200  1.4668 -0.4158
  594MPD2    H1 8808   3.501   1.950  13.819 -1.7145  2.4354  1.1921
  594MPD2    H2 8809   3.158   1.712  13.835 -0.1963  1.0800  0.4583
  594MPD2    H3 8810   3.301   1.875  13.727 -2.1952 -2.5653 -0.2209
  594MPD2     N 8811   3.605   1.844  14.050 -0.3168 -0.4549 -0.3498
  594MPD2    H5 8812   3.616   1.816  14.146  3.7517 -0.5580 -0.8610
  594MPD2    N1 8813   3.192   1.602  14.072 -0.4724  0.4071  0.5881
  594MPD2    H7 8814   3.097   1.605  14.035  0.8262  1.5949 -2.6287
  595TMC3    C1 8815   3.969   2.038  14.230  0.0175 -0.6525  0.6176
  595TMC3    C2 8816   3.915   1.979  14.121  0.2072  0.3745  0.9321
  595TMC3    C3 8817   3.780   1.988  14.106  0.1087 -0.0872  0.3950
  595TMC3    C4 8818   3.895   2.096  14.335 -0.0228 -0.4333  0.4332
  595TMC3    C5 8819   3.762   2.100  14.310  0.1268 -0.0747 -0.0724
  595TMC3    C6 8820   3.702   2.050  14.195 -0.1183  0.1755  0.2244
  595TMC3     C 8821   4.104   2.070  14.226  0.0134  0.4236 -0.2994
  595TMC3     O 8822   4.179   1.989  14.168  0.0056 -0.6141 -0.0339
  595TMC3     H 8823   3.985   1.950  14.044  0.3931  1.6313  0.6178
  595TMC3    H1 8824   3.946   2.128  14.425 -0.5182  1.1983  0.1279
  595TMC3    H2 8825   3.597   2.058  14.173 -0.4036 -0.9026  1.2096
  595TMC3    C7 8826   3.660   2.120  14.411  0.4200 -0.8942 -0.7652
  595TMC3    C8 8827   3.703   1.928  13.996  0.5904 -0.2457  0.2735
  595TMC3    O1 8828   3.553   2.159  14.371 -0.3626 -0.0475 -0.0584
  595TMC3    O2 8829   3.727   1.973  13.885  0.2801 -0.3422 -0.6120
  596MPD2     C 8830   2.330   4.192  16.494 -0.1118  0.3947 -0.3129
  596MPD2    C1 8831   2.353   4.311  16.428  0.1677 -0.1733 -0.2438
  596MPD2    C2 8832   2.378   4.311  16.293  0.0855  0.3315  0.1777
  596MPD2    C3 8833   2.355   4.197  16.220  0.9096 -0.8382 -0.4366
  596MPD2    C4 8834   2.329   4.079  16.289  0.1422  0.3415 -0.7591
  596MPD2    C5 8835   2.313   4.080  16.424 -0.0262  0.6424  0.6041
  596MPD2     H 8836   2.389   4.411  16.253 -0.1011  1.0445  1.9175
  596MPD2    H1 8837   2.301   3.986  16.241 -0.2248  0.4036 -0.6721
  596MPD2    H2 8838   2.321   4.179  16.601 -1.3530 -2.2816 -0.7255
  596MPD2    H3 8839   2.287   3.993  16.482 -0.1022 -1.0375 -1.9687
  596MPD2     N 8840   2.349   4.205  16.079  0.5161  0.1987 -0.0584
  596MPD2    H5 8841   2.356   4.116  16.031 -0.8655  2.0237 -3.5926
  596MPD2    N1 8842   2.344   4.442  16.496 -0.0422  0.1215  0.1885
  596MPD2    H7 8843   2.363   4.520  16.433 -2.1623 -0.2977 -0.9774
  597TMC3    C1 8844   2.301   4.616  16.653 -0.5783  0.3180 -0.1251
  597TMC3    C2 8845   2.394   4.688  16.586  0.2852  0.9145 -0.0691
  597TMC3    C3 8846   2.400   0.096  16.611 -0.2423 -0.1687 -0.0376
  597TMC3    C4 8847   2.208   4.660  16.742 -0.1712  0.2523 -0.3486
  597TMC3    C5 8848   2.218   0.069  16.761  0.3532 -0.3169  1.3094
  597TMC3    C6 8849   2.313   0.156  16.702 -0.4992 -0.0512  0.6797
  597TMC3     C 8850   2.304   4.475  16.627  0.1780 -0.4182  0.1690
  597TMC3     O 8851   2.266   4.401  16.717 -0.5397 -0.1313 -0.2521
  597TMC3     H 8852   2.477   4.642  16.534 -1.5335  0.3130 -2.4415
  597TMC3    H1 8853   2.149   4.591  16.801  2.4283 -1.9066 -0.2895
  597TMC3    H2 8854   2.324   0.262  16.721  0.4775 -0.3057  1.5480
  597TMC3    C7 8855   2.110   0.128  16.833 -0.0624 -0.0531  0.4336
  597TMC3    C8 8856   2.529   0.160  16.596  0.5644 -1.0606 -0.0895
  597TMC3    O1 8857   2.038   0.049  16.892  0.5646  0.2107 -0.2495
  597TMC3    O2 8858   2.622   0.084  16.573 -0.1588  0.5038 -0.0378
  598TMC3    C1 8859   0.682   1.344  15.211 -0.5496 -0.3008  0.1092
  598TMC3    C2 8860   0.581   1.252  15.209 -0.0306 -0.7850 -0.0237
  598TMC3    C3 8861   0.517   1.224  15.087  0.7450 -0.8548 -0.3434
  598TMC3    C4 8862   0.737   1.406  15.100  0.2938  0.2053  0.5089
  598TMC3    C5 8863   0.677   1.367  14.981  0.0135 -0.3335 -1.0703
  598TMC3    C6 8864   0.564   1.289  14.973  0.0316 -0.1497 -0.0291
  598TMC3     C 8865   0.716   1.405  15.340  0.0300 -0.0011  0.1108
  598TMC3     O 8866   0.725   1.524  15.341 -0.5109  0.7169 -0.4008
  598TMC3     H 8867   0.560   1.204  15.304 -0.0850 -1.2874 -0.2892
  598TMC3    H1 8868   0.826   1.466  15.112 -0.7503  2.0504 -1.0702
  598TMC3    H2 8869   0.526   1.279  14.871  2.4312 -0.8042 -0.8600
  598TMC3    C7 8870   0.746   1.394  14.859  0.5792  0.6396  0.7655
  598TMC3    C8 8871   0.412   1.122  15.082 -0.3607 -0.2589 -0.7669
  598TMC3    O1 8872   0.744   1.305  14.774  0.5280 -0.1875  0.2067
  598TMC3    O2 8873   0.400   1.059  15.184 -0.0971  0.1226  0.3260
  599MPD2     C 8874   0.867   3.730  15.872  0.5816 -0.0739 -0.4178
  599MPD2    C1 8875   0.808   3.604  15.862 -0.4087 -0.2608 -0.1784
  599MPD2    C2 8876   0.669   3.600  15.852 -0.4206  0.3825 -0.1013
  599MPD2    C3 8877   0.588   3.709  15.859 -0.1155  0.6917  0.8158
  599MPD2    C4 8878   0.652   3.833  15.872  0.8511  0.5772 -0.0076
  599MPD2    C5 8879   0.788   3.840  15.866 -0.4718 -0.1550  0.0689
  599MPD2     H 8880   0.617   3.506  15.839 -1.0814  0.7060  0.2012
  599MPD2    H1 8881   0.596   3.924  15.887 -0.7054 -0.2149 -0.8950
  599MPD2    H2 8882   0.975   3.730  15.864  0.7656 -1.5165  2.0251
  599MPD2    H3 8883   0.844   3.930  15.890  0.6568 -0.8390  0.0181
  599MPD2     N 8884   0.448   3.702  15.869 -0.5653 -0.1607 -0.6213
  599MPD2    H5 8885   0.409   3.779  15.922  0.4632  1.6090 -2.4530
  599MPD2    N1 8886   0.887   3.495  15.878  0.9783  0.3606 -0.6098
  599MPD2    H7 8887   0.974   3.509  15.927 -0.7964 -0.2647  2.7457
  600TMC3    C1 8888   0.250   3.587  15.932  0.2205  0.7752  0.7213
  600TMC3    C2 8889   0.161   3.479  15.919  0.1193  0.3672  0.0046
  600TMC3    C3 8890   0.047   3.480  16.004 -0.1844  0.1974 -0.2401
  600TMC3    C4 8891   0.219   3.688  16.015 -0.6175  0.5490 -0.1261
  600TMC3    C5 8892   0.105   3.688  16.094  0.1884  0.1119 -0.2688
  600TMC3    C6 8893   0.030   3.583  16.096 -0.1736 -0.0750  0.5254
  600TMC3     C 8894   0.378   3.585  15.864 -0.5731 -0.3325  0.0106
  600TMC3     O 8895   0.402   3.481  15.800  0.7033  0.1538 -0.0759
  600TMC3     H 8896   0.183   3.393  15.856 -0.8451  0.8604 -1.0021
  600TMC3    H1 8897   0.295   3.758  16.047 -0.2112 -0.7124  1.6758
  600TMC3    H2 8898   4.665   3.571  16.156 -1.2064  1.5273 -0.7118
  600TMC3    C7 8899   0.055   3.799  16.174  0.0429  0.1005  0.7722
  600TMC3    C8 8900   4.706   3.353  16.031 -0.2869 -0.0618  0.7421
  600TMC3    O1 8901   4.680   3.769  16.243  0.2093  0.4874 -0.7830
  600TMC3    O2 8902   4.641   3.290  15.949  0.0464  0.4005  0.2452
  601MPD2     C 8903   3.364   1.384  17.314 -0.1305  0.0369 -0.1233
  601MPD2    C1 8904   3.227   1.407  17.297  0.5431 -0.2197  0.6742
  601MPD2    C2 8905   3.136   1.343  17.375 -0.8014  0.2031 -0.0863
  601MPD2    C3 8906   3.188   1.252  17.472 -0.1216 -0.0327  0.9034
  601MPD2    C4 8907   3.322   1.236  17.484 -0.1023 -0.0041 -0.3364
  601MPD2    C5 8908   3.415   1.304  17.407 -0.4297 -0.1061  0.0414
  601MPD2     H 8909   3.029   1.352  17.356 -1.0695 -0.4651  1.0895
  601MPD2    H1 8910   3.369   1.177  17.562  1.2894  3.0327  1.1133
  601MPD2    H2 8911   3.429   1.443  17.250 -0.2175 -0.8623 -1.0457
  601MPD2    H3 8912   3.521   1.286  17.423 -0.9881 -3.5081  0.0542
  601MPD2     N 8913   3.104   1.170  17.545  0.7338 -0.0230  0.7919
  601MPD2    H5 8914   3.153   1.095  17.594  0.9883  0.2242  0.9135
  601MPD2    N1 8915   3.172   1.459  17.179 -0.9487 -0.3380 -0.4111
  601MPD2    H7 8916   3.072   1.453  17.162 -1.3538  0.0006  1.9092
  602TMC3    C1 8917   3.155   1.587  16.978  0.1842 -0.3782 -0.0129
  602TMC3    C2 8918   3.155   1.718  16.941  0.4589 -0.2609 -0.0905
  602TMC3    C3 8919   3.041   1.777  16.899  0.3123  0.1191  0.8773
  602TMC3    C4 8920   3.044   1.509  16.964 -0.1169 -0.3714 -0.0549
  602TMC3    C5 8921   2.930   1.571  16.910 -0.1107 -0.2251  0.0952
  602TMC3    C6 8922   2.934   1.701  16.881  0.1542 -0.0746  0.3803
  602TMC3     C 8923   3.232   1.550  17.099  0.0470 -0.4929 -0.1355
  602TMC3     O 8924   3.342   1.602  17.117  0.0382  0.1718 -0.0381
  602TMC3     H 8925   3.249   1.772  16.952 -0.3023  1.1904 -0.7221
  602TMC3    H1 8926   3.037   1.401  16.970 -1.1388 -0.2867  0.2497
  602TMC3    H2 8927   2.850   1.742  16.827 -0.2523 -2.0292 -0.4725
  602TMC3    C7 8928   2.801   1.505  16.916  0.0642 -0.4975 -0.0877
  602TMC3    C8 8929   3.027   1.917  16.936 -0.1284 -0.1614  0.5401
  602TMC3    O1 8930   2.801   1.385  16.908  0.0829 -0.2211 -0.6412
  602TMC3    O2 8931   3.118   1.989  16.901 -0.2636 -0.0603 -0.4113
  603TMC3    C1 8932   1.080   1.656  10.781  0.1425 -0.0783 -0.0941
  603TMC3    C2 8933   1.110   1.654  10.912  0.1289 -0.6735 -0.2934
  603TMC3    C3 8934   1.096   1.771  10.983 -0.4675 -0.1994  0.4204
  603TMC3    C4 8935   1.031   1.767  10.729 -0.6433  0.2778 -0.4034
  603TMC3    C5 8936   1.010   1.880  10.801  0.5083 -0.2430  0.2105
  603TMC3    C6 8937   1.053   1.892  10.930 -0.5960  0.4916 -0.2503
  603TMC3     C 8938   1.105   1.539  10.695 -0.1728  0.4265 -0.3315
  603TMC3     O 8939   1.082   1.551  10.577  0.1894  0.8196  0.1240
  603TMC3     H 8940   1.136   1.561  10.960  2.0884  1.4082  2.6827
  603TMC3    H1 8941   1.021   1.758  10.621  0.4719  1.7429 -0.6324
  603TMC3    H2 8942   1.022   1.973  10.995 -0.7704  0.1569  0.0888
  603TMC3    C7 8943   0.996   2.005  10.727 -0.1615  0.1387 -0.8808
  603TMC3    C8 8944   1.089   1.745  11.126 -0.6186  0.4121 -0.7903
  603TMC3    O1 8945   1.046   2.106  10.775 -0.4901  0.7619 -0.1839
  603TMC3    O2 8946   1.095   1.625  11.159 -1.0582  0.0836 -0.3386
  604MPD2     C 8947   1.642   1.063  16.292  0.3666  0.0632  0.3260
  604MPD2    C1 8948   1.512   1.039  16.250  0.3710 -0.2414  0.1485
  604MPD2    C2 8949   1.490   0.971  16.129 -0.0304  0.1516 -0.1278
  604MPD2    C3 8950   1.590   0.923  16.054  0.1827 -0.4977  0.8737
  604MPD2    C4 8951   1.712   0.944  16.101  0.6517 -0.5522 -0.0468
  604MPD2    C5 8952   1.739   1.011  16.218  0.3349  0.1063  0.2219
  604MPD2     H 8953   1.393   0.969  16.081 -0.7003  1.0059  1.2043
  604MPD2    H1 8954   1.803   0.906  16.055 -0.3284 -1.3813 -1.2618
  604MPD2    H2 8955   1.670   1.110  16.386  0.4499  2.4614 -0.8951
  604MPD2    H3 8956   1.842   1.000  16.249  0.3933 -0.5864 -0.2359
  604MPD2     N 8957   1.565   0.868  15.924  0.0577 -0.2280 -0.0465
  604MPD2    H5 8958   1.473   0.855  15.886  0.0499  0.2568 -0.1993
  604MPD2    N1 8959   1.412   1.110  16.320 -0.8095  0.4117 -0.2914
  604MPD2    H7 8960   1.453   1.171  16.389  0.2032  2.8537 -3.0433
  605TMC3    C1 8961   1.196   1.181  16.381  0.6805 -0.2987  0.0230
  605TMC3    C2 8962   1.240   1.217  16.504  0.2401 -0.4642 -0.7918
  605TMC3    C3 8963   1.170   1.301  16.580 -0.0961  0.5719 -0.1350
  605TMC3    C4 8964   1.079   1.232  16.328 -0.0697 -0.6108 -0.2712
  605TMC3    C5 8965   1.021   1.330  16.399  0.1034  0.1681 -0.4344
  605TMC3    C6 8966   1.063   1.373  16.522  0.7230 -0.4619  0.4892
  605TMC3     C 8967   1.274   1.099  16.294  0.6349  0.3480  0.4483
  605TMC3     O 8968   1.212   1.038  16.208  0.3979 -0.2786 -0.3829
  605TMC3     H 8969   1.327   1.164  16.542  0.9207  0.8934 -0.4518
  605TMC3    H1 8970   1.050   1.200  16.229 -0.8716  3.5888 -1.3564
  605TMC3    H2 8971   1.004   1.441  16.583 -0.7893  0.2764 -1.7794
  605TMC3    C7 8972   0.893   1.387  16.342  0.0963 -0.1514  0.3999
  605TMC3    C8 8973   1.237   1.350  16.695  0.1764  0.5580  0.3083
  605TMC3    O1 8974   0.871   1.500  16.392 -0.3207 -0.2670 -0.5649
  605TMC3    O2 8975   1.306   1.267  16.754  0.1906  0.1810 -0.5538
  606TMC3    C1 8976   2.667   4.254  16.505 -0.4469  0.4046  0.5134
  606TMC3    C2 8977   2.667   4.299  16.638  0.3864 -0.1311  0.6066
  606TMC3    C3 8978   2.688   4.200  16.736  0.3569 -0.0395 -0.1381
  606TMC3    C4 8979   2.674   4.114  16.471 -0.0944  0.4068 -0.0591
  606TMC3    C5 8980   2.679   4.028  16.576  0.0045 -0.1460 -0.9692
  606TMC3    C6 8981   2.685   4.063  16.710 -0.4530  0.0981  0.0276
  606TMC3     C 8982   2.688   4.346  16.408 -0.1214 -0.5382  0.7567
  606TMC3     O 8983   2.702   4.468  16.443  0.6347 -0.0778  0.2038
  606TMC3     H 8984   2.676   4.405  16.655  0.4561  0.1827 -1.4584
  606TMC3    H1 8985   2.664   4.085  16.367 -0.0817  2.6498 -0.6830
  606TMC3    H2 8986   2.688   3.993  16.792 -0.5342  0.3398  0.2391
  606TMC3    C7 8987   2.650   3.893  16.541 -0.1588 -0.0528 -0.4159
  606TMC3    C8 8988   2.721   4.246  16.868 -0.2152  0.5765  0.1975
  606TMC3    O1 8989   2.702   3.847  16.441  0.1069 -0.2822 -0.4451
  606TMC3    O2 8990   2.696   4.364  16.879 -0.2567 -0.1185  0.0504
  607MPD2     C 8991   4.592   1.876  11.749  0.2627 -0.0933  0.3040
  607MPD2    C1 8992   4.677   1.922  11.845 -0.4033  0.3967 -0.2155
  607MPD2    C2 8993   4.679   1.856  11.967 -0.2765 -0.1454  0.3811
  607MPD2    C3 8994   4.595   1.748  11.989 -0.4501 -0.2490 -0.1964
  607MPD2    C4 8995   4.527   1.694  11.884 -0.0787 -0.2329  0.1732
  607MPD2    C5 8996   4.522   1.757  11.767 -0.0690 -0.3940  0.5024
  607MPD2     H 8997   0.003   1.908  12.049 -2.3260  0.1095  1.4395
  607MPD2    H1 8998   4.462   1.608  11.896  1.0502 -1.2640 -1.1349
  607MPD2    H2 8999   4.587   1.922  11.651  1.0907  0.5192  0.5512
  607MPD2    H3 9000   4.477   1.714  11.678  0.5896  1.1982 -0.5978
  607MPD2     N 9001   4.599   1.698  12.121  0.4981 -1.0649 -0.1341
  607MPD2    H5 9002   4.669   1.749  12.174  1.7351 -1.2917 -1.5638
  607MPD2    N1 9003   0.022   2.046  11.831  0.3465  0.0230  0.3343
  607MPD2    H7 9004   0.101   2.059  11.893  0.0785 -0.2279  0.7289
  608TMC3    C1 9005   0.107   2.242  11.761 -0.5203 -0.2228  0.1452
  608TMC3    C2 9006   0.140   2.262  11.894  0.2071 -0.0883  0.1437
  608TMC3    C3 9007   0.263   2.310  11.924 -0.3793 -0.3468  0.2000
  608TMC3    C4 9008   0.201   2.278  11.666 -0.0234 -0.4489 -0.4264
  608TMC3    C5 9009   0.299   2.369  11.703  0.3907  0.2684 -0.4665
  608TMC3    C6 9010   0.335   2.377  11.833  0.5344 -0.0904 -0.1138
  608TMC3     C 9011   0.013   2.136  11.731  0.2197  0.4847 -0.4049
  608TMC3     O 9012   4.671   2.148  11.626 -0.1184 -0.3478 -0.2792
  608TMC3     H 9013   0.074   2.234  11.974 -0.6453  0.0607 -0.5072
  608TMC3    H1 9014   0.177   2.269  11.561 -0.9238 -0.5956 -0.2043
  608TMC3    H2 9015   0.428   2.423  11.866  0.0579  1.0015 -0.3235
  608TMC3    C7 9016   0.375   2.428  11.600 -0.3604  0.0301 -0.0047
  608TMC3    C8 9017   0.296   2.323  12.066  0.3925  0.2133  0.0937
  608TMC3    O1 9018   0.362   2.376  11.487  0.1959  0.3425  0.4451
  608TMC3    O2 9019   0.327   2.433  12.109 -0.3640  0.0183  0.0245
  609TMC3    C1 9020   3.529   1.200   8.903 -0.6251 -0.0046 -0.4624
  609TMC3    C2 9021   3.496   1.228   8.776 -0.1372 -0.5850 -0.1279
  609TMC3    C3 9022   3.591   1.186   8.682 -0.0824 -0.0089  0.3600
  609TMC3    C4 9023   3.634   1.129   8.939  0.2723 -0.2558 -0.1042
  609TMC3    C5 9024   3.713   1.083   8.835  0.4156  0.7015 -0.1548
  609TMC3    C6 9025   3.697   1.099   8.708  0.1557 -0.5154 -0.9253
  609TMC3     C 9026   3.444   1.250   9.007  0.1086 -0.2265  0.5736
  609TMC3     O 9027   3.458   1.198   9.117  1.2556 -0.2016 -0.4933
  609TMC3     H 9028   3.400   1.272   8.751  0.4787  0.4590 -0.6601
  609TMC3    H1 9029   3.658   1.098   9.041  2.5173  2.9654  0.3621
  609TMC3    H2 9030   3.769   1.066   8.635  0.9616 -1.1523  0.1582
  609TMC3    C7 9031   3.807   0.980   8.866  0.0555 -0.1202 -0.7083
  609TMC3    C8 9032   3.580   1.225   8.540  0.5168  0.8253  0.1531
  609TMC3    O1 9033   3.857   0.988   8.974  0.1784  0.5761  0.3868
  609TMC3    O2 9034   3.643   1.155   8.465  0.1290  0.3156 -0.3118
  610TMC3    C1 9035   0.574   2.188  12.536  0.5268 -0.0799 -0.5181
  610TMC3    C2 9036   0.604   2.232  12.404 -0.0627 -0.0481 -0.8588
  610TMC3    C3 9037   0.609   2.132  12.308 -0.0399  0.4421 -0.1939
  610TMC3    C4 9038   0.547   2.057  12.567  0.0001  0.2859  0.9109
  610TMC3    C5 9039   0.541   1.968  12.466 -0.3094 -0.6279 -0.2012
  610TMC3    C6 9040   0.582   2.002  12.336  0.3859  0.1684  0.5332
  610TMC3     C 9041   0.539   2.285  12.638 -0.6228 -0.1134  0.1249
  610TMC3     O 9042   0.512   2.242  12.748  0.1040 -0.2453  0.5952
  610TMC3     H 9043   0.628   2.331  12.367 -1.8178  1.1397  1.1459
  610TMC3    H1 9044   0.541   2.029  12.672 -0.8172 -1.1808  0.4749
  610TMC3    H2 9045   0.597   1.914  12.274 -1.1172 -1.4882  2.5446
  610TMC3    C7 9046   0.515   1.833  12.506  0.0455 -1.0920  0.1519
  610TMC3    C8 9047   0.665   2.167  12.176 -0.2223 -0.9015  0.1314
  610TMC3    O1 9048   0.549   1.741  12.436 -0.2581  0.1535  0.2185
  610TMC3    O2 9049   0.712   2.279  12.171  0.2111  0.3071 -0.3022
  611MPD2     C 9050   4.611   1.710  10.474 -0.7663 -0.3670 -0.7309
  611MPD2    C1 9051   4.578   1.758  10.352  0.2352 -0.4996 -0.7065
  611MPD2    C2 9052   4.676   1.804  10.266  0.7152  0.1899 -0.9065
  611MPD2    C3 9053   0.089   1.802  10.306 -1.0872  0.4496  0.1857
  611MPD2    C4 9054   0.121   1.746  10.428  0.2571 -1.1338  0.0768
  611MPD2    C5 9055   0.021   1.703  10.514  0.4871 -0.2893  0.2377
  611MPD2     H 9056   4.656   1.854  10.172  0.4757  0.5448 -0.6646
  611MPD2    H1 9057   0.225   1.732  10.454  0.9873 -0.0978 -2.2500
  611MPD2    H2 9058   4.539   1.694  10.554 -0.4840 -1.2842 -0.6672
  611MPD2    H3 9059   0.048   1.685  10.617  0.0992 -2.4251 -0.0313
  611MPD2     N 9060   0.202   1.855  10.231  0.3999  0.4072  0.0749
  611MPD2    H5 9061   0.292   1.849  10.277 -0.2097 -1.5779  0.9693
  611MPD2    N1 9062   4.440   1.750  10.310 -0.0535  0.3952  0.0748
  611MPD2    H7 9063   4.373   1.734  10.385 -1.3995  0.0153 -1.2139
  612TMC3    C1 9064   0.319   1.999  10.078  0.1085  0.4101  0.0784
  612TMC3    C2 9065   0.410   2.060  10.158  0.1857  0.4643  0.5021
  612TMC3    C3 9066   0.466   2.174  10.102  0.1179 -0.5155  0.0512
  612TMC3    C4 9067   0.300   2.028   9.950  0.2035 -0.0946  0.9710
  612TMC3    C5 9068   0.361   2.136   9.895 -0.0266  0.1213  0.2525
  612TMC3    C6 9069   0.447   2.215   9.974 -0.5547  0.4679  0.7392
  612TMC3     C 9070   0.196   1.939  10.120  0.4975  0.1168 -0.0161
  612TMC3     O 9071   0.098   1.960  10.053 -0.2045  0.8230  0.2666
  612TMC3     H 9072   0.388   2.059  10.264  1.0617  1.4753  0.6936
  612TMC3    H1 9073   0.235   1.974   9.881 -0.1252  0.4377  0.8630
  612TMC3    H2 9074   0.518   2.281   9.926 -0.0222  0.8989  2.1148
  612TMC3    C7 9075   0.270   2.210   9.808 -0.1066 -0.3121 -0.3222
  612TMC3    C8 9076   0.569   2.232  10.176  1.3087 -0.4919  0.3233
  612TMC3    O1 9077   0.187   2.144   9.747  0.4295 -0.3551 -0.5235
  612TMC3    O2 9078   0.617   2.337  10.138  0.2599  0.6867  0.8958
  613MPD2     C 9079   3.866   0.527  16.144  0.2897  0.0180  0.2796
  613MPD2    C1 9080   3.791   0.473  16.044  0.3324  0.2768 -0.3700
  613MPD2    C2 9081   3.842   0.355  15.982  0.5299 -0.9887  0.0860
  613MPD2    C3 9082   3.961   0.292  16.029  0.7152  0.1689  0.6222
  613MPD2    C4 9083   4.030   0.345  16.136  0.3721  0.4936  0.6592
  613MPD2    C5 9084   3.980   0.464  16.194 -0.3959  0.1491 -0.1036
  613MPD2     H 9085   3.787   0.311  15.900 -2.3629  0.6101  1.1355
  613MPD2    H1 9086   4.122   0.303  16.175  0.6730  1.4767  0.9849
  613MPD2    H2 9087   3.835   0.618  16.195 -0.1600  0.9252 -1.6285
  613MPD2    H3 9088   4.043   0.507  16.271  2.2701 -0.3008 -2.0220
  613MPD2     N 9089   4.019   0.178  15.969 -0.1450  0.1877  0.3912
  613MPD2    H5 9090   4.117   0.156  15.985  0.0676  1.3180  0.6211
  613MPD2    N1 9091   3.689   0.549  15.982  0.2912 -0.3975 -0.5186
  613MPD2    H7 9092   3.694   0.649  15.996  0.0646 -0.7856  2.4580
  614TMC3    C1 9093   3.558   0.588  15.789 -0.0419  0.0182 -0.3500
  614TMC3    C2 9094   3.660   0.615  15.705  0.2855  0.5515 -0.4025
  614TMC3    C3 9095   3.657   0.596  15.569  0.5589  0.3246  0.2227
  614TMC3    C4 9096   3.436   0.554  15.745 -0.1376  0.1940  0.1527
  614TMC3    C5 9097   3.430   0.530  15.612 -0.0016  0.2651 -0.3948
  614TMC3    C6 9098   3.535   0.556  15.524 -0.2098 -0.0421 -0.4328
  614TMC3     C 9099   3.603   0.498  15.895  0.4630  0.6066 -0.4544
  614TMC3     O 9100   3.568   0.383  15.893 -0.1206 -0.3488  0.4774
  614TMC3     H 9101   3.760   0.623  15.746  0.4025 -0.7246 -0.4515
  614TMC3    H1 9102   3.344   0.555  15.801 -0.2503 -1.3789 -0.0204
  614TMC3    H2 9103   3.533   0.541  15.416  0.2338 -1.3186 -0.2639
  614TMC3    C7 9104   3.305   0.506  15.553 -0.1847  0.1926 -0.5456
  614TMC3    C8 9105   3.766   0.513  15.526  0.1680  0.2956 -0.9740
  614TMC3    O1 9106   3.202   0.548  15.603 -0.3564 -0.0622 -0.1801
  614TMC3    O2 9107   3.845   0.476  15.608  0.5598 -0.5963 -0.4272
  615MPD2     C 9108   3.259   1.207  15.791  0.6433  0.2349 -0.6051
  615MPD2    C1 9109   3.288   1.324  15.855  0.1364 -0.3045 -0.4118
  615MPD2    C2 9110   3.304   1.444  15.788  0.3510  0.5904  0.2323
  615MPD2    C3 9111   3.309   1.439  15.652  0.3637 -0.8390  0.7803
  615MPD2    C4 9112   3.315   1.315  15.592  0.7932  0.5564  0.3202
  615MPD2    C5 9113   3.285   1.201  15.660  0.2961 -0.4482  0.1137
  615MPD2     H 9114   3.316   1.535  15.846 -2.1279  0.7468  0.5112
  615MPD2    H1 9115   3.334   1.300  15.486 -0.0718 -0.5399  0.3259
  615MPD2    H2 9116   3.214   1.121  15.839  0.8843  0.1934 -0.4513
  615MPD2    H3 9117   3.270   1.112  15.599 -2.1256  1.5673 -2.2320
  615MPD2     N 9118   3.313   1.551  15.568 -0.2428 -0.2687 -0.1803
  615MPD2    H5 9119   3.312   1.538  15.467 -1.6378 -0.7265 -0.1029
  615MPD2    N1 9120   3.278   1.344  15.998 -0.0051  0.6686  0.2858
  615MPD2    H7 9121   3.273   1.440  16.032  1.5182  0.8386 -0.0160
  616TMC3    C1 9122   3.295   1.297  16.227  0.3313  0.0343  0.3077
  616TMC3    C2 9123   3.394   1.256  16.302 -0.6040 -0.1343  0.0159
  616TMC3    C3 9124   3.440   1.339  16.403 -0.1584 -0.1983  0.1196
  616TMC3    C4 9125   3.222   1.409  16.259 -0.3290 -0.1343 -0.5852
  616TMC3    C5 9126   3.281   1.495  16.351 -1.4261 -0.1604  0.4193
  616TMC3    C6 9127   3.391   1.461  16.427  0.6864 -0.4555 -0.6492
  616TMC3     C 9128   3.291   1.245  16.092  0.3056  0.6214  0.7224
  616TMC3     O 9129   3.343   1.135  16.074  0.1227 -0.0518  0.6257
  616TMC3     H 9130   3.440   1.160  16.283  1.6311  0.7834  0.7403
  616TMC3    H1 9131   3.138   1.449  16.203 -0.3941 -0.5633 -0.7984
  616TMC3    H2 9132   3.417   1.522  16.513  1.0113 -2.1047  0.4170
  616TMC3    C7 9133   3.211   1.611  16.385  0.0267 -0.2202  0.4349
  616TMC3    C8 9134   3.563   1.294  16.470  0.5249  0.4002  0.3854
  616TMC3    O1 9135   3.089   1.616  16.374  0.0713  0.5648 -0.6912
  616TMC3    O2 9136   3.577   1.173  16.478  0.0280  0.7560  0.4876
  617MPD2     C 9137   1.464   4.252  13.783 -0.1103  0.6256  0.5447
  617MPD2    C1 9138   1.429   4.142  13.711  0.6351 -0.5832  0.1074
  617MPD2    C2 9139   1.297   4.101  13.693 -0.2468 -0.4633  0.3430
  617MPD2    C3 9140   1.194   4.168  13.757  0.2408 -0.6289 -0.0131
  617MPD2    C4 9141   1.227   4.277  13.829 -0.0147 -0.3042 -0.5511
  617MPD2    C5 9142   1.361   4.313  13.847  0.6097  0.3994  0.3231
  617MPD2     H 9143   1.273   4.009  13.640  2.5932 -1.7619  1.2550
  617MPD2    H1 9144   1.153   4.339  13.878 -1.0294 -0.9736 -1.2491
  617MPD2    H2 9145   1.562   4.297  13.790 -0.8852  2.5147 -0.9268
  617MPD2    H3 9146   1.376   4.409  13.895 -0.7131  0.7919 -0.0444
  617MPD2     N 9147   1.059   4.134  13.741  0.3784 -0.3734  0.1618
  617MPD2    H5 9148   0.997   4.197  13.791 -2.8604 -1.4850 -2.4521
  617MPD2    N1 9149   1.533   4.065  13.653  0.4685 -0.7117  0.4311
  617MPD2    H7 9150   1.626   4.099  13.675  0.3771 -0.6530  0.7226
  618TMC3    C1 9151   1.649   3.893  13.567  0.3070 -0.0588  0.0636
  618TMC3    C2 9152   1.653   3.797  13.473  0.2203  0.2072 -0.9666
  618TMC3    C3 9153   1.768   3.731  13.456 -0.0467  0.4090  0.0274
  618TMC3    C4 9154   1.754   3.917  13.656  0.7937  0.2600 -0.4438
  618TMC3    C5 9155   1.871   3.852  13.637  0.4644 -0.5503 -1.3119
  618TMC3    C6 9156   1.873   3.747  13.543  0.3575  0.4963 -0.2264
  618TMC3     C 9157   1.523   3.953  13.584 -0.8434 -0.1156 -0.1624
  618TMC3     O 9158   1.426   3.890  13.540 -0.2912 -0.0742  0.1289
  618TMC3     H 9159   1.575   3.800  13.398  0.8560 -0.4112 -1.6555
  618TMC3    H1 9160   1.747   3.986  13.739  1.8092  1.2026 -1.1311
  618TMC3    H2 9161   1.949   3.671  13.552 -1.3160 -1.1598 -0.1813
  618TMC3    C7 9162   1.963   3.831  13.753 -0.1706  0.4067 -0.4479
  618TMC3    C8 9163   1.781   3.649  13.338  0.1844 -0.2567 -0.0192
  618TMC3    O1 9164   1.900   3.845  13.857 -0.0857  0.0478  0.2292
  618TMC3    O2 9165   1.700   3.655  13.248 -0.3469  0.3769  0.5004
  619MPD2     C 9166   2.779   0.210  13.272 -0.0439  0.5525  0.0073
  619MPD2    C1 9167   2.719   0.328  13.243  1.0683  1.0705  0.0331
  619MPD2    C2 9168   2.583   0.337  13.252 -0.6711 -0.1265 -0.6646
  619MPD2    C3 9169   2.505   0.226  13.281 -0.6234  0.0409  0.6602
  619MPD2    C4 9170   2.572   0.107  13.287 -0.1909 -0.2651 -0.5516
  619MPD2    C5 9171   2.705   0.097  13.276 -0.5143 -0.5658  0.8985
  619MPD2     H 9172   2.546   0.438  13.237 -0.4279  0.2616  1.4014
  619MPD2    H1 9173   2.528   0.009  13.304 -0.3218 -0.1830 -0.4179
  619MPD2    H2 9174   2.883   0.186  13.288 -0.2103  1.4423  2.3555
  619MPD2    H3 9175   2.749   4.723  13.283 -0.4757 -0.5247  1.2376
  619MPD2     N 9176   2.367   0.226  13.295 -0.2470  0.2987  0.0813
  619MPD2    H5 9177   2.328   0.133  13.284  0.9427 -0.2191  0.1776
  619MPD2    N1 9178   2.791   0.448  13.229 -0.0442  0.2041 -0.0157
  619MPD2    H7 9179   2.736   0.533  13.241  0.1217  0.2142  0.6558
  620TMC3    C1 9180   2.942   0.605  13.219  0.3399  0.4508  0.0786
  620TMC3    C2 9181   2.860   0.659  13.123 -0.5099  0.1231  0.5790
  620TMC3    C3 9182   2.837   0.791  13.111 -0.3358  0.4297  0.3565
  620TMC3    C4 9183   3.002   0.685  13.316  0.1411  0.8730  0.4336
  620TMC3    C5 9184   2.972   0.824  13.303  0.6129 -0.2930 -0.2999
  620TMC3    C6 9185   2.892   0.874  13.208 -0.3017  0.8095  0.6861
  620TMC3     C 9186   2.920   0.469  13.255 -0.0449 -0.0625  0.3429
  620TMC3     O 9187   3.021   0.406  13.284 -0.1846  0.6549  0.0206
  620TMC3     H 9188   2.819   0.596  13.045 -1.5002 -1.1570  2.1438
  620TMC3    H1 9189   3.077   0.660  13.390  1.2334 -2.4534 -1.7663
  620TMC3    H2 9190   2.884   0.981  13.191 -2.6647  0.3304 -1.0796
  620TMC3    C7 9191   3.044   0.915  13.392 -0.0574  0.4843 -0.2747
  620TMC3    C8 9192   2.711   0.834  13.054  1.3769  0.2260 -0.4858
  620TMC3    O1 9193   3.151   0.877  13.442 -0.4464 -0.8082  0.1302
  620TMC3    O2 9194   2.672   0.935  13.115  0.4018  0.4105  0.2443
  621MPD2     C 9195   3.251   0.088   9.305 -0.4776 -0.0759 -0.4101
  621MPD2    C1 9196   3.288   0.068   9.434  0.3729  0.2950  0.3367
  621MPD2    C2 9197   3.358   0.169   9.501  0.4546  0.3687  0.0678
  621MPD2    C3 9198   3.400   0.279   9.426  0.3285  0.0399  0.1599
  621MPD2    C4 9199   3.372   0.284   9.292  0.5360  0.7258 -0.0947
  621MPD2    C5 9200   3.292   0.198   9.228 -0.3656  0.3999 -0.7145
  621MPD2     H 9201   3.363   0.170   9.609  2.4735  1.3587 -0.0425
  621MPD2    H1 9202   3.395   0.372   9.232 -1.2065  0.1739 -1.5793
  621MPD2    H2 9203   3.200   0.007   9.254  1.1832 -2.0215  1.0231
  621MPD2    H3 9204   3.272   0.203   9.121 -0.5170 -0.5977 -0.7334
  621MPD2     N 9205   3.469   0.382   9.489 -0.2480  0.3754  0.1662
  621MPD2    H5 9206   3.490   0.370   9.587 -1.1776  4.0159  0.7920
  621MPD2    N1 9207   3.248   4.679   9.510  0.1311  0.5175  0.0669
  621MPD2    H7 9208   3.279   4.680   9.606 -0.1025 -2.2499  0.1644
  622TMC3    C1 9209   3.149   4.460   9.570 -0.3823  0.5351 -0.1855
  622TMC3    C2 9210   3.190   4.474   9.696  0.0485 -0.8142  0.3369
  622TMC3    C3 9211   3.138   4.398   9.792  0.1839 -1.0781 -0.0093
  622TMC3    C4 9212   3.069   4.355   9.534  0.1565  0.6964  0.5806
  622TMC3    C5 9213   3.016   4.274   9.635  0.0575  0.4477 -0.2976
  622TMC3    C6 9214   3.047   4.298   9.762 -1.2252  0.5940  0.3769
  622TMC3     C 9215   3.161   4.577   9.478  0.0835  0.1034 -1.3237
  622TMC3     O 9216   3.100   4.557   9.377  0.0024 -0.3267  0.0192
  622TMC3     H 9217   3.251   4.557   9.732  0.2080 -0.4819 -0.6807
  622TMC3    H1 9218   3.040   4.351   9.430  2.1947 -3.1489  0.1834
  622TMC3    H2 9219   2.990   4.245   9.837 -0.1797  0.0077  0.7628
  622TMC3    C7 9220   2.924   4.161   9.606  0.4398 -0.5179  0.1628
  622TMC3    C8 9221   3.086   4.470   9.905  0.4512 -0.1340 -0.1661
  622TMC3    O1 9222   2.888   4.087   9.693 -0.4293 -0.8475  0.2862
  622TMC3    O2 9223   2.964   4.479   9.925 -1.0388  0.9422 -0.2168
  623MPD2     C 9224   1.588   1.166  15.673 -0.0107  0.1828 -0.2224
  623MPD2    C1 9225   1.508   1.226  15.760  0.1831  0.2876 -0.3942
  623MPD2    C2 9226   1.558   1.255  15.882 -0.0841 -0.8005 -0.1395
  623MPD2    C3 9227   1.692   1.251  15.905  0.1857 -0.0694  0.0554
  623MPD2    C4 9228   1.778   1.209  15.804  0.4050 -0.2752  0.5242
  623MPD2    C5 9229   1.719   1.147  15.693 -0.3587  0.2897  0.3478
  623MPD2     H 9230   1.483   1.282  15.954  3.0160  0.5631  2.6048
  623MPD2    H1 9231   1.881   1.178  15.819  1.0309  0.3809 -2.4223
  623MPD2    H2 9232   1.552   1.115  15.584  2.5777 -0.6218 -0.8072
  623MPD2    H3 9233   1.765   1.081  15.621  0.2726  1.1768 -0.0568
  623MPD2     N 9234   1.749   1.279  16.027  0.4450  0.6712 -0.0473
  623MPD2    H5 9235   1.681   1.292  16.101 -1.2517  0.3071 -1.5244
  623MPD2    N1 9236   1.365   1.244  15.740 -0.3963  0.0824 -0.9300
  623MPD2    H7 9237   1.308   1.254  15.824  1.7014  1.1393  0.3623
  624TMC3    C1 9238   2.044   1.325  16.390 -0.9011 -0.2110  0.1264
  624TMC3    C2 9239   1.942   1.371  16.467 -0.2345  0.4724 -0.1329
  624TMC3    C3 9240   1.828   1.401  16.408  0.5713  0.3448 -0.7528
  624TMC3    C4 9241   2.028   1.293  16.255 -0.0033  0.4249 -0.4677
  624TMC3    C5 9242   1.902   1.312  16.199  0.0258  0.3505 -0.0528
  624TMC3    C6 9243   1.803   1.367  16.275 -0.0852 -0.2568  0.4355
  624TMC3     C 9244   2.156   1.255  16.463  0.2816  0.2599 -0.1291
  624TMC3     O 9245   2.151   1.260  16.588 -0.3579 -0.4665  0.1196
  624TMC3     H 9246   1.956   1.389  16.573  1.2210 -2.1829  0.1316
  624TMC3    H1 9247   2.109   1.252  16.195  0.6909  1.6075 -0.3392
  624TMC3    H2 9248   1.705   1.389  16.234 -0.1082 -0.7654  0.2112
  624TMC3    C7 9249   1.881   1.293  16.058  0.2468  0.1909 -0.1429
  624TMC3    C8 9250   1.709   1.396  16.485  0.0413 -0.3375  0.5024
  624TMC3    O1 9251   1.989   1.279  15.998 -0.4624 -0.5965 -0.3620
  624TMC3    O2 9252   1.617   1.334  16.440  0.1309  0.8177  0.4874
  625MPD2     C 9253   2.399   2.180   0.077  0.5253 -0.4334 -0.4849
  625MPD2    C1 9254   2.434   2.300   0.137  0.0991  0.4837 -0.0639
  625MPD2    C2 9255   2.546   2.296   0.215  0.0674 -0.3550 -0.3269
  625MPD2    C3 9256   2.627   2.187   0.217 -0.4462 -0.4554  0.2743
  625MPD2    C4 9257   2.593   2.065   0.151 -0.3646  0.0674  0.4482
  625MPD2    C5 9258   2.477   2.068   0.079  0.1299  0.0626 -0.0079
  625MPD2     H 9259   2.569   2.388   0.267  1.4440  0.2052 -1.9120
  625MPD2    H1 9260   2.663   1.983   0.149  1.7381  1.8881 -1.2598
  625MPD2    H2 9261   2.311   2.174   0.014 -0.9581 -2.3800  1.7727
  625MPD2    H3 9262   2.444   1.974   0.038 -0.2117  1.4867 -2.9774
  625MPD2     N 9263   2.753   2.208   0.291  0.1890  0.1970  0.8916
  625MPD2    H5 9264   2.755   2.300   0.332 -0.0636  0.6599 -0.1491
  625MPD2    N1 9265   2.346   2.412   0.149  0.1604 -0.1217  0.4641
  625MPD2    H7 9266   2.374   2.483   0.216  1.0313  1.5566 -1.6977
  626TMC3    C1 9267   2.157   2.546   0.122  0.1513 -0.3632  0.0331
  626TMC3    C2 9268   2.058   2.594   0.048  0.7705  1.3251 -0.9642
  626TMC3    C3 9269   1.984   2.700   0.100 -0.4409  0.1850 -0.0224
  626TMC3    C4 9270   2.191   2.607   0.245 -0.2322 -1.1227  1.1840
  626TMC3    C5 9271   2.117   2.713   0.284  0.1067 -0.0740  0.1586
  626TMC3    C6 9272   2.009   2.757   0.221  0.0428  0.1403 -0.5197
  626TMC3     C 9273   2.229   2.430   0.078  0.4829 -0.2258 -0.1801
  626TMC3     O 9274   2.176   2.374  17.682  0.7638 -0.2785 -0.8605
  626TMC3     H 9275   2.039   2.546  17.654  2.0259 -0.0118 -0.5395
  626TMC3    H1 9276   2.267   2.565   0.310  0.4834  1.4480  2.0053
  626TMC3    H2 9277   1.948   2.837   0.261  1.2985 -0.1074  1.9006
  626TMC3    C7 9278   2.146   2.768   0.419  0.0230  0.3713  0.5339
  626TMC3    C8 9279   1.898   2.770  17.699  0.0280 -0.3052  0.3667
  626TMC3    O1 9280   2.209   2.693   0.489  0.2328 -0.4697 -0.6301
  626TMC3    O2 9281   1.872   2.707  17.591  0.2047 -0.1006  0.4290
  627MPD2     C 9282   1.255   2.812  14.203 -0.2588 -0.4499  0.8426
  627MPD2    C1 9283   1.136   2.882  14.232  0.2018 -0.6377 -0.2227
  627MPD2    C2 9284   1.013   2.815  14.225 -0.7061  0.7847  0.0007
  627MPD2    C3 9285   1.014   2.681  14.194 -0.6229  0.1648  0.2132
  627MPD2    C4 9286   1.132   2.610  14.168 -0.8959  0.1225  0.2599
  627MPD2    C5 9287   1.252   2.682  14.174 -0.0355  0.0173  0.0991
  627MPD2     H 9288   0.925   2.873  14.250 -1.5328 -0.2791 -0.4343
  627MPD2    H1 9289   1.135   2.503  14.151 -0.0386  0.4400 -1.6012
  627MPD2    H2 9290   1.352   2.859  14.219 -0.3963 -0.4390  1.6407
  627MPD2    H3 9291   1.343   2.623  14.170  0.6579  1.3129 -3.0383
  627MPD2     N 9292   0.897   2.605  14.215  0.4590  0.5176  0.3778
  627MPD2    H5 9293   0.825   2.643  14.276 -1.6896 -2.1744 -0.4698
  627MPD2    N1 9294   1.128   3.017  14.285 -0.3348  0.1239 -0.6485
  627MPD2    H7 9295   1.038   3.063  14.285  0.0018  0.7776  0.6944
  628TMC3    C1 9296   1.194   3.189  14.431  0.1089  1.0167  0.2259
  628TMC3    C2 9297   1.219   3.177  14.564 -0.2429 -0.2291 -0.2302
  628TMC3    C3 9298   1.136   3.251  14.649  0.8330 -0.7248  0.3220
  628TMC3    C4 9299   1.101   3.268  14.374  0.4640  0.0744  0.4613
  628TMC3    C5 9300   1.028   3.341  14.466  0.0034 -0.3377  0.0131
  628TMC3    C6 9301   1.033   3.332  14.605  0.9835 -0.6485  0.2013
  628TMC3     C 9302   1.235   3.075  14.346  1.0487  0.3048  0.1064
  628TMC3     O 9303   1.350   3.031  14.357 -0.7133  0.0680 -0.6825
  628TMC3     H 9304   1.291   3.104  14.597  0.0869  0.2620  0.1415
  628TMC3    H1 9305   1.056   3.248  14.278 -0.8591 -0.0342  1.1121
  628TMC3    H2 9306   0.981   3.387  14.682 -0.9311 -0.7452 -1.0379
  628TMC3    C7 9307   0.891   3.376  14.435 -0.1198  0.6307 -0.3358
  628TMC3    C8 9308   1.134   3.216  14.786  0.4771  0.1284  0.0755
  628TMC3    O1 9309   0.800   3.338  14.509  0.2170  0.2453 -0.0003
  628TMC3    O2 9310   1.033   3.245  14.847  0.8239 -0.0385 -0.3747
  629MPD2     C 9311   4.011   1.371  16.692  1.1477 -0.6787  1.0538
  629MPD2    C1 9312   3.972   1.487  16.629  0.1679 -0.1659  0.2869
  629MPD2    C2 9313   3.853   1.491  16.562 -0.4741 -0.6445  0.0951
  629MPD2    C3 9314   3.764   1.384  16.581  0.4035 -0.0669 -0.4461
  629MPD2    C4 9315   3.797   1.270  16.646  0.0994 -0.3496  1.0390
  629MPD2    C5 9316   3.923   1.266  16.701  0.3937 -0.2128 -0.4830
  629MPD2     H 9317   3.819   1.575  16.502  0.5701  0.7197  1.4293
  629MPD2    H1 9318   3.755   1.170  16.644 -0.5983 -0.0383  0.4287
  629MPD2    H2 9319   4.103   1.359  16.747  1.2289  1.5535  1.3947
  629MPD2    H3 9320   3.954   1.182  16.763 -0.9313  0.5617  1.2129
  629MPD2     N 9321   3.645   1.393  16.503  0.2370 -0.3713 -0.3332
  629MPD2    H5 9322   3.627   1.477  16.450  0.4766  0.8680  1.5668
  629MPD2    N1 9323   4.066   1.595  16.626 -0.1570  0.1198 -0.2759
  629MPD2    H7 9324   4.154   1.580  16.674 -0.8863  0.9720  1.3443
  630TMC3    C1 9325   4.149   1.803  16.603  0.1719  0.5126 -0.6471
  630TMC3    C2 9326   4.193   1.887  16.502 -0.5309 -0.8389  0.1319
  630TMC3    C3 9327   4.328   1.928  16.512  0.4740 -0.6997 -0.4972
  630TMC3    C4 9328   4.225   1.775  16.710  1.0588 -0.0367  0.2823
  630TMC3    C5 9329   4.344   1.839  16.719 -0.5038  0.1545 -0.0776
  630TMC3    C6 9330   4.405   1.907  16.620  0.1779  0.7208  0.2330
  630TMC3     C 9331   4.041   1.718  16.573  0.5929  0.5920 -0.5297
  630TMC3     O 9332   3.952   1.757  16.495 -0.5045  0.0599 -0.4097
  630TMC3     H 9333   4.119   1.900  16.423 -0.1745  1.1172  0.1181
  630TMC3    H1 9334   4.181   1.727  16.797 -0.6943  0.4602 -0.3328
  630TMC3    H2 9335   4.508   1.937  16.633  0.8529 -0.8301 -1.4998
  630TMC3    C7 9336   4.421   1.827  16.847 -0.3457  0.4244  0.6650
  630TMC3    C8 9337   4.384   2.023  16.421 -0.3487 -1.0207 -1.1295
  630TMC3    O1 9338   4.392   1.728  16.914 -0.1609 -0.1411 -0.3542
  630TMC3    O2 9339   4.475   2.089  16.459 -0.2336  0.0351 -0.4513
  631MPD2     C 9340   2.544   1.692  15.030 -0.4657 -0.5678 -0.3604
  631MPD2    C1 9341   2.536   1.808  15.105 -0.2240 -0.0713  0.3868
  631MPD2    C2 9342   2.651   1.847  15.176  0.1947  0.1305  0.1310
  631MPD2    C3 9343   2.761   1.764  15.182  0.4181  0.1825 -0.0327
  631MPD2    C4 9344   2.765   1.651  15.104 -0.0538 -0.1615  0.6043
  631MPD2    C5 9345   2.657   1.618  15.020  0.0095 -0.3999 -0.2311
  631MPD2     H 9346   2.645   1.942  15.227 -1.0275  0.0241  0.1849
  631MPD2    H1 9347   2.851   1.585  15.092  0.2467  0.8572 -2.9308
  631MPD2    H2 9348   2.470   1.657  14.959 -1.5186  1.5270 -0.2809
  631MPD2    H3 9349   2.661   1.532  14.955 -1.3474 -1.1272  0.6476
  631MPD2     N 9350   2.873   1.807  15.263  0.0955 -0.5145  0.2525
  631MPD2    H5 9351   2.850   1.887  15.321  1.1656 -1.9304  2.5781
  631MPD2    N1 9352   2.405   1.871  15.117  0.4122 -0.2700  0.4517
  631MPD2    H7 9353   2.329   1.817  15.077  1.3230 -1.0566 -0.1810
  632TMC3    C1 9354   2.240   2.038  15.130  0.5264 -0.8990  0.4506
  632TMC3    C2 9355   2.141   1.941  15.121  0.0710  0.9825 -0.1427
  632TMC3    C3 9356   2.047   1.943  15.026  0.0827  0.6149 -0.7078
  632TMC3    C4 9357   2.249   2.138  15.037  0.7354  0.7025  0.4631
  632TMC3    C5 9358   2.166   2.124  14.928  0.1763  0.4928 -0.5353
  632TMC3    C6 9359   2.061   2.032  14.925 -0.0965 -0.2937 -0.3500
  632TMC3     C 9360   2.374   1.990  15.169 -0.4592 -0.1070 -0.0470
  632TMC3     O 9361   2.455   2.080  15.193 -0.0440  0.6498 -0.6876
  632TMC3     H 9362   2.127   1.860  15.192  0.0349  1.4982  0.4385
  632TMC3    H1 9363   2.337   2.202  15.040 -0.1916  2.0332 -1.0866
  632TMC3    H2 9364   1.993   2.038  14.841 -1.8643 -4.0843  0.7980
  632TMC3    C7 9365   2.249   2.104  14.813  0.3331 -0.3431 -0.0115
  632TMC3    C8 9366   1.930   1.859  15.032 -0.0802  0.4278 -0.2327
  632TMC3    O1 9367   2.195   2.104  14.702  0.3610 -1.1399 -0.0141
  632TMC3    O2 9368   1.943   1.755  15.095 -0.5872 -0.1478  0.1278
  633MPD2     C 9369   1.852   4.225  17.147 -0.9306  0.7682  0.5912
  633MPD2    C1 9370   1.933   4.170  17.050 -0.3542  0.2708  0.1975
  633MPD2    C2 9371   1.987   4.041  17.077 -0.2499 -0.2176  0.1888
  633MPD2    C3 9372   1.954   3.967  17.190  0.4490 -0.2443 -0.0754
  633MPD2    C4 9373   1.872   4.030  17.287  0.4596 -0.2759  0.0708
  633MPD2    C5 9374   1.836   4.162  17.267 -0.0060  0.1109  0.2309
  633MPD2     H 9375   2.042   3.992  16.998 -2.2081  1.8438 -2.4659
  633MPD2    H1 9376   1.841   3.978  17.377 -2.3017  0.9687 -0.1470
  633MPD2    H2 9377   1.800   4.319  17.132  0.0042  0.9583 -1.4962
  633MPD2    H3 9378   1.781   4.213  17.345 -0.5391  0.5608 -0.4349
  633MPD2     N 9379   1.988   3.828  17.196  0.3192 -0.4509 -0.7343
  633MPD2    H5 9380   1.941   3.779  17.272 -0.4843 -0.9567 -1.5647
  633MPD2    N1 9381   1.969   4.233  16.930  0.0512  0.1043 -0.1428
  633MPD2    H7 9382   2.036   4.181  16.874 -0.8395 -2.1149  0.8086
  634TMC3    C1 9383   1.956   4.377  16.747  0.8472  0.2650  0.0272
  634TMC3    C2 9384   1.988   4.269  16.669  0.8196  0.4654  0.7342
  634TMC3    C3 9385   1.968   4.287  16.533 -0.4759 -0.0787 -0.8490
  634TMC3    C4 9386   1.913   4.496  16.693 -0.2435  0.3108  0.6333
  634TMC3    C5 9387   1.909   4.510  16.556  0.2260 -0.1819 -0.1025
  634TMC3    C6 9388   1.946   4.409  16.471 -0.1100  0.3383  0.0456
  634TMC3     C 9389   1.928   4.356  16.887 -0.5938  0.6438 -0.2490
  634TMC3     O 9390   1.841   4.427  16.931  0.0031  0.4559  0.6871
  634TMC3     H 9391   2.025   4.173  16.702  3.0600  1.0789 -0.0168
  634TMC3    H1 9392   1.881   4.573  16.761 -0.9800 -0.4145  1.1040
  634TMC3    H2 9393   1.911   4.421  16.369 -2.9203 -0.4397  0.9137
  634TMC3    C7 9394   1.848   4.627  16.497 -0.0658 -0.2675 -0.4866
  634TMC3    C8 9395   1.974   4.176  16.451 -0.1635  0.1618 -0.0803
  634TMC3    O1 9396   1.842   4.633  16.374  0.0510 -0.1835  0.1203
  634TMC3    O2 9397   1.973   4.065  16.509 -0.1078  0.1853  0.3583
  635TMC3    C1 9398   2.869   0.215  16.943  0.9358 -0.5590  0.8252
  635TMC3    C2 9399   2.968   0.128  16.904 -0.2816 -0.1143 -0.6113
  635TMC3    C3 9400   2.921   0.003  16.876 -0.5192 -0.6227 -0.0820
  635TMC3    C4 9401   2.737   0.187  16.950 -0.4200 -0.0841 -0.3013
  635TMC3    C5 9402   2.692   0.063  16.923  0.3973 -0.4911 -0.5415
  635TMC3    C6 9403   2.787   4.696  16.880 -0.0887 -0.0788  0.7521
  635TMC3     C 9404   2.914   0.312  17.041  0.1388 -0.1788 -0.3653
  635TMC3     O 9405   2.876   0.304  17.157 -0.4163 -0.6769 -0.3472
  635TMC3     H 9406   3.070   0.159  16.886  0.0177  0.6720  2.4545
  635TMC3    H1 9407   2.682   0.260  17.008  0.0533  1.8940 -2.3566
  635TMC3    H2 9408   2.758   4.591  16.880  1.7890 -0.6041 -2.7564
  635TMC3    C7 9409   2.561   0.024  16.982  0.4462  0.6059 -0.5784
  635TMC3    C8 9410   3.013   4.613  16.888  1.0824  0.5635 -0.0755
  635TMC3    O1 9411   2.505   0.124  17.034  0.5230  0.0374 -0.5875
  635TMC3    O2 9412   3.120   4.626  16.950 -0.0418 -0.7336 -0.3131
  636MPD2     C 9413   3.398   0.046  15.523  0.0285 -0.4411  0.3020
  636MPD2    C1 9414   3.457   0.090  15.643 -0.2078 -0.3273  0.3353
  636MPD2    C2 9415   3.581   0.039  15.674 -0.4232 -0.3552 -0.0428
  636MPD2    C3 9416   3.645   4.672  15.595 -0.3457  0.5304  0.5057
  636MPD2    C4 9417   3.590   4.641  15.476  0.7269 -0.1135 -0.9362
  636MPD2    C5 9418   3.470   4.692  15.433  0.3390  0.9921  0.0819
  636MPD2     H 9419   3.628   0.076  15.765 -1.3827  0.0677  0.2824
  636MPD2    H1 9420   3.654   4.586  15.408  0.3320  0.3000 -1.6491
  636MPD2    H2 9421   3.313   0.089  15.472 -0.5774 -1.6151  0.3223
  636MPD2    H3 9422   3.427   4.669  15.336 -0.3975 -1.0280  0.8753
  636MPD2     N 9423   3.769   4.620  15.643  0.6235  0.7385  0.2446
  636MPD2    H5 9424   3.801   4.674  15.722  0.3949  0.8719  0.2449
  636MPD2    N1 9425   3.403   0.192  15.726 -0.2908 -0.5512  0.2546
  636MPD2    H7 9426   3.456   0.234  15.802  0.0180 -0.2913 -0.1077
  637TMC3    C1 9427   3.984   4.563  15.653 -0.6250  0.2986 -0.0848
  637TMC3    C2 9428   3.959   4.612  15.785 -0.4298 -0.0694 -1.2713
  637TMC3    C3 9429   4.041   4.716  15.824 -0.4998 -0.3345  0.3472
  637TMC3    C4 9430   4.079   4.609  15.568 -0.2833  0.4471  0.2766
  637TMC3    C5 9431   4.138   4.721  15.613 -0.0718  1.1941 -0.1779
  637TMC3    C6 9432   4.136   0.041  15.745 -0.2416  0.2097  0.4293
  637TMC3     C 9433   3.863   4.544  15.581  0.1341  0.2331  0.0586
  637TMC3     O 9434   3.856   4.483  15.475 -0.2417 -0.5668 -0.2081
  637TMC3     H 9435   3.892   4.576  15.862 -0.4106 -0.3575 -1.3906
  637TMC3    H1 9436   4.073   4.577  15.464 -1.5616 -2.0814  1.1190
  637TMC3    H2 9437   4.200   0.122  15.776  0.4572 -1.0917  2.3217
  637TMC3    C7 9438   4.129   0.119  15.526 -0.0425 -0.9315 -0.3259
  637TMC3    C8 9439   3.957   0.097  15.884 -0.4651  0.3065  0.4267
  637TMC3    O1 9440   4.144   0.223  15.585  0.2331 -0.2670 -0.1250
  637TMC3    O2 9441   3.836   0.083  15.861 -0.8155  0.3218  0.7597
  638MPD2     C 9442   3.083   3.417  14.697 -0.2826  0.0161 -0.7244
  638MPD2    C1 9443   3.029   3.317  14.626  0.7583  0.1732  0.5224
  638MPD2    C2 9444   2.975   3.210  14.689  0.0915 -0.6751 -1.0277
  638MPD2    C3 9445   2.959   3.204  14.830 -0.4312 -0.5264  0.5093
  638MPD2    C4 9446   3.007   3.312  14.897 -0.2295  0.1268  0.9929
  638MPD2    C5 9447   3.073   3.414  14.834 -0.4033 -0.5958 -0.2843
  638MPD2     H 9448   2.957   3.120  14.632 -0.5237 -1.1260 -0.1179
  638MPD2    H1 9449   2.995   3.317  15.005 -1.4493  2.0537  0.7612
  638MPD2    H2 9450   3.135   3.501  14.653 -0.7431 -0.4108 -2.0849
  638MPD2    H3 9451   3.101   3.501  14.892  0.9428 -0.9291 -0.4314
  638MPD2     N 9452   2.912   3.085  14.892  0.1158 -0.9230  0.3184
  638MPD2    H5 9453   2.870   3.016  14.829  2.8502 -1.6759 -0.6497
  638MPD2    N1 9454   3.050   3.323  14.492  0.5590 -0.7029 -0.2013
  638MPD2    H7 9455   3.123   3.391  14.474 -0.9281  0.7912 -0.6593
  639TMC3    C1 9456   2.896   2.917  15.057  0.4127  0.5304 -0.1440
  639TMC3    C2 9457   2.803   2.839  14.994  0.1176 -0.3970  0.3771
  639TMC3    C3 9458   2.812   2.701  15.002 -0.1924  0.5798 -0.0226
  639TMC3    C4 9459   3.010   2.855  15.114  0.5285  0.1266  0.0734
  639TMC3    C5 9460   3.016   2.717  15.111  0.2009  0.5199 -0.0167
  639TMC3    C6 9461   2.917   2.634  15.058 -0.2682  1.0539  0.1460
  639TMC3     C 9462   2.908   3.060  15.031 -0.1932  0.0206  0.5036
  639TMC3     O 9463   2.960   3.127  15.118  0.7670  1.2011  0.2633
  639TMC3     H 9464   2.716   2.893  14.960 -1.2566 -1.4995  2.1793
  639TMC3    H1 9465   3.095   2.919  15.137 -1.5531  1.9973  2.5548
  639TMC3    H2 9466   2.929   2.528  15.039  1.5507  1.2463  0.2291
  639TMC3    C7 9467   3.141   2.648  15.134  0.3092 -0.3873 -0.2517
  639TMC3    C8 9468   2.728   2.624  14.921 -0.0655  0.0683 -0.5583
  639TMC3    O1 9469   3.139   2.540  15.193  0.0127  0.3327 -0.3111
  639TMC3    O2 9470   2.781   2.547  14.840  0.1659 -0.1530  0.1313
  640MPD2     C 9471   3.685   1.508   9.992 -0.2240 -0.7455 -0.0325
  640MPD2    C1 9472   3.690   1.591   9.879  0.0475  0.2243  0.0235
  640MPD2    C2 9473   3.641   1.723   9.892 -0.5084  0.1101 -0.3333
  640MPD2    C3 9474   3.589   1.771  10.013  1.0772  0.0698 -0.1833
  640MPD2    C4 9475   3.584   1.686  10.114  0.6623 -0.5141  0.0857
  640MPD2    C5 9476   3.642   1.562  10.104 -0.1571  0.0686  0.5478
  640MPD2     H 9477   3.636   1.777   9.799  2.1863 -1.1901 -1.2536
  640MPD2    H1 9478   3.538   1.706  10.210 -0.4549 -1.7068 -0.1981
  640MPD2    H2 9479   3.722   1.407  10.006  1.6565 -0.5839 -3.7492
  640MPD2    H3 9480   3.627   1.482  10.177 -0.8855 -1.2428 -1.0454
  640MPD2     N 9481   3.540   1.903  10.022  0.0198  0.1977  0.2204
  640MPD2    H5 9482   3.493   1.935  10.106 -0.4160  1.7943 -0.6336
  640MPD2    N1 9483   3.727   1.528   9.761  0.1023 -0.4095 -0.6236
  640MPD2    H7 9484   3.750   1.429   9.761 -2.8842 -1.0879  1.1466
  641TMC3    C1 9485   3.738   1.483   9.528 -0.3947 -0.0820  0.1978
  641TMC3    C2 9486   3.832   1.381   9.534  0.3024 -0.0547 -0.0396
  641TMC3    C3 9487   3.824   1.303   9.425  0.0975 -0.3622  0.4427
  641TMC3    C4 9488   3.667   1.518   9.424  0.7863  0.2062  0.0782
  641TMC3    C5 9489   3.681   1.444   9.310  0.4704  0.0046 -0.3699
  641TMC3    C6 9490   3.750   1.327   9.312 -0.2296  0.4087 -0.5654
  641TMC3     C 9491   3.721   1.578   9.638 -0.3410 -0.6274 -0.0898
  641TMC3     O 9492   3.687   1.688   9.596  0.2203  1.2429 -0.3820
  641TMC3     H 9493   3.895   1.371   9.621 -1.5555  0.2580  1.3391
  641TMC3    H1 9494   3.598   1.601   9.417  2.1632  0.9524 -4.7029
  641TMC3    H2 9495   3.754   1.266   9.222  1.7174  0.3056 -0.4158
  641TMC3    C7 9496   3.635   1.492   9.183  0.1600 -0.1582 -0.2035
  641TMC3    C8 9497   3.904   1.187   9.428  0.5683  0.4045 -0.3635
  641TMC3    O1 9498   3.552   1.581   9.188 -0.0181 -0.4811  0.0851
  641TMC3    O2 9499   3.946   1.149   9.320  0.0188 -0.2013  0.2411
  642TMC3    C1 9500   4.704   2.986  12.050  0.6094 -0.1697 -0.2117
  642TMC3    C2 9501   0.109   2.986  12.092 -0.0473  0.0055  0.3639
  642TMC3    C3 9502   0.175   2.873  12.116  0.1338  0.2408  0.3847
  642TMC3    C4 9503   4.653   2.868  12.003 -0.0869  0.0314  0.5638
  642TMC3    C5 9504   4.718   2.757  12.036  0.5044  0.2975 -0.2203
  642TMC3    C6 9505   0.119   2.749  12.081 -0.0705  0.3329 -0.1398
  642TMC3     C 9506   4.613   3.097  12.035  1.2512 -0.0866  0.0296
  642TMC3     O 9507   4.497   3.071  12.018 -0.5069  0.1522  0.4051
  642TMC3     H 9508   0.160   3.074  12.131  1.8392  0.0809 -2.2618
  642TMC3    H1 9509   4.551   2.863  11.966  0.8752  0.6271 -2.1162
  642TMC3    H2 9510   0.180   2.664  12.110 -1.2570  0.6693  3.3135
  642TMC3    C7 9511   4.632   2.634  12.014  0.2531 -0.1026 -0.5066
  642TMC3    C8 9512   0.307   2.879  12.179  0.2896  0.1532  0.5429
  642TMC3    O1 9513   4.566   2.636  11.910 -0.3006  0.4024  0.2230
  642TMC3    O2 9514   0.381   2.782  12.165 -0.2174  0.2022 -0.0687
  643TMC3    C1 9515   3.923   2.187  17.500  0.6886 -0.6023 -0.0428
  643TMC3    C2 9516   3.867   2.155  17.387  0.2115 -0.5119  0.0359
  643TMC3    C3 9517   3.937   2.155  17.276 -0.2561 -0.5028  0.2870
  643TMC3    C4 9518   4.060   2.189  17.512 -0.0714  0.0005  0.0594
  643TMC3    C5 9519   4.131   2.165  17.399  0.1960  0.6800 -0.0686
  643TMC3    C6 9520   4.070   2.140  17.281  0.6813  0.4229  0.1730
  643TMC3     C 9521   3.850   2.272  17.586 -0.2902 -0.1745  0.0372
  643TMC3     O 9522   3.733   2.293  17.549  0.1758 -0.2380  0.3222
  643TMC3     H 9523   3.759   2.138  17.382  0.5249 -2.1858 -1.2179
  643TMC3    H1 9524   4.120   2.200  17.601  0.5456 -1.8035 -0.1259
  643TMC3    H2 9525   4.124   2.161  17.189  0.2576  2.6503  0.4427
  643TMC3    C7 9526   4.239   2.255  17.383  0.2889 -0.0975 -0.7654
  643TMC3    C8 9527   3.890   2.259  17.180  0.0954 -0.6559  0.0808
  643TMC3    O1 9528   4.224   2.364  17.432 -0.0906 -0.4902 -0.2778
  643TMC3    O2 9529   3.961   2.276  17.082 -0.6958  0.3269 -0.1864
  644MPD2     C 9530   3.352   1.814   9.263 -0.2727  0.5570  0.4990
  644MPD2    C1 9531   3.419   1.915   9.195  0.4231 -0.3163  0.0738
  644MPD2    C2 9532   3.355   2.034   9.182  0.7379 -0.0719 -0.3107
  644MPD2    C3 9533   3.244   2.067   9.254 -0.3462  0.3908 -0.7674
  644MPD2    C4 9534   3.183   1.969   9.329  0.1415  0.2294 -0.1087
  644MPD2    C5 9535   3.233   1.839   9.332  0.0509 -0.5721  0.5665
  644MPD2     H 9536   3.408   2.101   9.115  0.1277  1.1387  0.3961
  644MPD2    H1 9537   3.091   1.975   9.385  0.3922  2.5362  0.0666
  644MPD2    H2 9538   3.402   1.718   9.266  1.4827  1.4938  1.4571
  644MPD2    H3 9539   3.176   1.762   9.383  0.1380 -0.2091  1.2215
  644MPD2     N 9540   3.193   2.199   9.255 -0.4031 -0.3502 -0.0768
  644MPD2    H5 9541   3.238   2.264   9.192  1.0889 -0.1371  1.2059
  644MPD2    N1 9542   3.543   1.872   9.138  0.6763 -0.0187  0.2016
  644MPD2    H7 9543   3.561   1.775   9.161 -1.4923 -0.8168 -1.4932
  645TMC3    C1 9544   3.047   2.386   9.304  0.0597 -0.1148 -0.7106
  645TMC3    C2 9545   3.144   2.477   9.281  0.4216  0.0461  0.0979
  645TMC3    C3 9546   3.107   2.606   9.260  0.1185  0.8492 -0.3108
  645TMC3    C4 9547   2.919   2.425   9.328  0.2898 -0.1159 -0.1973
  645TMC3    C5 9548   2.879   2.557   9.305 -0.2363 -0.2343  0.1485
  645TMC3    C6 9549   2.973   2.648   9.268  0.6271  0.3357 -0.2337
  645TMC3     C 9550   3.081   2.243   9.318  0.9781 -0.0238 -0.1250
  645TMC3     O 9551   3.011   2.183   9.397 -0.1263 -0.0852 -0.5469
  645TMC3     H 9552   3.249   2.451   9.275  0.2174 -0.4535 -1.3729
  645TMC3    H1 9553   2.853   2.345   9.360  2.6495 -1.8703  0.2744
  645TMC3    H2 9554   2.950   2.754   9.277 -0.2273  0.0174  1.1965
  645TMC3    C7 9555   2.738   2.602   9.316  0.5587 -0.6009 -0.1337
  645TMC3    C8 9556   3.207   2.700   9.226 -0.2293 -0.1489  0.2306
  645TMC3    O1 9557   2.710   2.720   9.309 -0.5255  0.2516 -0.0308
  645TMC3    O2 9558   3.323   2.676   9.266  0.0052 -0.4126 -1.1708
  646MPD2     C 9559   3.176   2.014  14.064 -0.3612 -0.7578  0.3040
  646MPD2    C1 9560   3.130   1.983  14.186  0.2150 -0.3636  0.3769
  646MPD2    C2 9561   3.000   2.013  14.213  0.0696  0.2525 -0.4486
  646MPD2    C3 9562   2.924   2.092  14.127 -0.1561 -0.4714  0.0519
  646MPD2    C4 9563   2.974   2.125  14.001  0.1075  0.2075  0.3964
  646MPD2    C5 9564   3.101   2.087  13.973  0.0183  0.6559  0.0154
  646MPD2     H 9565   2.957   1.991  14.310 -1.6744 -0.1699 -1.3214
  646MPD2    H1 9566   2.925   2.178  13.920 -0.3646  1.3857  1.4477
  646MPD2    H2 9567   3.276   1.987  14.035 -0.8275  0.2514 -2.2347
  646MPD2    H3 9568   3.143   2.119  13.878 -1.7640  1.3391 -0.5308
  646MPD2     N 9569   2.790   2.134  14.150 -0.1926  0.1162 -0.2920
  646MPD2    H5 9570   2.751   2.197  14.080  2.9223  0.3253 -1.8408
  646MPD2    N1 9571   3.220   1.915  14.272 -0.3102  0.0206  0.1523
  646MPD2    H7 9572   3.312   1.886  14.242 -0.5197 -0.3807 -0.0973
  647TMC3    C1 9573   3.292   1.801  14.468 -0.3620  0.7153 -0.1339
  647TMC3    C2 9574   3.250   1.732  14.578 -0.3830 -0.2234 -0.2636
  647TMC3    C3 9575   3.337   1.637  14.623 -0.4989 -0.4213  0.4395
  647TMC3    C4 9576   3.418   1.798  14.414  0.6645  0.1911  0.2267
  647TMC3    C5 9577   3.506   1.709  14.476 -0.5159  0.1379  0.7249
  647TMC3    C6 9578   3.462   1.632  14.578 -0.5055 -0.6749 -0.4114
  647TMC3     C 9579   3.188   1.882  14.401 -0.0631  0.5014  0.1307
  647TMC3     O 9580   3.091   1.907  14.471  0.5933  0.3840  0.1926
  647TMC3     H 9581   3.147   1.734  14.610  0.0541 -1.0152  1.2044
  647TMC3    H1 9582   3.446   1.858  14.328  0.0193  1.0741  0.6344
  647TMC3    H2 9583   3.517   1.543  14.606 -2.0971 -1.7470 -0.6799
  647TMC3    C7 9584   3.642   1.716  14.436  0.3639  0.3129  0.4055
  647TMC3    C8 9585   3.283   1.521  14.691  0.0988 -0.2309 -0.4509
  647TMC3    O1 9586   3.658   1.762  14.325  0.3418 -0.3887  0.0416
  647TMC3    O2 9587   3.366   1.448  14.745  0.0923 -0.1411  0.1086
  648TMC3    C1 9588   2.312   4.299  15.855  0.5532  0.5265 -0.2082
  648TMC3    C2 9589   2.342   4.175  15.798  0.5175  0.1833 -0.5275
  648TMC3    C3 9590   2.325   4.163  15.664  0.4850 -0.4161 -0.1076
  648TMC3    C4 9591   2.270   4.402  15.779  0.3165 -0.3422 -0.1627
  648TMC3    C5 9592   2.252   4.385  15.643 -0.2569  0.0798  0.0007
  648TMC3    C6 9593   2.275   4.266  15.582 -0.4333 -0.0414 -0.4510
  648TMC3     C 9594   2.317   4.317  15.997  0.1278  0.1034  0.5118
  648TMC3     O 9595   2.278   4.431  16.028  0.1487  0.0622  0.4548
  648TMC3     H 9596   2.361   4.087  15.859  1.4622 -1.0693 -2.6455
  648TMC3    H1 9597   2.270   4.504  15.816 -3.4938 -0.3601 -0.1802
  648TMC3    H2 9598   2.226   4.247  15.487  1.9786 -0.2781 -1.6354
  648TMC3    C7 9599   2.214   4.498  15.564 -0.2872 -0.9492  0.1751
  648TMC3    C8 9600   2.325   4.027  15.612  0.2619  0.2606 -0.2859
  648TMC3    O1 9601   2.288   4.519  15.466  0.3043 -0.0258  0.0897
  648TMC3    O2 9602   2.233   3.948  15.639  0.5053 -0.2292 -0.3462
  649TMC3    C1 9603   1.537   0.560  12.418  0.2491  0.0867 -0.0904
  649TMC3    C2 9604   1.578   0.685  12.469  0.4602 -0.8757  0.9222
  649TMC3    C3 9605   1.544   0.712  12.602 -0.7135 -0.4737 -0.5915
  649TMC3    C4 9606   1.467   0.477  12.494 -0.2215  0.0979  0.1520
  649TMC3    C5 9607   1.435   0.513  12.623  0.8710 -0.7071 -0.5660
  649TMC3    C6 9608   1.481   0.627  12.685  0.0137 -0.1127  0.4029
  649TMC3     C 9609   1.493   0.572  12.279  0.5762  0.0843 -0.2396
  649TMC3     O 9610   1.383   0.525  12.271 -0.7956  0.4039 -0.1499
  649TMC3     H 9611   1.645   0.745  12.409  0.0981 -0.6754  0.7172
  649TMC3    H1 9612   1.443   0.378  12.455 -1.2708 -0.6911  2.8055
  649TMC3    H2 9613   1.456   0.643  12.789 -2.4387  1.1721 -0.3695
  649TMC3    C7 9614   1.377   0.423  12.718 -0.4917 -0.9006  1.0837
  649TMC3    C8 9615   1.547   0.850  12.652  0.2293  0.2511 -0.1924
  649TMC3    O1 9616   1.419   0.424  12.834  0.2594 -0.0142  0.5818
  649TMC3    O2 9617   1.620   0.922  12.587  0.3327 -0.2160 -0.9874
  650TMC3    C1 9618   4.352   2.274  12.414  0.2185  0.1527  0.0658
  650TMC3    C2 9619   4.350   2.413  12.417  0.2803 -0.6898 -0.1346
  650TMC3    C3 9620   4.260   2.474  12.332 -0.1397 -0.2123 -0.5211
  650TMC3    C4 9621   4.261   2.197  12.330 -0.4310  0.1392 -0.1380
  650TMC3    C5 9622   4.188   2.263  12.233 -0.5345 -0.3630  0.4046
  650TMC3    C6 9623   4.191   2.403  12.236 -0.6178  0.8259  0.0678
  650TMC3     C 9624   4.433   2.204  12.514 -0.3703 -0.2226  0.8340
  650TMC3     O 9625   4.498   2.281  12.583  0.2650 -0.0853  0.0994
  650TMC3     H 9626   4.412   2.469  12.486  0.5703  1.8135 -2.4671
  650TMC3    H1 9627   4.266   2.089  12.334 -0.2436  0.1539  0.0058
  650TMC3    H2 9628   4.120   2.451  12.170 -0.0139  1.4229 -0.1411
  650TMC3    C7 9629   4.051   2.212  12.254  0.0345  0.5212 -0.2664
  650TMC3    C8 9630   4.194   2.592  12.387  0.7190 -0.1648 -0.2259
  650TMC3    O1 9631   4.040   2.111  12.323  0.2456  0.2640 -0.0697
  650TMC3    O2 9632   4.260   2.680  12.442 -0.0259 -0.4103 -0.5337
  651MPD2     C 9633   3.006   3.429  10.752  0.1479  0.5989 -0.1206
  651MPD2    C1 9634   2.988   3.563  10.738  0.4720  0.1972  0.6792
  651MPD2    C2 9635   3.079   3.642  10.663 -0.0737  0.0982 -0.5955
  651MPD2    C3 9636   3.201   3.601  10.624 -0.1000  0.0849 -0.0915
  651MPD2    C4 9637   3.217   3.461  10.644  0.7105  0.6436  0.0941
  651MPD2    C5 9638   3.123   3.379  10.706  0.2344 -0.0432 -0.5092
  651MPD2     H 9639   3.049   3.746  10.668 -2.6042 -0.6511 -0.2554
  651MPD2    H1 9640   3.297   3.402  10.602 -0.8856 -0.2697 -1.7152
  651MPD2    H2 9641   2.932   3.358  10.787 -0.7246  0.3177 -2.5210
  651MPD2    H3 9642   3.140   3.272  10.711 -0.9931 -0.2319 -0.3484
  651MPD2     N 9643   3.292   3.687  10.565 -0.7218 -0.0945  0.2242
  651MPD2    H5 9644   3.259   3.781  10.547  1.7201  0.7099 -0.0517
  651MPD2    N1 9645   2.880   3.626  10.798  0.5148 -0.2571 -0.4392
  651MPD2    H7 9646   2.858   3.723  10.777  0.8258  0.0524  0.6498
  652TMC3    C1 9647   3.639   3.914  10.358  0.2145 -0.5658  0.5024
  652TMC3    C2 9648   3.593   3.796  10.420 -0.6956 -0.4888 -0.0672
  652TMC3    C3 9649   3.461   3.782  10.443  0.5038  0.2394 -0.7996
  652TMC3    C4 9650   3.556   4.009  10.313  0.3158 -0.2202  0.0973
  652TMC3    C5 9651   3.429   4.000  10.344 -0.5842  0.1578 -0.5373
  652TMC3    C6 9652   3.385   3.884  10.402  0.2721  0.3103 -0.2801
  652TMC3     C 9653   3.783   3.940  10.352 -0.5100 -0.5244  0.3806
  652TMC3     O 9654   3.851   3.859  10.416 -0.5803 -0.6834  0.5035
  652TMC3     H 9655   3.655   3.711  10.446 -0.6147 -0.0508  1.2004
  652TMC3    H1 9656   3.597   4.092  10.256  0.2547 -0.5751 -0.4629
  652TMC3    H2 9657   3.279   3.882  10.426  0.5817  0.8939  1.1400
  652TMC3    C7 9658   3.372   4.113  10.399 -0.0740 -0.3449 -0.4050
  652TMC3    C8 9659   3.415   3.661  10.511 -0.2930  0.7628 -0.1924
  652TMC3    O1 9660   3.256   4.108  10.431 -0.3187  0.1944 -0.1115
  652TMC3    O2 9661   3.492   3.568  10.532  0.3055  0.3391 -0.0374
  653MPD2     C 9662   1.576   4.495  17.567 -0.0754 -0.1484  0.1427
  653MPD2    C1 9663   1.579   4.576  17.460  0.0170 -0.0084 -0.0199
  653MPD2    C2 9664   1.560   4.524  17.335  0.0983  0.8982 -0.1859
  653MPD2    C3 9665   1.539   4.388  17.321 -0.3427  0.2603  1.6668
  653MPD2    C4 9666   1.532   4.302  17.433  0.8958 -0.0821  0.5408
  653MPD2    C5 9667   1.547   4.364  17.557 -0.1229  0.0281 -0.4724
  653MPD2     H 9668   1.553   4.592  17.251  0.2380  1.1359 -0.0053
  653MPD2    H1 9669   1.514   4.196  17.420 -0.6655  0.3739 -0.9146
  653MPD2    H2 9670   1.559   4.527  17.670 -1.1467 -2.7085  0.7590
  653MPD2    H3 9671   1.536   4.309  17.650 -1.2011 -1.3268 -1.3806
  653MPD2     N 9672   1.492   4.340  17.193 -0.0215  0.0810 -0.1951
  653MPD2    H5 9673   1.488   4.401  17.112  4.1344 -0.2146 -0.6072
  653MPD2    N1 9674   1.578   4.718  17.474 -0.1680 -0.5082  0.2038
  653MPD2    H7 9675   1.559   0.046  17.390  1.5886 -0.8020 -0.3779
  654TMC3    C1 9676   1.413   4.199  17.016  0.0432  0.3170 -0.4935
  654TMC3    C2 9677   1.335   4.307  16.971  0.4030  0.3819 -0.2065
  654TMC3    C3 9678   1.255   4.287  16.864  0.5574  0.7629 -0.2416
  654TMC3    C4 9679   1.409   4.080  16.949  0.0047  0.5450  0.1400
  654TMC3    C5 9680   1.336   4.069  16.836 -0.3715  0.2392  0.6911
  654TMC3    C6 9681   1.260   4.169  16.793  0.4198  0.9604  0.2199
  654TMC3     C 9682   1.476   4.208  17.149 -0.1221  0.3959 -0.1853
  654TMC3     O 9683   1.497   4.102  17.204 -0.1057  0.1339 -0.4342
  654TMC3     H 9684   1.337   4.405  17.017 -2.2219  0.1005  0.5533
  654TMC3    H1 9685   1.482   4.006  16.982  0.6136  0.8996 -0.4180
  654TMC3    H2 9686   1.204   4.166  16.701 -2.6069  3.1400  2.0015
  654TMC3    C7 9687   1.350   3.960  16.746  0.4234  0.1282 -0.4413
  654TMC3    C8 9688   1.145   4.382  16.842 -0.5403 -0.2252  0.5446
  654TMC3    O1 9689   1.328   3.985  16.630  0.0627 -0.2473  0.5127
  654TMC3    O2 9690   1.156   4.490  16.889  0.3401 -0.1511 -0.2677
  655MPD2     C 9691   2.929   4.704  15.379 -0.3350 -0.0692  0.3539
  655MPD2    C1 9692   2.802   0.002  15.346 -0.1849  0.1145  0.0913
  655MPD2    C2 9693   2.744   4.657  15.238 -0.0049  0.6027  0.0976
  655MPD2    C3 9694   2.813   4.557  15.171  0.1423  0.5563  0.3894
  655MPD2    C4 9695   2.949   4.543  15.202 -0.3886  0.4259  0.1181
  655MPD2    C5 9696   3.000   4.615  15.307 -0.3815 -0.0067 -0.3935
  655MPD2     H 9697   2.640   4.677  15.216 -0.0926 -0.3387 -0.3394
  655MPD2    H1 9698   3.020   4.478  15.152  0.0348  0.4816  0.6436
  655MPD2    H2 9699   2.984   0.024  15.461 -1.3031 -1.3383  1.7101
  655MPD2    H3 9700   3.106   4.608  15.329 -0.1927  0.4909 -1.1158
  655MPD2     N 9701   2.749   4.478  15.075  0.2982  0.0179 -0.1910
  655MPD2    H5 9702   2.805   4.409  15.026 -1.5789 -1.6949  0.0499
  655MPD2    N1 9703   2.708   0.092  15.413 -0.1795  0.2268 -1.1757
  655MPD2    H7 9704   2.612   0.097  15.382 -0.3946 -0.9970 -0.6929
  656TMC3    C1 9705   2.634   0.216  15.592  0.5845  0.4119 -0.7860
  656TMC3    C2 9706   2.562   0.137  15.681 -0.4115 -0.1985  0.2988
  656TMC3    C3 9707   2.426   0.161  15.688  0.4163 -0.9043  0.7432
  656TMC3    C4 9708   2.567   0.310  15.518  0.2242  0.5721  0.2906
  656TMC3    C5 9709   2.439   0.334  15.538 -0.0828 -0.0372 -0.6128
  656TMC3    C6 9710   2.360   0.265  15.629  0.3176 -0.3826  0.1116
  656TMC3     C 9711   2.744   0.153  15.529  0.0059 -0.1307  0.5058
  656TMC3     O 9712   2.842   0.144  15.603  0.6778 -0.3470 -0.6888
  656TMC3     H 9713   2.595   0.049  15.735 -1.7992 -0.1007  1.3023
  656TMC3    H1 9714   2.620   0.368  15.443 -1.2248 -0.0222 -1.1934
  656TMC3    H2 9715   2.253   0.276  15.611  0.5052  2.9649  1.0092
  656TMC3    C7 9716   2.377   0.401  15.423  0.0502  0.9249 -0.3339
  656TMC3    C8 9717   2.344   0.082  15.781  0.3200  0.1924 -0.4614
  656TMC3    O1 9718   2.429   0.392  15.311 -0.1724  0.0288 -0.2355
  656TMC3    O2 9719   2.371   4.695  15.817 -0.1859 -0.2098  0.3014
  657TMC3    C1 9720   2.164   3.534  14.063 -0.1857  0.1152  0.1037
  657TMC3    C2 9721   2.155   3.403  14.102  0.2337  0.4521 -0.0818
  657TMC3    C3 9722   2.039   3.370  14.161  0.7223  0.8506 -0.0547
  657TMC3    C4 9723   2.056   3.619  14.079  0.1446  0.4272  0.5121
  657TMC3    C5 9724   1.941   3.576  14.141 -0.2914 -0.0849  0.3115
  657TMC3    C6 9725   1.936   3.455  14.192  0.3303  0.3099  0.3050
  657TMC3     C 9726   2.298   3.597  14.057  0.2630  0.1833 -0.0046
  657TMC3     O 9727   2.301   3.688  13.974  0.7068 -0.0578  0.4270
  657TMC3     H 9728   2.234   3.330  14.089  0.4878  0.1251  3.3704
  657TMC3    H1 9729   2.057   3.722  14.044  0.1297 -0.0196 -0.7948
  657TMC3    H2 9730   1.841   3.420  14.230  0.2409  0.0602 -0.1535
  657TMC3    C7 9731   1.838   3.671  14.194 -0.2431  0.3352  0.5746
  657TMC3    C8 9732   2.037   3.241  14.227 -0.2875  0.3671 -0.3914
  657TMC3    O1 9733   1.799   3.649  14.307 -0.9784 -0.6412 -0.2829
  657TMC3    O2 9734   2.105   3.146  14.182 -0.0291 -0.5950 -0.0717
  658MPD2     C 9735   3.115   4.256  14.584 -0.0961  0.1278 -0.6449
  658MPD2    C1 9736   2.990   4.289  14.543 -0.0256 -0.2162  0.3087
  658MPD2    C2 9737   2.971   4.313  14.409 -0.5200  0.0617 -0.5392
  658MPD2    C3 9738   3.080   4.319  14.322  0.4360 -0.0206 -0.5993
  658MPD2    C4 9739   3.204   4.282  14.372 -0.3255 -0.8698  0.4550
  658MPD2    C5 9740   3.216   4.240  14.498 -0.0994  0.5660  0.2732
  658MPD2     H 9741   2.872   4.339  14.374 -0.5451  0.3833 -0.2225
  658MPD2    H1 9742   3.293   4.277  14.311 -0.0937 -0.5715  0.7641
  658MPD2    H2 9743   3.132   4.232  14.688  0.1670 -0.3046 -0.7912
  658MPD2    H3 9744   3.312   4.212  14.540 -0.3567 -0.8354 -0.0979
  658MPD2     N 9745   3.052   4.340  14.183 -0.1699  0.0902  0.0596
  658MPD2    H5 9746   2.957   4.361  14.156  0.3372  0.4417 -1.4310
  658MPD2    N1 9747   2.885   4.299  14.635 -0.1089 -0.2481 -0.4818
  658MPD2    H7 9748   2.918   4.293  14.731 -0.6307 -1.0196 -0.3524
  659TMC3    C1 9749   2.653   4.311  14.718 -0.3283  0.3676 -0.0182
  659TMC3    C2 9750   2.689   4.378  14.831 -0.2511 -0.3943 -0.3683
  659TMC3    C3 9751   2.597   4.382  14.932  0.3118 -0.0875  0.3509
  659TMC3    C4 9752   2.534   4.247  14.704  0.0634 -0.1478  0.2119
  659TMC3    C5 9753   2.438   4.265  14.800 -0.3862 -0.5475  0.3367
  659TMC3    C6 9754   2.468   4.334  14.913 -0.0539  0.7045 -0.5482
  659TMC3     C 9755   2.750   4.307  14.607  0.1475  0.0962  0.0051
  659TMC3     O 9756   2.696   4.279  14.505  0.3958  0.4247  0.3669
  659TMC3     H 9757   2.787   4.422  14.841 -0.1238 -0.3451 -1.8376
  659TMC3    H1 9758   2.517   4.194  14.612 -0.4065  0.1588  0.1194
  659TMC3    H2 9759   2.408   4.332  15.003  0.1253 -0.2589 -0.4502
  659TMC3    C7 9760   2.305   4.202  14.799  0.6743 -0.4686 -0.1539
  659TMC3    C8 9761   2.618   4.472  15.045  0.1878 -0.0113  0.2012
  659TMC3    O1 9762   2.228   4.252  14.880  0.1124 -0.1177 -0.2478
  659TMC3    O2 9763   2.519   4.522  15.102 -0.0997 -0.3822 -0.2111
  660MPD2     C 9764   1.240   2.509  12.375  0.4014 -0.2942  0.4012
  660MPD2    C1 9765   1.132   2.595  12.382 -0.1020 -0.1717 -0.0041
  660MPD2    C2 9766   1.043   2.594  12.484  0.1842  0.7250  0.3285
  660MPD2    C3 9767   1.051   2.502  12.589 -0.3115  0.5602 -0.1273
  660MPD2    C4 9768   1.165   2.414  12.586 -0.4187 -0.3839  0.4676
  660MPD2    C5 9769   1.256   2.421  12.482  0.7435  0.6642 -0.5186
  660MPD2     H 9770   0.977   2.678  12.504 -1.5309 -1.0862  2.2660
  660MPD2    H1 9771   1.206   2.351  12.664  0.1570 -1.4992 -0.7399
  660MPD2    H2 9772   1.312   2.524  12.296  1.1388  1.2042  1.3550
  660MPD2    H3 9773   1.335   2.347  12.486  0.3993  0.3957  1.2554
  660MPD2     N 9774   0.970   2.507  12.705 -0.5717 -0.2091 -0.4972
  660MPD2    H5 9775   0.995   2.452  12.787  0.5255 -0.2665 -0.8707
  660MPD2    N1 9776   1.130   2.688  12.269 -0.1154 -0.8248 -0.0671
  660MPD2    H7 9777   1.209   2.686  12.205  0.1780  0.7469  0.2648
  661TMC3    C1 9778   1.039   2.843  12.117 -0.0330  0.1000  0.1513
  661TMC3    C2 9779   1.167   2.896  12.103  1.0932 -0.0817  0.8718
  661TMC3    C3 9780   1.179   3.034  12.078 -0.3686  0.2427 -0.1447
  661TMC3    C4 9781   0.936   2.924  12.114  0.0861  0.5565  0.8642
  661TMC3    C5 9782   0.958   3.057  12.099 -1.0829 -0.5588 -0.3372
  661TMC3    C6 9783   1.077   3.117  12.078  0.3108 -1.2895 -0.1426
  661TMC3     C 9784   1.017   2.749  12.222  1.8385  0.1970 -0.2849
  661TMC3     O 9785   0.903   2.732  12.261 -0.0119 -0.1233  0.1461
  661TMC3     H 9786   1.258   2.837  12.104  0.6043 -0.8502 -0.0494
  661TMC3    H1 9787   0.837   2.879  12.118 -0.8174  2.5249  0.5558
  661TMC3    H2 9788   1.082   3.223  12.057  2.7969 -1.7614 -1.9049
  661TMC3    C7 9789   0.846   3.137  12.065  0.2640  0.1910 -0.7391
  661TMC3    C8 9790   1.298   3.088  12.036 -0.6792  0.0500 -0.6127
  661TMC3    O1 9791   0.843   3.261  12.085  0.2516  0.2666  0.4042
  661TMC3    O2 9792   1.336   3.196  12.073  0.8836  0.3578 -0.9105
  662MPD2     C 9793   1.394   2.957  17.357 -0.1969 -0.2694 -0.4766
  662MPD2    C1 9794   1.333   3.013  17.242 -0.0720 -0.1021 -0.1215
  662MPD2    C2 9795   1.241   3.119  17.254 -0.5471  0.1704  0.0912
  662MPD2    C3 9796   1.211   3.178  17.380 -0.4761 -0.1962 -0.0195
  662MPD2    C4 9797   1.275   3.119  17.494 -0.2474  0.4645 -0.1662
  662MPD2    C5 9798   1.370   3.016  17.478 -0.6667 -0.3261  0.3963
  662MPD2     H 9799   1.201   3.155  17.160  2.5745 -0.3955 -1.4835
  662MPD2    H1 9800   1.254   3.162  17.591  1.2464  1.2300 -0.1920
  662MPD2    H2 9801   1.455   2.866  17.353 -0.4745 -0.6118  2.6881
  662MPD2    H3 9802   1.420   2.982  17.568  1.3696 -2.8818 -1.7205
  662MPD2     N 9803   1.121   3.286  17.398 -0.3191  0.2077 -0.8832
  662MPD2    H5 9804   1.129   3.347  17.479  2.0308  0.6955 -1.4799
  662MPD2    N1 9805   1.362   2.965  17.111 -0.4020 -0.0169  0.0573
  662MPD2    H7 9806   1.302   2.995  17.035 -0.2878 -2.0962 -0.8713
  663TMC3    C1 9807   1.451   2.790  16.964 -1.3642  0.2017 -0.3385
  663TMC3    C2 9808   1.328   2.769  16.902  0.6415 -0.5972  0.8197
  663TMC3    C3 9809   1.304   2.654  16.832  0.3306  0.0052 -0.2321
  663TMC3    C4 9810   1.543   2.691  16.956  0.0742  0.0155 -0.1464
  663TMC3    C5 9811   1.508   2.580  16.887  0.8136  0.2643  0.1973
  663TMC3    C6 9812   1.414   2.576  16.797  0.7968 -0.2557 -0.5200
  663TMC3     C 9813   1.468   2.881  17.078 -0.2797 -0.2726  0.8883
  663TMC3     O 9814   1.570   2.864  17.141  0.4694  0.3424 -0.3973
  663TMC3     H 9815   1.240   2.828  16.926  0.8862  1.3543 -3.1657
  663TMC3    H1 9816   1.631   2.697  17.020  0.0234 -2.1258  0.1261
  663TMC3    H2 9817   1.402   2.482  16.744 -0.1621 -0.7616  0.5868
  663TMC3    C7 9818   1.581   2.458  16.916 -0.0355 -0.0213 -0.0417
  663TMC3    C8 9819   1.215   2.568  16.904 -0.3628  0.4272 -0.5307
  663TMC3    O1 9820   1.686   2.478  16.977  0.6207 -0.2703  0.5534
  663TMC3    O2 9821   1.233   2.445  16.893 -0.2756 -0.0047 -0.1515
  664MPD2     C 9822   4.007   1.259  17.304 -0.0658  0.1089 -0.1541
  664MPD2    C1 9823   4.044   1.373  17.375 -0.5762  0.8597 -0.2953
  664MPD2    C2 9824   3.967   1.414  17.480  0.7149  0.1204 -0.5234
  664MPD2    C3 9825   3.860   1.335  17.518 -0.1324  0.3541 -1.3037
  664MPD2    C4 9826   3.820   1.224  17.441 -0.6745 -1.1149 -0.5813
  664MPD2    C5 9827   3.897   1.188  17.339  0.4031  0.3403  0.5112
  664MPD2     H 9828   3.981   1.511  17.525 -1.5551  0.6248 -0.9154
  664MPD2    H1 9829   3.733   1.169  17.474 -0.8458 -0.8699 -0.6271
  664MPD2    H2 9830   4.076   1.216  17.232  1.0025 -0.2268  1.0638
  664MPD2    H3 9831   3.878   1.095  17.288  1.3265  0.2904  0.2472
  664MPD2     N 9832   3.798   1.381  17.635 -0.6837  0.0618 -0.2132
  664MPD2    H5 9833   3.835   1.461  17.686  2.3346 -2.5208  1.6179
  664MPD2    N1 9834   4.154   1.450  17.353 -0.2420  0.6645 -0.4986
  664MPD2    H7 9835   4.162   1.547  17.383 -0.3250  0.0065  1.6652
  665TMC3    C1 9836   3.673   1.386   0.125 -0.4542  0.0476  0.3890
  665TMC3    C2 9837   3.540   1.414   0.145  0.4568  0.0231  0.2898
  665TMC3    C3 9838   3.509   1.518   0.229  0.5559  0.6148 -0.3500
  665TMC3    C4 9839   3.772   1.435   0.197  0.0756 -0.0106 -0.4777
  665TMC3    C5 9840   3.738   1.531   0.289  1.0319  0.4423  0.2653
  665TMC3    C6 9841   3.610   1.575   0.303 -0.2454  0.2314 -0.3015
  665TMC3     C 9842   3.704   1.318  17.701 -0.7055 -0.3011  0.5734
  665TMC3     O 9843   3.626   1.234  17.661  0.4147  0.2645  0.2377
  665TMC3     H 9844   3.468   1.359   0.084  1.6185 -0.2872 -0.8133
  665TMC3    H1 9845   3.874   1.404   0.175 -0.0999 -0.3930 -0.7608
  665TMC3    H2 9846   3.584   1.654   0.372  3.8625 -2.5712  4.4131
  665TMC3    C7 9847   3.846   1.605   0.360  0.5820  0.8718  0.4489
  665TMC3    C8 9848   3.376   1.554   0.256  0.6068  0.6397  0.2288
  665TMC3    O1 9849   3.951   1.600   0.304  0.7336  0.0180 -0.2593
  665TMC3    O2 9850   3.338   1.551   0.375  0.2447  0.0382 -0.4779
  666TMC3    C1 9851   3.576   0.586   9.526  0.4140  0.3827  0.3878
  666TMC3    C2 9852   3.670   0.524   9.611 -0.0276 -0.1478 -0.2501
  666TMC3    C3 9853   3.764   0.606   9.670 -0.1116  0.3305  0.5135
  666TMC3    C4 9854   3.565   0.721   9.510  0.6206  0.4661 -0.2898
  666TMC3    C5 9855   3.662   0.794   9.572  0.4516  0.4209  0.2120
  666TMC3    C6 9856   3.761   0.741   9.659 -0.3711 -0.4184 -0.1958
  666TMC3     C 9857   3.503   0.502   9.431 -0.5353 -0.3027 -0.3897
  666TMC3     O 9858   3.459   0.555   9.330 -0.3206 -0.0230  0.3228
  666TMC3     H 9859   3.670   0.421   9.644 -1.4999 -0.2243 -0.4678
  666TMC3    H1 9860   3.481   0.764   9.457 -0.0123 -0.1792  0.1794
  666TMC3    H2 9861   3.836   0.801   9.709 -1.8523  0.2849  1.1682
  666TMC3    C7 9862   3.637   0.934   9.612  0.3214  0.4029  0.8846
  666TMC3    C8 9863   3.824   0.553   9.787  0.1274  0.6096 -0.7592
  666TMC3    O1 9864   3.700   0.978   9.705 -0.4234 -0.2605 -0.6462
  666TMC3    O2 9865   3.766   0.458   9.835  0.0328  0.6284 -0.5601
  667MPD2     C 9866   4.460   0.853  14.607 -0.1696  0.4614  0.9418
  667MPD2    C1 9867   4.382   0.915  14.705 -0.3155 -0.4848 -0.8326
  667MPD2    C2 9868   4.244   0.914  14.687 -0.5974 -0.2347  0.3843
  667MPD2    C3 9869   4.186   0.858  14.572 -0.1418 -0.2019  0.9526
  667MPD2    C4 9870   4.268   0.795  14.486 -0.9523  0.2988 -0.2250
  667MPD2    C5 9871   4.399   0.788  14.504 -0.5046 -0.1946 -0.1171
  667MPD2     H 9872   4.172   0.970  14.747 -1.4514  0.7179 -1.5484
  667MPD2    H1 9873   4.236   0.751  14.392 -0.3915 -0.8227  0.1168
  667MPD2    H2 9874   4.568   0.841  14.614 -0.1852 -0.2405  0.0767
  667MPD2    H3 9875   4.464   0.742  14.430 -2.8434 -0.7060 -1.8605
  667MPD2     N 9876   4.049   0.859  14.534  0.5264  0.6798  0.0747
  667MPD2    H5 9877   4.026   0.803  14.453 -0.4495 -1.8724  2.1292
  667MPD2    N1 9878   4.424   0.975  14.822  0.1548 -0.1707 -0.6823
  667MPD2    H7 9879   4.353   1.013  14.883  2.7783 -0.3045  2.4634
  668TMC3    C1 9880   4.582   1.065  14.969 -0.0176  0.0655  0.2334
  668TMC3    C2 9881   4.676   1.167  14.988  0.2105  0.5130 -0.1832
  668TMC3    C3 9882   4.711   1.203  15.123 -0.3873 -0.0443 -0.5673
  668TMC3    C4 9883   4.518   1.005  15.072 -0.1826  0.9916 -0.5971
  668TMC3    C5 9884   4.552   1.049  15.206 -0.3531 -0.2916  0.5547
  668TMC3    C6 9885   4.647   1.145  15.228 -0.9799  0.4891 -0.9062
  668TMC3     C 9886   4.556   1.007  14.841  0.7511  0.0300  0.0714
  668TMC3     O 9887   4.647   1.011  14.757  0.0431 -0.0536 -0.2156
  668TMC3     H 9888   0.013   1.194  14.903  0.1039 -0.7240 -0.6577
  668TMC3    H1 9889   4.448   0.925  15.049  0.8827 -0.4118  1.1060
  668TMC3    H2 9890   4.658   1.170  15.333  1.7316 -1.9443 -0.6205
  668TMC3    C7 9891   4.491   0.983  15.320  0.0103  1.0516  0.0070
  668TMC3    C8 9892   0.104   1.279  15.158  0.1030 -0.0368 -0.1090
  668TMC3    O1 9893   4.460   1.069  15.402 -0.4433 -0.2944 -0.2454
  668TMC3    O2 9894   0.138   1.259  15.271  0.6622  0.1641 -0.0511
  669TMC3    C1 9895   3.089   1.212  14.289  0.1012  0.1244 -0.4795
  669TMC3    C2 9896   2.998   1.179  14.191 -0.3793  0.6724 -0.3512
  669TMC3    C3 9897   2.962   1.279  14.110 -0.3284  0.6053 -0.2200
  669TMC3    C4 9898   3.153   1.332  14.303 -0.0418  0.4730 -0.4518
  669TMC3    C5 9899   3.117   1.426  14.213 -0.5657  0.1661  0.1615
  669TMC3    C6 9900   3.013   1.407  14.122  0.3970  0.3147 -0.0400
  669TMC3     C 9901   3.063   1.131  14.405 -0.4700  0.6369 -0.0298
  669TMC3     O 9902   2.952   1.074  14.406  0.2104 -0.0469 -0.4159
  669TMC3     H 9903   2.948   1.083  14.183 -1.3960  1.2102 -0.4840
  669TMC3    H1 9904   3.237   1.341  14.370  0.6675 -0.0024 -1.2626
  669TMC3    H2 9905   2.980   1.482  14.051 -1.3158 -0.4513 -0.0636
  669TMC3    C7 9906   3.216   1.526  14.180 -0.3519  0.8138  0.4218
  669TMC3    C8 9907   2.863   1.255  14.009 -0.2012  1.1577  0.1288
  669TMC3    O1 9908   3.311   1.528  14.259  0.5635  0.1681  0.0722
  669TMC3    O2 9909   2.848   1.141  13.972  0.0990 -0.6232 -0.2738
  670MPD2     C 9910   1.432   3.836  12.910  0.9190 -0.6597 -0.5065
  670MPD2    C1 9911   1.516   3.854  13.016  0.2812  0.5689  0.3269
  670MPD2    C2 9912   1.465   3.841  13.140 -1.2513  0.5758  0.4783
  670MPD2    C3 9913   1.335   3.808  13.172 -0.7386  0.2643  0.0259
  670MPD2    C4 9914   1.249   3.800  13.068  0.1166 -0.8002 -0.1742
  670MPD2    C5 9915   1.297   3.813  12.944  0.0220 -0.1347 -0.0677
  670MPD2     H 9916   1.522   3.869  13.228 -0.4564 -0.7600  0.3927
  670MPD2    H1 9917   1.141   3.802  13.074  0.0674 -2.3854 -0.4355
  670MPD2    H2 9918   1.465   3.832  12.806 -0.5761 -1.1272 -0.9695
  670MPD2    H3 9919   1.230   3.818  12.859 -0.9672 -1.1607  0.6626
  670MPD2     N 9920   1.290   3.792  13.308  0.1999  0.0823  0.7957
  670MPD2    H5 9921   1.350   3.810  13.388 -0.0186 -0.5366  1.1001
  670MPD2    N1 9922   1.659   3.867  13.006  0.3727  0.6661  0.1698
  670MPD2    H7 9923   1.705   3.857  13.096 -0.4452 -0.1423  0.5013
  671TMC3    C1 9924   1.158   3.699  13.491 -0.1982  0.3034  0.9518
  671TMC3    C2 9925   1.267   3.639  13.546  0.0862  0.3114  0.1485
  671TMC3    C3 9926   1.243   3.573  13.665  0.0754 -0.2867  1.0316
  671TMC3    C4 9927   1.032   3.686  13.539  1.0422  0.6532  0.8246
  671TMC3    C5 9928   1.010   3.616  13.652  0.0654  0.5501  0.0735
  671TMC3    C6 9929   1.116   3.560  13.717  0.4353  0.0807  0.5063
  671TMC3     C 9930   1.168   3.754  13.358 -0.5143  0.4644 -0.7296
  671TMC3     O 9931   1.073   3.745  13.282 -0.3396  0.5963 -0.5449
  671TMC3     H 9932   1.347   3.614  13.477  0.6134  1.6834  0.2546
  671TMC3    H1 9933   0.951   3.734  13.484  0.3213 -1.7179 -0.2025
  671TMC3    H2 9934   1.089   3.491  13.796  0.7614  1.0555  1.4662
  671TMC3    C7 9935   0.886   3.530  13.645  0.8051 -0.3865 -0.6316
  671TMC3    C8 9936   1.326   3.457  13.688  0.8553 -0.1904 -0.2108
  671TMC3    O1 9937   0.861   3.482  13.537 -0.0399 -0.7417  0.1046
  671TMC3    O2 9938   1.392   3.420  13.593  0.0565 -0.0808 -0.1355
  672MPD2     C 9939   1.771   0.076   0.924 -0.0978 -0.0915  0.2823
  672MPD2    C1 9940   1.874   4.709   0.937  0.0842 -0.2327 -0.2633
  672MPD2    C2 9941   2.008   0.017   0.952  0.5022  0.3299  0.7834
  672MPD2    C3 9942   2.044   0.146   0.945  0.4175  0.3750 -0.3054
  672MPD2    C4 9943   1.945   0.242   0.931  0.0800  0.1622 -0.3619
  672MPD2    C5 9944   1.810   0.209   0.913 -0.2914  0.7257  0.2568
  672MPD2     H 9945   2.090   4.671   0.943  0.4779  0.3531  0.3761
  672MPD2    H1 9946   1.967   0.348   0.939  1.1484 -0.0500 -0.5235
  672MPD2    H2 9947   1.666   0.052   0.921 -0.8062  2.9281  0.8715
  672MPD2    H3 9948   1.730   0.281   0.927 -0.9049  0.3443 -1.1938
  672MPD2     N 9949   2.177   0.193   0.970  0.7388  0.1373 -0.0669
  672MPD2    H5 9950   2.185   0.294   0.965 -0.2592  0.2466  0.5973
  672MPD2    N1 9951   1.845   4.569   0.952  0.1944  0.0922 -0.3362
  672MPD2    H7 9952   1.924   4.506   0.961  0.2719  0.4738  1.7393
  673TMC3    C1 9953   1.737   4.367   0.904 -0.0019 -0.1596 -0.7996
  673TMC3    C2 9954   1.800   4.299   1.010  0.5881  0.7692  0.1889
  673TMC3    C3 9955   1.777   4.161   1.019 -0.2743  0.2286  0.0679
  673TMC3    C4 9956   1.651   4.311   0.813  0.0225  0.1803  0.2998
  673TMC3    C5 9957   1.636   4.171   0.831  0.3594  0.0226  0.3643
  673TMC3    C6 9958   1.702   4.092   0.928 -0.3870  0.3108  0.4806
  673TMC3     C 9959   1.725   4.513   0.919  0.2833 -0.2684 -0.3350
  673TMC3     O 9960   1.629   4.560   0.862  0.0843 -0.1782  0.3943
  673TMC3     H 9961   1.863   4.351   1.081 -0.1938  1.7213  0.1814
  673TMC3    H1 9962   1.600   4.363   0.732 -1.6630  0.0709  1.2937
  673TMC3    H2 9963   1.661   3.993   0.946 -0.2763  0.2618  0.4611
  673TMC3    C7 9964   1.537   4.101   0.748  0.0718  0.4214  0.1952
  673TMC3    C8 9965   1.840   4.082   1.123  0.9384 -0.0682  0.4952
  673TMC3    O1 9966   1.507   3.990   0.785 -0.0161 -0.1527  0.4636
  673TMC3    O2 9967   1.794   3.971   1.140 -0.4325 -0.3590 -0.4311
  674MPD2     C 9968   1.159   3.776  17.077  0.2501  0.2251 -0.4875
  674MPD2    C1 9969   1.255   3.808  17.172 -0.1971  0.4669 -0.1835
  674MPD2    C2 9970   1.255   3.934  17.222  0.2886  0.3268 -0.1567
  674MPD2    C3 9971   1.168   4.026  17.181 -0.4194  0.3413 -0.6194
  674MPD2    C4 9972   1.079   4.003  17.072 -0.3078 -0.0632 -0.5402
  674MPD2    C5 9973   1.075   3.876  17.024  0.2061 -0.0058 -0.5230
  674MPD2     H 9974   1.334   3.970  17.287  2.4989  0.0300 -2.6697
  674MPD2    H1 9975   1.006   4.073  17.034 -1.0414 -1.4766 -1.7486
  674MPD2    H2 9976   1.166   3.676  17.035 -0.7353  0.0677 -0.2818
  674MPD2    H3 9977   1.015   3.850  16.938  1.0924  0.1762 -1.1904
  674MPD2     N 9978   1.173   4.135  17.261 -0.1206  0.3705 -0.1511
  674MPD2    H5 9979   1.226   4.133  17.347  0.4152 -1.2379 -0.5157
  674MPD2    N1 9980   1.357   3.722  17.227  0.3060  0.0385  0.1847
  674MPD2    H7 9981   1.419   3.764  17.296  0.1215 -2.5082  1.8836
  675TMC3    C1 9982   1.465   3.542  17.301  0.1077  0.3437 -0.0858
  675TMC3    C2 9983   1.396   3.494  17.408 -0.4209 -0.3216  0.2716
  675TMC3    C3 9984   1.444   3.513  17.535  0.9227 -0.0679  0.3986
  675TMC3    C4 9985   1.580   3.600  17.323 -0.4453  0.0981 -0.0624
  675TMC3    C5 9986   1.628   3.624  17.452  0.0066  0.7579 -0.6090
  675TMC3    C6 9987   1.560   3.581  17.565 -0.7127  0.4155 -0.3312
  675TMC3     C 9988   1.388   3.593  17.193  0.2238 -0.0780 -0.1258
  675TMC3     O 9989   1.323   3.511  17.130  0.4288 -0.3392 -0.4972
  675TMC3     H 9990   1.291   3.468  17.396 -1.0309  1.5297  1.4862
  675TMC3    H1 9991   1.624   3.653  17.240  0.1258  3.3121  2.2912
  675TMC3    H2 9992   1.603   3.590  17.664  3.2349  0.0310 -2.0081
  675TMC3    C7 9993   1.753   3.698  17.460  0.0742 -0.2067 -0.2270
  675TMC3    C8 9994   1.350   3.471  17.638 -0.2492 -0.3007 -0.0330
  675TMC3    O1 9995   1.816   3.689  17.358 -0.2227  0.1040  0.1694
  675TMC3    O2 9996   1.234   3.443  17.615  0.6008 -0.0929  0.0501
  676MPD2     C 9997   3.961   1.920  10.709  1.0182 -0.3640 -0.6468
  676MPD2    C1 9998   3.884   1.822  10.766  0.3771 -0.5820 -0.1920
  676MPD2    C2 9999   3.913   1.692  10.745 -0.1465 -0.2538 -0.6705
  676MPD2    C310000   4.025   1.648  10.669  0.1976  0.0714  1.3100
  676MPD2    C410001   4.102   1.749  10.617  0.5450  0.4380  0.0990
  676MPD2    C510002   4.075   1.880  10.643  0.4378 -0.4032 -0.3371
  676MPD2     H10003   3.858   1.618  10.802  3.5011 -0.9178  1.9900
  676MPD2    H110004   4.192   1.730  10.560  0.5395 -1.0895  0.6104
  676MPD2    H210005   3.945   2.026  10.724 -2.2856 -0.5989 -2.3712
  676MPD2    H310006   4.131   1.955  10.589  0.5525 -1.4158 -1.6101
  676MPD2     N10007   4.066   1.521  10.641  0.1859  0.1232  0.3981
  676MPD2    H510008   4.142   1.517  10.574 -1.2733 -0.6665 -1.1995
  676MPD2    N110009   3.769   1.848  10.856 -0.1271 -0.3048  0.0533
  676MPD2    H710010   3.720   1.771  10.901 -1.3734  0.9144  0.7636
  677TMC3    C110011   3.627   1.979  10.990 -0.6432  0.2852  0.4132
  677TMC3    C210012   3.640   1.882  11.085  0.3762  0.3647  0.0071
  677TMC3    C310013   3.563   1.902  11.199 -0.3098 -0.3475 -0.5496
  677TMC3    C410014   3.572   2.096  11.006 -0.0406  0.8732  0.7155
  677TMC3    C510015   3.499   2.113  11.121 -0.2178  0.8980  0.6417
  677TMC3    C610016   3.484   2.011  11.218  0.4308 -0.8151  0.3525
  677TMC3     C10017   3.731   1.978  10.895 -0.3645  0.5075 -0.8306
  677TMC3     O10018   3.781   2.088  10.866  0.2250 -0.1103  0.5750
  677TMC3     H10019   3.696   1.789  11.075  1.0642  0.8698 -0.7732
  677TMC3    H110020   3.560   2.164  10.923 -0.5342  2.0805  1.7753
  677TMC3    H210021   3.417   2.025  11.302  0.7260  2.3084  0.0772
  677TMC3    C710022   3.508   2.248  11.170 -0.1161 -0.3795 -0.2513
  677TMC3    C810023   3.636   1.853  11.319 -1.1349 -0.7609 -0.4275
  677TMC3    O110024   3.412   2.291  11.237  0.1013  0.6547 -0.0523
  677TMC3    O210025   3.754   1.825  11.297 -0.2547 -0.2929 -0.2679
  678MPD2     C10026   0.280   2.629   1.194 -0.8458  0.7813 -0.4768
  678MPD2    C110027   0.260   2.546   1.087  0.2110 -0.0321  0.2774
  678MPD2    C210028   0.129   2.495   1.067  0.0840  0.1089 -0.4196
  678MPD2    C310029   0.027   2.525   1.156  0.0478  0.1051 -0.2897
  678MPD2    C410030   0.051   2.614   1.262 -0.4739 -0.0860  0.0727
  678MPD2    C510031   0.178   2.664   1.272  0.3014  0.1316 -0.1216
  678MPD2     H10032   0.102   2.423   0.991  0.5713  1.1500 -1.5857
  678MPD2    H110033   4.703   2.632   1.340  1.1497  1.3040  1.2712
  678MPD2    H210034   0.378   2.673   1.211 -0.8846  0.7846 -0.2637
  678MPD2    H310035   0.196   2.717   1.365  0.4727  2.5171 -1.5118
  678MPD2     N10036   4.626   2.463   1.141 -0.1663 -0.5351  1.0870
  678MPD2    H510037   4.616   2.395   1.066  3.0288 -0.3671  0.5154
  678MPD2    N110038   0.362   2.496   0.994  0.1180 -0.4035  0.1360
  678MPD2    H710039   0.332   2.443   0.912  1.0336  1.6710 -1.5558
  679TMC3    C110040   0.786   2.463   0.779  0.7659  0.1195  0.8247
  679TMC3    C210041   0.716   2.487   0.897  0.9164 -0.0006 -0.2971
  679TMC3    C310042   0.579   2.497   0.887 -0.2582  0.2884 -0.3680
  679TMC3    C410043   0.733   2.467   0.660  0.1525  0.6417  0.4415
  679TMC3    C510044   0.598   2.501   0.653 -0.6775  0.0451  0.1040
  679TMC3    C610045   0.523   2.524   0.764  0.3974  0.3296  0.3906
  679TMC3     C10046   0.925   2.431   0.803  0.0632  0.5838 -0.0741
  679TMC3     O10047   0.985   2.376   0.710 -0.4362  0.2578 -0.1769
  679TMC3     H10048   0.757   2.471   0.996 -0.9583  1.9149  0.7771
  679TMC3    H110049   0.797   2.443   0.575 -0.4142 -1.1822  0.5372
  679TMC3    H210050   0.417   2.547   0.762  0.3938  0.2644 -0.0388
  679TMC3    C710051   0.559   2.546   0.520  0.0966 -0.6119  0.3382
  679TMC3    C810052   0.497   2.515   1.008 -0.5650 -0.4166 -0.3299
  679TMC3    O110053   0.644   2.541   0.431 -0.2586  0.6115  0.2245
  679TMC3    O210054   0.559   2.543   1.109  0.0512 -0.2737 -0.0745
  680MPD2     C10055   1.532   0.345  13.541  0.1177 -0.1804  0.2653
  680MPD2    C110056   1.398   0.366  13.560  0.3765 -0.2989  0.1066
  680MPD2    C210057   1.354   0.493  13.599 -0.3092 -0.1193  0.8938
  680MPD2    C310058   1.440   0.597  13.625  1.2328 -0.0942 -0.1758
  680MPD2    C410059   1.578   0.578  13.594  0.5504 -0.3305 -0.3767
  680MPD2    C510060   1.613   0.454  13.560  0.3055  0.0862 -0.3731
  680MPD2     H10061   1.251   0.497  13.633 -0.9094 -0.2993 -0.9361
  680MPD2    H110062   1.655   0.653  13.605  0.6314 -0.4985  0.1717
  680MPD2    H210063   1.584   0.257  13.504 -0.8096 -0.5033 -0.2661
  680MPD2    H310064   1.718   0.436  13.539  0.1345 -0.1360 -1.0547
  680MPD2     N10065   1.405   0.723  13.680 -0.1263  0.4794  0.0349
  680MPD2    H510066   1.472   0.794  13.707 -0.1706  0.7182 -0.4627
  680MPD2    N110067   1.301   0.267  13.528 -0.4665  0.0924 -0.5647
  680MPD2    H710068   1.204   0.289  13.548  0.5235  2.9107  1.0447
  681TMC3    C110069   1.199   0.079  13.430 -0.1905 -0.2274  0.3126
  681TMC3    C210070   1.083   0.092  13.500  0.4228  0.6047 -0.0271
  681TMC3    C310071   0.967   0.050  13.448 -0.8671  0.0809 -0.7591
  681TMC3    C410072   1.198   0.033  13.304 -0.0794 -0.3983  0.1636
  681TMC3    C510073   1.078   4.722  13.251  0.3819  0.4449  0.1883
  681TMC3    C610074   0.965   4.724  13.324 -0.0188  0.3426  1.1060
  681TMC3     C10075   1.328   0.144  13.468 -0.2167 -0.3757 -0.7651
  681TMC3     O10076   1.435   0.104  13.421  0.2621  0.3214 -0.2294
  681TMC3     H10077   1.087   0.142  13.596 -0.5561 -2.2399  1.5062
  681TMC3    H110078   1.287   0.015  13.244 -0.4636 -2.2730  0.1452
  681TMC3    H210079   0.875   4.689  13.275 -0.6234 -0.3252  2.6909
  681TMC3    C710080   1.053   4.711  13.108 -0.0194  0.2531  0.9900
  681TMC3    C810081   0.834   0.084  13.496  0.4631  0.4287 -0.6948
  681TMC3    O110082   0.941   4.672  13.076  0.4299  0.4455 -0.3765
  681TMC3    O210083   0.738   0.064  13.426  0.1638  0.1985 -0.2601
  682MPD2     C10084   3.146   1.919  10.444 -0.4235 -0.5319 -0.1899
  682MPD2    C110085   3.132   1.794  10.501  0.0501 -0.0832  0.9569
  682MPD2    C210086   3.053   1.776  10.610 -0.1868  0.1073  0.3110
  682MPD2    C310087   2.988   1.890  10.671  0.9139  0.0965 -0.3404
  682MPD2    C410088   3.007   2.008  10.612 -0.2063 -0.1582 -0.2899
  682MPD2    C510089   3.084   2.020  10.503  1.0350 -0.8759  0.9107
  682MPD2     H10090   3.046   1.676  10.651 -0.0603 -0.3692 -0.8432
  682MPD2    H110091   2.957   2.100  10.643 -0.3451  0.0653 -1.1830
  682MPD2    H210092   3.179   1.946  10.345  2.3031 -0.4761  0.7412
  682MPD2    H310093   3.102   2.114  10.453  1.1428  0.1650  2.9489
  682MPD2     N10094   2.919   1.887  10.791 -0.5567  0.6296 -0.3100
  682MPD2    H510095   2.889   1.978  10.823 -1.6527 -0.2409  1.1778
  682MPD2    N110096   3.182   1.680  10.425 -0.1085 -0.1943 -0.2336
  682MPD2    H710097   3.173   1.589  10.470  1.1710 -0.9074 -1.4095
  683TMC3    C110098   2.694   1.972  11.093 -0.2478  0.1111 -0.0873
  683TMC3    C210099   2.568   1.915  11.081  0.4542 -0.0176 -0.1278
  683TMC3    C310100   2.555   1.795  11.018  0.3686  0.4582 -0.0147
  683TMC3    C410101   2.803   1.923  11.035  0.3676 -0.0960  0.0130
  683TMC3    C510102   2.785   1.805  10.971 -0.5098 -0.1898  0.8697
  683TMC3    C610103   2.669   1.730  10.965 -0.9605 -0.5027 -0.3299
  683TMC3     C10104   2.723   2.052  11.212  0.8802 -0.0386 -0.9292
  683TMC3     O10105   2.829   2.116  11.206 -0.3826 -0.0885  0.3698
  683TMC3     H10106   2.479   1.953  11.130  1.5829  2.7058 -0.1701
  683TMC3    H110107   2.902   1.962  11.057  0.5791 -0.7713  0.2637
  683TMC3    H210108   2.678   1.631  10.921 -0.3140 -0.1606 -0.9676
  683TMC3    C710109   2.880   1.775  10.861 -0.5651  0.0050  0.1854
  683TMC3    C810110   2.427   1.731  11.013  0.3437  0.0670  0.2490
  683TMC3    O110111   2.899   1.656  10.835  0.1977 -0.3206 -0.2108
  683TMC3    O210112   2.326   1.794  11.047  0.1866 -0.1304 -0.5210
  684MPD2     C10113   1.296   1.440  16.199 -0.1411  0.7192  0.5065
  684MPD2    C110114   1.193   1.519  16.145 -0.3299  0.7209 -0.2201
  684MPD2    C210115   1.182   1.647  16.192  0.8622 -0.0372 -0.4146
  684MPD2    C310116   1.263   1.700  16.290 -0.1155  0.0810  0.7294
  684MPD2    C410117   1.343   1.614  16.355 -0.0190 -0.3844  0.2450
  684MPD2    C510118   1.364   1.486  16.312 -0.0430 -0.2436  0.2127
  684MPD2     H10119   1.114   1.714  16.141  0.6535 -1.2285 -1.7253
  684MPD2    H110120   1.402   1.654  16.437  0.5778 -1.1406  0.1842
  684MPD2    H210121   1.316   1.341  16.159  0.0273  0.3729  1.4486
  684MPD2    H310122   1.413   1.415  16.377 -0.6208  0.5786  1.5461
  684MPD2     N10123   1.267   1.841  16.325 -0.6024  0.5258 -0.0885
  684MPD2    H510124   1.341   1.866  16.389 -0.0440 -2.1835  0.3346
  684MPD2    N110125   1.121   1.487  16.032  0.1194 -0.3727 -0.6096
  684MPD2    H710126   1.053   1.555  15.999  0.5890  0.3356 -0.1035
  685TMC3    C110127   1.086   1.373  15.827 -0.1278  0.7095  0.1494
  685TMC3    C210128   1.081   1.501  15.774 -0.4261 -0.0343  0.2171
  685TMC3    C310129   1.123   1.517  15.642 -0.1278  0.2429 -0.9005
  685TMC3    C410130   1.120   1.268  15.748  0.2046 -0.2486 -0.1997
  685TMC3    C510131   1.177   1.294  15.626  0.0378  0.5955 -0.8174
  685TMC3    C610132   1.173   1.414  15.569 -0.2013 -0.2077 -0.3264
  685TMC3     C10133   1.132   1.372  15.964 -0.5378  0.7060 -0.3185
  685TMC3     O10134   1.192   1.270  15.987  0.2430  0.0500 -0.2931
  685TMC3     H10135   1.075   1.597  15.824 -0.7009  0.6429 -1.1211
  685TMC3    H110136   1.118   1.164  15.781  0.9369 -0.0599  0.4468
  685TMC3    H210137   1.223   1.425  15.474 -1.2578 -1.2043 -1.0051
  685TMC3    C710138   1.312   1.253  15.613  0.1029  0.6126  0.6630
  685TMC3    C810139   1.093   1.651  15.588 -0.0258  0.4755 -0.1682
  685TMC3    O110140   1.377   1.256  15.510 -0.1988 -0.5737 -0.0681
  685TMC3    O210141   1.172   1.698  15.498 -0.5212 -0.2820 -0.1261
  686MPD2     C10142   2.668   2.017  15.909 -0.2472  0.0268  0.4133
  686MPD2    C110143   2.702   1.893  15.867  0.2414 -0.2139  0.0743
  686MPD2    C210144   2.812   1.876  15.787  0.5179 -0.6133  0.3413
  686MPD2    C310145   2.899   1.981  15.755 -0.0762  0.3359  0.8250
  686MPD2    C410146   2.862   2.108  15.801 -0.1060  0.2328 -0.3580
  686MPD2    C510147   2.748   2.122  15.881  0.7042 -0.0697 -0.3712
  686MPD2     H10148   2.848   1.777  15.758 -1.5558 -1.1159 -0.4608
  686MPD2    H110149   2.912   2.193  15.756 -0.6951  0.3579 -0.7778
  686MPD2    H210150   2.577   2.039  15.964 -1.8936 -0.2737 -2.1944
  686MPD2    H310151   2.718   2.224  15.902 -1.9183 -0.8059 -0.5418
  686MPD2     N10152   2.997   1.952  15.661 -0.4261  0.0325  0.0055
  686MPD2    H510153   3.010   1.853  15.643 -0.4773 -0.0960  0.6825
  686MPD2    N110154   2.606   1.791  15.883  0.7381  0.2969 -0.4962
  686MPD2    H710155   2.533   1.813  15.950  0.7803 -1.8902  0.2554
  687TMC3    C110156   3.156   1.974  15.496 -0.1725  0.2227  0.0528
  687TMC3    C210157   3.067   1.927  15.404  0.8657  0.6113 -0.5640
  687TMC3    C310158   3.094   1.800  15.359 -0.4104  0.3885 -0.2045
  687TMC3    C410159   3.259   1.897  15.540 -0.3582  0.4616 -0.0011
  687TMC3    C510160   3.281   1.773  15.499 -0.3157  0.0257 -0.3657
  687TMC3    C610161   3.203   1.727  15.395  0.1722  0.5178  0.3432
  687TMC3     C10162   3.095   2.035  15.613 -0.3147  0.3349 -0.4361
  687TMC3     O10163   3.122   2.152  15.647 -0.2438  0.8400 -0.1572
  687TMC3     H10164   2.997   1.997  15.361 -0.0308 -0.8368 -1.4827
  687TMC3    H110165   3.311   1.947  15.621 -0.8498 -0.0140  0.6065
  687TMC3    H210166   3.206   1.632  15.343  1.6616 -0.3437  2.0040
  687TMC3    C710167   3.306   1.684  15.607  0.7913  0.2148 -0.4799
  687TMC3    C810168   2.994   1.745  15.262 -0.3372  0.7551  0.2839
  687TMC3    O110169   3.329   1.734  15.718 -0.1278 -0.3095  0.2932
  687TMC3    O210170   3.033   1.645  15.206  0.5391 -0.5971 -0.1794
  688MPD2     C10171   1.852   0.522  17.025 -0.0188 -0.8769  0.6023
  688MPD2    C110172   1.866   0.392  17.073 -0.0204  0.4451  0.1137
  688MPD2    C210173   1.954   0.309  17.008  0.0328 -0.1387 -0.0496
  688MPD2    C310174   2.018   0.350  16.893 -0.0949 -0.1095  0.1007
  688MPD2    C410175   2.006   0.478  16.849  0.1312  0.4198 -0.3875
  688MPD2    C510176   1.921   0.562  16.913  0.0585  0.1507  0.3240
  688MPD2     H10177   1.970   0.210  17.048 -0.9657  0.7122  2.4588
  688MPD2    H110178   2.057   0.515  16.761  2.0914 -2.4893 -0.4862
  688MPD2    H210179   1.783   0.592  17.071  1.5101 -1.1278  3.2933
  688MPD2    H310180   1.899   0.662  16.878 -0.1835  0.5389  1.5739
  688MPD2     N10181   2.103   0.264  16.820 -0.5180 -0.3348  0.0135
  688MPD2    H510182   2.154   0.304  16.742  0.1204 -1.6081 -0.2335
  688MPD2    N110183   1.801   0.342  17.188  0.7353 -0.5217 -0.7275
  688MPD2    H710184   1.830   0.252  17.225  2.5804  0.2556 -0.2886
  689TMC3    C110185   1.718   0.364  17.415  0.8115  0.8984 -0.1624
  689TMC3    C210186   1.709   0.458  17.506  0.1453 -0.6250 -0.2073
  689TMC3    C310187   1.685   0.410  17.636 -0.1270  0.1320  0.7557
  689TMC3    C410188   1.674   0.231  17.429 -0.7135 -0.2276 -0.4380
  689TMC3    C510189   1.627   0.200  17.556 -0.1114  0.1537  0.8274
  689TMC3    C610190   1.642   0.283  17.660 -0.0838 -0.2055  0.3459
  689TMC3     C10191   1.738   0.422  17.280  0.1767 -0.0611  0.2898
  689TMC3     O10192   1.705   0.539  17.269  0.3572  0.1161 -0.3296
  689TMC3     H10193   1.758   0.553  17.485  0.6637 -0.4338  1.9272
  689TMC3    H110194   1.677   0.169  17.341 -2.7310  1.8898 -2.0074
  689TMC3    H210195   1.615   0.252   0.059  1.6878  1.3047  1.2942
  689TMC3    C710196   1.585   0.061  17.585  0.7207  0.3744 -0.1416
  689TMC3    C810197   1.673   0.511   0.045 -0.4164  0.2742  0.1788
  689TMC3    O110198   1.578   0.030   0.000  0.4962 -0.1852  0.0053
  689TMC3    O210199   1.729   0.493   0.154  0.0086  0.2460  0.1825
  690MPD2     C10200   4.237   2.133  15.564 -0.0219 -0.5876 -0.3484
  690MPD2    C110201   4.162   2.106  15.451  1.4313 -0.2825 -0.1075
  690MPD2    C210202   4.181   2.187  15.337  0.2895 -0.3101 -0.5448
  690MPD2    C310203   4.286   2.277  15.328 -0.5989  0.6332 -0.0955
  690MPD2    C410204   4.357   2.301  15.440  0.1479  0.1290 -0.3125
  690MPD2    C510205   4.344   2.223  15.551 -0.4510  0.3396  0.0163
  690MPD2     H10206   4.121   2.167  15.248 -1.2355  1.2371  0.1325
  690MPD2    H110207   4.440   2.370  15.443  1.2312 -1.2054  0.6234
  690MPD2    H210208   4.224   2.084  15.660  1.5293  0.6991  0.5189
  690MPD2    H310209   4.414   2.235  15.633 -0.0042  2.1001 -0.6249
  690MPD2     N10210   4.309   2.343  15.206  0.6188 -0.7368  0.3112
  690MPD2    H510211   4.244   2.317  15.132 -1.8241  0.1816  2.1469
  690MPD2    N110212   4.047   2.019  15.458 -0.2668 -0.2287 -0.4953
  690MPD2    H710213   3.980   2.025  15.382 -0.8888 -0.6306  0.0245
  691TMC3    C110214   3.911   1.833  15.533 -0.1729  0.2004 -0.1319
  691TMC3    C210215   3.795   1.894  15.501 -0.4388 -0.2336  0.0468
  691TMC3    C310216   3.693   1.816  15.455 -0.1217 -0.5011 -0.2260
  691TMC3    C410217   3.918   1.694  15.541  0.1506 -0.3321  0.0982
  691TMC3    C510218   3.804   1.619  15.515 -0.5767  0.4959  0.3369
  691TMC3    C610219   3.689   1.684  15.483 -0.2655  0.1619 -0.7316
  691TMC3     C10220   4.031   1.916  15.550 -0.0986 -0.3732  0.0049
  691TMC3     O10221   4.120   1.882  15.631  0.1498 -0.2064 -0.3408
  691TMC3     H10222   3.797   2.002  15.490 -2.6987 -0.1438  0.4541
  691TMC3    H110223   4.011   1.644  15.566 -0.1040 -0.9380 -0.1850
  691TMC3    H210224   3.594   1.631  15.473 -0.3505  0.8105 -3.3403
  691TMC3    C710225   3.806   1.470  15.503  0.0302 -0.0191 -0.1676
  691TMC3    C810226   3.615   1.869  15.347  0.0541 -0.3902  0.0231
  691TMC3    O110227   3.905   1.418  15.557  0.6027  0.1784  0.2070
  691TMC3    O210228   3.572   1.787  15.262  0.1720 -0.3594  0.6675
  692TMC3    C110229   0.958   3.269  15.850 -0.7220 -0.5808 -0.6656
  692TMC3    C210230   1.047   3.286  15.957 -0.2826 -0.2466 -0.3149
  692TMC3    C310231   1.118   3.180  16.004 -0.2434 -0.3647  0.2490
  692TMC3    C410232   0.918   3.140  15.817  0.2705  0.7543  0.4574
  692TMC3    C510233   0.983   3.034  15.877  0.2559 -0.0317  0.0420
  692TMC3    C610234   1.082   3.051  15.968 -0.1908  0.1826 -0.7908
  692TMC3     C10235   0.865   3.375  15.818 -0.3428  0.2558  0.0793
  692TMC3     O10236   0.781   3.349  15.733 -0.1463  0.1183  0.3812
  692TMC3     H10237   1.078   3.389  15.970  2.9102 -1.6228  2.8860
  692TMC3    H110238   0.836   3.126  15.747  1.7119  1.3445 -1.3394
  692TMC3    H210239   1.162   2.980  15.982  0.6665  0.6312 -3.4354
  692TMC3    C710240   0.961   2.905  15.823 -0.6404 -1.0479  0.5878
  692TMC3    C810241   1.131   3.189  16.150  0.4168 -0.4919  0.2272
  692TMC3    O110242   0.876   2.901  15.733 -0.2586 -0.0903  0.1485
  692TMC3    O210243   1.162   3.084  16.213  0.2832 -0.1287  0.1637
  693MPD2     C10244   0.059   1.090  10.057  0.2577 -0.5235  0.4633
  693MPD2    C110245   0.083   1.056  10.188  0.2838  0.7158 -0.0277
  693MPD2    C210246   0.215   1.050  10.222 -0.4340 -0.2012  0.3640
  693MPD2    C310247   0.312   1.127  10.155 -0.2395  0.4654  0.0908
  693MPD2    C410248   0.278   1.188  10.039 -0.5807 -0.0628 -0.4864
  693MPD2    C510249   0.156   1.163   9.980 -0.0243  0.4316 -0.2478
  693MPD2     H10250   0.237   0.995  10.313  2.5379  0.5610  0.1165
  693MPD2    H110251   0.351   1.239   9.977 -1.8469  1.8976 -0.3840
  693MPD2    H210252   4.682   1.082  10.022  0.1957  0.1446  0.5046
  693MPD2    H310253   0.131   1.198   9.880 -1.4604  0.1919  0.0373
  693MPD2     N10254   0.450   1.141  10.191  0.1880 -0.3892  0.7094
  693MPD2    H510255   0.507   1.205  10.138 -2.1747 -0.2429 -1.6396
  693MPD2    N110256   4.705   1.003  10.264 -0.6071 -0.4959  0.3858
  693MPD2    H710257   4.613   0.991  10.223  0.3627 -0.0829 -1.9024
  694TMC3    C110258   4.605   0.910  10.450  0.8791 -0.6109 -0.1845
  694TMC3    C210259   4.580   0.796  10.372 -0.0534  0.7367 -0.1864
  694TMC3    C310260   4.569   0.681  10.441  0.6091 -0.0326 -0.9131
  694TMC3    C410261   4.595   0.905  10.582  0.2018  0.3360 -0.6883
  694TMC3    C510262   4.562   0.792  10.647 -0.8422 -0.2747  0.2019
  694TMC3    C610263   4.549   0.680  10.578  0.4353  0.3556 -0.1443
  694TMC3     C10264   4.710   0.992  10.404  0.1547 -0.7844  0.5948
  694TMC3     O10265   0.072   1.037  10.480  0.5983  0.0728 -0.0155
  694TMC3     H10266   4.591   0.800  10.264 -0.7028 -1.9776 -0.3705
  694TMC3    H110267   4.607   0.995  10.641  1.5565  2.0316 -3.5138
  694TMC3    H210268   4.505   0.597  10.633  0.2753  0.2838 -0.3830
  694TMC3    C710269   4.564   0.801  10.789 -0.4348  0.2237 -0.1491
  694TMC3    C810270   4.551   0.550  10.371  0.7325 -0.1638  0.2407
  694TMC3    O110271   4.523   0.906  10.837 -0.4657  0.5396 -0.5587
  694TMC3    O210272   4.482   0.470  10.431  0.2459 -0.7239 -0.0639
  695MPD2     C10273   1.138   2.559  13.514  0.8448  0.6329 -0.1052
  695MPD2    C110274   1.191   2.669  13.448  0.1484 -0.2174  0.5342
  695MPD2    C210275   1.106   2.760  13.384 -1.2387 -0.4574 -0.0609
  695MPD2    C310276   0.968   2.742  13.394  0.0116 -1.1875 -0.1109
  695MPD2    C410277   0.918   2.618  13.442 -0.4071 -0.0571 -0.2773
  695MPD2    C510278   1.002   2.530  13.504  0.4401  0.1137 -0.4618
  695MPD2     H10279   1.144   2.855  13.347 -1.2855 -0.5824 -0.4328
  695MPD2    H110280   0.812   2.598  13.456 -0.3552 -1.5689 -2.0806
  695MPD2    H210281   1.208   2.491  13.560 -1.1745 -0.9364  0.6337
  695MPD2    H310282   0.956   2.442  13.549  2.4395 -0.5596  0.2396
  695MPD2     N10283   0.889   2.846  13.349  0.3166 -0.7481 -0.2309
  695MPD2    H510284   0.936   2.928  13.310 -0.4872 -0.1809  0.0042
  695MPD2    N110285   1.326   2.700  13.460  0.9443  0.3415 -0.1593
  695MPD2    H710286   1.363   2.767  13.393  0.2070  1.6399  0.7356
  696TMC3    C110287   0.685   2.978  13.355  0.5202  0.1219 -0.2901
  696TMC3    C210288   0.569   3.005  13.416 -0.3038 -0.5822  0.1470
  696TMC3    C310289   0.490   3.106  13.363 -0.0539 -0.2793  0.1264
  696TMC3    C410290   0.718   3.033  13.232  0.2797 -0.1101  0.3752
  696TMC3    C510291   0.636   3.129  13.185  0.6577 -0.1186  0.5565
  696TMC3    C610292   0.523   3.170  13.248  0.7801 -0.3474 -0.4508
  696TMC3     C10293   0.758   2.860  13.394  0.6658 -0.4441 -0.4517
  696TMC3     O10294   0.700   2.781  13.463  0.0383  0.1303 -0.0825
  696TMC3     H10295   0.534   2.940  13.496 -0.8892 -1.4780 -0.8309
  696TMC3    H110296   0.810   3.018  13.176  1.0244 -0.2253  1.6267
  696TMC3    H210297   0.459   3.241  13.197  1.2689 -0.1485 -0.7842
  696TMC3    C710298   0.708   3.248  13.155  0.4740 -0.9433 -0.5619
  696TMC3    C810299   0.478   3.215  13.454 -0.0900  0.7832 -0.2693
  696TMC3    O110300   0.813   3.241  13.094 -0.6943 -1.0530 -0.4665
  696TMC3    O210301   0.482   3.329  13.414  0.3672  0.2427  0.2523
  697MPD2     C10302   0.511   0.097  15.703  0.7035  0.0555 -0.9656
  697MPD2    C110303   0.544   0.056  15.577  0.4218 -0.4030 -0.8205
  697MPD2    C210304   0.581   0.149  15.489  0.0702 -0.5333 -0.2178
  697MPD2    C310305   0.596   0.280  15.522  0.0602  0.5151  0.2797
  697MPD2    C410306   0.563   0.316  15.645  0.6920 -0.4031  0.1821
  697MPD2    C510307   0.521   0.228  15.739  0.1422  0.1048 -0.1264
  697MPD2     H10308   0.606   0.120  15.388 -3.2633 -0.7644 -0.9487
  697MPD2    H110309   0.573   0.419  15.679  3.7298 -1.4826  2.5935
  697MPD2    H210310   0.485   0.023  15.778  2.6209  1.9634  1.5864
  697MPD2    H310311   0.502   0.254  15.843 -1.5359 -0.2727 -0.3397
  697MPD2     N10312   0.642   0.366  15.424 -0.7161 -0.5023  0.5388
  697MPD2    H510313   0.668   0.337  15.330 -0.8934 -1.2195  0.7089
  697MPD2    N110314   0.522   4.646  15.533 -1.3883  0.1791 -0.5358
  697MPD2    H710315   0.541   4.629  15.435  2.1268  0.4313  0.1109
  698TMC3    C110316   0.720   0.556  15.315  0.1469 -0.2083 -0.0568
  698TMC3    C210317   0.787   0.676  15.325  0.4537 -0.0612  0.4471
  698TMC3    C310318   0.881   0.720  15.230 -0.0063  0.1463 -0.4998
  698TMC3    C410319   0.723   0.491  15.196  0.1448  0.0792  0.1963
  698TMC3    C510320   0.801   0.541  15.093  0.0019 -1.4391  0.3193
  698TMC3    C610321   0.886   0.651  15.115 -0.9234  0.4289  0.0630
  698TMC3     C10322   0.646   0.500  15.429  0.4691 -0.5433  0.5700
  698TMC3     O10323   0.607   0.576  15.518  0.2367  0.0951 -0.3245
  698TMC3     H10324   0.770   0.730  15.417 -0.3242  1.5981 -0.6692
  698TMC3    H110325   0.665   0.401  15.175 -0.0649 -0.0013  1.1110
  698TMC3    H210326   0.954   0.674  15.034 -1.9764 -0.9943 -1.2147
  698TMC3    C710327   0.774   0.472  14.968 -0.3852 -0.7525 -0.1305
  698TMC3    C810328   0.990   0.805  15.282 -0.1990 -0.3324  0.2396
  698TMC3    O110329   0.664   0.423  14.943 -0.8635  0.2478  0.1694
  698TMC3    O210330   0.973   0.848  15.396 -0.2664  0.5484  0.2275
  699TMC3    C110331   0.790   2.588  12.831  0.2659  0.3751  0.7699
  699TMC3    C210332   0.839   2.518  12.944 -0.8028  0.2653 -0.8541
  699TMC3    C310333   0.765   2.540  13.063  0.1196  0.3275  0.6652
  699TMC3    C410334   0.694   2.684  12.831  0.2853  0.0413  0.1815
  699TMC3    C510335   0.642   2.716  12.955  0.1968  0.0831 -0.4232
  699TMC3    C610336   0.681   2.649  13.069 -0.8630  0.1588  0.4523
  699TMC3     C10337   0.849   2.566  12.696 -0.7471 -0.0682 -0.2817
  699TMC3     O10338   0.787   2.605  12.597  0.3538  0.0392 -0.5118
  699TMC3     H10339   0.896   2.427  12.930 -1.7029 -0.4444  0.0715
  699TMC3    H110340   0.658   2.729  12.740  2.8762  0.7869 -0.4752
  699TMC3    H210341   0.629   2.662  13.163  0.6167 -2.6086  1.6794
  699TMC3    C710342   0.545   2.821  12.978  0.1970  0.9912 -0.4765
  699TMC3    C810343   0.771   2.466  13.181  0.3883 -0.8063 -0.3682
  699TMC3    O110344   0.489   2.828  13.084 -0.9485 -0.1242  0.0142
  699TMC3    O210345   0.685   2.483  13.264  0.5465  0.0462 -0.2672
  700TMC3    C110346   4.247   0.845  17.260  0.1480 -0.0592  0.5636
  700TMC3    C210347   4.310   0.729  17.247 -0.7703 -0.1948  0.2711
  700TMC3    C310348   4.425   0.701  17.311 -0.1374  0.0803 -0.5495
  700TMC3    C410349   4.292   0.946  17.344 -0.3782 -0.1208  0.6878
  700TMC3    C510350   4.414   0.920  17.410  0.2414  0.6082 -0.1924
  700TMC3    C610351   4.480   0.795  17.394  0.9485 -0.0315  0.2032
  700TMC3     C10352   4.191   0.900  17.139  0.7552  0.0272  0.2994
  700TMC3     O10353   4.146   0.827  17.053  0.3520 -0.3691 -0.3092
  700TMC3     H10354   4.277   0.653  17.177  2.9626 -2.4736  0.9932
  700TMC3    H110355   4.252   1.046  17.352 -0.8692 -0.2169 -0.6370
  700TMC3    H210356   4.578   0.791  17.440 -0.3357 -2.8370  2.6168
  700TMC3    C710357   4.476   1.024  17.483  0.4536  0.4434 -0.9659
  700TMC3    C810358   4.516   0.597  17.265 -0.4374  0.3060  0.0981
  700TMC3    O110359   4.595   1.029  17.480 -0.1552 -0.0703  0.2605
  700TMC3    O210360   4.633   0.612  17.303 -0.2890  0.0300 -0.4815
  701TMC3    C110361   4.562   3.962  15.425  0.2997 -0.6006 -0.7852
  701TMC3    C210362   4.612   3.881  15.324 -0.2015  0.2069 -0.5234
  701TMC3    C310363   0.007   3.909  15.270 -0.0045 -0.6303  0.6817
  701TMC3    C410364   4.639   4.061  15.477  0.0050 -0.2894 -0.2440
  701TMC3    C510365   0.028   4.095  15.415 -0.7733 -0.3771 -0.3454
  701TMC3    C610366   0.083   4.017  15.320 -0.2584 -0.4032 -0.0444
  701TMC3     C10367   4.440   3.918  15.489 -0.0192 -0.6509  0.1435
  701TMC3     O10368   4.410   3.798  15.493 -0.0829  0.2196  0.3177
  701TMC3     H10369   4.552   3.795  15.296  2.1967 -1.0198 -1.9113
  701TMC3    H110370   4.595   4.117  15.558 -1.2145 -4.2284  1.8400
  701TMC3    H210371   0.167   4.056  15.263  0.1407  0.8588  1.4116
  701TMC3    C710372   0.102   4.212  15.465 -0.0525 -0.5096 -0.6266
  701TMC3    C810373   0.054   3.838  15.157 -0.1108 -1.0878  1.0212
  701TMC3    O110374   0.176   4.262  15.384 -0.0964 -0.2480 -0.0346
  701TMC3    O210375   0.173   3.837  15.127 -0.5921 -0.0229  0.4755
  702MPD2     C10376   4.126   1.301   9.967 -0.1325  0.4203  0.2984
  702MPD2    C110377   4.072   1.387  10.060 -0.4816  0.0562 -0.3157
  702MPD2    C210378   4.044   1.516  10.023  0.0298 -0.1343  0.5133
  702MPD2    C310379   4.052   1.557   9.894 -0.5206 -0.0778 -0.2140
  702MPD2    C410380   4.091   1.455   9.798 -0.6430 -1.0816  0.0384
  702MPD2    C510381   4.141   1.332   9.837 -0.4690 -0.0201 -1.5487
  702MPD2     H10382   4.011   1.584  10.101  2.4098  1.2228  0.3615
  702MPD2    H110383   4.100   1.475   9.692 -0.6921 -0.1643  0.2052
  702MPD2    H210384   4.163   1.201   9.986  2.0071  1.4750  1.6355
  702MPD2    H310385   4.174   1.253   9.770  2.5422 -1.1173  1.2689
  702MPD2     N10386   4.024   1.681   9.840  0.5506 -0.0670 -0.4403
  702MPD2    H510387   4.014   1.681   9.739 -0.6632 -0.4098 -0.3242
  702MPD2    N110388   4.060   1.358  10.197 -0.0535  0.0470  0.2342
  702MPD2    H710389   4.030   1.430  10.263 -0.2012 -0.6755  0.9616
  703TMC3    C110390   4.067   1.816  10.030 -0.3607  0.7213 -1.3038
  703TMC3    C210391   3.980   1.825  10.139 -0.0098 -0.4631  0.4357
  703TMC3    C310392   4.031   1.793  10.262  0.0003  0.0628  0.1313
  703TMC3    C410393   4.201   1.812  10.046  0.1604  0.4088  0.2306
  703TMC3    C510394   4.249   1.783  10.171  0.7621 -0.1388  0.7062
  703TMC3    C610395   4.163   1.767  10.275  0.0708  0.1673  0.0070
  703TMC3     C10396   4.009   1.805   9.898  0.5096 -0.2380 -0.2238
  703TMC3     O10397   3.981   1.909   9.838  0.6034 -0.1911  0.5627
  703TMC3     H10398   3.874   1.810  10.121 -0.3318  1.0228  1.0818
  703TMC3    H110399   4.254   1.814   9.951 -1.4531 -0.0457 -0.6821
  703TMC3    H210400   4.200   1.727  10.369  0.9895  0.8647 -0.0545
  703TMC3    C710401   4.392   1.783  10.178 -0.3935  0.5309  0.3872
  703TMC3    C810402   3.948   1.698  10.340 -0.4497  0.0250 -0.0319
  703TMC3    O110403   4.460   1.808  10.082  0.0734  0.5091  0.2419
  703TMC3    O210404   3.970   1.577  10.331 -0.7702  0.1799  0.4433
  704TMC3    C110405   1.567   4.579  12.248 -0.4108  0.3534 -0.0192
  704TMC3    C210406   1.664   4.653  12.301  0.1858 -0.2504  0.3350
  704TMC3    C310407   1.699   4.633  12.433  0.1013  0.4070  0.6131
  704TMC3    C410408   1.503   4.484  12.321  0.3227  0.1511 -0.5663
  704TMC3    C510409   1.549   4.458  12.448 -0.2280 -0.4171  0.6127
  704TMC3    C610410   1.641   4.532  12.516  0.4017  0.6690  0.1566
  704TMC3     C10411   1.493   4.619  12.127 -0.1981  0.4495 -0.6197
  704TMC3     O10412   1.374   4.588  12.121 -0.3021 -0.3608  0.0536
  704TMC3     H10413   1.711   0.006  12.242  1.1942  0.7486  2.4937
  704TMC3    H110414   1.427   4.426  12.269 -2.7688  1.9985  1.8840
  704TMC3    H210415   1.656   4.513  12.622  2.5035  0.0515 -0.2551
  704TMC3    C710416   1.544   4.318  12.491 -0.4065 -0.2028 -0.5826
  704TMC3    C810417   1.839   4.655  12.456 -0.6406  0.3348 -0.3081
  704TMC3    O110418   1.637   4.275  12.558 -0.6706  0.2396  0.0364
  704TMC3    O210419   1.863   4.699  12.566 -0.4321 -0.0256 -0.7019
  705MPD2     C10420   1.122   2.589  16.474  0.2482 -0.5079  0.0963
  705MPD2    C110421   1.147   2.722  16.496  0.1853 -0.5138 -0.4981
  705MPD2    C210422   1.042   2.800  16.527  0.1036 -0.0415  0.1408
  705MPD2    C310423   0.915   2.754  16.530  0.2789  0.0709  0.0903
  705MPD2    C410424   0.892   2.617  16.512 -0.1880  0.6192 -0.5593
  705MPD2    C510425   0.997   2.532  16.490  0.2601  0.0958  0.0643
  705MPD2     H10426   1.054   2.907  16.543 -1.2118  0.1094  0.0836
  705MPD2    H110427   0.791   2.581  16.498  0.0350 -1.0097  2.0685
  705MPD2    H210428   1.196   2.514  16.449 -1.0218 -1.7175 -0.0702
  705MPD2    H310429   0.971   2.430  16.463  1.9340  0.1061 -1.5651
  705MPD2     N10430   0.802   2.843  16.535 -0.6260  0.4403 -0.1144
  705MPD2    H510431   0.717   2.801  16.498 -1.4761  0.7004  1.5452
  705MPD2    N110432   1.269   2.789  16.470 -0.0394 -0.1528  0.1162
  705MPD2    H710433   1.271   2.886  16.501 -0.1168 -0.2187  0.3238
  706TMC3    C110434   1.610   2.763  16.142  0.4710  0.1810 -0.0037
  706TMC3    C210435   1.579   2.888  16.090 -0.3383  1.1760  0.6888
  706TMC3    C310436   1.499   2.966  16.170 -0.4176 -0.6473  0.9307
  706TMC3    C410437   1.559   2.720  16.263  0.8578  0.8975 -0.9981
  706TMC3    C510438   1.476   2.803  16.338  0.3312  0.2019  0.1888
  706TMC3    C610439   1.441   2.927  16.283  0.2077  0.3140  0.0587
  706TMC3     C10440   1.716   2.683  16.078 -0.6400 -0.7033 -0.6627
  706TMC3     O10441   1.761   2.590  16.143  0.3963 -0.4472  0.2859
  706TMC3     H10442   1.629   2.940  16.009 -0.6905  0.2587 -0.1136
  706TMC3    H110443   1.585   2.627  16.311 -1.1355  0.2108 -1.2274
  706TMC3    H210444   1.370   2.993  16.331  0.8077  0.4880  0.7074
  706TMC3    C710445   1.383   2.729  16.425 -0.4191  0.3946  0.1687
  706TMC3    C810446   1.456   3.095  16.112 -0.0100  0.0181 -0.5927
  706TMC3    O110447   1.395   2.611  16.425  0.0234  0.0233 -0.3468
  706TMC3    O210448   1.444   3.092  15.992  0.4198  0.2945  0.2965
  707TMC3    C110449   1.965   2.529   0.697 -0.1560 -0.3548  0.1373
  707TMC3    C210450   1.985   2.427   0.615  0.3806  0.8949 -0.3176
  707TMC3    C310451   1.929   2.418   0.489 -0.5493  0.5650 -0.5021
  707TMC3    C410452   1.887   2.636   0.653 -0.0660  0.1647 -0.2062
  707TMC3    C510453   1.826   2.626   0.536  0.6769 -0.4688  0.6162
  707TMC3    C610454   1.850   2.518   0.444  0.2763 -0.1944  0.0852
  707TMC3     C10455   2.084   2.561   0.778  0.1122  1.0595  0.0218
  707TMC3     O10456   2.179   2.491   0.750 -0.2208 -0.7983  1.1312
  707TMC3     H10457   2.049   2.346   0.650  0.0155 -0.6097 -3.1206
  707TMC3    H110458   1.879   2.723   0.718  1.5635  0.5661 -0.5590
  707TMC3    H210459   1.836   2.523   0.336  1.9865 -0.1329 -0.1239
  707TMC3    C710460   1.762   2.746   0.482 -0.2390  0.6195  0.3344
  707TMC3    C810461   1.988   2.328   0.389 -0.2642 -0.6119 -0.0467
  707TMC3    O110462   1.781   2.854   0.537 -0.0448  0.2984  0.0504
  707TMC3    O210463   1.952   2.341   0.272  0.2474 -0.4249 -0.2110
  708MPD2     C10464   4.692   1.492  13.882 -0.8526  0.7095  0.1651
  708MPD2    C110465   4.557   1.505  13.914  0.1889  0.7842  0.0993
  708MPD2    C210466   4.510   1.427  14.016 -0.0616 -0.5227  0.2704
  708MPD2    C310467   4.589   1.337  14.088 -0.0822  0.0678  0.3762
  708MPD2    C410468   4.724   1.336  14.062  0.2937 -0.2823 -0.3810
  708MPD2    C510469   0.043   1.426  13.967 -0.0596 -0.1213 -0.7767
  708MPD2     H10470   4.410   1.455  14.046 -0.4841 -0.6387 -1.0296
  708MPD2    H110471   0.069   1.289  14.130  3.0388  0.5814 -2.6439
  708MPD2    H210472   0.023   1.558  13.817  0.7317 -0.2861  0.5378
  708MPD2    H310473   0.149   1.436  13.947 -0.1293  0.1121 -1.0344
  708MPD2     N10474   4.541   1.252  14.190 -0.0675  0.4327  0.7419
  708MPD2    H510475   4.613   1.194  14.231 -0.3323  1.5403  2.7603
  708MPD2    N110476   4.462   1.587  13.843 -0.6150 -0.4328 -0.1043
  708MPD2    H710477   4.370   1.586  13.887 -0.2574  0.1517  0.6749
  709TMC3    C110478   4.360   1.718  13.686  0.3676 -1.0783  0.1914
  709TMC3    C210479   4.296   1.638  13.598 -1.1448  0.0662  0.5514
  709TMC3    C310480   4.158   1.615  13.606  0.2420  0.0633 -0.0623
  709TMC3    C410481   4.279   1.765  13.790 -0.0194 -0.1099 -0.1727
  709TMC3    C510482   4.138   1.744  13.799  0.2382 -0.2153 -0.4329
  709TMC3    C610483   4.080   1.677  13.699  0.5722 -0.3437 -0.6482
  709TMC3     C10484   4.485   1.655  13.731 -0.0659 -0.4178  0.8145
  709TMC3     O10485   4.584   1.652  13.661 -0.6901  0.1199 -0.3486
  709TMC3     H10486   4.358   1.575  13.535 -1.6960  1.1479 -1.0736
  709TMC3    H110487   4.329   1.826  13.864  1.4232 -0.4682 -0.8465
  709TMC3    H210488   3.972   1.666  13.692  0.3288  1.4881  0.2245
  709TMC3    C710489   4.113   1.685  13.930  0.0297  0.4034  0.1670
  709TMC3    C810490   4.101   1.498  13.554  0.1434  0.2365  0.8882
  709TMC3    O110491   4.217   1.663  13.991 -0.4552  0.1048 -0.3775
  709TMC3    O210492   4.003   1.444  13.607  0.3122 -0.1145  0.0726
  710TMC3    C110493   0.553   3.046  17.476 -0.2889 -0.1231  0.0920
  710TMC3    C210494   0.634   2.992  17.377 -0.0070 -0.0289  0.4702
  710TMC3    C310495   0.683   2.869  17.408 -0.5809  0.1389 -0.1167
  710TMC3    C410496   0.532   2.978  17.596 -0.5033  0.6780 -0.4215
  710TMC3    C510497   0.583   2.857  17.614 -0.6776  0.3421  0.7093
  710TMC3    C610498   0.660   2.798  17.523  0.0354 -0.3459 -0.5614
  710TMC3     C10499   0.520   3.184  17.471  0.1515  0.4160 -0.2568
  710TMC3     O10500   0.483   3.219  17.359 -0.1244  0.7742  0.0494
  710TMC3     H10501   0.649   3.042  17.281 -0.3450  0.1796  0.5256
  710TMC3    H110502   0.467   3.037  17.659 -0.8597 -1.4829  1.2272
  710TMC3    H210503   0.700   2.700  17.543  1.3144  0.1985 -0.5041
  710TMC3    C710504   0.535   2.776   0.031 -0.4791  0.1007  0.7827
  710TMC3    C810505   0.758   2.800  17.302  0.1543 -0.4158 -0.6584
  710TMC3    O110506   0.579   2.662   0.049 -0.4675 -0.1224  0.0092
  710TMC3    O210507   0.762   2.858  17.198  0.3797  0.0978 -0.3025
  711TMC3    C110508   0.444   3.408  14.654 -0.0211  0.7709  0.4572
  711TMC3    C210509   0.479   3.521  14.725 -0.3953  0.6181 -0.1275
  711TMC3    C310510   0.585   3.522  14.819 -0.2463 -0.2631 -0.2436
  711TMC3    C410511   0.517   3.290  14.674 -0.0664  0.1529  0.1816
  711TMC3    C510512   0.628   3.293  14.756  0.1969 -0.1661  0.5122
  711TMC3    C610513   0.653   3.400  14.837 -0.9198 -0.3131  0.0131
  711TMC3     C10514   0.332   3.404  14.556 -0.0460  0.1059  0.8785
  711TMC3     O10515   0.278   3.297  14.542 -0.5900 -0.1129 -0.1409
  711TMC3     H10516   0.426   3.615  14.712 -1.2145  0.2377  0.4434
  711TMC3    H110517   0.497   3.211  14.602 -0.7303  0.6540 -0.1826
  711TMC3    H210518   0.733   3.386  14.909 -1.3216 -1.3322  0.2590
  711TMC3    C710519   0.684   3.171  14.804 -0.1867 -0.9375  0.2326
  711TMC3    C810520   0.605   3.646  14.893 -0.1506  0.2067 -0.4251
  711TMC3    O110521   0.664   3.152  14.924 -0.1416  0.1756  0.4542
  711TMC3    O210522   0.533   3.738  14.866  0.1822 -0.3439 -0.1028
  712MPD2     C10523   1.879   4.280  13.228 -0.1809  0.1456 -0.1750
  712MPD2    C110524   1.780   4.367  13.262  0.0978 -0.5928 -0.2895
  712MPD2    C210525   1.810   4.501  13.263  0.0855 -0.7156  0.7460
  712MPD2    C310526   1.942   4.551  13.246 -0.4850  0.0431 -0.3172
  712MPD2    C410527   2.041   4.458  13.227  0.0747 -0.2276  0.0480
  712MPD2    C510528   2.010   4.329  13.209 -0.0936  0.0389  0.0927
  712MPD2     H10529   1.728   4.570  13.281 -0.2284 -1.1348  0.9261
  712MPD2    H110530   2.145   4.489  13.228  0.0672 -0.1063 -1.7593
  712MPD2    H210531   1.865   4.178  13.196 -0.7877  0.3451 -0.5405
  712MPD2    H310532   2.089   4.255  13.203  0.1572  0.3309 -0.3083
  712MPD2     N10533   1.971   4.687  13.262 -0.2987  0.5891 -0.3854
  712MPD2    H510534   2.069   4.711  13.267 -0.3570  0.3590  2.1464
  712MPD2    N110535   1.644   4.330  13.276 -0.3923 -0.0299 -0.4334
  712MPD2    H710536   1.581   4.408  13.283 -1.3877 -0.8133 -0.6167
  713TMC3    C110537   1.944   0.188  13.300 -0.2037 -0.4472  1.0241
  713TMC3    C210538   2.080   0.195  13.308  0.1113  0.6612  0.4176
  713TMC3    C310539   2.145   0.306  13.271 -0.5057 -0.3346 -0.0368
  713TMC3    C410540   1.874   0.297  13.272  0.3615 -0.2569  0.0324
  713TMC3    C510541   1.936   0.411  13.241 -0.5035 -0.2356 -0.9412
  713TMC3    C610542   2.074   0.418  13.244  0.7343 -0.6247  0.2527
  713TMC3     C10543   1.878   0.064  13.285  0.4656 -0.2230  0.5056
  713TMC3     O10544   1.757   0.069  13.284 -0.0348 -0.0000 -0.4181
  713TMC3     H10545   2.130   0.112  13.356 -2.6462 -0.7029  0.9332
  713TMC3    H110546   1.766   0.291  13.283  0.1230  2.8906 -0.7310
  713TMC3    H210547   2.128   0.510  13.228 -1.0240  0.3654  0.0494
  713TMC3    C710548   1.861   0.522  13.177  0.0653  0.4516  0.1575
  713TMC3    C810549   2.285   0.333  13.297  0.3566  0.0734 -0.0527
  713TMC3    O110550   1.924   0.606  13.108 -0.3851 -0.3601 -0.1310
  713TMC3    O210551   2.318   0.448  13.276  0.3282  0.1014  0.1166
  714MPD2     C10552   3.511   4.119   1.322  0.6086  0.0638  0.0258
  714MPD2    C110553   3.540   4.049   1.207 -0.3357 -0.0324  0.2543
  714MPD2    C210554   3.458   4.063   1.099  0.4875 -0.4016  0.3378
  714MPD2    C310555   3.348   4.153   1.097  0.2635 -0.2333  0.4574
  714MPD2    C410556   3.316   4.219   1.218 -0.2440 -0.7057 -0.0118
  714MPD2    C510557   3.400   4.197   1.324 -0.5959  0.1443 -0.1735
  714MPD2     H10558   3.488   4.014   1.007  1.2495  0.4583  0.1242
  714MPD2    H110559   3.242   4.297   1.234 -1.0132 -1.7748  1.6662
  714MPD2    H210560   3.580   4.129   1.405  2.1015 -1.6997 -1.0098
  714MPD2    H310561   3.367   4.252   1.412  0.3603  1.3516 -0.5560
  714MPD2     N10562   3.279   4.172   0.979 -0.1340  0.8768  0.8926
  714MPD2    H510563   3.320   4.124   0.900  1.5555  2.7110  0.6730
  714MPD2    N110564   3.663   3.973   1.205 -0.2348 -0.6217 -0.3838
  714MPD2    H710565   3.745   4.023   1.238 -0.0405  0.0818 -1.9308
  715TMC3    C110566   3.821   3.825   1.105  0.6562 -0.1689 -0.6602
  715TMC3    C210567   3.836   3.689   1.095 -0.3005 -0.6433  0.0059
  715TMC3    C310568   3.960   3.643   1.057  0.8959 -0.5302 -0.2271
  715TMC3    C410569   3.926   3.914   1.093  0.3093 -0.5574 -0.3131
  715TMC3    C510570   4.051   3.864   1.060 -0.3415 -0.5807 -0.2108
  715TMC3    C610571   4.067   3.729   1.033 -0.4173 -0.2047  0.3325
  715TMC3     C10572   3.679   3.869   1.118  0.4237  0.1033  0.2042
  715TMC3     O10573   3.587   3.801   1.078 -0.4319  0.2723  0.0810
  715TMC3     H10574   3.753   3.627   1.127 -1.0682  0.8633  0.9585
  715TMC3    H110575   3.901   4.020   1.095  0.6744 -0.4572 -0.8982
  715TMC3    H210576   4.170   3.708   1.007 -0.4737  0.0214 -0.0744
  715TMC3    C710577   4.174   3.941   1.092  0.1553 -0.3781 -1.1885
  715TMC3    C810578   3.973   3.509   1.014 -0.3013 -0.6043  1.0922
  715TMC3    O110579   4.286   3.900   1.060 -0.1616 -0.2127  0.0412
  715TMC3    O210580   4.051   3.491   0.924 -0.4130 -0.3445 -0.5376
  716MPD2     C10581   4.046   1.027   9.724  0.1162 -0.2200 -0.2230
  716MPD2    C110582   4.042   1.067   9.594 -0.5371  0.5953  0.0474
  716MPD2    C210583   4.142   1.035   9.505 -0.0839  0.0913  0.0580
  716MPD2    C310584   4.234   0.936   9.541 -1.0841  0.0602 -0.0535
  716MPD2    C410585   4.243   0.899   9.678  0.6536 -0.5816  0.7295
  716MPD2    C510586   4.154   0.948   9.767 -0.3305 -0.0762  0.2763
  716MPD2     H10587   4.145   1.081   9.406 -0.7817 -2.0000 -0.9396
  716MPD2    H110588   4.325   0.841   9.720  1.0278  0.7172  1.7742
  716MPD2    H210589   3.967   1.060   9.790  1.2163  0.5788  0.6919
  716MPD2    H310590   4.172   0.924   9.871 -2.4318 -1.2809  0.3631
  716MPD2     N10591   4.321   0.891   9.439 -0.2655 -0.3903 -0.3347
  716MPD2    H510592   4.308   0.933   9.348 -0.5890  3.4235  1.4534
  716MPD2    N110593   3.936   1.148   9.554  0.9522  0.3936  0.0907
  716MPD2    H710594   3.869   1.184   9.621 -0.3253 -1.0352 -0.4109
  717TMC3    C110595   4.431   0.723   9.317  0.4887  0.0086  0.0893
  717TMC3    C210596   4.359   0.751   9.208  0.4722 -0.5239 -0.6301
  717TMC3    C310597   4.338   0.664   9.103 -0.1259  0.1981 -0.4892
  717TMC3    C410598   4.479   0.594   9.324  0.4818  0.8834 -0.4590
  717TMC3    C510599   4.456   0.501   9.225 -0.0550 -0.2745 -0.6693
  717TMC3    C610600   4.381   0.529   9.117 -0.0207 -0.5008 -0.1982
  717TMC3     C10601   4.402   0.780   9.451 -0.4503  0.4618  0.6014
  717TMC3     O10602   4.422   0.713   9.555 -0.1975  0.4000  0.5096
  717TMC3     H10603   4.313   0.849   9.197  1.9823  0.1909 -0.6873
  717TMC3    H110604   4.525   0.557   9.415 -2.8184 -1.3367  0.3220
  717TMC3    H210605   4.352   0.461   9.038  0.2984 -1.5909  0.6292
  717TMC3    C710606   4.473   0.360   9.268 -0.9069 -0.3371  0.2352
  717TMC3    C810607   4.251   0.704   9.000 -0.2178 -0.4584  0.2705
  717TMC3    O110608   4.500   0.345   9.384  0.4362 -0.2815  0.0001
  717TMC3    O210609   4.248   0.822   8.962  0.0852  0.2695 -0.2425
  718MPD2     C10610   3.330   0.451  12.890 -0.5292 -0.2801  0.6658
  718MPD2    C110611   3.358   0.492  12.764  0.0720  0.8343 -0.1868
  718MPD2    C210612   3.256   0.548  12.690  0.2512  0.0442 -0.0875
  718MPD2    C310613   3.128   0.560  12.739 -0.4535 -0.6461  0.2081
  718MPD2    C410614   3.103   0.514  12.865 -0.4478  0.3117  0.0649
  718MPD2    C510615   3.200   0.463  12.945  0.2636  0.2516  0.1947
  718MPD2     H10616   3.283   0.581  12.590 -1.9282  2.0975  0.0036
  718MPD2    H110617   3.002   0.520  12.905 -0.4394 -0.2830  0.1731
  718MPD2    H210618   3.411   0.412  12.951 -0.6958  2.0909  2.4289
  718MPD2    H310619   3.176   0.426  13.044  0.3438  0.7269  0.3922
  718MPD2     N10620   3.032   0.607  12.647  0.0721 -0.6141 -0.2074
  718MPD2    H510621   3.064   0.617  12.551 -1.0564  0.9427 -0.4313
  718MPD2    N110622   3.487   0.487  12.702  0.2741 -0.8400  0.3600
  718MPD2    H710623   3.492   0.524  12.607  1.9315 -0.5271  0.5641
  719TMC3    C110624   3.704   0.462  12.652 -0.7058 -0.7525 -0.0190
  719TMC3    C210625   3.637   0.444  12.533  0.2916  0.5527  0.8954
  719TMC3    C310626   3.631   0.540  12.440  0.2868 -0.3563  0.0639
  719TMC3    C410627   3.786   0.577  12.659 -0.5432  0.5366 -0.1820
  719TMC3    C510628   3.768   0.683  12.571 -1.0876  0.6349  0.3579
  719TMC3    C610629   3.683   0.666  12.463  0.1150  0.6916 -0.1237
  719TMC3     C10630   3.610   0.448  12.755 -0.3212  0.7239 -0.2897
  719TMC3     O10631   3.655   0.437  12.868 -0.4425 -0.8708 -0.0239
  719TMC3     H10632   3.585   0.351  12.516 -0.0816  1.4518 -2.8033
  719TMC3    H110633   3.845   0.597  12.748  1.0159  0.9588 -1.2975
  719TMC3    H210634   3.659   0.744  12.392 -0.6082  1.3581  0.8641
  719TMC3    C710635   3.885   0.758  12.527  0.2470  0.3246 -0.3168
  719TMC3    C810636   3.507   0.536  12.372 -0.1573  0.2479 -0.1265
  719TMC3    O110637   3.874   0.819  12.424  0.0742  0.2361  0.2979
  719TMC3    O210638   3.430   0.630  12.402 -0.6330  0.0785  0.1608
  720MPD2     C10639   1.789   1.972  13.815  0.2595  0.1212  0.1940
  720MPD2    C110640   1.880   1.942  13.719 -0.2201 -0.1135 -0.4872
  720MPD2    C210641   2.002   1.892  13.764 -0.2052  0.0840 -0.4740
  720MPD2    C310642   2.022   1.860  13.898  0.2628  0.7852 -0.1805
  720MPD2    C410643   1.920   1.891  13.988  0.3251 -0.5982  0.3345
  720MPD2    C510644   1.802   1.939  13.944  0.0813 -0.4053 -0.1928
  720MPD2     H10645   2.076   1.877  13.687 -0.5820  2.6512 -1.3567
  720MPD2    H110646   1.923   1.865  14.094  0.3204  1.0414  0.7249
  720MPD2    H210647   1.692   2.018  13.797 -0.7585 -2.3745 -0.6740
  720MPD2    H310648   1.719   1.956  14.012  0.9157  2.2453  0.1716
  720MPD2     N10649   2.150   1.808  13.934 -0.6196  0.2103 -0.1656
  720MPD2    H510650   2.222   1.798  13.863 -0.2919  1.7840 -0.0585
  720MPD2    N110651   1.875   1.988  13.590 -0.1802  0.4776 -0.1888
  720MPD2    H710652   1.962   1.985  13.539 -1.0273 -0.5130 -1.5801
  721TMC3    C110653   2.334   1.787  14.077  0.6281  0.1444  0.5401
  721TMC3    C210654   2.387   1.758  14.201  0.4068 -0.6021  0.0915
  721TMC3    C310655   2.525   1.770  14.215  0.5584 -0.0444 -0.2375
  721TMC3    C410656   2.411   1.846  13.976  0.2599  0.0314 -0.1100
  721TMC3    C510657   2.548   1.862  14.000  0.2951 -0.1593 -0.2198
  721TMC3    C610658   2.605   1.825  14.119 -0.0925 -0.2665 -0.8013
  721TMC3     C10659   2.191   1.796  14.065  0.2252 -0.1197 -0.1033
  721TMC3     O10660   2.119   1.779  14.159  0.1089  0.0669 -0.4452
  721TMC3     H10661   2.310   1.723  14.269 -0.9727 -0.5511 -1.4405
  721TMC3    H110662   2.369   1.878  13.881 -1.5942 -1.1879  0.2789
  721TMC3    H210663   2.711   1.833  14.141 -0.0045  1.2668 -1.7867
  721TMC3    C710664   2.643   1.928  13.901 -0.0524  0.3674 -0.1266
  721TMC3    C810665   2.585   1.791  14.347  0.4156 -0.0569  0.1071
  721TMC3    O110666   2.761   1.895  13.913  0.2138  0.2392 -0.0131
  721TMC3    O210667   2.693   1.745  14.361 -0.0882 -0.3112 -0.2539
  722MPD2     C10668   0.534   0.311  13.212  0.0010  0.3718 -0.4247
  722MPD2    C110669   0.559   0.340  13.082 -0.1566 -0.0645  0.3531
  722MPD2    C210670   0.451   0.375  12.999  0.1114 -0.6151  0.4065
  722MPD2    C310671   0.333   0.393  13.050 -0.2342  0.4234 -0.0296
  722MPD2    C410672   0.305   0.353  13.179  0.0582  0.0463 -0.4492
  722MPD2    C510673   0.411   0.303  13.262 -0.5202  0.6792 -0.0327
  722MPD2     H10674   0.463   0.407  12.897  2.2377 -0.9522  0.5381
  722MPD2    H110675   0.209   0.372  13.225  0.4360 -0.7027  0.6552
  722MPD2    H210676   0.617   0.275  13.273 -0.3406 -0.6407 -0.5609
  722MPD2    H310677   0.388   0.282  13.366 -1.1293 -1.1912 -0.5393
  722MPD2     N10678   0.232   0.440  12.966 -0.6742  0.4306  0.1193
  722MPD2    H510679   0.274   0.471  12.879 -1.2129  2.0239  0.4352
  722MPD2    N110680   0.694   0.356  13.026 -0.0408 -0.2258 -0.1268
  722MPD2    H710681   0.693   0.385  12.929  1.8562 -1.0005 -0.3954
  723TMC3    C110682   0.035   0.464  12.851  0.0846  0.4883  0.1323
  723TMC3    C210683   4.682   0.372  12.779 -0.6325  1.0148  0.6387
  723TMC3    C310684   4.666   0.398  12.643  0.0876 -0.1093 -0.4787
  723TMC3    C410685   0.078   0.588  12.797  0.1219  0.1841 -0.4922
  723TMC3    C510686   0.045   0.613  12.667  0.5179 -0.2113  0.1743
  723TMC3    C610687   4.700   0.523  12.592  0.3325 -0.2659 -0.0607
  723TMC3     C10688   0.092   0.420  12.972 -0.5444 -0.1823 -0.0066
  723TMC3     O10689   0.026   0.351  13.051 -0.3115 -0.4885  0.3627
  723TMC3     H10690   4.648   0.278  12.821 -2.4076  0.5369 -1.8695
  723TMC3    H110691   0.128   0.660  12.860 -1.3100 -0.1855  1.0919
  723TMC3    H210692   4.674   0.549  12.490  1.0766 -2.0810 -0.7086
  723TMC3    C710693   0.057   0.754  12.617  0.0418 -0.3823 -0.0712
  723TMC3    C810694   4.598   0.302  12.559  0.3466  0.6228  0.0251
  723TMC3    O110695   0.065   0.776  12.500  0.2340  0.4491  0.2627
  723TMC3    O210696   4.509   0.339  12.480  0.2800 -0.5637 -0.8662
  724TMC3    C110697   1.054   2.705  10.399 -0.2103  0.0527 -0.3630
  724TMC3    C210698   1.100   2.736  10.270 -0.8399 -0.2967 -0.1814
  724TMC3    C310699   1.211   2.813  10.266  0.6896  0.5927  0.6676
  724TMC3    C410700   1.115   2.736  10.514  0.3573 -0.0014 -0.4019
  724TMC3    C510701   1.222   2.816  10.498  0.1471  0.5415  0.6494
  724TMC3    C610702   1.271   2.861  10.380 -0.2075 -0.4134 -0.1732
  724TMC3     C10703   0.907   2.698  10.417 -0.0230  0.3622  0.9007
  724TMC3     O10704   0.857   2.670  10.524  0.3874 -0.7259  0.4392
  724TMC3     H10705   1.077   2.665  10.191  0.4524 -2.6630  1.5530
  724TMC3    H110706   1.059   2.716  10.604 -2.1937  0.5770 -1.8578
  724TMC3    H210707   1.361   2.920  10.369  1.1413 -2.5813 -0.8108
  724TMC3    C710708   1.290   2.876  10.611  0.3179  0.4589 -0.0445
  724TMC3    C810709   1.254   2.847  10.130  0.2488  0.0494  1.0483
  724TMC3    O110710   1.390   2.937  10.583 -0.3054 -0.0941  0.1083
  724TMC3    O210711   1.206   2.785  10.037 -0.1192 -0.1422 -0.0842
  725TMC3    C110712   2.834   2.187  12.536 -0.2477  0.5158  0.4180
  725TMC3    C210713   2.721   2.211  12.463  0.3585  0.3629  0.3763
  725TMC3    C310714   2.662   2.097  12.408 -0.0504  0.4525 -0.4934
  725TMC3    C410715   2.893   2.064  12.550 -0.4575  1.3463 -0.6577
  725TMC3    C510716   2.828   1.961  12.486  0.3412 -0.3672 -0.3092
  725TMC3    C610717   2.711   1.971  12.421  0.1540 -0.3370  0.3956
  725TMC3     C10718   2.872   2.292  12.629  0.1730  0.3743 -0.1128
  725TMC3     O10719   2.991   2.312  12.645 -0.0541 -0.6592 -0.5949
  725TMC3     H10720   2.665   2.303  12.453 -2.6393 -1.2622  2.0406
  725TMC3    H110721   2.982   2.055  12.611 -1.5034  0.6557  0.7702
  725TMC3    H210722   2.665   1.884  12.376  0.0190 -0.4603  0.7774
  725TMC3    C710723   2.914   1.840  12.463  0.2928  0.6365 -0.1776
  725TMC3    C810724   2.557   2.116  12.311 -0.3285  0.7437  0.2510
  725TMC3    O110725   3.032   1.852  12.482 -0.5068 -0.1001  0.1453
  725TMC3    O210726   2.479   2.022  12.313  1.1130 -0.1021  0.3428
  726MPD2     C10727   0.670   3.202  10.191  0.4849 -0.5698 -0.2195
  726MPD2    C110728   0.626   3.299  10.278 -0.6043 -0.0479 -0.3591
  726MPD2    C210729   0.520   3.286  10.363  0.4863 -0.2711  0.0883
  726MPD2    C310730   0.447   3.163  10.357  0.5466  0.2541  0.7863
  726MPD2    C410731   0.478   3.075  10.257  0.5138  0.7979  0.0502
  726MPD2    C510732   0.594   3.093  10.183  1.1671  0.1242  0.7158
  726MPD2     H10733   0.504   3.365  10.435 -1.2657 -1.2434  0.7826
  726MPD2    H110734   0.422   2.983  10.241 -0.5839  1.0893  2.1161
  726MPD2    H210735   0.757   3.222  10.129  2.6907 -0.9026  2.8207
  726MPD2    H310736   0.624   3.013  10.116  1.3457  1.2698 -0.5681
  726MPD2     N10737   0.343   3.131  10.446 -0.3231 -0.0847 -0.0806
  726MPD2    H510738   0.290   3.049  10.417 -1.9578  1.7173 -2.3100
  726MPD2    N110739   0.687   3.423  10.278  0.2700 -1.2019  0.0554
  726MPD2    H710740   0.667   3.476  10.362  0.8722  1.0299 -1.2090
  727TMC3    C110741   0.777   3.608  10.200  0.1704  0.4288 -0.2470
  727TMC3    C210742   0.820   3.627  10.327  0.1698 -0.2741 -0.5709
  727TMC3    C310743   0.851   3.756  10.348  0.5832 -0.2138 -0.6409
  727TMC3    C410744   0.768   3.703  10.103  0.0469 -0.0646  0.4083
  727TMC3    C510745   0.800   3.827  10.131 -0.3403  0.1918 -0.0462
  727TMC3    C610746   0.847   3.855  10.257 -0.0881  0.0050 -0.7570
  727TMC3     C10747   0.757   3.473  10.172 -0.2496 -0.9137 -0.0986
  727TMC3     O10748   0.746   3.441  10.057  0.4601 -0.4809 -0.4056
  727TMC3     H10749   0.850   3.548  10.395  1.6712  0.6780 -0.1369
  727TMC3    H110750   0.747   3.663  10.004  0.2174  0.6057  0.1016
  727TMC3    H210751   0.881   3.954  10.284  1.7761 -1.3521  1.8484
  727TMC3    C710752   0.730   3.944  10.076 -0.6638 -0.2711 -0.7407
  727TMC3    C810753   0.912   3.788  10.473 -0.2004  0.6342  0.3953
  727TMC3    O110754   0.742   4.048  10.139 -0.1101  0.2460 -0.5266
  727TMC3    O210755   0.979   3.699  10.528  0.0346 -0.0084  0.0397
  728TMC3    C110756   4.437   2.423  15.024 -0.4251  0.0972 -0.8464
  728TMC3    C210757   4.573   2.426  14.982 -1.0684  0.0604  0.1549
  728TMC3    C310758   4.595   2.438  14.842  0.6810 -0.5796  0.2532
  728TMC3    C410759   4.326   2.431  14.935  0.3794  0.2685  0.6313
  728TMC3    C510760   4.359   2.442  14.803 -0.5906  0.3944 -0.0125
  728TMC3    C610761   4.488   2.441  14.753 -0.0865  0.3223  0.1614
  728TMC3     C10762   4.419   2.418  15.173 -0.3916  0.3731 -0.5636
  728TMC3     O10763   4.505   2.443  15.247 -0.7563 -0.4031  0.4959
  728TMC3     H10764   4.658   2.417  15.049  0.0093  2.7518 -0.8629
  728TMC3    H110765   4.226   2.452  14.970 -0.4369 -0.9615 -0.9723
  728TMC3    H210766   4.510   2.431  14.647  0.4271 -0.3818  0.3379
  728TMC3    C710767   4.258   2.491  14.717 -0.8083 -0.2131  0.3840
  728TMC3    C810768   0.003   2.466  14.784  0.1344 -0.0010  1.3603
  728TMC3    O110769   4.148   2.438  14.730  0.1570  0.1464  0.0882
  728TMC3    O210770   0.019   2.445  14.662  0.1814 -0.2323  0.6115
  729MPD2     C10771   1.746   3.784  16.530 -0.2619 -0.5196  0.0199
  729MPD2    C110772   1.732   3.651  16.525  1.2662  0.0615  0.0852
  729MPD2    C210773   1.757   3.590  16.646  0.0539  0.0660 -0.5585
  729MPD2    C310774   1.777   3.655  16.768  0.2704 -0.4465  0.7490
  729MPD2    C410775   1.763   3.787  16.773 -0.0484 -0.0375 -0.1717
  729MPD2    C510776   1.748   3.853  16.653 -0.3102  1.0178  0.8570
  729MPD2     H10777   1.767   3.482  16.641 -2.1266 -0.2407  1.5587
  729MPD2    H110778   1.751   3.840  16.866  1.6298  2.9404 -1.6280
  729MPD2    H210779   1.729   3.846  16.442 -2.3711 -0.1848  0.6495
  729MPD2    H310780   1.752   3.961  16.644  0.6771  1.0619  1.7563
  729MPD2     N10781   1.821   3.591  16.889 -0.4005  0.2612  0.1618
  729MPD2    H510782   1.838   3.652  16.968 -2.1436  0.0788  0.6839
  729MPD2    N110783   1.725   3.587  16.396 -0.0095 -0.6739  0.5172
  729MPD2    H710784   1.742   3.646  16.315 -2.1180  1.8190  1.9145
  730TMC3    C110785   1.925   3.448  17.026 -0.5455  0.6866 -0.2161
  730TMC3    C210786   2.038   3.382  16.995 -0.2816 -0.2434  0.2784
  730TMC3    C310787   2.163   3.436  17.016  0.0713  0.8453 -0.1713
  730TMC3    C410788   1.935   3.565  17.094  0.2289 -0.0751 -0.4126
  730TMC3    C510789   2.058   3.616  17.124 -0.0344 -1.0051 -0.3716
  730TMC3    C610790   2.172   3.553  17.091  0.4008 -0.1630 -0.0069
  730TMC3     C10791   1.841   3.458  16.907  0.0835 -0.2492  0.0069
  730TMC3     O10792   1.834   3.365  16.829 -0.2621 -0.5864 -0.3434
  730TMC3     H10793   2.026   3.298  16.928 -0.4061  0.6336 -0.7920
  730TMC3    H110794   1.847   3.614  17.132  1.6767  2.2321 -0.0898
  730TMC3    H210795   2.269   3.596  17.116  1.7608 -1.4395 -3.1424
  730TMC3    C710796   2.070   3.758  17.107 -0.1507  0.4001 -0.3475
  730TMC3    C810797   2.238   3.413  16.899  0.4829  0.0377 -0.1826
  730TMC3    O110798   2.139   3.788  17.013 -0.0820 -0.4115  0.0345
  730TMC3    O210799   2.235   3.303  16.844  0.1337  0.2475  0.0553
  731MPD2     C10800   1.779   1.785  12.166 -0.4329  0.6214 -0.0141
  731MPD2    C110801   1.901   1.841  12.186  0.3192  0.6721  0.3778
  731MPD2    C210802   1.949   1.878  12.312 -0.6078  0.1824 -0.6246
  731MPD2    C310803   1.883   1.844  12.425 -0.3475  0.0786  0.2042
  731MPD2    C410804   1.755   1.788  12.412  0.1002  0.3492  0.3373
  731MPD2    C510805   1.713   1.755  12.286  0.1668 -0.4633 -0.0684
  731MPD2     H10806   2.048   1.920  12.322 -0.2643 -0.8908  0.4538
  731MPD2    H110807   1.684   1.770  12.492  0.7770 -0.5483  0.7446
  731MPD2    H210808   1.727   1.743  12.081 -1.5240  1.5043  0.2278
  731MPD2    H310809   1.619   1.702  12.281  0.5176 -1.1939  0.9533
  731MPD2     N10810   1.953   1.847  12.547 -0.0693 -0.1573 -0.5478
  731MPD2    H510811   2.050   1.879  12.547 -0.3484  0.6816  0.0188
  731MPD2    N110812   1.970   1.856  12.068 -0.0366  0.1956 -0.4365
  731MPD2    H710813   1.920   1.853  11.980  1.7021 -2.4760 -1.3203
  732TMC3    C110814   2.156   1.858  11.932 -0.1968  0.0149 -0.0390
  732TMC3    C210815   2.084   1.777  11.839  0.0364 -0.1649  0.3320
  732TMC3    C310816   2.157   1.721  11.741  0.4483  0.4920 -0.2835
  732TMC3    C410817   2.287   1.885  11.909 -0.2325  0.4549  0.4172
  732TMC3    C510818   2.356   1.824  11.809 -1.1065  0.4401 -0.7413
  732TMC3    C610819   2.288   1.744  11.722 -0.0486 -0.0236 -0.0357
  732TMC3     C10820   2.106   1.878  12.065 -0.8411  0.5113  0.2431
  732TMC3     O10821   2.187   1.884  12.152 -0.0137  0.6766 -0.1408
  732TMC3     H10822   1.982   1.749  11.864 -0.4713  0.8954 -0.5637
  732TMC3    H110823   2.327   1.965  11.971  0.7459  1.1494 -1.1219
  732TMC3    H210824   2.346   1.696  11.644  0.2984  1.3452 -0.6322
  732TMC3    C710825   2.499   1.816  11.807  0.3639 -0.3209  0.6968
  732TMC3    C810826   2.097   1.617  11.660 -0.3851  0.1182  0.1970
  732TMC3    O110827   2.559   1.764  11.714 -0.8316  0.0639 -0.1793
  732TMC3    O210828   2.161   1.576  11.560 -0.1273  0.5850  0.5031
  733TMC3    C110829   2.620   0.547  12.467  0.3528  0.5987 -0.0808
  733TMC3    C210830   2.688   0.617  12.562  0.1137 -0.8103 -0.0588
  733TMC3    C310831   2.817   0.649  12.549  0.0868  0.1104  0.6917
  733TMC3    C410832   2.683   0.510  12.350  0.2147  0.1508 -0.1042
  733TMC3    C510833   2.814   0.536  12.339  0.5080 -0.1789  0.0846
  733TMC3    C610834   2.882   0.611  12.431 -0.7105  0.0522  0.6168
  733TMC3     C10835   2.526   0.456  12.516 -0.0210  0.5112  0.6172
  733TMC3     O10836   2.428   0.428  12.450  0.1774 -0.0613 -0.6527
  733TMC3     H10837   2.628   0.657  12.643  0.1406  2.2962 -1.5601
  733TMC3    H110838   2.627   0.452  12.278 -0.7775 -0.7661  1.3974
  733TMC3    H210839   2.981   0.647  12.406 -0.7697 -0.7185 -0.7504
  733TMC3    C710840   2.888   0.458  12.241 -0.7755  0.6213 -0.2676
  733TMC3    C810841   2.898   0.631  12.669  0.4181 -0.6441  0.0224
  733TMC3    O110842   2.831   0.355  12.202  0.0816  0.0438  0.4220
  733TMC3    O210843   2.834   0.619  12.774 -0.0726 -0.4903 -0.5074
  734MPD2     C10844   0.159   2.136  12.523  0.3012 -0.1317 -0.6024
  734MPD2    C110845   0.163   2.029  12.435  0.5403  0.3973 -0.1446
  734MPD2    C210846   0.218   2.050  12.307 -0.4095  0.3173  0.2531
  734MPD2    C310847   0.251   2.177  12.273  0.3595 -0.4353 -0.2562
  734MPD2    C410848   0.255   2.282  12.360 -0.2426  0.6800  0.1557
  734MPD2    C510849   0.219   2.256  12.490  0.1738 -0.0169 -0.2482
  734MPD2     H10850   0.226   1.963  12.243 -4.4577 -0.6313  1.0540
  734MPD2    H110851   0.282   2.383  12.332  0.5627  0.4473  0.0816
  734MPD2    H210852   0.115   2.131  12.621 -0.7175  1.9939 -0.9635
  734MPD2    H310853   0.232   2.327  12.571  1.8414  0.1714 -0.6839
  734MPD2     N10854   0.264   2.204  12.133 -0.0949 -0.1906 -0.6307
  734MPD2    H510855   0.246   2.130  12.066 -0.3687  1.7346 -2.6786
  734MPD2    N110856   0.104   1.908  12.484  0.0433 -0.7625  0.1566
  734MPD2    H710857   0.084   1.897  12.583 -2.6447 -0.8518 -0.3743
  735TMC3    C110858   0.003   1.689  12.457 -0.3330  0.0790  0.1535
  735TMC3    C210859   4.616   1.683  12.382  0.8821  0.0314  0.1843
  735TMC3    C310860   4.585   1.568  12.315  0.1496 -0.2656  0.7310
  735TMC3    C410861   0.080   1.575  12.470  0.9163 -0.4325  0.8444
  735TMC3    C510862   0.046   1.460  12.412  1.0813  0.6599  0.2490
  735TMC3    C610863   4.657   1.460  12.337 -0.1200 -0.2078  0.6604
  735TMC3     C10864   0.082   1.794  12.405 -0.3317  0.7562 -0.0678
  735TMC3     O10865   0.089   1.781  12.279  0.4918 -0.0584  0.3502
  735TMC3     H10866   4.581   1.784  12.363 -1.0908 -0.3628  1.7271
  735TMC3    H110867   0.170   1.588  12.529  0.1963 -1.0109  2.0745
  735TMC3    H210868   4.648   1.377  12.269  1.4197  0.0891  0.1072
  735TMC3    C710869   0.157   1.391  12.347  0.3728 -0.1147  0.9430
  735TMC3    C810870   4.540   1.588  12.179  0.6334  0.5967  0.1442
  735TMC3    O110871   0.249   1.469  12.315 -0.1285 -0.0231 -0.1747
  735TMC3    O210872   4.467   1.504  12.134  0.2129  0.4115 -0.0264
  736MPD2     C10873   0.225   1.047  12.298  0.0900  0.1425 -0.1294
  736MPD2    C110874   0.232   1.174  12.260 -0.0450  0.0136 -0.1772
  736MPD2    C210875   0.328   1.210  12.172 -0.3532 -0.5730  0.8147
  736MPD2    C310876   0.417   1.125  12.115  0.1631  0.8823 -0.1282
  736MPD2    C410877   0.412   0.996  12.153 -0.7785 -1.1888  0.1357
  736MPD2    C510878   0.315   0.957  12.245 -0.3916 -0.3367  0.0852
  736MPD2     H10879   0.340   1.317  12.156 -0.6524 -0.6302  0.2073
  736MPD2    H110880   0.480   0.924  12.110  0.0497 -0.0925 -0.4112
  736MPD2    H210881   0.148   1.012  12.365  2.0735 -0.4726  1.8148
  736MPD2    H310882   0.304   0.851  12.266 -0.7357 -1.1856 -4.2459
  736MPD2     N10883   0.517   1.160  12.022  0.2576  0.0586  0.0729
  736MPD2    H510884   0.562   1.087  11.969  0.8619 -0.1757  0.9232
  736MPD2    N110885   0.138   1.258  12.322  0.0664  0.3903  0.0848
  736MPD2    H710886   0.064   1.217  12.377  0.6440  1.0323  1.3434
  737TMC3    C110887   0.642   1.311  11.878 -0.0165 -0.3409  0.5282
  737TMC3    C210888   0.683   1.439  11.842 -0.1953 -0.2919  0.4393
  737TMC3    C310889   0.738   1.466  11.720  0.0962  0.3347 -0.4789
  737TMC3    C410890   0.666   1.204  11.790  0.2971  0.5979  0.3119
  737TMC3    C510891   0.735   1.234  11.680 -0.2010 -0.2102 -0.1794
  737TMC3    C610892   0.763   1.356  11.637 -0.6791  0.2856  0.4006
  737TMC3     C10893   0.553   1.293  11.994 -0.0235  0.1361 -0.5225
  737TMC3     O10894   0.511   1.398  12.044 -0.3793  0.1724  0.0946
  737TMC3     H10895   0.665   1.522  11.909  0.7323  0.9679 -0.8492
  737TMC3    H110896   0.644   1.100  11.812 -2.0298  0.9376 -0.3584
  737TMC3    H210897   0.806   1.363  11.538  0.6339 -3.0985  0.7396
  737TMC3    C710898   0.759   1.118  11.588  0.0588 -1.4166 -0.0082
  737TMC3    C810899   0.800   1.604  11.703 -0.2481 -0.4059  0.9359
  737TMC3    O110900   0.706   1.009  11.619  0.5234  0.1994 -0.5173
  737TMC3    O210901   0.798   1.676  11.805  0.9918  0.1359 -0.1773
  738MPD2     C10902   1.253   0.929  15.355 -0.1329  0.6093  0.0013
  738MPD2    C110903   1.209   0.910  15.227  0.3952 -0.3688 -0.5970
  738MPD2    C210904   1.287   0.966  15.118  0.0536 -0.1468  0.8047
  738MPD2    C310905   1.407   1.031  15.145  0.3117 -0.2007  1.0438
  738MPD2    C410906   1.451   1.040  15.283 -0.1653 -0.1624 -0.2471
  738MPD2    C510907   1.373   0.990  15.377  0.8069  0.6424 -0.2014
  738MPD2     H10908   1.252   0.961  15.016  0.1166  0.4312  0.7574
  738MPD2    H110909   1.544   1.089  15.308 -0.7662  0.7857  0.1248
  738MPD2    H210910   1.191   0.914  15.442  2.0767  0.3742  1.5424
  738MPD2    H310911   1.396   1.001  15.482 -1.9738 -0.0065  0.4767
  738MPD2     N10912   1.491   1.097  15.051  0.5580  0.7545  0.4164
  738MPD2    H510913   1.587   1.122  15.071  0.5055 -0.0671  1.7155
  738MPD2    N110914   1.088   0.842  15.195  0.2323  0.5158 -0.0405
  738MPD2    H710915   1.070   0.833  15.095  1.6407  2.7245 -0.4912
  739TMC3    C110916   1.563   1.188  14.850  0.0098 -0.7088  0.2719
  739TMC3    C210917   1.538   1.181  14.719  0.0445  0.8149  0.3748
  739TMC3    C310918   1.646   1.198  14.642 -0.4410  0.0848  0.0007
  739TMC3    C410919   1.672   1.232  14.906  0.7815 -0.5602  0.1308
  739TMC3    C510920   1.779   1.243  14.825  0.4112  0.2145 -0.4364
  739TMC3    C610921   1.771   1.225  14.690 -0.5166  0.4220  0.1781
  739TMC3     C10922   1.449   1.140  14.922 -0.1074 -0.7633  0.0575
  739TMC3     O10923   1.351   1.112  14.854  0.3875 -0.2959 -0.2082
  739TMC3     H10924   1.448   1.142  14.673 -0.2836  0.3396  1.4132
  739TMC3    H110925   1.691   1.257  15.010 -0.9571 -0.9804  0.5412
  739TMC3    H210926   1.865   1.243  14.640  0.1807 -1.0827  0.9140
  739TMC3    C710927   1.900   1.292  14.880  0.2118  0.2830  0.1436
  739TMC3    C810928   1.633   1.155  14.502 -0.1291  0.0736  0.4873
  739TMC3    O110929   1.999   1.257  14.822 -0.2750 -0.0985 -0.6326
  739TMC3    O210930   1.541   1.085  14.468  0.5410  0.4816  0.6038
  740TMC3    C110931   1.933   2.239  14.161 -0.3012 -0.1932 -0.6336
  740TMC3    C210932   1.991   2.184  14.266 -0.6136 -0.1263  0.0685
  740TMC3    C310933   2.105   2.122  14.248  0.0555  0.8012 -0.0722
  740TMC3    C410934   1.985   2.233  14.032 -0.2101  0.5240 -0.4705
  740TMC3    C510935   2.099   2.170  14.018 -0.1203  0.0611  0.6483
  740TMC3    C610936   2.165   2.114  14.126  0.1947 -0.3325  0.5548
  740TMC3     C10937   1.812   2.315  14.170 -0.2782  0.5124  0.1960
  740TMC3     O10938   1.786   2.384  14.072  0.1540  0.4474 -0.3594
  740TMC3     H10939   1.955   2.207  14.366 -1.2367 -2.3714  0.3722
  740TMC3    H110940   1.917   2.244  13.948  0.0316 -0.6209 -0.8130
  740TMC3    H210941   2.269   2.081  14.118  0.4390  0.5127  0.3066
  740TMC3    C710942   2.174   2.165  13.896 -0.4392 -0.2140  0.2264
  740TMC3    C810943   2.145   2.027  14.347  0.1843 -0.7105  0.5513
  740TMC3    O110944   2.284   2.106  13.899 -0.2770 -0.0397 -0.2751
  740TMC3    O210945   2.261   1.984  14.347 -0.6506  0.1111 -0.3258
  741TMC3    C110946   1.365   1.440  14.422  0.8037 -0.2186  0.3556
  741TMC3    C210947   1.279   1.340  14.370 -0.2832  0.4740 -0.2929
  741TMC3    C310948   1.206   1.271  14.459  0.4587  0.3126 -0.5560
  741TMC3    C410949   1.370   1.468  14.556  0.0964  0.6815  0.5670
  741TMC3    C510950   1.289   1.395  14.640  0.1690 -0.4328 -0.3609
  741TMC3    C610951   1.212   1.292  14.593 -0.4518  0.2979 -0.1051
  741TMC3     C10952   1.485   1.478  14.349 -0.6685 -0.1988 -0.3205
  741TMC3     O10953   1.567   1.539  14.416  0.4373 -0.8105 -0.0221
  741TMC3     H10954   1.268   1.330  14.263 -0.8321 -1.0742 -0.0906
  741TMC3    H110955   1.443   1.538  14.596  1.7543 -1.1658  0.7912
  741TMC3    H210956   1.143   1.239  14.658  1.3516 -0.1777  1.4167
  741TMC3    C710957   1.268   1.458  14.767 -0.8730 -1.0883 -0.2751
  741TMC3    C810958   1.105   1.180  14.410 -0.0055  0.2844 -0.7446
  741TMC3    O110959   1.307   1.573  14.781 -0.0000  0.2552  0.0308
  741TMC3    O210960   1.033   1.133  14.499  0.3042  0.1822  0.1267
  742TMC3    C110961   1.041   4.682  15.327  0.3608  0.3383 -1.8392
  742TMC3    C210962   0.977   4.691  15.204  0.7163 -0.0567  0.0309
  742TMC3    C310963   1.061   4.707  15.095 -0.5559  0.2560 -0.1671
  742TMC3    C410964   1.177   4.677  15.345  0.2795 -0.0908  0.7563
  742TMC3    C510965   1.250   4.699  15.233 -0.1760  0.5113 -0.8279
  742TMC3    C610966   1.197   4.710  15.108 -0.7395  0.8429 -0.0329
  742TMC3     C10967   0.954   4.674  15.442 -0.3264 -0.1931  0.3101
  742TMC3     O10968   0.848   4.613  15.435 -0.0033 -0.0727 -0.6929
  742TMC3     H10969   0.870   4.674  15.203  0.4205  1.8018  0.3938
  742TMC3    H110970   1.225   4.661  15.441 -2.1288  2.1717  2.3172
  742TMC3    H210971   1.261   0.004  15.023  0.3301 -0.8923  0.3767
  742TMC3    C710972   1.382   4.642  15.232 -0.5699 -0.2898  0.2277
  742TMC3    C810973   1.018   4.675  14.957 -0.1929  0.0003  0.6032
  742TMC3    O110974   1.414   4.578  15.132  0.9061 -0.3507  0.1342
  742TMC3    O210975   1.100   4.628  14.875 -0.0044 -0.1170 -0.6604
  743MPD2     C10976   2.768   2.112   1.166 -0.0091 -0.2811 -0.5739
  743MPD2    C110977   2.854   2.037   1.087 -0.0302 -0.3922  0.1788
  743MPD2    C210978   2.982   2.010   1.132 -0.3756  0.2289 -0.0130
  743MPD2    C310979   3.037   2.080   1.234 -0.6247 -0.1056 -0.0605
  743MPD2    C410980   2.960   2.168   1.305  0.1199  0.0960 -0.7149
  743MPD2    C510981   2.829   2.181   1.274 -0.2696 -0.4049 -0.7250
  743MPD2     H10982   3.046   1.948   1.070 -2.2281 -2.1689  0.4578
  743MPD2    H110983   2.988   2.226   1.392  1.7222 -0.2614 -0.9930
  743MPD2    H210984   2.671   2.136   1.123 -0.4410 -1.4384 -0.2594
  743MPD2    H310985   2.767   2.256   1.322  2.2265  0.7777  0.6518
  743MPD2     N10986   3.169   2.063   1.277  0.2420  0.0455 -0.1766
  743MPD2    H510987   3.221   1.988   1.233 -0.3246  0.0255 -0.8081
  743MPD2    N110988   2.795   1.971   0.975 -0.2757 -0.3601  0.2797
  743MPD2    H710989   2.705   2.001   0.941  0.7398  1.2961 -0.9319
  744TMC3    C110990   2.785   1.854   0.770  0.7916 -0.4917 -1.1137
  744TMC3    C210991   2.688   1.941   0.727 -0.3171 -0.4689 -0.0918
  744TMC3    C310992   2.664   1.950   0.596 -0.0605  0.0738  0.1050
  744TMC3    C410993   2.853   1.770   0.682 -0.5938 -0.0830 -0.1659
  744TMC3    C510994   2.819   1.783   0.548  0.1385 -0.2871  0.7051
  744TMC3    C610995   2.726   1.876   0.506  0.4728 -0.5588  0.3838
  744TMC3     C10996   2.855   1.877   0.895  0.2140 -0.7964 -0.0901
  744TMC3     O10997   2.961   1.818   0.905  0.2908  0.8777  0.0385
  744TMC3     H10998   2.643   2.015   0.793  2.1360  1.9449 -1.0899
  744TMC3    H110999   2.929   1.697   0.710 -0.1357  0.9941  1.4041
  744TMC3    H211000   2.701   1.893   0.402 -0.4822  2.5814  1.1312
  744TMC3    C711001   2.912   1.707   0.463 -0.1838 -0.5043 -1.1219
  744TMC3    C811002   2.547   2.026   0.553  0.5798  1.3634  0.0431
  744TMC3    O111003   2.985   1.625   0.518 -0.1578 -0.3001 -0.2610
  744TMC3    O211004   2.515   2.119   0.623  0.1457 -0.3999  0.1534
  745TMC3    C111005   1.453   4.190  13.294  1.2240  0.0737  0.2273
  745TMC3    C211006   1.391   4.266  13.393  0.0582  0.2438  0.4563
  745TMC3    C311007   1.261   4.298  13.372 -0.3113 -0.0817  0.2770
  745TMC3    C411008   1.390   4.140  13.185 -0.4337  0.6505  0.8625
  745TMC3    C511009   1.256   4.176  13.163 -0.3025 -0.5027 -0.4328
  745TMC3    C611010   1.188   4.247  13.264  0.1638  0.5688  0.9255
  745TMC3     C11011   1.593   4.201  13.280 -0.0180  0.2109 -0.2449
  745TMC3     O11012   1.649   4.101  13.238 -0.3103  0.0828 -0.6122
  745TMC3     H11013   1.448   4.285  13.484  2.9884 -1.0525 -1.0997
  745TMC3    H111014   1.451   4.117  13.098  2.0322  1.1427  2.4849
  745TMC3    H211015   1.096   4.299  13.241 -0.2406 -0.9096 -0.8201
  745TMC3    C711016   1.241   4.250  13.040  0.1728  0.0349  0.8388
  745TMC3    C811017   1.194   4.393  13.457  0.3105 -0.2615  0.4974
  745TMC3    O111018   1.186   4.189  12.950 -0.3110  0.0750 -0.2246
  745TMC3    O211019   1.072   4.406  13.462 -1.1563 -0.4771  0.0612
  746TMC3    C111020   4.035   1.290  10.616  0.2820  0.2723  0.2573
  746TMC3    C211021   4.065   1.309  10.480  0.3197  0.4472  0.8842
  746TMC3    C311022   4.019   1.220  10.391  0.2681  0.1049  0.3391
  746TMC3    C411023   3.960   1.183  10.660  0.2968 -0.3311 -0.4313
  746TMC3    C511024   3.930   1.090  10.568 -0.6506  0.6789  1.0368
  746TMC3    C611025   3.959   1.106  10.435 -0.1643  0.0839  0.6989
  746TMC3     C11026   4.020   1.409  10.702 -0.5528  0.2438 -0.1553
  746TMC3     O11027   3.960   1.399  10.811 -0.1510 -0.2998 -0.4972
  746TMC3     H11028   4.124   1.393  10.445  0.2158 -0.2130 -0.8439
  746TMC3    H111029   3.924   1.175  10.762 -2.2033 -0.8741 -1.3576
  746TMC3    H211030   3.935   1.023  10.370 -0.3273  0.3649  0.4029
  746TMC3    C711031   3.828   0.993  10.605  0.0435  0.4298 -0.8152
  746TMC3    C811032   4.044   1.227  10.250 -0.9807 -0.0458  0.8558
  746TMC3    O111033   3.764   0.944  10.510 -0.1373  0.3156  0.2941
  746TMC3    O211034   4.038   1.120  10.184  0.2652 -0.7157 -0.0918
  747TMC3    C111035   1.679   0.856  11.126  0.1700 -0.0525 -0.2245
  747TMC3    C211036   1.547   0.830  11.121 -0.5818  0.4943 -0.3410
  747TMC3    C311037   1.459   0.923  11.175 -0.3129  0.0685 -0.2429
  747TMC3    C411038   1.722   0.984  11.156 -0.1276  0.9049  0.5765
  747TMC3    C511039   1.631   1.071  11.216 -1.0001 -1.2368  0.3277
  747TMC3    C611040   1.495   1.045  11.222 -0.6433 -0.7867  0.3059
  747TMC3     C11041   1.767   0.764  11.059  0.0927  0.2502 -0.0108
  747TMC3     O11042   1.884   0.771  11.092 -0.3305  0.1288  0.0482
  747TMC3     H11043   1.515   0.728  11.104 -1.7566  0.7856  0.1472
  747TMC3    H111044   1.829   1.000  11.144 -0.5007  2.4317 -0.6665
  747TMC3    H211045   1.421   1.119  11.250 -0.8719 -1.6007  1.8871
  747TMC3    C711046   1.654   1.207  11.207  0.0242  0.2807  0.3888
  747TMC3    C811047   1.319   0.886  11.182 -0.4571  0.3276  0.6956
  747TMC3    O111048   1.588   1.282  11.280 -0.3427  0.1695 -0.3316
  747TMC3    O211049   1.286   0.776  11.136  0.0470 -0.0825 -0.5465
  748MPD2     C11050   2.602   3.454   1.398  0.2008 -0.5995 -0.2675
  748MPD2    C111051   2.587   3.318   1.382 -0.0198 -0.3606  0.3166
  748MPD2    C211052   2.695   3.243   1.340 -0.4694  0.4177 -0.3356
  748MPD2    C311053   2.823   3.297   1.318 -0.2903  0.3536 -0.2647
  748MPD2    C411054   2.835   3.433   1.331 -0.2730 -0.4579 -0.3642
  748MPD2    C511055   2.726   3.507   1.372  0.2510 -0.4047 -0.4009
  748MPD2     H11056   2.682   3.137   1.324 -1.4591  0.5383 -0.3500
  748MPD2    H111057   2.932   3.478   1.317 -0.2554 -0.6261 -0.7914
  748MPD2    H211058   2.525   3.521   1.433  0.3453 -0.3756 -0.3781
  748MPD2    H311059   2.732   3.611   1.402 -1.1901 -0.4262 -0.0410
  748MPD2     N11060   2.930   3.221   1.261 -0.9089 -1.1871  0.4953
  748MPD2    H511061   3.009   3.273   1.227 -1.4768 -0.6396  0.0124
  748MPD2    N111062   2.461   3.270   1.427 -0.0805  0.1682 -0.2708
  748MPD2    H711063   2.394   3.325   1.479 -1.0342 -0.2837 -1.0090
  749TMC3    C111064   3.059   3.038   1.201  0.2173 -0.1002  0.1373
  749TMC3    C211065   3.111   2.918   1.257  0.0679  0.1416 -0.2555
  749TMC3    C311066   3.228   2.869   1.206  0.2335  0.6989  0.6684
  749TMC3    C411067   3.122   3.101   1.098 -0.2651 -0.0326  0.2232
  749TMC3    C511068   3.238   3.044   1.052 -0.1498 -0.1663  0.3844
  749TMC3    C611069   3.300   2.937   1.115 -0.3756  0.0003  0.9482
  749TMC3     C11070   2.939   3.085   1.259  0.0045  0.3462 -0.3442
  749TMC3     O11071   2.872   3.002   1.317  0.9078  0.0384  0.1362
  749TMC3     H11072   3.075   2.882   1.353 -1.2813  0.4457 -0.6601
  749TMC3    H111073   3.072   3.185   1.051 -1.5464  0.0609  1.7167
  749TMC3    H211074   3.384   2.901   1.058 -0.5105  2.3202 -0.7326
  749TMC3    C711075   3.318   3.140   0.969  0.7867 -0.2861 -0.0265
  749TMC3    C811076   3.305   2.805   1.315 -0.0742  0.0645 -0.1056
  749TMC3    O111077   3.303   3.260   0.988  0.5374 -0.0711 -0.5781
  749TMC3    O211078   3.295   2.857   1.427 -0.6949  0.6737  0.9431
  750MPD2     C11079   4.481   3.200  11.167  0.2400  0.3548 -0.1045
  750MPD2    C111080   4.394   3.146  11.256  0.2654  0.4609 -0.9053
  750MPD2    C211081   4.303   3.045  11.217 -0.7405 -0.3339  0.2001
  750MPD2    C311082   4.318   2.994  11.089  0.1537  0.1189  0.1488
  750MPD2    C411083   4.407   3.045  11.002 -0.4714  0.2827  0.2870
  750MPD2    C511084   4.479   3.157  11.040 -0.0951 -0.2854  0.0007
  750MPD2     H11085   4.237   2.989  11.283  0.0314 -1.1700  0.2576
  750MPD2    H111086   4.410   3.009  10.900  1.1259 -2.1417  1.1910
  750MPD2    H211087   4.540   3.284  11.202 -0.9446  0.7301  0.9946
  750MPD2    H311088   4.547   3.204  10.969 -1.2426  1.9243  0.3535
  750MPD2     N11089   4.237   2.892  11.032  0.0962 -0.4463  0.4338
  750MPD2    H511090   4.249   2.868  10.934 -0.2392 -0.2829  0.3508
  750MPD2    N111091   4.407   3.200  11.386  0.7006 -0.4217 -0.0164
  750MPD2    H711092   4.479   3.270  11.401  1.9052 -1.6571  0.0034
  751TMC3    C111093   4.072   2.730  11.008 -0.1651 -0.0284 -0.1627
  751TMC3    C211094   3.939   2.737  10.997  0.3274 -0.2180 -0.2419
  751TMC3    C311095   3.875   2.679  10.885  0.0093 -0.9997  0.4593
  751TMC3    C411096   4.155   2.671  10.910 -0.4602  0.1970 -0.0650
  751TMC3    C511097   4.089   2.612  10.803  0.4190 -0.1766 -0.2047
  751TMC3    C611098   3.955   2.617  10.789  0.0363  0.6052 -0.5994
  751TMC3     C11099   4.132   2.833  11.094  0.5465 -0.1959  0.7353
  751TMC3     O11100   4.073   2.867  11.196 -0.5435  0.2821 -0.0943
  751TMC3     H11101   3.876   2.777  11.076  3.0796 -2.1087  2.9010
  751TMC3    H111102   4.258   2.644  10.926 -0.2857 -1.2310 -3.7126
  751TMC3    H211103   3.900   2.565  10.711  0.9004  0.5160 -1.1509
  751TMC3    C711104   4.168   2.529  10.713 -0.7510 -0.1184 -0.3474
  751TMC3    C811105   3.735   2.647  10.886  0.4804  0.1461  0.2798
  751TMC3    O111106   4.286   2.534  10.714 -0.6354 -0.1020 -0.8239
  751TMC3    O211107   3.710   2.552  10.814  0.3626 -0.0047 -0.6846
  752TMC3    C111108   2.432   3.035  16.987 -0.4747 -0.1372 -0.3380
  752TMC3    C211109   2.527   2.990  17.077 -0.6949 -0.3934 -0.0674
  752TMC3    C311110   2.501   2.977  17.215 -0.3598  0.5663 -0.7429
  752TMC3    C411111   2.310   3.069  17.029 -0.2333  0.3442 -0.8560
  752TMC3    C511112   2.282   3.059  17.163  0.1220 -0.3136 -0.6932
  752TMC3    C611113   2.383   3.027  17.259 -0.0176  0.1022 -0.0502
  752TMC3     C11114   2.468   3.012  16.846 -0.6670  0.0405 -0.0186
  752TMC3     O11115   2.561   2.938  16.825  0.0386 -0.0846  0.0989
  752TMC3     H11116   2.625   2.953  17.050 -1.5150 -2.6319  0.0595
  752TMC3    H111117   2.231   3.083  16.956  1.4093 -1.1166 -2.9453
  752TMC3    H211118   2.350   2.991  17.356  1.1810 -1.0025 -0.0454
  752TMC3    C711119   2.171   3.134  17.208 -0.8759  0.0002  0.8228
  752TMC3    C811120   2.562   2.869  17.287 -0.4983 -0.1395 -0.5809
  752TMC3    O111121   2.066   3.115  17.151 -0.0378 -0.1765 -0.6003
  752TMC3    O211122   2.572   2.766  17.228  0.2330  0.2153  0.2848
  753TMC3    C111123   0.037   4.239  13.483 -0.4227  0.0569  0.3223
  753TMC3    C211124   0.142   4.245  13.578  1.1054 -1.0137 -0.2823
  753TMC3    C311125   0.166   4.131  13.649 -0.8685  0.6014  0.3598
  753TMC3    C411126   4.681   4.129  13.464 -0.3333  0.4607  0.3637
  753TMC3    C511127   4.725   4.017  13.529  0.2728  0.9046 -0.1637
  753TMC3    C611128   0.101   4.011  13.623  0.1790 -0.1827 -0.6392
  753TMC3     C11129   0.008   4.356  13.396 -0.4589  0.3510  0.4989
  753TMC3     O11130   4.618   4.373  13.358 -0.4728 -0.3281 -0.2545
  753TMC3     H11131   0.199   4.337  13.589  0.0737 -0.6821  2.3215
  753TMC3    H111132   4.610   4.130  13.382  1.2134 -0.0194 -0.9656
  753TMC3    H211133   0.128   3.922  13.679 -0.5256  1.6486  2.6272
  753TMC3    C711134   4.673   3.882  13.493 -0.0487 -0.7036  0.0428
  753TMC3    C811135   0.282   4.126  13.730  0.1913  0.4403 -0.0815
  753TMC3    O111136   4.677   3.797  13.574  0.4844  0.7085 -0.2799
  753TMC3    O211137   0.350   4.021  13.723  0.0090 -0.5711  0.2483
  754MPD2     C11138   3.965   3.235  12.864  0.1949 -0.0744  0.3845
  754MPD2    C111139   3.947   3.102  12.832  0.2180  0.2728 -0.5272
  754MPD2    C211140   3.816   3.066  12.794  0.1508  0.3532  0.6517
  754MPD2    C311141   3.707   3.153  12.802  0.7217 -0.0567  0.2059
  754MPD2    C411142   3.734   3.281  12.834 -0.8348 -0.7285 -0.0169
  754MPD2    C511143   3.861   3.322  12.857  0.7201 -0.5214 -0.1810
  754MPD2     H11144   3.798   2.967  12.754 -0.1100 -0.1656  2.0607
  754MPD2    H111145   3.656   3.356  12.845 -0.5767 -0.6603  1.3799
  754MPD2    H211146   4.061   3.281  12.888  1.4721 -1.6597 -1.7014
  754MPD2    H311147   3.877   3.421  12.897  0.4974 -0.3283 -0.5714
  754MPD2     N11148   3.575   3.110  12.784 -0.5995 -0.0958 -0.0027
  754MPD2    H511149   3.504   3.181  12.772 -0.4838 -0.0691 -0.5366
  754MPD2    N111150   4.053   3.010  12.827  0.0752  0.4844 -0.2962
  754MPD2    H711151   4.143   3.055  12.832  0.6131 -0.6383  0.0750
  755MPD2     C11152   2.996   3.635  13.111  0.3573 -0.1255  0.0468
  755MPD2    C111153   2.957   3.524  13.176  0.3049 -0.0428  0.0387
  755MPD2    C211154   3.032   3.412  13.149 -1.0617 -0.5563 -0.7549
  755MPD2    C311155   3.138   3.407  13.058 -0.1252  0.1872 -0.0975
  755MPD2    C411156   3.180   3.524  13.003 -0.2366 -0.3800 -0.7179
  755MPD2    C511157   3.104   3.635  13.029  0.0170  0.0479 -0.2264
  755MPD2     H11158   2.998   3.328  13.208 -0.5139  0.4805  1.0357
  755MPD2    H111159   3.254   3.541  12.925  0.6789  1.7444  0.6144
  755MPD2    H211160   2.961   3.735  13.134  0.8764 -0.0015  0.3066
  755MPD2    H311161   3.131   3.735  12.998 -0.3399  0.5510  1.0932
  755MPD2     N11162   3.199   3.290  13.023  1.0662 -0.3580  0.4953
  755MPD2    H511163   3.262   3.286  12.943 -0.8445  0.8431 -1.0744
  755MPD2    N111164   2.861   3.515  13.277 -0.2388 -0.1624  0.3153
  755MPD2    H711165   2.848   3.429  13.329 -2.8138 -1.4325 -2.5088
  756MPD2     C11166   3.684   3.621   9.049 -0.5171  0.1758 -0.3054
  756MPD2    C111167   3.625   3.533   9.140 -0.7019 -0.0716  0.0370
  756MPD2    C211168   3.491   3.501   9.130  0.8690 -0.1401 -0.0152
  756MPD2    C311169   3.412   3.575   9.050  0.6240  0.1933  0.4450
  756MPD2    C411170   3.469   3.659   8.964  0.5334  0.7258 -0.0049
  756MPD2    C511171   3.600   3.686   8.966  0.3914 -0.1481 -0.0705
  756MPD2     H11172   3.440   3.436   9.199 -2.1681  0.8567 -1.3332
  756MPD2    H111173   3.410   3.709   8.889 -1.2910 -0.3639  0.7059
  756MPD2    H211174   3.789   3.647   9.059 -0.8534  2.4276 -2.4422
  756MPD2    H311175   3.640   3.762   8.900  1.1605 -0.6335 -0.1655
  756MPD2     N11176   3.282   3.532   9.046  0.3594  0.2373  0.3057
  756MPD2    H511177   3.254   3.456   9.108 -0.0134 -0.1384 -0.3277
  756MPD2    N111178   3.693   3.480   9.253  0.2650  0.2025  0.0728
  756MPD2    H711179   3.630   3.418   9.302  0.8476  1.4423  2.3685
  757MPD2     C11180   3.028   2.920   9.520 -0.2768  0.5332  0.3743
  757MPD2    C111181   3.141   2.994   9.481  0.0559  0.1118  0.5521
  757MPD2    C211182   3.123   3.097   9.383  0.6522 -0.2042  0.4387
  757MPD2    C311183   2.998   3.110   9.328 -0.6112  0.1260  0.0667
  757MPD2    C411184   2.892   3.026   9.361  0.5438 -0.5402  0.0355
  757MPD2    C511185   2.905   2.932   9.457 -0.1142  0.3202 -0.4101
  757MPD2     H11186   3.200   3.160   9.339 -0.4256 -1.0819 -2.6885
  757MPD2    H111187   2.796   3.042   9.312  0.4252  0.1484  0.4916
  757MPD2    H211188   3.036   2.836   9.588 -0.7328  1.8899  2.0766
  757MPD2    H311189   2.819   2.871   9.484 -1.0188  0.2955 -3.3233
  757MPD2     N11190   2.989   3.213   9.230  0.1282 -0.2767 -0.2432
  757MPD2    H511191   3.072   3.271   9.219 -0.9281  0.6980 -3.0343
  757MPD2    N111192   3.265   2.951   9.530  0.0045 -0.3502 -0.4937
  757MPD2    H711193   3.272   2.868   9.589 -2.5103  0.4570  0.9580
  758MPD2     C11194   3.578   2.929  15.552  0.0150 -0.4811  0.4167
  758MPD2    C111195   3.600   2.812  15.613  0.2880  0.4585  0.3341
  758MPD2    C211196   3.522   2.787  15.722 -0.2606 -0.4355 -0.0108
  758MPD2    C311197   3.425   2.878  15.765 -0.6225 -0.2384 -0.1901
  758MPD2    C411198   3.412   2.998  15.699 -0.0677 -0.2750 -0.2401
  758MPD2    C511199   3.487   3.022  15.589  0.6525  0.0734 -0.0388
  758MPD2     H11200   3.533   2.694  15.776  1.8800  0.1568  0.5727
  758MPD2    H111201   3.337   3.073  15.721  0.4391  0.3664 -0.6901
  758MPD2    H211202   3.628   2.948  15.458  1.5172  0.0383  1.3408
  758MPD2    H311203   3.463   3.105  15.523 -0.6310 -0.6099 -0.4213
  758MPD2     N11204   3.343   2.857  15.876  0.2012 -0.3751 -0.0862
  758MPD2    H511205   3.292   2.937  15.913  0.9327  0.8703 -1.7829
  758MPD2    N111206   3.695   2.724  15.558  0.1851  0.1662  0.1907
  758MPD2    H711207   3.757   2.742  15.481 -1.1993  1.1602 -0.6898
  759MPD2     C11208   2.972   0.774  10.116 -0.7048 -0.5143  0.1512
  759MPD2    C111209   2.875   0.730  10.034  0.1097 -0.4054  0.3256
  759MPD2    C211210   2.866   0.777   9.905 -0.5884  0.2703  0.0788
  759MPD2    C311211   2.945   0.887   9.875 -0.2298  0.6525 -1.0929
  759MPD2    C411212   3.041   0.940   9.963 -0.4679  0.1116 -0.8363
  759MPD2    C511213   3.057   0.873  10.079 -0.0021  0.6756  0.0560
  759MPD2     H11214   2.798   0.727   9.837  1.7034 -2.4865 -0.1573
  759MPD2    H111215   3.084   1.038   9.945 -1.4646  0.6865 -0.1122
  759MPD2    H211216   2.978   0.744  10.220  0.7567  0.6316  0.4073
  759MPD2    H311217   3.122   0.912  10.156  0.1861 -1.1960  0.8390
  759MPD2     N11218   2.914   0.953   9.755  0.0003 -0.3475 -0.1644
  759MPD2    H511219   2.816   0.948   9.731  0.2011  2.3653 -1.6281
  759MPD2    N111220   2.784   0.625  10.071 -0.0639 -0.0756 -0.3773
  759MPD2    H711221   2.723   0.590   9.998 -1.3149 -0.0552  0.6526
  760MPD2     C11222   2.191   3.185  11.858  0.3620  0.7709  0.9571
  760MPD2    C111223   2.289   3.210  11.760 -0.4066 -0.4554  0.1944
  760MPD2    C211224   2.353   3.103  11.703  0.0640 -0.5676  0.0402
  760MPD2    C311225   2.325   2.972  11.729 -0.0164 -0.7873 -0.8296
  760MPD2    C411226   2.223   2.946  11.822 -0.1856  0.3571 -0.2412
  760MPD2    C511227   2.163   3.050  11.886  0.2650  0.3424  0.3527
  760MPD2     H11228   2.424   3.138  11.628 -1.6292 -0.2868 -1.4480
  760MPD2    H111229   2.187   2.847  11.846 -0.2707  0.3096 -0.5618
  760MPD2    H211230   2.136   3.262  11.912  0.7138  1.6385  0.0656
  760MPD2    H311231   2.078   3.038  11.952  0.9247 -0.4970  1.0322
  760MPD2     N11232   2.391   2.863  11.669 -0.3977 -0.0458  0.1096
  760MPD2    H511233   2.380   2.769  11.708 -1.5538  1.2049  2.7714
  760MPD2    N111234   2.330   3.335  11.716 -0.2327 -1.0747 -0.6263
  760MPD2    H711235   2.393   3.332  11.636  1.6763 -1.0869  0.8559
  761MPD2     C11236   3.239   2.638  11.042 -1.0237  0.3971  0.4142
  761MPD2    C111237   3.311   2.559  10.955 -0.3563 -0.4192 -0.7483
  761MPD2    C211238   3.447   2.586  10.937  0.5789 -0.3038  0.5694
  761MPD2    C311239   3.516   2.695  10.983 -0.4279  0.2004 -0.0706
  761MPD2    C411240   3.445   2.773  11.070  0.6608  0.0958 -0.1812
  761MPD2    C511241   3.307   2.752  11.085 -0.8076 -0.4068 -0.9028
  761MPD2     H11242   3.507   2.512  10.885 -1.8337 -0.8643 -1.4728
  761MPD2    H111243   3.489   2.854  11.128  1.1091 -0.4266  0.2079
  761MPD2    H211244   3.135   2.619  11.065 -1.2533 -0.1271 -1.0672
  761MPD2    H311245   3.263   2.815  11.162  2.4902  0.0805  0.5576
  761MPD2     N11246   3.656   2.725  10.968  0.5196 -0.1044  0.5997
  761MPD2    H511247   3.693   2.809  11.010 -2.6370  1.5192  0.1138
  761MPD2    N111248   3.251   2.441  10.906  0.0543  0.1154  0.0450
  761MPD2    H711249   3.175   2.406  10.964  0.7038  0.3238  1.0152
  762MPD2     C11250   3.508   1.596  10.597 -0.3820  0.0675 -0.1131
  762MPD2    C111251   3.532   1.731  10.595 -0.2234 -0.0139  0.0507
  762MPD2    C211252   3.643   1.777  10.518 -0.0104  0.4144 -0.7208
  762MPD2    C311253   3.723   1.697  10.453 -0.4276  0.6441  0.7285
  762MPD2    C411254   3.700   1.560  10.454  0.2967  0.0470 -0.1314
  762MPD2    C511255   3.594   1.511  10.531 -0.2168 -0.4139  0.4834
  762MPD2     H11256   3.678   1.880  10.529  1.1266 -0.0821  0.4178
  762MPD2    H111257   3.755   1.480  10.405 -4.0115 -1.3820 -2.6422
  762MPD2    H211258   3.424   1.553  10.650 -1.0560  3.7010  1.7501
  762MPD2    H311259   3.574   1.405  10.527  0.7948 -0.5335 -1.4478
  762MPD2     N11260   3.837   1.759  10.400 -0.4097 -0.8953 -0.1571
  762MPD2    H511261   3.837   1.860  10.414 -0.3541 -1.0046  0.6517
  762MPD2    N111262   3.441   1.817  10.658  0.1095 -0.8071 -0.8077
  762MPD2    H711263   3.364   1.785  10.717 -2.0112  1.8671 -2.0927
  763MPD2     C11264   0.753   2.953  16.108 -0.6068 -0.7559 -0.1860
  763MPD2    C111265   0.660   3.028  16.038  0.4333  0.1825 -0.3340
  763MPD2    C211266   0.637   3.164  16.080  0.0359 -0.9093  0.0462
  763MPD2    C311267   0.706   3.208  16.190 -0.5810 -0.0859  0.7412
  763MPD2    C411268   0.791   3.124  16.264  0.0974  0.3160 -0.3649
  763MPD2    C511269   0.806   2.996  16.219  0.6172 -0.4726 -0.3871
  763MPD2     H11270   0.562   3.227  16.034  0.3471 -1.1457 -0.7915
  763MPD2    H111271   0.858   3.152  16.344 -1.7605  0.5588  1.0864
  763MPD2    H211272   0.796   2.862  16.067 -0.5560 -0.1583 -1.4725
  763MPD2    H311273   0.880   2.936  16.271  1.3018 -0.2852 -1.1472
  763MPD2     N11274   0.706   3.343  16.237 -0.3471  0.0093 -0.3938
  763MPD2    H511275   0.762   3.364  16.319 -2.5410  0.9667  0.8546
  763MPD2    N111276   0.592   2.987  15.921 -0.2037 -0.1440  0.3295
  763MPD2    H711277   0.542   3.056  15.866  0.1990 -0.7583 -0.7974
  764MPD2     C11278   3.485   0.278  16.828  0.0723  0.5272  0.5565
  764MPD2    C111279   3.431   0.151  16.817  0.4746 -0.1009  0.9711
  764MPD2    C211280   3.372   0.092  16.927  0.2127  0.3415  0.6153
  764MPD2    C311281   3.331   0.170  17.037  0.2516 -0.0561 -0.0651
  764MPD2    C411282   3.377   0.298  17.044  0.4774  0.0714 -0.0603
  764MPD2    C511283   3.458   0.346  16.944  0.7313  0.0733 -0.0545
  764MPD2     H11284   3.341   4.713  16.925 -0.8284  0.6723 -0.3592
  764MPD2    H111285   3.354   0.359  17.130 -1.7294 -1.1191  0.1902
  764MPD2    H211286   3.556   0.319  16.758 -0.1251 -0.7735 -0.4042
  764MPD2    H311287   3.499   0.442  16.972 -0.3133  0.0225  1.6113
  764MPD2     N11288   3.238   0.115  17.129 -0.5257 -0.1094 -0.0758
  764MPD2    H511289   3.204   0.023  17.105  2.0895 -0.3235 -3.0091
  764MPD2    N111290   3.438   0.075  16.696 -0.6814 -0.2599  0.4062
  764MPD2    H711291   3.393   4.709  16.692 -1.7262  0.3540 -1.6415
  765MPD2     C11292   3.225   2.189  15.274  0.1800  0.2987  0.3018
  765MPD2    C111293   3.313   2.242  15.359  0.2203  0.2853  0.2881
  765MPD2    C211294   3.425   2.173  15.387  0.5339 -0.6645  0.0992
  765MPD2    C311295   3.453   2.056  15.328  0.0339 -0.2450 -0.1974
  765MPD2    C411296   3.369   2.005  15.230  0.5597  0.2727  0.5073
  765MPD2    C511297   3.260   2.078  15.197 -0.0289 -0.3324 -0.0647
  765MPD2     H11298   3.483   2.199  15.474 -0.3576  0.2261  0.4299
  765MPD2    H111299   3.393   1.915  15.174 -2.3828  0.0901 -0.4340
  765MPD2    H211300   3.127   2.234  15.259 -0.3141 -1.2370 -1.0862
  765MPD2    H311301   3.202   2.043  15.113  1.9984 -2.5893 -0.5239
  765MPD2     N11302   3.568   1.994  15.379  0.2643 -0.2160  0.4756
  765MPD2    H511303   3.620   2.042  15.451  0.6541  1.6142 -0.9988
  765MPD2    N111304   3.287   2.362  15.425 -0.9268  0.2970  0.0946
  765MPD2    H711305   3.188   2.385  15.427 -0.6423  1.3019  2.1586
  766MPD2     C11306   2.616   2.527  15.409 -0.8926 -0.4380 -0.0854
  766MPD2    C111307   2.750   2.506  15.376  0.7459 -0.4804 -0.0888
  766MPD2    C211308   2.785   2.420  15.275 -0.2292 -0.6287  0.4627
  766MPD2    C311309   2.678   2.364  15.199 -0.3797  0.2967  0.0748
  766MPD2    C411310   2.545   2.392  15.232  0.0770  0.0224  0.5916
  766MPD2    C511311   2.521   2.476  15.335  0.3248 -0.0103  0.1887
  766MPD2     H11312   2.886   2.386  15.255 -0.3543 -1.2990  0.9563
  766MPD2    H111313   2.461   2.361  15.171  1.1858  0.2601 -1.0436
  766MPD2    H211314   2.592   2.586  15.497  0.0158 -1.3003  0.7348
  766MPD2    H311315   2.423   2.508  15.369  0.5148  0.4343  0.3113
  766MPD2     N11316   2.702   2.278  15.083 -0.3992 -0.0200 -0.4003
  766MPD2    H511317   2.620   2.242  15.037 -0.3268 -0.2786 -0.3263
  766MPD2    N111318   2.843   2.552  15.467 -0.1173  0.3000  0.2697
  766MPD2    H711319   2.816   2.623  15.534  1.9102 -0.8122  2.2225
  767MPD2     C11320   2.366   2.558  14.948 -0.1982 -0.2289  0.0464
  767MPD2    C111321   2.493   2.549  14.894 -0.6432 -0.0983 -0.3472
  767MPD2    C211322   2.513   2.476  14.779 -0.0641 -1.2069 -0.6997
  767MPD2    C311323   2.401   2.418  14.713 -0.8236  0.2478  0.0150
  767MPD2    C411324   2.276   2.431  14.768  0.2395 -0.5136  0.0670
  767MPD2    C511325   2.257   2.505  14.883 -0.0266  0.5284 -0.0019
  767MPD2     H11326   2.611   2.475  14.732 -0.9219 -3.3226 -2.4316
  767MPD2    H111327   2.191   2.388  14.716 -0.3194  0.5584  0.0946
  767MPD2    H211328   2.343   2.617  15.036  2.2958 -1.3864  1.4792
  767MPD2    H311329   2.165   2.523  14.938  1.5184 -2.5829  3.5931
  767MPD2     N11330   2.430   2.346  14.592  1.1439 -0.5508 -0.4044
  767MPD2    H511331   2.526   2.325  14.566  1.7412  2.0950 -0.3886
  767MPD2    N111332   2.596   2.622  14.961  0.2126 -0.2958  0.4735
  767MPD2    H711333   2.570   2.663  15.050 -1.7488  0.7053 -0.5757
  768MPD2     C11334   3.645   0.518  10.298  0.0024 -0.5578  0.0471
  768MPD2    C111335   3.623   0.489  10.431 -0.4361 -0.1648  0.4128
  768MPD2    C211336   3.715   0.512  10.531  1.0896  0.5126  0.5013
  768MPD2    C311337   3.836   0.569  10.496 -0.1929  0.2934  0.0496
  768MPD2    C411338   3.856   0.607  10.357  0.7888  0.1821  0.0232
  768MPD2    C511339   3.761   0.581  10.264  0.2966  0.0901 -0.9474
  768MPD2     H11340   3.688   0.490  10.633 -0.4015  1.1209  0.2271
  768MPD2    H111341   3.947   0.657  10.326  0.7204 -0.1171 -0.6647
  768MPD2    H211342   3.575   0.500  10.217  0.2488  3.3049 -1.0577
  768MPD2    H311343   3.766   0.622  10.163  0.5930  1.5209 -0.3531
  768MPD2     N11344   3.930   0.613  10.593 -0.7395 -0.0874 -0.4753
  768MPD2    H511345   4.000   0.683  10.569  1.1427 -2.4042 -1.7920
  768MPD2    N111346   3.513   0.416  10.471 -0.2912 -0.4809 -0.0888
  768MPD2    H711347   3.509   0.393  10.570 -0.9129  0.0613  0.0095
  769MPD2     C11348   4.655   3.670  14.683 -0.4597  0.2127 -0.0218
  769MPD2    C111349   4.537   3.709  14.752  0.2845  0.5161  0.1597
  769MPD2    C211350   4.544   3.746  14.887  0.2783  0.3475  0.1400
  769MPD2    C311351   4.670   3.748  14.948 -0.8524  0.0986 -0.3184
  769MPD2    C411352   0.060   3.708  14.879  0.6893  0.6748 -0.1113
  769MPD2    C511353   0.046   3.665  14.753 -0.3347 -0.1388 -0.9738
  769MPD2     H11354   4.459   3.782  14.945  0.2263 -0.6418  0.6838
  769MPD2    H111355   0.154   3.712  14.932  0.3040 -0.5453  0.6609
  769MPD2    H211356   4.655   3.655  14.575 -1.2788 -1.9302  0.2786
  769MPD2    H311357   0.135   3.645  14.695 -0.8586  0.1845 -1.8965
  769MPD2     N11358   4.673   3.796  15.081  0.0708  0.2152 -0.1735
  769MPD2    H511359   4.578   3.812  15.115 -0.1837 -1.7233  0.0105
  769MPD2    N111360   4.410   3.714  14.678 -0.5729 -0.4287 -0.5870
  769MPD2    H711361   4.423   3.699  14.579 -1.0736 -0.0842 -0.7028
  770MPD2     C11362   3.680   3.429  14.948 -0.4853  0.0503  0.0522
  770MPD2    C111363   3.751   3.408  14.828  0.1125 -0.4310  0.0543
  770MPD2    C211364   3.781   3.512  14.752  0.3570 -0.4700 -0.2386
  770MPD2    C311365   3.767   3.643  14.804  0.7715  0.4571 -0.1545
  770MPD2    C411366   3.716   3.666  14.932  0.2999  0.2158 -0.9063
  770MPD2    C511367   3.665   3.556  14.995  0.5400  0.6709 -0.5487
  770MPD2     H11368   3.819   3.495  14.652 -0.3258 -0.2985 -0.5259
  770MPD2    H111369   3.719   3.760  14.984 -0.3543 -1.1776  1.6480
  770MPD2    H211370   3.657   3.346  15.014  0.0699  1.3415  1.8627
  770MPD2    H311371   3.621   3.559  15.094  0.6409 -0.3959 -0.4632
  770MPD2     N11372   3.817   3.750  14.727 -0.0333 -0.3231 -1.0526
  770MPD2    H511373   3.832   3.842  14.767  1.0263 -0.6893 -0.6140
  770MPD2    N111374   3.796   3.286  14.798  0.6930  0.6172  0.0763
  770MPD2    H711375   3.771   3.222  14.873  0.6122  0.1696 -0.3316
  771MPD2     C11376   0.345   1.430  13.749  0.7303  0.1985  0.3209
  771MPD2    C111377   0.308   1.553  13.700 -0.2368 -0.0304 -0.0036
  771MPD2    C211378   0.213   1.549  13.606  0.0690  0.4598 -0.2844
  771MPD2    C311379   0.155   1.426  13.560  0.4311 -0.3110 -0.5510
  771MPD2    C411380   0.199   1.304  13.610  0.5902  0.4505  0.8501
  771MPD2    C511381   0.290   1.311  13.710 -0.4252  0.3283  0.6165
  771MPD2     H11382   0.189   1.644  13.559  0.2701 -0.9182 -3.1255
  771MPD2    H111383   0.155   1.207  13.591 -0.2466  0.1745  4.1688
  771MPD2    H211384   0.410   1.416  13.835  1.6988  3.6057  0.1520
  771MPD2    H311385   0.316   1.218  13.758  0.8884  0.2062 -0.3664
  771MPD2     N11386   0.042   1.433  13.470 -0.1900  0.6768  0.3933
  771MPD2    H511387   4.715   1.519  13.454 -1.9311  0.1454  3.1009
  771MPD2    N111388   0.347   1.672  13.753 -0.9542 -0.2078 -0.1867
  771MPD2    H711389   0.305   1.757  13.718  0.4120  0.2851 -0.6138
  772MPD2     C11390   0.154   2.351  13.979 -0.0591  0.3779  0.2337
  772MPD2    C111391   0.117   2.235  13.919  0.6372 -0.5548 -0.6215
  772MPD2    C211392   4.707   2.203  13.907  0.3770 -0.2614  0.0082
  772MPD2    C311393   4.605   2.286  13.953 -0.0562  0.6110  0.6935
  772MPD2    C411394   4.647   2.407  14.006  0.4355  0.2522 -0.0186
  772MPD2    C511395   0.055   2.437  14.018 -0.0672  0.2599 -0.4008
  772MPD2     H11396   4.680   2.110  13.860 -0.8242 -0.1040  0.3895
  772MPD2    H111397   4.580   2.484  14.041  0.5187  1.1677 -1.8482
  772MPD2    H211398   0.259   2.378  13.990 -0.2623  2.1695 -2.3348
  772MPD2    H311399   0.088   2.533  14.055  0.0955 -0.2646  0.8100
  772MPD2     N11400   4.468   2.277  13.925  0.2259 -0.0697 -0.6885
  772MPD2    H511401   4.419   2.361  13.953  2.1365  0.4772  0.9539
  772MPD2    N111402   0.213   2.143  13.871  0.4565  0.2920  0.0111
  772MPD2    H711403   0.178   2.059  13.826 -0.1524  1.0401 -0.8958
  773MPD2     C11404   3.834   3.061   0.250  0.7386  0.2601  0.4264
  773MPD2    C111405   3.825   2.980   0.134  0.1777  0.0698  0.2518
  773MPD2    C211406   3.926   2.887   0.122  0.3589 -0.4764  0.3195
  773MPD2    C311407   4.033   2.882   0.209 -0.3036  0.0806  0.1581
  773MPD2    C411408   4.038   2.969   0.317  0.0765 -0.4722 -0.2846
  773MPD2    C511409   3.935   3.052   0.338 -0.1880 -0.3295  0.0211
  773MPD2     H11410   3.927   2.818   0.039 -0.8537 -0.9040  0.6585
  773MPD2    H111411   4.115   2.974   0.394 -0.7557  0.7502  0.4599
  773MPD2    H211412   3.760   3.137   0.273  2.4148  1.3065  2.3891
  773MPD2    H311413   3.930   3.110   0.429  0.1789  3.1563 -2.2138
  773MPD2     N11414   4.139   2.795   0.177  0.0740 -0.3040  0.6375
  773MPD2    H511415   4.125   2.722   0.107  0.1333  0.9221 -0.6440
  773MPD2    N111416   3.736   2.986   0.029 -0.3473  0.4589  0.1055
  773MPD2    H711417   3.756   2.925  17.652  0.6907  1.3631 -0.3407
  774MPD2     C11418   3.668   1.996  12.922 -0.0326  0.0463 -0.1070
  774MPD2    C111419   3.564   2.077  12.944 -0.2452  0.1415  0.4735
  774MPD2    C211420   3.581   2.211  12.911 -0.4681  0.3126  0.5473
  774MPD2    C311421   3.705   2.252  12.853 -0.5618 -0.7476  0.7118
  774MPD2    C411422   3.812   2.166  12.839 -0.3207  0.2029  0.1005
  774MPD2    C511423   3.792   2.037  12.873  0.1678  0.7531  0.2554
  774MPD2     H11424   3.499   2.280  12.927 -0.7995  0.5822 -2.4448
  774MPD2    H111425   3.908   2.196  12.799  1.0548  0.6194  3.6853
  774MPD2    H211426   3.661   1.890  12.941  0.7991  0.2479  1.2978
  774MPD2    H311427   3.872   1.966  12.861 -0.3805  0.3010 -0.7754
  774MPD2     N11428   3.721   2.390  12.821 -0.2072 -0.0901  0.2400
  774MPD2    H511429   3.639   2.448  12.835  1.8298  2.6789  0.7174
  774MPD2    N111430   3.454   2.025  13.014 -0.0919 -0.3608  0.0648
  774MPD2    H711431   3.456   1.926  13.037  0.5384 -0.1351  1.0223
  775MPD2     C11432   0.094   3.673  15.580 -0.0797 -0.4794 -0.7178
  775MPD2    C111433   0.086   3.788  15.655  0.2846 -0.2637  0.7906
  775MPD2    C211434   0.188   3.885  15.647  1.4001 -0.3873 -0.0575
  775MPD2    C311435   0.279   3.872  15.542  0.2891  0.1327 -0.6484
  775MPD2    C411436   0.264   3.765  15.456 -0.1312 -0.0893  0.4148
  775MPD2    C511437   0.182   3.663  15.477 -0.6145 -0.9688  0.4398
  775MPD2     H11438   0.185   3.974  15.710 -0.1126  0.6116 -1.5221
  775MPD2    H111439   0.333   3.751  15.374 -0.4132 -0.9911  0.3389
  775MPD2    H211440   0.021   3.596  15.599  1.6121 -1.9790 -0.3678
  775MPD2    H311441   0.180   3.583  15.404  2.6640 -0.0041 -0.7069
  775MPD2     N11442   0.366   3.978  15.513  0.2866  0.6928 -0.4281
  775MPD2    H511443   0.400   3.979  15.417  2.0580  1.6107  0.2037
  775MPD2    N111444   4.704   3.796  15.736 -0.2450 -0.5131  0.0133
  775MPD2    H711445   4.649   3.711  15.744 -2.0150  0.6717  0.5342
  776MPD2     C11446   0.150   3.594  11.592 -0.7375  0.0624  0.3615
  776MPD2    C111447   0.019   3.612  11.607 -0.2641 -0.4309  0.3822
  776MPD2    C211448   4.691   3.726  11.556 -0.3239 -0.2695  0.6311
  776MPD2    C311449   0.052   3.818  11.497 -0.8709 -0.5903  0.5099
  776MPD2    C411450   0.185   3.795  11.481 -0.1325  0.2522 -0.7369
  776MPD2    C511451   0.231   3.675  11.527 -0.3394 -0.3475  0.3804
  776MPD2     H11452   4.585   3.741  11.541 -0.1350 -0.5269 -1.0340
  776MPD2    H111453   0.247   3.854  11.413  0.9663  2.1427  1.9162
  776MPD2    H211454   0.193   3.502  11.630 -0.4773 -0.5568 -1.3811
  776MPD2    H311455   0.326   3.646  11.484 -0.7265  0.4884 -1.0319
  776MPD2     N11456   0.000   3.932  11.421  0.2447  0.2727  0.8420
  776MPD2    H511457   0.065   3.994  11.374  0.6955 -0.5202  0.4290
  776MPD2    N111458   4.671   3.508  11.660 -0.1281 -0.0821  0.4291
  776MPD2    H711459   4.710   3.415  11.670  1.8049  0.4571 -1.8807
  777MPD2     C11460   4.082   1.886   0.720 -0.1333  0.5375 -0.7491
  777MPD2    C111461   3.956   1.869   0.766 -0.3480  0.5589  0.1908
  777MPD2    C211462   3.865   1.803   0.685 -0.3297  0.8083 -0.4402
  777MPD2    C311463   3.904   1.753   0.559  0.7054 -0.8089  0.7103
  777MPD2    C411464   4.029   1.786   0.513 -0.2341  0.0704 -0.0252
  777MPD2    C511465   4.122   1.846   0.599  0.4779  0.6276 -0.7343
  777MPD2     H11466   3.765   1.783   0.723 -0.2388 -1.6413 -1.4977
  777MPD2    H111467   4.062   1.762   0.413  0.0499 -2.7977  0.7470
  777MPD2    H211468   4.159   1.929   0.784  1.3996 -1.6812 -1.0934
  777MPD2    H311469   4.223   1.864   0.566  0.7251 -0.9789 -0.8808
  777MPD2     N11470   3.817   1.672   0.477 -0.2453  0.0422 -0.5509
  777MPD2    H511471   3.722   1.676   0.514 -0.5061 -3.0753 -0.8570
  777MPD2    N111472   3.922   1.909   0.898  0.4568  0.3096 -0.3253
  777MPD2    H711473   3.987   1.963   0.955  1.0648 -0.7016 -0.0671
  778MPD2     C11474   0.315   1.482  15.209 -0.4843  0.0802 -0.5202
  778MPD2    C111475   0.260   1.456  15.084  0.1760  0.6342 -0.0082
  778MPD2    C211476   0.318   1.525  14.978  0.7210 -0.0120 -0.8207
  778MPD2    C311477   0.425   1.608  15.004  0.3377 -0.4211 -0.0525
  778MPD2    C411478   0.481   1.627  15.129  0.5845  0.2056 -0.5328
  778MPD2    C511479   0.416   1.574  15.234 -0.4706 -0.8272 -0.3074
  778MPD2     H11480   0.270   1.519  14.880  1.4019 -1.7004 -1.0392
  778MPD2    H111481   0.550   1.707  15.155  0.8547 -0.3557  0.4749
  778MPD2    H211482   0.278   1.429  15.296 -0.7217  0.4472 -0.4011
  778MPD2    H311483   0.446   1.605  15.333 -1.5285  1.6827 -0.7624
  778MPD2     N11484   0.468   1.673  14.884 -0.4089 -0.5400 -0.3377
  778MPD2    H511485   0.406   1.656  14.806 -0.7753  0.5749 -0.2941
  778MPD2    N111486   0.161   1.356  15.059  0.2546 -0.3205 -0.2427
  778MPD2    H711487   0.111   1.357  14.971  1.7489  2.0425 -1.0556
  779MPD2     C11488   0.021   0.568  14.255 -0.4341 -0.2670  0.4304
  779MPD2    C111489   0.146   0.571  14.311  1.1406 -0.0716  0.4963
  779MPD2    C211490   0.195   0.690  14.353 -0.2587  0.3493 -0.4551
  779MPD2    C311491   0.119   0.802  14.334  0.6012 -0.2645 -0.3278
  779MPD2    C411492   4.716   0.797  14.271  0.2170 -0.2917  0.5270
  779MPD2    C511493   4.669   0.674  14.231  0.5667 -0.3389 -0.8524
  779MPD2     H11494   0.291   0.691  14.402  0.3974  0.4469 -1.7507
  779MPD2    H111495   4.647   0.879  14.253 -0.8977 -1.2376  0.4921
  779MPD2    H211496   4.704   0.478  14.212 -2.5352 -0.1528  2.2707
  779MPD2    H311497   4.570   0.657  14.190  0.1133 -0.3942  0.2570
  779MPD2     N11498   0.187   0.928  14.359 -0.2148  0.0844  0.3508
  779MPD2    H511499   0.278   0.923  14.403 -0.2395 -3.3473 -0.0593
  779MPD2    N111500   0.229   0.452  14.328 -0.2950  0.0283  0.3625
  779MPD2    H711501   0.316   0.458  14.380 -1.0398 -0.2700  1.6396
  780MPD2     C11502   3.981   1.405   0.580 -0.2056  0.5100 -0.0904
  780MPD2    C111503   3.964   1.305   0.493  0.0143 -0.1246  0.5717
  780MPD2    C211504   4.069   1.255   0.415  0.3040 -0.4381  0.7806
  780MPD2    C311505   4.195   1.309   0.441 -0.6671  0.7700 -0.0513
  780MPD2    C411506   4.210   1.418   0.525 -0.5494 -0.1544 -0.0962
  780MPD2    C511507   4.101   1.470   0.584 -0.2507  0.3023  0.1644
  780MPD2     H11508   4.058   1.165   0.356  0.4678 -0.7319  1.1947
  780MPD2    H111509   4.308   1.463   0.539 -0.6298  0.5247 -1.7432
  780MPD2    H211510   3.896   1.441   0.636  0.2109 -0.6425  1.2562
  780MPD2    H311511   4.122   1.553   0.650 -1.5696  0.5862  0.2256
  780MPD2     N11512   4.302   1.256   0.363 -0.1294  0.1920 -0.0314
  780MPD2    H511513   4.278   1.174   0.307 -0.5477  1.1271 -1.2122
  780MPD2    N111514   3.830   1.252   0.489  1.1437  0.4997  0.7512
  780MPD2    H711515   3.762   1.282   0.558 -0.9984  1.1286 -1.6242
  781MPD2     C11516   1.530   1.814  11.928 -0.3933 -0.0160  1.0087
  781MPD2    C111517   1.609   1.927  11.920 -0.1452 -0.0638 -0.4333
  781MPD2    C211518   1.666   1.957  11.802  0.1163 -0.2969  0.6223
  781MPD2    C311519   1.673   1.870  11.690  0.2545  0.4308 -0.7025
  781MPD2    C411520   1.602   1.755  11.707 -0.1029  0.0084  0.5253
  781MPD2    C511521   1.535   1.723  11.822  0.0419  0.2324 -0.3996
  781MPD2     H11522   1.717   2.052  11.792 -1.8238  0.9236  2.3814
  781MPD2    H111523   1.624   1.672  11.641 -1.0975  0.8205 -0.8065
  781MPD2    H211524   1.468   1.783  12.011 -1.0922 -1.7720 -0.1862
  781MPD2    H311525   1.483   1.628  11.831 -2.6976  1.6663 -1.0537
  781MPD2     N11526   1.731   1.892  11.561 -0.3252 -0.1169  0.6753
  781MPD2    H511527   1.722   1.812  11.500 -0.9051  0.7916 -0.4181
  781MPD2    N111528   1.621   2.032  12.021 -0.4577  0.1744  0.8244
  781MPD2    H711529   1.689   2.104  12.003  1.1550 -1.4282  0.5803
  782MPD2     C11530   4.632   2.772   9.946  0.4332 -0.3781  0.1351
  782MPD2    C111531   4.676   2.709  10.058  0.0106  0.4500  0.4074
  782MPD2    C211532   4.700   2.783  10.168  0.1276 -0.0334  0.4025
  782MPD2    C311533   4.654   2.908  10.181 -0.7980 -0.5547 -0.4206
  782MPD2    C411534   4.605   2.970  10.071  0.2285 -0.3557 -0.0819
  782MPD2    C511535   4.597   2.898   9.956  0.3236 -0.3337 -0.3264
  782MPD2     H11536   0.026   2.744  10.256 -0.3488  1.2382  1.2320
  782MPD2    H111537   4.572   3.072  10.061  1.6045  0.3225  2.1934
  782MPD2    H211538   4.617   2.726   9.849  1.3677  0.2311 -0.2839
  782MPD2    H311539   4.563   2.959   9.873  0.1418  0.4645  0.3384
  782MPD2     N11540   4.668   2.977  10.305  0.3855  0.0445 -0.2477
  782MPD2    H511541   4.652   3.077  10.312  0.1991 -0.0973  1.3879
  782MPD2    N111542   4.712   2.569  10.065 -0.5095 -0.2702 -0.3462
  782MPD2    H711543   0.022   2.531  10.153 -0.9148  0.3774  0.1011
  783MPD2     C11544   4.030   2.257  10.495 -0.6795  0.3206 -1.6578
  783MPD2    C111545   4.133   2.336  10.553  0.8964 -0.1024 -0.6570
  783MPD2    C211546   4.263   2.328  10.503  0.0049 -0.7325 -0.4111
  783MPD2    C311547   4.282   2.251  10.385 -0.7339  0.1100  0.1209
  783MPD2    C411548   4.177   2.178  10.326  0.4056  0.3166  0.3267
  783MPD2    C511549   4.053   2.188  10.381 -0.3530  0.3579  0.1451
  783MPD2     H11550   4.339   2.379  10.560 -0.5024  0.9007 -1.2154
  783MPD2    H111551   4.189   2.105  10.247 -0.9796  0.0365  0.3893
  783MPD2    H211552   3.930   2.256  10.536  0.1372  1.0214  0.4040
  783MPD2    H311553   3.987   2.118  10.331 -2.3735  3.0332 -0.8572
  783MPD2     N11554   4.418   2.235  10.332 -0.8815  0.2484 -0.5278
  783MPD2    H511555   4.487   2.293  10.379  2.6854 -2.1296 -2.8023
  783MPD2    N111556   4.094   2.429  10.655  0.2467 -0.1960  0.7981
  783MPD2    H711557   3.996   2.428  10.683  0.0153  0.0148 -0.0120
  784MPD2     C11558   2.249   3.890   1.347  1.3105 -0.2706 -0.0996
  784MPD2    C111559   2.294   3.992   1.271 -0.1031  0.8382 -1.2184
  784MPD2    C211560   2.196   4.070   1.202 -1.1762  0.2838  0.7173
  784MPD2    C311561   2.062   4.046   1.224  0.0938  0.0876  0.1964
  784MPD2    C411562   2.023   3.948   1.309 -0.0268  0.4232 -0.1385
  784MPD2    C511563   2.119   3.863   1.366  0.5495  0.2375 -0.4602
  784MPD2     H11564   2.227   4.149   1.134 -2.1212 -1.2745 -1.5235
  784MPD2    H111565   1.919   3.929   1.333  0.7031 -3.2298  0.1623
  784MPD2    H211566   2.312   3.820   1.399 -0.2413 -1.5285  0.0869
  784MPD2    H311567   2.090   3.785   1.435 -2.1314  0.2440 -1.5485
  784MPD2     N11568   1.969   4.122   1.147  0.2364 -0.0775  0.3969
  784MPD2    H511569   2.005   4.206   1.103 -1.1746  1.5968  2.4326
  784MPD2    N111570   2.432   4.011   1.233  0.0271  0.6909 -0.0394
  784MPD2    H711571   2.446   4.072   1.153  3.5293 -0.9044 -0.6408
  785MPD2     C11572   2.030   1.450  10.076  0.1307 -0.3584  0.1614
  785MPD2    C111573   2.078   1.486  10.204 -0.0199 -0.0810  0.2151
  785MPD2    C211574   2.048   1.614  10.249  0.5242  0.2267 -0.3312
  785MPD2    C311575   1.974   1.700  10.179  0.2402 -0.1062 -0.4245
  785MPD2    C411576   1.907   1.658  10.065  0.9904  0.4977 -1.2870
  785MPD2    C511577   1.932   1.529  10.021  0.6032  0.2399 -0.0084
  785MPD2     H11578   2.078   1.639  10.350  2.0500  1.4657 -1.0816
  785MPD2    H111579   1.831   1.716  10.015  1.3476  1.7027 -0.4470
  785MPD2    H211580   2.052   1.355  10.030 -0.3398  0.7921 -2.3990
  785MPD2    H311581   1.873   1.492   9.938  0.6296  0.4898 -0.1369
  785MPD2     N11582   1.953   1.829  10.234 -0.4585  0.8371  0.3464
  785MPD2    H511583   1.969   1.847  10.333  2.1672  2.0572 -0.3096
  785MPD2    N111584   2.177   1.409  10.272 -0.0729 -0.0642  0.0485
  785MPD2    H711585   2.213   1.452  10.356 -0.3103  1.7376 -0.7681
  786MPD2     C11586   0.666   4.681  14.585 -0.4042  0.3876  0.3585
  786MPD2    C111587   0.791   4.619  14.585  0.3860 -0.3962 -0.2623
  786MPD2    C211588   0.864   4.634  14.698 -0.1283 -0.3368 -0.5477
  786MPD2    C311589   0.822   4.710  14.807  0.5872  0.1603 -0.5204
  786MPD2    C411590   0.700   0.046  14.804 -0.3338  0.5386  0.1056
  786MPD2    C511591   0.621   0.027  14.692 -0.0116 -0.0672  0.1381
  786MPD2     H11592   0.960   4.584  14.707  0.4946  1.3735  2.3282
  786MPD2    H111593   0.671   0.097  14.895  0.3491  0.7838  0.1882
  786MPD2    H211594   0.601   4.673  14.499  0.6714  1.3897 -0.5399
  786MPD2    H311595   0.522   0.069  14.695 -0.0745 -0.1491 -0.7467
  786MPD2     N11596   0.889   4.722  14.935  0.6339 -0.3660 -0.1666
  786MPD2    H511597   0.850   0.050  15.013  3.0198  1.4450 -0.1895
  786MPD2    N111598   0.851   4.550  14.473 -0.1771  0.1802  0.3115
  786MPD2    H711599   0.949   4.522  14.481 -0.5668 -1.3780 -0.2753
  787MPD2     C11600   0.794   3.951  14.517 -0.6251 -0.5501 -0.5400
  787MPD2    C111601   0.890   3.966  14.423 -0.4810 -0.1656  0.7099
  787MPD2    C211602   0.996   3.883  14.408  0.1109  0.4795 -0.3672
  787MPD2    C311603   1.011   3.777  14.501 -0.3354  0.1688 -0.1548
  787MPD2    C411604   0.900   3.751  14.587 -0.3686 -0.1385 -0.3293
  787MPD2    C511605   0.797   3.844  14.598  0.1484  0.4250 -0.3240
  787MPD2     H11606   1.070   3.906  14.333 -0.2591  1.4062 -0.4571
  787MPD2    H111607   0.897   3.670  14.659 -0.2420 -1.5592 -1.9191
  787MPD2    H211608   0.720   4.027  14.537 -1.2433 -0.4974 -2.9983
  787MPD2    H311609   0.718   3.829  14.670 -0.0091  0.5198 -0.4771
  787MPD2     N11610   1.124   3.696  14.497  0.2494  0.1623 -0.2803
  787MPD2    H511611   1.190   3.718  14.423  0.9325 -1.7964 -0.2439
  787MPD2    N111612   0.876   4.083  14.344  0.2010 -0.8846 -0.8918
  787MPD2    H711613   0.815   4.157  14.378 -0.0623 -0.9489 -1.2287
  788MPD2     C11614   3.041   2.659   0.761 -0.5304  0.4997 -0.2305
  788MPD2    C111615   2.965   2.629   0.654 -0.9400 -0.0207  0.4973
  788MPD2    C211616   2.844   2.697   0.647  0.0867 -1.2067 -0.0939
  788MPD2    C311617   2.806   2.801   0.731  0.1722  0.0689 -0.2164
  788MPD2    C411618   2.876   2.821   0.842  0.1926 -0.5306 -0.2271
  788MPD2    C511619   2.997   2.756   0.851  0.0874 -0.1348 -0.2660
  788MPD2     H11620   2.781   2.669   0.564  0.2131 -3.1820  0.4712
  788MPD2    H111621   2.861   2.906   0.907  0.3414  0.1075 -1.0255
  788MPD2    H211622   3.143   2.623   0.763 -0.8150 -0.5497 -3.9662
  788MPD2    H311623   3.064   2.791   0.928  0.0796  0.7094 -0.6371
  788MPD2     N11624   2.700   2.884   0.700 -0.1603  0.0716 -0.6488
  788MPD2    H511625   2.686   2.962   0.764 -0.4406  0.3037 -0.9927
  788MPD2    N111626   2.991   2.527   0.559 -0.4192 -0.1817 -0.7808
  788MPD2    H711627   2.923   2.531   0.483  0.2287  2.8346 -1.2211
  789MPD2     C11628   3.039   2.477  15.966  0.1168  0.1339  0.1025
  789MPD2    C111629   2.972   2.371  16.039  0.6649  1.0518 -0.4624
  789MPD2    C211630   2.842   2.398  16.079 -0.1057  0.0323 -0.7293
  789MPD2    C311631   2.788   2.522  16.062 -0.4847  0.0147  0.3425
  789MPD2    C411632   2.851   2.625  16.002 -0.1371 -0.2595  0.4763
  789MPD2    C511633   2.979   2.598  15.956 -0.0726 -0.2211  0.3186
  789MPD2     H11634   2.791   2.322  16.137  3.2477 -1.5886  0.1487
  789MPD2    H111635   2.814   2.727  16.000  2.5037  0.6946 -0.1300
  789MPD2    H211636   3.136   2.474  15.916  0.7507  0.9294  1.2820
  789MPD2    H311637   3.040   2.678  15.915 -1.1470  0.3310 -0.2034
  789MPD2     N11638   2.656   2.555  16.102  0.3556  0.7928  0.5300
  789MPD2    H511639   2.620   2.649  16.084  1.5106  0.7067 -2.2219
  789MPD2    N111640   3.018   2.233  16.057 -0.1082  0.2614  0.1778
  789MPD2    H711641   2.962   2.162  16.102  0.2790  0.2815  0.6841
  790MPD2     C11642   4.218   4.586  13.071 -0.4323 -0.4908 -0.3750
  790MPD2    C111643   4.224   4.489  13.165 -0.0323  0.3875  0.5594
  790MPD2    C211644   4.179   4.365  13.135  0.5841  0.0983  0.0082
  790MPD2    C311645   4.116   4.347  13.011 -0.2316  0.3166 -0.8452
  790MPD2    C411646   4.098   4.450  12.917 -0.8418 -0.1948  0.2209
  790MPD2    C511647   4.148   4.572  12.952 -0.0385  0.1398  0.2992
  790MPD2     H11648   4.199   4.285  13.205 -0.9224 -1.0294 -0.8513
  790MPD2    H111649   4.056   4.438  12.818  1.5156 -0.5558 -0.7555
  790MPD2    H211650   4.262   4.683  13.088  2.8741 -1.8865 -0.9636
  790MPD2    H311651   4.124   4.653  12.884  1.6561  1.1723  0.9081
  790MPD2     N11652   4.063   4.224  12.981 -0.1835  0.0671 -0.4710
  790MPD2    H511653   4.085   4.139  13.033 -2.1169 -0.0010  0.2447
  790MPD2    N111654   4.291   4.522  13.281  0.2502  0.0460  0.2499
  790MPD2    H711655   4.328   4.617  13.286 -1.8823  0.9461 -1.2384
  791MPD2     C11656   3.373   4.121  12.745  0.1829  0.5464  0.0723
  791MPD2    C111657   3.421   3.995  12.737  0.2054 -0.0174 -0.3234
  791MPD2    C211658   3.334   3.885  12.743  0.1469 -0.0906  0.4509
  791MPD2    C311659   3.200   3.907  12.734 -0.6359 -0.5418  0.4178
  791MPD2    C411660   3.143   4.033  12.721 -0.6140 -0.7720 -0.0943
  791MPD2    C511661   3.238   4.135  12.729 -0.6809  0.7061 -0.3943
  791MPD2     H11662   3.380   3.786  12.744 -0.6151 -0.4584 -0.7426
  791MPD2    H111663   3.040   4.064  12.713 -0.8320 -1.6105 -0.5687
  791MPD2    H211664   3.441   4.205  12.737 -1.1552  1.6518  0.3984
  791MPD2    H311665   3.200   4.236  12.715 -2.3238  0.2267  0.6107
  791MPD2     N11666   3.123   3.792  12.746 -0.0821 -0.3141  0.4551
  791MPD2    H511667   3.171   3.705  12.725 -1.5576 -1.1662  0.5713
  791MPD2    N111668   3.556   3.994  12.767 -0.7252  0.2837  0.1099
  791MPD2    H711669   3.600   4.085  12.763  0.5556 -0.3840 -0.9978
  792MPD2     C11670   4.094   3.841  11.179 -0.2798  0.2002  0.2141
  792MPD2    C111671   4.097   3.873  11.047 -0.5882  0.6290  0.3035
  792MPD2    C211672   4.047   3.784  10.949  0.5993  0.3613 -0.0858
  792MPD2    C311673   3.996   3.661  10.990  0.8690 -0.2838  0.9215
  792MPD2    C411674   3.998   3.636  11.126  0.4704 -0.1744  0.3412
  792MPD2    C511675   4.039   3.724  11.219 -0.4972  0.1050 -0.7834
  792MPD2     H11676   4.059   3.810  10.844  0.4438 -0.2222 -0.2519
  792MPD2    H111677   3.963   3.539  11.159  0.6328 -0.4926 -0.4192
  792MPD2    H211678   4.132   3.909  11.255  2.2912  0.7701 -1.5762
  792MPD2    H311679   4.046   3.702  11.325 -1.1589 -0.8623 -0.9520
  792MPD2     N11680   3.943   3.564  10.898 -0.4226 -0.1978  0.6348
  792MPD2    H511681   3.922   3.469  10.927 -0.3983 -0.9664 -1.8136
  792MPD2    N111682   4.141   4.009  11.018 -0.1199 -0.1790  0.2245
  792MPD2    H711683   4.158   4.069  11.098  0.7077 -1.5982  1.1225
  793MPD2     C11684   3.513   3.518   9.944  0.2249  0.6853 -0.6497
  793MPD2    C111685   3.647   3.486   9.953  0.1517 -0.2980 -0.1871
  793MPD2    C211686   3.706   3.489  10.076  0.3949 -0.1356  0.2670
  793MPD2    C311687   3.642   3.505  10.195  0.1606 -0.0867 -0.2388
  793MPD2    C411688   3.508   3.534  10.189  0.2825  0.3768 -0.0121
  793MPD2    C511689   3.446   3.542  10.064  0.2886 -0.2007 -0.3305
  793MPD2     H11690   3.806   3.448  10.081  0.2326 -0.4176  1.0687
  793MPD2    H111691   3.449   3.542  10.280 -1.6823 -0.7082 -1.2145
  793MPD2    H211692   3.462   3.525   9.849 -2.6012  1.7949  0.9383
  793MPD2    H311693   3.338   3.556  10.059 -0.0860 -2.3550  1.4809
  793MPD2     N11694   3.699   3.480  10.322 -0.4689  0.0729 -0.5368
  793MPD2    H511695   3.641   3.481  10.405 -1.7902  0.0241 -1.4719
  793MPD2    N111696   3.729   3.447   9.844  0.7022  0.7315  0.1135
  793MPD2    H711697   3.828   3.453   9.869  0.5081 -0.5415  1.1409
  794MPD2     C11698   3.631   3.640  17.273  0.0418  0.1414  0.2430
  794MPD2    C111699   3.607   3.528  17.198 -0.3467  0.0390  0.1733
  794MPD2    C211700   3.586   3.533  17.063 -0.2780  0.4640  0.7428
  794MPD2    C311701   3.604   3.651  16.996 -0.3741  0.2455 -0.3447
  794MPD2    C411702   3.646   3.762  17.067 -0.0895  0.0602  0.0584
  794MPD2    C511703   3.646   3.754  17.202  0.3524  0.5666 -1.1678
  794MPD2     H11704   3.561   3.437  17.018 -1.5526  1.9121 -1.6077
  794MPD2    H111705   3.673   3.860  17.028  1.0800 -1.4046 -2.8462
  794MPD2    H211706   3.642   3.638  17.381  2.7267 -2.1465 -0.0874
  794MPD2    H311707   3.658   3.848  17.255  0.8969  1.4765 -2.8903
  794MPD2     N11708   3.588   3.664  16.857 -0.3058  0.1891  0.4096
  794MPD2    H511709   3.611   3.755  16.819 -3.0099  0.8118  0.2418
  794MPD2    N111710   3.592   3.402  17.261  0.1366 -0.2080 -0.4604
  794MPD2    H711711   3.543   3.338  17.199 -1.1081  1.6861 -1.4450
  795MPD2     C11712   1.426   0.761  13.041 -0.3727  0.1692  0.3241
  795MPD2    C111713   1.397   0.626  13.074  0.1976 -0.3743 -0.8205
  795MPD2    C211714   1.499   0.550  13.125 -0.1581  0.2350 -0.1081
  795MPD2    C311715   1.626   0.597  13.139  0.5791 -0.4120 -0.8720
  795MPD2    C411716   1.656   0.725  13.109 -0.2796 -0.5680  0.5294
  795MPD2    C511717   1.555   0.803  13.063  0.4640 -0.6208 -0.0951
  795MPD2     H11718   1.490   0.443  13.140  2.2270  0.0539  0.0808
  795MPD2    H111719   1.756   0.762  13.123 -1.4343  2.7973 -0.2152
  795MPD2    H211720   1.361   0.839  13.003  1.5422  1.6929  0.1589
  795MPD2    H311721   1.582   0.904  13.036 -1.2806  0.1752  1.1458
  795MPD2     N11722   1.725   0.501  13.184  0.2687 -0.5185 -0.4103
  795MPD2    H511723   1.691   0.417  13.230  0.5413  0.2390  1.1928
  795MPD2    N111724   1.274   0.571  13.052 -0.7813 -0.2970 -0.0299
  795MPD2    H711725   1.253   0.484  13.100 -0.2995  0.6643  1.9423
  796MPD2     C11726   1.004   2.392  15.827  0.8579  0.3082  0.5755
  796MPD2    C111727   1.084   2.446  15.929 -0.3751 -0.0048 -0.0869
  796MPD2    C211728   1.081   2.582  15.945 -0.2551 -0.6098 -0.3450
  796MPD2    C311729   1.012   2.667  15.861 -0.0123 -0.5734 -0.8188
  796MPD2    C411730   0.933   2.611  15.762  0.2742 -0.7454 -1.0943
  796MPD2    C511731   0.932   2.471  15.742 -0.1719  0.1769 -0.5911
  796MPD2     H11732   1.142   2.633  16.019 -0.8061 -1.0040  0.3868
  796MPD2    H111733   0.862   2.668  15.701  0.3156 -1.3781 -1.7360
  796MPD2    H211734   1.001   2.286  15.807 -2.0592  0.0414  2.3995
  796MPD2    H311735   0.872   2.424  15.666 -0.8810 -0.8247  0.5873
  796MPD2     N11736   1.027   2.804  15.893 -0.5114  0.0355 -0.1194
  796MPD2    H511737   1.091   2.821  15.970  0.8488 -0.8309 -1.0524
  796MPD2    N111738   1.154   2.356  16.006  0.0674 -0.2046  0.4545
  796MPD2    H711739   1.140   2.259  15.980 -1.4071  0.5358 -1.5215
  797MPD2     C11740   2.506   1.451  16.884 -0.0489  0.5783 -0.0012
  797MPD2    C111741   2.562   1.571  16.931 -0.7226 -0.1761 -0.0610
  797MPD2    C211742   2.477   1.683  16.952 -0.4094 -0.3746  0.5818
  797MPD2    C311743   2.345   1.686  16.944  0.2876  0.0170  0.9867
  797MPD2    C411744   2.286   1.570  16.893 -0.0254  0.0278 -0.4591
  797MPD2    C511745   2.366   1.455  16.868  0.4474 -0.0918  0.1426
  797MPD2     H11746   2.525   1.777  16.976 -0.0348 -0.1699 -0.9681
  797MPD2    H111747   2.178   1.562  16.879 -0.1326  0.9918 -0.1974
  797MPD2    H211748   2.561   1.358  16.868 -1.1432  0.3418 -2.4524
  797MPD2    H311749   2.313   1.365  16.839 -0.6292  0.2412  1.0263
  797MPD2     N11750   2.269   1.798  16.986  0.2628 -0.3838 -0.0355
  797MPD2    H511751   2.328   1.869  17.030 -0.9964 -1.0399  2.7217
  797MPD2    N111752   2.700   1.592  16.941 -0.0071 -0.7911  0.3919
  797MPD2    H711753   2.724   1.690  16.952 -0.8671 -0.5418  0.0299
  798MPD2     C11754   2.707   2.307  17.013  0.1595 -0.1129  0.0581
  798MPD2    C111755   2.643   2.192  17.048 -0.7833  1.0669 -0.2607
  798MPD2    C211756   2.713   2.077  17.060 -0.0229  0.5379  0.9123
  798MPD2    C311757   2.849   2.065  17.021  0.8155  0.5030  0.1546
  798MPD2    C411758   2.909   2.183  16.984 -0.4967  0.2026 -0.0401
  798MPD2    C511759   2.840   2.300  16.987 -0.1766 -1.0720 -0.5627
  798MPD2     H11760   2.670   1.982  17.091  2.5954 -0.5926  1.1070
  798MPD2    H111761   3.010   2.182  16.945 -0.9625  1.0411 -1.2695
  798MPD2    H211762   2.655   2.399  16.989 -0.8638 -1.0562 -1.3169
  798MPD2    H311763   2.898   2.383  16.949 -0.2241 -1.1319 -0.7653
  798MPD2     N11764   2.906   1.939  16.991 -0.2559 -0.1827 -0.4564
  798MPD2    H511765   2.847   1.860  17.015 -1.3786  0.9366  0.4082
  798MPD2    N111766   2.504   2.207  17.064  0.3704  0.1819 -0.1748
  798MPD2    H711767   2.469   2.302  17.058  0.1599  0.1373  0.3250
  799MPD2     C11768   0.639   3.469  14.300  0.1764 -0.5638 -0.2144
  799MPD2    C111769   0.768   3.514  14.268  0.8759  0.8448  0.4256
  799MPD2    C211770   0.778   3.623  14.181  0.5974  0.3672 -0.4845
  799MPD2    C311771   0.673   3.660  14.098 -0.6799 -0.1991 -0.4887
  799MPD2    C411772   0.550   3.618  14.135  0.1997 -0.5368  0.0948
  799MPD2    C511773   0.533   3.532  14.239  0.2401 -0.4369 -0.4702
  799MPD2     H11774   0.879   3.663  14.174  0.6820  0.1681 -0.3841
  799MPD2    H111775   0.458   3.659  14.095 -0.6092 -2.7916 -0.3220
  799MPD2    H211776   0.621   3.388  14.370  2.2607  0.1327  1.1505
  799MPD2    H311777   0.439   3.507  14.286 -0.3719  0.6873 -1.0804
  799MPD2     N11778   0.675   3.736  13.987  0.1425  0.3211  0.5859
  799MPD2    H511779   0.581   3.761  13.957 -0.4115 -0.1397  1.9493
  799MPD2    N111780   0.888   3.468  14.340 -0.0873 -0.4532  0.1713
  799MPD2    H711781   0.978   3.499  14.305 -0.4832 -0.0734 -0.4915
  800MPD2     C11782   1.223   0.001  13.848  0.0070  0.3622 -0.3505
  800MPD2    C111783   1.345   4.719  13.782  0.1441 -0.3549  0.2499
  800MPD2    C211784   1.362   4.629  13.677  0.6193 -0.0574 -0.0950
  800MPD2    C311785   1.257   4.543  13.643 -0.2914  0.1031 -0.0127
  800MPD2    C411786   1.129   4.559  13.703  0.0537 -0.7890  0.4827
  800MPD2    C511787   1.114   4.657  13.799  0.5267 -0.0695  0.2071
  800MPD2     H11788   1.453   4.625  13.617  0.6982  0.1329  0.0124
  800MPD2    H111789   1.038   4.505  13.680 -0.6890  0.3495  0.7300
  800MPD2    H211790   1.213   0.046  13.946 -0.2207  1.5905 -0.9454
  800MPD2    H311791   1.020   4.655  13.853  0.7373  1.4902  0.6362
  800MPD2     N11792   1.288   4.461  13.530 -0.0285 -0.1761 -0.1728
  800MPD2    H511793   1.383   4.449  13.497 -0.1867 -1.5546 -0.1207
  800MPD2    N111794   1.450   0.073  13.835 -0.4049  0.3067 -0.4458
  800MPD2    H711795   1.420   0.129  13.914  3.1352 -1.4069  2.1023
  801MPD2     C11796   1.479   0.741  14.144  0.2364 -0.5594 -0.1172
  801MPD2    C111797   1.423   0.621  14.113 -0.1569  0.2700  0.0625
  801MPD2    C211798   1.301   0.588  14.166 -0.4863  0.2800 -0.7206
  801MPD2    C311799   1.230   0.677  14.247  0.6591  0.8740  0.0374
  801MPD2    C411800   1.292   0.793  14.280 -0.6185  0.9482  0.4372
  801MPD2    C511801   1.415   0.822  14.230 -0.0099  0.6584  0.0868
  801MPD2     H11802   1.258   0.494  14.133 -2.0433  1.5109 -2.1765
  801MPD2    H111803   1.245   0.859  14.352 -2.1468  0.4340 -0.0838
  801MPD2    H211804   1.576   0.775  14.107  0.3412  0.2455  0.9078
  801MPD2    H311805   1.471   0.911  14.256  0.7168 -0.2028  1.4258
  801MPD2     N11806   1.093   0.660  14.286 -0.3051 -0.1855  0.3063
  801MPD2    H511807   1.047   0.740  14.327 -0.7597 -0.1344 -0.2974
  801MPD2    N111808   1.486   0.518  14.028 -0.0851  0.0850  0.2236
  801MPD2    H711809   1.442   0.428  14.018  0.1019 -0.0858  0.8786
  802MPD2     C11810   0.942   0.213  17.478  0.4515 -0.4890 -0.0934
  802MPD2    C111811   0.914   0.350  17.453  0.7733  0.2284  0.6781
  802MPD2    C211812   0.946   0.396  17.326  0.8263 -0.1280 -1.0810
  802MPD2    C311813   1.000   0.316  17.229  0.4960  0.4735 -0.5853
  802MPD2    C411814   1.021   0.181  17.251  0.0138 -0.2815 -0.4319
  802MPD2    C511815   0.995   0.138  17.379 -0.1343  1.2741  0.7236
  802MPD2     H11816   0.923   0.500  17.307 -0.2403  0.0086  0.9834
  802MPD2    H111817   1.075   0.116  17.183 -1.5696 -1.2654 -0.7519
  802MPD2    H211818   0.954   0.179  17.580  1.9080 -0.3468 -0.2232
  802MPD2    H311819   1.016   0.038  17.414  1.4793  0.9626 -1.1163
  802MPD2     N11820   1.036   0.380  17.107  0.3569  0.2067 -0.1748
  802MPD2    H511821   1.023   0.481  17.109 -3.2589 -0.2572  0.1087
  802MPD2    N111822   0.874   0.444  17.546 -0.2052  0.1620  0.2833
  802MPD2    H711823   0.882   0.541  17.516 -0.9645  0.3844  0.8118
  803MPD2     C11824   2.116   3.993  11.811  0.6787  0.1787  0.1867
  803MPD2    C111825   2.196   4.002  11.923 -0.0107  0.2261 -0.2501
  803MPD2    C211826   2.154   3.941  12.044  0.0552  0.5430  0.0269
  803MPD2    C311827   2.033   3.874  12.042  0.0531 -0.4637 -0.2761
  803MPD2    C411828   1.960   3.865  11.927  0.1594  0.7008 -0.3028
  803MPD2    C511829   1.998   3.932  11.816  0.4482  0.4293 -0.0746
  803MPD2     H11830   2.220   3.945  12.130 -0.2630 -0.1147  0.3054
  803MPD2    H111831   1.860   3.823  11.924  1.0254 -1.1854 -3.3126
  803MPD2    H211832   2.152   4.044  11.723 -0.6741 -0.3242 -0.6480
  803MPD2    H311833   1.931   3.926  11.731 -0.7190  0.0099  0.8798
  803MPD2     N11834   1.974   3.812  12.151 -0.1587  0.0184 -0.4249
  803MPD2    H511835   1.884   3.770  12.134 -0.7525  1.5524 -1.0777
  803MPD2    N111836   2.320   4.070  11.923 -0.8994 -0.2074  0.7970
  803MPD2    H711837   2.366   4.081  12.012 -0.2946 -0.0893  0.4653
  804MPD2     C11838   1.470   0.568  16.567 -0.4632 -0.1127 -0.4072
  804MPD2    C111839   1.487   0.576  16.701  0.3995  0.5712 -0.9137
  804MPD2    C211840   1.538   0.697  16.754 -0.4395 -0.4490 -0.6610
  804MPD2    C311841   1.578   0.799  16.665  0.1965  0.1292  0.2662
  804MPD2    C411842   1.573   0.780  16.526  0.0835 -0.1367 -1.0889
  804MPD2    C511843   1.506   0.669  16.481 -0.4528  0.4566 -0.7640
  804MPD2     H11844   1.537   0.710  16.862  1.0627 -0.9665 -0.5801
  804MPD2    H111845   1.595   0.863  16.460 -0.0739  0.5210 -0.3209
  804MPD2    H211846   1.408   0.497  16.514 -1.0884  0.4095 -0.3756
  804MPD2    H311847   1.479   0.667  16.376  0.4668  3.1962 -1.0473
  804MPD2     N11848   1.630   0.914  16.728 -0.0367  0.4615 -0.5318
  804MPD2    H511849   1.622   0.926  16.828  2.0956  1.8179 -0.5373
  804MPD2    N111850   1.471   0.462  16.783 -0.6036  0.4516 -0.1467
  804MPD2    H711851   1.496   0.483  16.879  2.4333 -0.0566 -0.8181
  805MPD2     C11852   0.708   3.858  15.090  0.4055  0.2351 -0.2576
  805MPD2    C111853   0.754   3.727  15.074 -0.6289 -0.0081 -0.2878
  805MPD2    C211854   0.861   3.689  15.154 -0.3884  0.3330  1.0492
  805MPD2    C311855   0.922   3.774  15.246  0.2469  0.6254 -0.4499
  805MPD2    C411856   0.875   3.905  15.244 -0.7470 -0.3001  0.6241
  805MPD2    C511857   0.766   3.944  15.175 -0.4686  0.3597  0.3858
  805MPD2     H11858   0.909   3.592  15.142  2.0060  1.7730 -1.0255
  805MPD2    H111859   0.928   3.979  15.303  0.3694 -0.6340  0.0395
  805MPD2    H211860   0.620   3.894  15.038  0.8668 -0.5898 -1.6098
  805MPD2    H311861   0.742   4.049  15.186 -0.1350  0.7373 -2.3665
  805MPD2     N11862   1.035   3.736  15.320 -0.5299 -0.3066 -0.2137
  805MPD2    H511863   1.066   3.641  15.302  0.7425 -0.0200  0.4988
  805MPD2    N111864   0.709   3.635  14.981  0.8814  0.3826  0.0548
  805MPD2    H711865   0.755   3.544  14.980  0.2845  0.0784  0.3767
  806MPD2     C11866   1.251   3.407   0.432 -0.2590 -0.0221 -0.5630
  806MPD2    C111867   1.380   3.462   0.421  0.6848 -1.2791  0.3532
  806MPD2    C211868   1.429   3.480   0.288 -0.2401 -0.0640  0.2607
  806MPD2    C311869   1.350   3.452   0.177  0.9988 -0.0438  0.3771
  806MPD2    C411870   1.215   3.414   0.195  0.0423 -0.4659 -0.1075
  806MPD2    C511871   1.176   3.383   0.323 -0.0762  0.4120  0.1289
  806MPD2     H11872   1.525   3.527   0.270 -0.2491  0.0400  0.4940
  806MPD2    H111873   1.139   3.407   0.118  0.4136  0.2567 -0.5437
  806MPD2    H211874   1.212   3.376   0.528  0.0088 -0.7508 -0.6893
  806MPD2    H311875   1.078   3.339   0.332 -0.3057  1.3029  1.8609
  806MPD2     N11876   1.412   3.471   0.058 -0.0560 -0.0651 -0.0609
  806MPD2    H511877   1.513   3.478   0.065 -0.3091  2.8158  0.9410
  806MPD2    N111878   1.460   3.464   0.541 -0.2711  0.2738  0.5782
  806MPD2    H711879   1.410   3.446   0.627 -1.3293 -2.7746 -0.6538
  807MPD2     C11880   1.424   3.588   1.278  0.2435  0.3074  0.7261
  807MPD2    C111881   1.394   3.484   1.180  0.1502  1.0990 -0.1161
  807MPD2    C211882   1.281   3.409   1.195 -0.3351  0.2199 -0.0833
  807MPD2    C311883   1.196   3.422   1.300 -0.3953 -0.2234  0.1743
  807MPD2    C411884   1.232   3.509   1.398  0.3036 -0.0493  0.3576
  807MPD2    C511885   1.346   3.591   1.390 -0.0523 -0.0118 -1.0004
  807MPD2     H11886   1.255   3.329   1.126 -1.8990  0.7423 -0.0991
  807MPD2    H111887   1.170   3.520   1.486  0.4231 -1.0391  0.5642
  807MPD2    H211888   1.500   3.664   1.264 -0.5230  1.5302  3.1926
  807MPD2    H311889   1.368   3.655   1.475 -1.2501 -0.0872 -0.6314
  807MPD2     N11890   1.072   3.344   1.297 -0.1871 -0.1001  0.6629
  807MPD2    H511891   1.064   3.272   1.226 -2.4735  1.0748 -0.3016
  807MPD2    N111892   1.471   3.459   1.071 -0.2766 -0.1368 -0.1974
  807MPD2    H711893   1.436   3.390   1.005 -1.8745  2.2273 -1.8250
  808MPD2     C11894   1.564   3.919   9.501 -0.1141 -0.2818 -0.3698
  808MPD2    C111895   1.676   3.948   9.579 -0.0582  0.0651  0.5882
  808MPD2    C211896   1.734   4.072   9.587 -0.0662 -0.4406  0.0147
  808MPD2    C311897   1.683   4.178   9.514 -0.0112 -0.5558 -1.0970
  808MPD2    C411898   1.575   4.144   9.431  0.3742  1.0462  0.2837
  808MPD2    C511899   1.516   4.027   9.424 -0.6020 -0.5785  0.1000
  808MPD2     H11900   1.821   4.081   9.651 -0.5358  0.3333  0.5461
  808MPD2    H111901   1.548   4.217   9.355  1.5531  1.6532  0.4553
  808MPD2    H211902   1.499   3.834   9.515  0.0997 -0.9045 -3.2206
  808MPD2    H311903   1.418   4.018   9.379 -1.7123  1.4854  2.1268
  808MPD2     N11904   1.736   4.310   9.505  0.1421  0.2587  0.0847
  808MPD2    H511905   1.696   4.374   9.437  1.8575  1.1139 -0.1148
  808MPD2    N111906   1.728   3.844   9.664  0.3143 -0.2802 -1.2022
  808MPD2    H711907   1.809   3.871   9.719 -1.7191 -0.1942  1.7710
  809MPD2     C11908   2.014   4.238   8.782  0.1372  0.3105  0.2672
  809MPD2    C111909   2.129   4.289   8.853  0.1888  0.2392  0.3670
  809MPD2    C211910   2.104   4.379   8.961 -0.1902  0.3159  0.1377
  809MPD2    C311911   1.978   4.421   8.993  0.8442  0.1617 -0.3694
  809MPD2    C411912   1.868   4.373   8.921  0.1285 -0.9034 -0.1596
  809MPD2    C511913   1.888   4.285   8.814 -0.3150 -0.3180  0.1602
  809MPD2     H11914   2.194   4.409   9.012  0.5382  0.8428 -1.4477
  809MPD2    H111915   1.766   4.390   8.955 -0.0138 -3.0121  0.4742
  809MPD2    H211916   2.014   4.178   8.691  2.0378  1.5702 -0.5609
  809MPD2    H311917   1.798   4.250   8.765  0.7005  1.7526 -3.1389
  809MPD2     N11918   1.940   4.496   9.108  0.6089  0.5631  0.5940
  809MPD2    H511919   1.845   4.525   9.125  0.4830  2.5267 -3.3313
  809MPD2    N111920   2.266   4.260   8.819 -0.3135  0.0786 -0.0199
  809MPD2    H711921   2.339   4.295   8.881  0.6128 -2.2671  0.2145
  810MPD2     C11922   1.746   3.601  10.375  1.0558 -0.2978  0.5809
  810MPD2    C111923   1.624   3.560  10.429 -1.1286 -0.4596  0.3145
  810MPD2    C211924   1.584   3.615  10.551 -0.2635  0.4995  0.2964
  810MPD2    C311925   1.664   3.707  10.615 -0.5388 -0.0294  0.0004
  810MPD2    C411926   1.787   3.750  10.562 -0.2374  0.3268  0.5801
  810MPD2    C511927   1.823   3.696  10.437 -0.2184  0.4872  0.7380
  810MPD2     H11928   1.499   3.582  10.610  1.0714  2.0795  3.1352
  810MPD2    H111929   1.857   3.822  10.603  0.1680  0.2755 -0.0176
  810MPD2    H211930   1.770   3.562  10.277  1.3009 -0.3855  0.6766
  810MPD2    H311931   1.919   3.720  10.392  0.4349 -2.3580  0.6063
  810MPD2     N11932   1.622   3.757  10.739 -0.4150  0.0894 -0.6215
  810MPD2    H511933   1.529   3.731  10.769  0.1956  0.5035  1.6597
  810MPD2    N111934   1.546   3.472  10.352 -0.4311  0.1145 -0.4070
  810MPD2    H711935   1.574   3.446  10.258  0.3466  0.3511 -0.2411
  811MPD2     C11936   0.929   3.439   9.749  0.3872  0.2198 -0.2928
  811MPD2    C111937   1.006   3.503   9.847 -0.1507 -0.4571  0.3172
  811MPD2    C211938   1.007   3.635   9.847 -0.3985  0.6510 -0.2724
  811MPD2    C311939   0.926   3.720   9.764 -0.5947 -0.0157  0.4210
  811MPD2    C411940   0.847   3.656   9.665 -0.1912 -0.0687  0.1896
  811MPD2    C511941   0.852   3.513   9.660  0.3003 -0.4618 -0.5945
  811MPD2     H11942   1.057   3.697   9.920 -1.0440 -0.1261  0.8273
  811MPD2    H111943   0.805   3.712   9.583  1.1813 -0.5554 -0.8404
  811MPD2    H211944   0.938   3.331   9.738 -1.1896  0.2373 -1.7760
  811MPD2    H311945   0.802   3.467   9.575 -1.0824  3.5820 -1.9853
  811MPD2     N11946   0.939   3.861   9.795 -0.4359 -0.3982 -0.6515
  811MPD2    H511947   1.002   3.884   9.871 -1.9698  0.1133  0.4569
  811MPD2    N111948   1.093   3.424   9.923 -0.0723 -0.3015 -0.1053
  811MPD2    H711949   1.089   3.323   9.908  0.5997 -0.4991  1.0735
  812MPD2     C11950   0.311   3.749  11.857  0.8238 -0.1548 -0.6825
  812MPD2    C111951   0.250   3.827  11.953 -0.0580 -0.9895 -0.6565
  812MPD2    C211952   0.209   3.770  12.071 -0.0717  0.0553 -0.1710
  812MPD2    C311953   0.233   3.638  12.100 -0.2140 -0.2936 -0.0118
  812MPD2    C411954   0.294   3.560  12.004 -0.3535 -0.0764 -0.3231
  812MPD2    C511955   0.337   3.613  11.884 -1.1583 -0.2209 -0.2790
  812MPD2     H11956   0.160   3.826  12.149 -2.1971 -0.3669 -1.2000
  812MPD2    H111957   0.312   3.457  12.031 -1.6650 -0.1708  0.2188
  812MPD2    H211958   0.371   3.788  11.777  1.2584 -1.4103 -0.9736
  812MPD2    H311959   0.399   3.553  11.818 -0.6063 -2.1907  2.0417
  812MPD2     N11960   0.190   3.593  12.229  0.8408  0.4508  0.0002
  812MPD2    H511961   0.152   3.660  12.295  0.4022 -1.3395  1.5628
  812MPD2    N111962   0.236   3.964  11.925 -0.6430 -0.5969 -0.0082
  812MPD2    H711963   0.277   4.006  11.842 -0.5146  1.9053  1.3100
  813MPD2     C11964   3.758   1.415  12.561  0.2786  0.1936  0.1365
  813MPD2    C111965   3.841   1.312  12.599 -0.0687 -1.2891 -0.0221
  813MPD2    C211966   3.793   1.215  12.685  0.2857  0.7031 -0.4236
  813MPD2    C311967   3.669   1.233  12.740 -0.2020 -0.7500  0.5176
  813MPD2    C411968   3.579   1.329  12.690  0.2702  0.1329 -0.3403
  813MPD2    C511969   3.627   1.416  12.594  0.3511  0.1711 -0.0463
  813MPD2     H11970   3.861   1.142  12.727 -1.1030  0.6933  1.8241
  813MPD2    H111971   3.480   1.345  12.731  0.8387  2.5894  0.0679
  813MPD2    H211972   3.802   1.489  12.496 -1.1528  1.2281  0.3583
  813MPD2    H311973   3.571   1.494  12.544  0.5374  1.3183  1.5103
  813MPD2     N11974   3.656   1.162  12.860  0.3711 -0.3575 -1.0531
  813MPD2    H511975   3.745   1.127  12.895  0.2957  0.6945  0.1835
  813MPD2    N111976   3.983   1.313  12.581  0.6958  0.7058  0.1116
  813MPD2    H711977   4.023   1.394  12.535  0.6631 -0.0172 -1.1891
  814MPD2     C11978   4.530   2.135  12.133  0.0710 -0.0442 -0.3694
  814MPD2    C111979   4.482   2.219  12.031 -0.2958 -0.8704  0.0956
  814MPD2    C211980   4.528   2.345  12.028  0.3932  0.1167  0.2977
  814MPD2    C311981   4.605   2.407  12.124  1.0078 -0.4899  0.4925
  814MPD2    C411982   4.636   2.329  12.232  0.5480 -0.5486  0.3337
  814MPD2    C511983   4.597   2.194  12.235 -0.3110  0.0132 -0.4241
  814MPD2     H11984   4.497   2.409  11.946 -0.2749 -2.3940 -1.4136
  814MPD2    H111985   4.693   2.376  12.312 -0.2586  0.5058  0.3055
  814MPD2    H211986   4.502   2.031  12.143 -1.4454  0.4896  0.9599
  814MPD2    H311987   4.620   2.133  12.322  0.6014  0.8573 -0.0775
  814MPD2     N11988   4.657   2.543  12.118  0.1426 -0.0133 -0.5626
  814MPD2    H511989   4.709   2.566  12.202  1.1372  0.8471 -1.4198
  814MPD2    N111990   4.403   2.179  11.925  0.5707 -0.0617  0.5176
  814MPD2    H711991   4.389   2.245  11.849  4.3152  0.0940 -0.0626
  815MPD2     C11992   0.050   1.069  11.309 -0.4247  0.3593 -0.6233
  815MPD2    C111993   0.054   0.933  11.305 -0.0092 -0.7302 -0.4078
  815MPD2    C211994   4.719   0.864  11.414  0.5800 -0.0177  0.1485
  815MPD2    C311995   4.665   0.938  11.521  0.3697 -0.2353 -0.5029
  815MPD2    C411996   4.665   1.079  11.522  0.0857 -0.1364  0.2157
  815MPD2    C511997   4.717   1.136  11.412  0.6161 -0.8724  0.1513
  815MPD2     H11998   4.720   0.757  11.433 -0.6335  0.0272  0.4160
  815MPD2    H111999   4.626   1.136  11.605 -0.0432 -1.1133  0.8235
  815MPD2    H212000   0.103   1.119  11.229 -0.4900  1.2591 -0.0935
  815MPD2    H312001   0.005   1.243  11.409  1.2402 -0.9475  0.0395
  815MPD2     N12002   4.587   0.869  11.616 -0.1093 -0.8896  0.4956
  815MPD2    H512003   4.563   0.771  11.600 -1.2216 -0.5002 -0.1939
  815MPD2    N112004   0.132   0.873  11.204  0.2498 -0.8803 -0.6483
  815MPD2    H712005   0.178   0.931  11.134 -1.3271  0.2338 -0.7625
  816MPD2     C12006   4.469   0.277  17.073  0.5909  1.0603 -0.3419
  816MPD2    C112007   4.535   0.393  17.117  0.4359  0.5484 -0.5206
  816MPD2    C212008   4.673   0.386  17.108  0.5323 -0.3019 -0.0677
  816MPD2    C312009   0.018   0.277  17.057  0.1341 -0.0850  0.9814
  816MPD2    C412010   4.675   0.163  17.020 -0.6902 -1.0430 -0.3831
  816MPD2    C512011   4.538   0.165  17.030  0.4657  0.0116  0.4280
  816MPD2     H12012   0.007   0.471  17.141  0.2911  0.0820 -0.6238
  816MPD2    H112013   4.718   0.066  16.995  1.2049 -0.1933 -0.4525
  816MPD2    H212014   4.362   0.273  17.092  0.8285  1.9471  1.2541
  816MPD2    H312015   4.488   0.076  16.992  1.5185 -0.1525 -0.5863
  816MPD2     N12016   0.162   0.290  17.027  0.2639  0.0896  0.2881
  816MPD2    H512017   0.210   0.376  17.053  1.6737 -1.0325  1.3672
  816MPD2    N112018   4.463   0.502  17.176 -0.0783  0.1937  0.4214
  816MPD2    H712019   4.362   0.493  17.175 -0.0812  0.5588 -1.7380
  817MPD2     C12020   4.302   1.270   9.328  0.3846 -0.2329 -0.1911
  817MPD2    C112021   4.328   1.303   9.192 -0.2452 -0.3014 -0.1430
  817MPD2    C212022   4.258   1.404   9.136  1.3832 -0.1894  0.4989
  817MPD2    C312023   4.157   1.471   9.199 -0.7935 -0.1175  0.0986
  817MPD2    C412024   4.146   1.448   9.330  0.2069 -0.5031  0.1830
  817MPD2    C512025   4.216   1.348   9.399  0.4925 -0.0293 -0.5164
  817MPD2     H12026   4.280   1.422   9.032 -0.2528  0.8025  0.3320
  817MPD2    H112027   4.079   1.515   9.383  1.2410  1.8584 -1.5491
  817MPD2    H212028   4.345   1.182   9.374  0.0796 -0.3667 -0.1633
  817MPD2    H312029   4.190   1.311   9.498 -0.5078  1.0553 -0.3781
  817MPD2     N12030   4.079   1.573   9.129 -0.3861  0.0763 -0.6133
  817MPD2    H512031   4.099   1.593   9.031 -1.2914 -0.0224 -0.8212
  817MPD2    N112032   4.416   1.228   9.112 -0.0236  0.5292  0.6997
  817MPD2    H712033   4.415   1.253   9.014 -0.3412 -2.5506 -0.0757
  818MPD2     C12034   3.379   1.367   9.615 -0.3875 -0.5722  0.0743
  818MPD2    C112035   3.412   1.284   9.720 -0.0237  0.5685 -0.0821
  818MPD2    C212036   3.467   1.157   9.686 -0.1496 -0.1825  0.2498
  818MPD2    C312037   3.490   1.126   9.553  0.4876 -1.0650  0.4478
  818MPD2    C412038   3.451   1.204   9.443 -0.4709  0.6654 -0.0299
  818MPD2    C512039   3.404   1.329   9.482 -0.3092  0.1140 -0.5798
  818MPD2     H12040   3.488   1.093   9.772  1.3521 -0.7899 -0.5591
  818MPD2    H112041   3.469   1.175   9.340 -0.3682 -2.8812  0.9597
  818MPD2    H212042   3.335   1.466   9.618 -2.3633 -1.4419 -0.5800
  818MPD2    H312043   3.376   1.403   9.408  0.8850  1.6177  0.4730
  818MPD2     N12044   3.548   0.998   9.531 -0.2426 -0.2280  0.5660
  818MPD2    H512045   3.538   0.960   9.437 -2.1530  2.2700 -0.2338
  818MPD2    N112046   3.386   1.319   9.854 -0.5675 -0.1742  0.1276
  818MPD2    H712047   3.415   1.254   9.926  0.6907 -0.3949 -0.5763
  819MPD2     C12048   1.177   3.189  15.550  0.9239 -0.7282 -0.8166
  819MPD2    C112049   1.224   3.060  15.538 -0.0577 -0.1603  0.4395
  819MPD2    C212050   1.358   3.040  15.523  0.6842 -0.6891  0.7124
  819MPD2    C312051   1.446   3.149  15.503  0.1940  1.3557  0.5274
  819MPD2    C412052   1.390   3.279  15.508 -0.4890 -0.4923  0.3597
  819MPD2    C512053   1.257   3.298  15.529  1.4332  0.3762 -0.5224
  819MPD2     H12054   1.398   2.939  15.520  0.6503 -0.6357 -1.1061
  819MPD2    H112055   1.456   3.365  15.516 -0.3190 -0.7104  1.3707
  819MPD2    H212056   1.076   3.206  15.584 -0.1573  0.3439 -4.5728
  819MPD2    H312057   1.210   3.396  15.533 -1.3608 -1.0215  0.8736
  819MPD2     N12058   1.589   3.131  15.491 -0.0923  0.6171 -0.7270
  819MPD2    H512059   1.632   3.043  15.520  0.2207  1.3473  1.0398
  819MPD2    N112060   1.132   2.953  15.544  0.0917 -0.0765  0.1375
  819MPD2    H712061   1.037   2.983  15.565  0.9382  2.9527 -0.3452
  820MPD2     C12062   0.928   2.970  14.633  0.1331 -0.2927 -0.0306
  820MPD2    C112063   0.852   3.008  14.735 -0.2494 -0.3152 -1.3998
  820MPD2    C212064   0.881   2.957  14.861 -0.7383 -0.5280  0.8926
  820MPD2    C312065   0.984   2.861  14.879 -0.3179 -0.9994  0.8313
  820MPD2    C412066   1.056   2.816  14.765  0.6973  0.3577 -0.4743
  820MPD2    C512067   1.032   2.880  14.642  0.5546  0.1244  0.3489
  820MPD2     H12068   0.828   2.993  14.949  0.7537  0.2177  1.4875
  820MPD2    H112069   1.136   2.743  14.769 -0.7231 -1.1879 -0.2342
  820MPD2    H212070   0.896   3.013  14.538 -0.7995 -3.2713 -1.0692
  820MPD2    H312071   1.079   2.840  14.552  0.3097 -0.7173  0.5965
  820MPD2     N12072   1.019   2.810  15.005  0.2233 -1.1404 -0.2780
  820MPD2    H512073   1.109   2.762  15.007 -0.6268 -2.6329  1.7559
  820MPD2    N112074   0.761   3.111  14.709 -0.3268 -0.0452 -0.1598
  820MPD2    H712075   0.744   3.134  14.611  0.6074 -0.3912 -0.4043
  821MPD2     C12076   1.254   4.434  12.812 -0.7827  0.3401  0.5214
  821MPD2    C112077   1.327   4.449  12.933 -0.1259  0.1599 -0.1360
  821MPD2    C212078   1.424   4.545  12.942 -0.3643  0.7264 -0.4976
  821MPD2    C312079   1.455   4.638  12.843  0.2621 -0.0549  0.6031
  821MPD2    C412080   1.386   4.620  12.727 -0.3255  0.8521  0.4675
  821MPD2    C512081   1.292   4.519  12.712  0.1106  0.5747 -0.4378
  821MPD2     H12082   1.480   4.555  13.034  0.0180 -1.9892 -0.4420
  821MPD2    H112083   1.405   4.696  12.651 -0.1656  1.2636  0.9195
  821MPD2    H212084   1.164   4.374  12.814 -0.5090 -0.0717  0.6922
  821MPD2    H312085   1.227   4.520  12.625 -2.5912  0.7886  1.5855
  821MPD2     N12086   1.556   0.018  12.840 -0.6587  0.0839 -0.0401
  821MPD2    H512087   1.570   0.086  12.766 -1.7630 -0.8561 -1.1188
  821MPD2    N112088   1.309   4.368  13.047 -0.3545 -0.7786  0.3219
  821MPD2    H712089   1.360   4.398  13.129 -0.8420  1.9373 -0.3559
  822MPD2     C12090   2.126   0.034  15.447 -0.0003 -0.1407 -0.2015
  822MPD2    C112091   2.088   4.704  15.572 -0.0041 -1.2210 -0.1570
  822MPD2    C212092   2.005   0.053  15.660  0.5656  0.3366 -0.2552
  822MPD2    C312093   1.957   0.174  15.623 -0.4501  0.1905 -0.3606
  822MPD2    C412094   1.991   0.228  15.498  0.8168 -0.0925 -0.2871
  822MPD2    C512095   2.076   0.160  15.416 -0.2994 -0.5497 -0.4840
  822MPD2     H12096   1.970   0.010  15.753 -0.0843  0.0307 -0.6416
  822MPD2    H112097   1.949   0.316  15.451  1.2741 -0.8779 -2.1730
  822MPD2    H212098   2.186   4.712  15.371 -1.1349 -0.1750 -1.0726
  822MPD2    H312099   2.095   0.197  15.316 -0.1663  1.5408  0.3111
  822MPD2     N12100   1.880   0.248  15.715  0.2686 -0.3630 -0.3593
  822MPD2    H512101   1.871   0.201  15.804 -0.3470  1.7742  0.7008
  822MPD2    N112102   2.121   4.576  15.619 -0.8644 -0.0505  0.7166
  822MPD2    H712103   2.074   4.542  15.703 -1.3302 -0.2199  0.3862
  823MPD2     C12104   1.745   0.407  16.511  0.3173  0.1192 -0.2511
  823MPD2    C112105   1.757   0.323  16.406 -0.6723 -0.1452 -0.1410
  823MPD2    C212106   1.770   0.184  16.426  0.0929 -0.0956 -0.2361
  823MPD2    C312107   1.789   0.137  16.556 -0.3214  0.2588  0.1510
  823MPD2    C412108   1.791   0.221  16.660  0.0108  0.0830  0.8895
  823MPD2    C512109   1.769   0.353  16.640 -0.2282  0.0225  0.2697
  823MPD2     H12110   1.779   0.120  16.339  0.1136 -0.8680  0.3256
  823MPD2    H112111   1.817   0.186  16.759  0.6004 -1.1537  0.2949
  823MPD2    H212112   1.731   0.514  16.502  0.9045  0.1765 -0.4984
  823MPD2    H312113   1.771   0.420  16.725 -3.1567  0.4835 -0.0213
  823MPD2     N12114   1.822   0.004  16.585 -0.3096  0.7586 -0.5792
  823MPD2    H512115   1.844   4.718  16.684 -0.0841  1.3757 -0.5561
  823MPD2    N112116   1.745   0.386  16.278  1.0800 -0.4420  0.3723
  823MPD2    H712117   1.770   0.484  16.277 -0.5500 -0.0167  1.3541
  824MPD2     C12118   2.388   3.790  15.444 -0.1922 -0.0186  0.2905
  824MPD2    C112119   2.474   3.899  15.461  0.1112  0.2384  0.4167
  824MPD2    C212120   2.607   3.887  15.430 -0.1508 -0.4800 -0.0685
  824MPD2    C312121   2.669   3.775  15.368  0.5879  0.5692 -0.5725
  824MPD2    C412122   2.576   3.679  15.327  0.2252 -0.4153 -0.5307
  824MPD2    C512123   2.446   3.688  15.375  0.0539 -0.5326  0.4632
  824MPD2     H12124   2.673   3.973  15.437 -0.5948  0.0023 -1.8859
  824MPD2    H112125   2.592   3.585  15.276 -1.0225 -0.3055 -1.1227
  824MPD2    H212126   2.284   3.787  15.476 -0.2041  0.0245  0.2544
  824MPD2    H312127   2.377   3.606  15.356  0.9001 -1.5943  1.8765
  824MPD2     N12128   2.804   3.775  15.337  0.3326  0.6166  0.6169
  824MPD2    H512129   2.852   3.857  15.372  0.2856  1.1210 -0.4952
  824MPD2    N112130   2.438   4.014  15.539 -0.5366 -0.4097  0.0027
  824MPD2    H712131   2.506   4.089  15.546 -0.1162 -0.5927 -2.1989
  825MPD2     C12132   3.473   3.940  14.848 -0.0947  0.7010 -0.3789
  825MPD2    C112133   3.372   3.988  14.927  1.1149 -0.1761 -0.2544
  825MPD2    C212134   3.337   4.126  14.919 -0.3298  0.4417  0.4298
  825MPD2    C312135   3.399   4.201  14.823 -0.3563  0.0892 -0.3669
  825MPD2    C412136   3.492   4.143  14.741  0.2299 -0.3250  0.3424
  825MPD2    C512137   3.539   4.022  14.761 -0.4039 -0.2904 -0.1746
  825MPD2     H12138   3.253   4.161  14.977 -0.7939  3.2304 -1.9144
  825MPD2    H112139   3.540   4.196  14.659 -0.0233 -3.1344 -1.6239
  825MPD2    H212140   3.512   3.840  14.861  0.0723  0.4196 -2.9912
  825MPD2    H312141   3.620   3.981  14.702 -1.6108 -0.8341 -1.4813
  825MPD2     N12142   3.369   4.336  14.793  0.2662  0.4077 -0.2935
  825MPD2    H512143   3.420   4.376  14.715  0.7518 -0.4242 -0.3972
  825MPD2    N112144   3.307   3.901  15.016  0.5307 -0.0327  0.5649
  825MPD2    H712145   3.336   3.804  15.014  1.0870  0.1249  0.9534
  826MPD2     C12146   2.980   3.642  13.665 -0.1528 -0.2316  0.1018
  826MPD2    C112147   3.014   3.717  13.550 -0.8434  0.5024 -0.7329
  826MPD2    C212148   2.925   3.813  13.507  1.2087 -0.4984  0.2992
  826MPD2    C312149   2.814   3.844  13.579  0.2946  0.0723 -0.0323
  826MPD2    C412150   2.792   3.784  13.700 -0.3607  0.7248  0.1547
  826MPD2    C512151   2.873   3.680  13.741 -1.0246 -0.1603  0.6425
  826MPD2     H12152   2.950   3.874  13.421 -2.7984  0.0404 -0.4818
  826MPD2    H112153   2.709   3.823  13.757 -1.3388 -1.3727  0.1796
  826MPD2    H212154   3.044   3.569  13.712 -3.0169 -2.3450  0.7612
  826MPD2    H312155   2.856   3.634  13.837 -0.6962  0.9172  1.2109
  826MPD2     N12156   2.719   3.945  13.541 -0.8905 -0.2300  1.0488
  826MPD2    H512157   2.643   3.969  13.604 -2.6891  0.8846 -1.5379
  826MPD2    N112158   3.132   3.682  13.482  0.2954 -0.2731 -0.6719
  826MPD2    H712159   3.175   3.594  13.508  2.7399  1.0721 -0.2357
  827MPD2     C12160   3.966   0.264   9.690 -0.0619 -0.0388  0.9187
  827MPD2    C112161   3.941   0.132   9.719  0.5799 -1.2400  0.0667
  827MPD2    C212162   3.850   0.063   9.636  0.1955 -0.3614  0.9147
  827MPD2    C312163   3.798   0.126   9.520  0.0244 -0.1682  0.5638
  827MPD2    C412164   3.827   0.259   9.494  0.1798  0.5272 -0.4662
  827MPD2    C512165   3.914   0.326   9.584  0.3097 -0.0198 -0.0345
  827MPD2     H12166   3.833   4.682   9.650 -1.1266 -0.4117 -0.9733
  827MPD2    H112167   3.789   0.308   9.406 -3.8223 -0.1842  0.8555
  827MPD2    H212168   4.026   0.320   9.760  0.2244 -0.6904  1.2001
  827MPD2    H312169   3.947   0.427   9.562  2.0373 -0.7445 -0.8000
  827MPD2     N12170   3.726   0.043   9.437 -0.1826  0.2026 -0.0027
  827MPD2    H512171   3.714   4.671   9.463  1.0381 -0.0680 -0.4278
  827MPD2    N112172   3.996   0.079   9.841 -0.0540  0.1289  0.1203
  827MPD2    H712173   4.057   0.135   9.899  0.6192  1.1859 -1.6020
  828MPD2     C12174   1.855   0.304  12.340 -0.0524 -0.0958 -0.3126
  828MPD2    C112175   1.884   0.291  12.209 -0.3854  0.2183  0.5075
  828MPD2    C212176   2.017   0.287  12.165 -0.2142  0.0123  0.2549
  828MPD2    C312177   2.121   0.305  12.253  0.0403  0.3648 -0.0509
  828MPD2    C412178   2.096   0.309  12.390 -0.8700 -0.0832 -0.3783
  828MPD2    C512179   1.959   0.301  12.429 -0.5718  0.5814  0.5589
  828MPD2     H12180   2.033   0.275  12.058  0.5535  0.5897  0.3031
  828MPD2    H112181   2.168   0.307  12.471 -0.2114  0.5861 -0.9411
  828MPD2    H212182   1.754   0.321  12.374 -0.9182  0.2288 -3.0475
  828MPD2    H312183   1.936   0.313  12.534  3.8417  0.4981  1.5547
  828MPD2     N12184   2.261   0.294  12.213 -0.3784  0.3066 -0.4912
  828MPD2    H512185   2.326   0.292  12.292  0.3757  0.5106 -1.1147
  828MPD2    N112186   1.784   0.290  12.113 -0.3545 -0.4474 -0.1144
  828MPD2    H712187   1.821   0.307  12.020 -0.4947 -0.2488 -0.1351
  829MPD2     C12188   1.868   0.338  11.264 -0.2689 -0.2199 -0.7297
  829MPD2    C112189   1.729   0.359  11.266  0.0153 -0.2860 -0.1178
  829MPD2    C212190   1.674   0.368  11.393 -0.8992 -0.8884 -0.1239
  829MPD2    C312191   1.755   0.361  11.510 -0.3855 -0.3828 -0.3676
  829MPD2    C412192   1.889   0.341  11.505 -0.4105  0.1781 -0.4337
  829MPD2    C512193   1.946   0.329  11.379  0.2981  0.3185 -0.2050
  829MPD2     H12194   1.569   0.392  11.407 -0.3383  1.5330 -0.0068
  829MPD2    H112195   1.959   0.324  11.586 -0.1865  1.7148 -0.3194
  829MPD2    H212196   1.923   0.327  11.171 -1.0400 -0.6807 -1.1354
  829MPD2    H312197   2.048   0.293  11.373  0.3123  0.8422 -3.1566
  829MPD2     N12198   1.693   0.356  11.639  0.4076  0.1967 -0.5739
  829MPD2    H512199   1.755   0.337  11.718 -1.0341  0.0905  0.5290
  829MPD2    N112200   1.664   0.352  11.139  0.5634  0.5953 -0.0062
  829MPD2    H712201   1.725   0.321  11.063 -0.9772 -0.2574 -0.8866
  830MPD2     C12202   2.055   3.279  14.912  0.0121 -0.4776 -0.9117
  830MPD2    C112203   2.133   3.304  15.024  0.3547 -0.3319 -0.0033
  830MPD2    C212204   2.266   3.333  15.009 -0.2674  0.7786  1.0994
  830MPD2    C312205   2.327   3.342  14.885 -0.7474  0.4589 -0.1206
  830MPD2    C412206   2.251   3.315  14.769 -0.2044  0.1652  0.7071
  830MPD2    C512207   2.118   3.279  14.789  0.1597 -0.5918  0.1562
  830MPD2     H12208   2.325   3.349  15.098 -0.8701  0.3763  1.5709
  830MPD2    H112209   2.301   3.323  14.674 -0.7117 -1.9475  0.2479
  830MPD2    H212210   1.948   3.261  14.914  0.1465 -1.3156 -1.6175
  830MPD2    H312211   2.051   3.272  14.704 -1.2132  0.4892  1.1486
  830MPD2     N12212   2.467   3.351  14.867  0.1093 -0.7143  0.2144
  830MPD2    H512213   2.509   3.353  14.775 -0.6753 -0.5808 -0.1457
  830MPD2    N112214   2.070   3.296  15.149 -0.4010  0.0518 -0.3275
  830MPD2    H712215   1.971   3.273  15.140 -0.7178  1.3834 -0.3415
  831MPD2     C12216   2.122   0.254  16.010  0.0225 -0.0235 -0.8336
  831MPD2    C112217   2.159   0.146  15.936 -0.3660  0.5556 -0.5233
  831MPD2    C212218   2.105   0.018  15.955  0.2347  0.1501  0.2229
  831MPD2    C312219   2.000   0.005  16.040  0.4105 -0.1297 -0.3108
  831MPD2    C412220   1.971   0.110  16.125 -0.2433  0.3223 -0.1157
  831MPD2    C512221   2.029   0.234  16.109  0.1255 -0.2171  0.2158
  831MPD2     H12222   2.138   4.666  15.886 -1.3079 -0.4039  0.1057
  831MPD2    H112223   1.891   0.090  16.195 -0.8809  4.7042  0.4106
  831MPD2    H212224   2.167   0.352  16.000  0.5912 -0.3658 -1.6060
  831MPD2    H312225   2.007   0.312  16.181 -1.1418  0.1607 -0.5728
  831MPD2     N12226   1.909   4.618  16.031  0.4029  0.2355  0.0798
  831MPD2    H512227   1.839   4.617  16.105 -0.4459  0.4539 -0.7236
  831MPD2    N112228   2.259   0.171  15.841 -0.0002 -0.1796 -0.5951
  831MPD2    H712229   2.275   0.271  15.827  1.4786 -0.1454  1.3654
  832MPD2     C12230   0.617   2.000  17.019 -0.2234 -0.3906  0.0240
  832MPD2    C112231   0.634   1.864  17.011  0.6389 -0.3753  0.1795
  832MPD2    C212232   0.533   1.779  16.967  0.2360 -0.0087  0.3463
  832MPD2    C312233   0.414   1.837  16.929  0.8516  0.7701 -0.4114
  832MPD2    C412234   0.396   1.973  16.933  0.1239 -0.1450 -0.6284
  832MPD2    C512235   0.497   2.051  16.972 -0.5616  0.7153  0.0370
  832MPD2     H12236   0.555   1.674  16.953 -0.5018 -0.3241  1.5820
  832MPD2    H112237   0.303   2.020  16.906 -0.0240 -0.3573 -0.4906
  832MPD2    H212238   0.689   2.072  17.057 -0.1848 -1.4619  1.9467
  832MPD2    H312239   0.486   2.159  16.975 -2.3676  0.5576 -0.7549
  832MPD2     N12240   0.297   1.762  16.894  0.6557 -0.4412 -0.8272
  832MPD2    H512241   0.220   1.814  16.852  1.5557  0.3875 -1.4701
  832MPD2    N112242   0.764   1.823  17.046 -0.3040  0.6258  1.0731
  832MPD2    H712243   0.826   1.902  17.063  0.0946  0.0265  2.3622
  833MPD2     C12244   2.890   2.835  12.441 -0.1013  0.4663  0.3466
  833MPD2    C112245   2.883   2.915  12.331  0.0324  0.2200 -0.0327
  833MPD2    C212246   2.934   2.872  12.207 -0.2595 -0.0249 -0.2342
  833MPD2    C312247   2.995   2.751  12.204  0.4047  0.0754  0.0334
  833MPD2    C412248   3.006   2.674  12.315 -0.9609 -0.2997  0.4018
  833MPD2    C512249   2.949   2.715  12.429 -0.1863 -0.0548  0.4583
  833MPD2     H12250   2.932   2.936  12.120 -1.6424  1.8514  1.1863
  833MPD2    H112251   3.060   2.581  12.314  0.3197  0.4556 -0.3960
  833MPD2    H212252   2.846   2.867  12.535 -2.1508  1.7224 -1.0486
  833MPD2    H312253   2.965   2.654  12.517  1.0122  0.3871  0.5439
  833MPD2     N12254   3.054   2.707  12.078 -0.2517  0.2279 -0.0578
  833MPD2    H512255   3.105   2.619  12.075 -0.9771 -0.1794 -0.3709
  833MPD2    N112256   2.816   3.042  12.347 -0.2325  0.0268  0.1070
  833MPD2    H712257   2.785   3.059  12.442  2.4151  0.2957  0.9168
  834MPD2     C12258   2.593   2.044  11.561  0.3312 -0.0813  0.0732
  834MPD2    C112259   2.672   2.091  11.457  0.2251  0.7413 -0.3712
  834MPD2    C212260   2.753   2.200  11.477  0.4353  0.0831 -0.1867
  834MPD2    C312261   2.760   2.260  11.597  0.0977 -1.1908 -0.4741
  834MPD2    C412262   2.686   2.214  11.702 -0.4646  0.0837  0.2731
  834MPD2    C512263   2.600   2.108  11.682 -0.2411 -0.4887 -0.8468
  834MPD2     H12264   2.794   2.254  11.393  2.2955 -2.8045 -1.0970
  834MPD2    H112265   2.688   2.263  11.799 -2.1909 -0.0990  0.3973
  834MPD2    H212266   2.536   1.952  11.561  3.4871 -2.0493  0.7016
  834MPD2    H312267   2.534   2.085  11.764  2.3156 -1.6548  0.8939
  834MPD2     N12268   2.847   2.373  11.609 -0.4152  0.0062 -0.2623
  834MPD2    H512269   2.883   2.412  11.523  0.4071 -1.8715 -0.7615
  834MPD2    N112270   2.656   2.022  11.329  0.4742  0.7252  0.3031
  834MPD2    H712271   2.593   1.943  11.324  1.5425 -0.1469  0.7917
  835MPD2     C12272   3.104   0.092  11.427  0.6461 -0.3865 -0.4703
  835MPD2    C112273   2.999   0.177  11.451 -0.0058 -0.2974 -0.2773
  835MPD2    C212274   3.020   0.296  11.517  0.0879 -0.3228 -0.7855
  835MPD2    C312275   3.142   0.321  11.573 -0.4292 -0.2817  0.0699
  835MPD2    C412276   3.241   0.222  11.572 -0.0612  0.1144  0.6515
  835MPD2    C512277   3.220   0.107  11.500 -0.8057  0.1980  0.1827
  835MPD2     H12278   2.938   0.365  11.535  2.3845  1.9735  0.8676
  835MPD2    H112279   3.339   0.234  11.616  1.2545 -3.2835 -1.3406
  835MPD2    H212280   3.095   0.011  11.356 -1.2695 -0.1715 -0.4958
  835MPD2    H312281   3.299   0.033  11.494 -1.3063 -0.1798 -1.7854
  835MPD2     N12282   3.181   0.435  11.648  0.1610  0.0651  0.1642
  835MPD2    H512283   3.268   0.429  11.701  0.1853  1.1062  0.2468
  835MPD2    N112284   2.866   0.145  11.413 -0.1766 -0.1064  0.1730
  835MPD2    H712285   2.796   0.212  11.444  0.3114  0.6329 -0.3109
  836MPD2     C12286   2.785   0.949  12.268  0.5273  0.7196  0.0949
  836MPD2    C112287   2.776   0.870  12.160 -0.6571 -0.1208 -0.3114
  836MPD2    C212288   2.652   0.813  12.137  0.4676  0.1292  0.5319
  836MPD2    C312289   2.539   0.845  12.208  0.2251  0.6761 -0.3143
  836MPD2    C412290   2.553   0.933  12.313  0.1476  0.4452 -0.6264
  836MPD2    C512291   2.680   0.978  12.341 -0.5940 -0.0135  0.0686
  836MPD2     H12292   2.644   0.746  12.052  1.5815  1.2308 -0.4408
  836MPD2    H112293   2.473   0.962  12.380 -0.1819 -1.3938 -0.2254
  836MPD2    H212294   2.880   0.999  12.284  1.6315 -0.5649 -2.4119
  836MPD2    H312295   2.686   1.059  12.413 -1.9080  1.3458 -1.3488
  836MPD2     N12296   2.411   0.781  12.190 -0.5381 -0.3463 -0.1139
  836MPD2    H512297   2.335   0.823  12.242 -0.0645  1.8657 -1.2100
  836MPD2    N112298   2.902   0.842  12.089 -0.3802 -0.1230 -0.2755
  836MPD2    H712299   2.980   0.900  12.118 -0.8243  0.4160 -0.1530
  837MPD2     C12300   1.267   4.439  10.217 -1.0129 -0.4672  0.1254
  837MPD2    C112301   1.131   4.457  10.193 -0.2296  0.2048 -0.3527
  837MPD2    C212302   1.073   4.571  10.247 -0.1111 -0.3283  0.4932
  837MPD2    C312303   1.147   4.671  10.309 -0.0432  0.0988 -0.6938
  837MPD2    C412304   1.268   4.635  10.358 -0.1038  0.6629 -0.5218
  837MPD2    C512305   1.324   4.525  10.306 -0.0148  0.5458  0.6624
  837MPD2     H12306   0.970   4.590  10.218 -0.8477 -0.2521  3.0969
  837MPD2    H112307   1.325   4.694  10.429  0.1689  0.4247 -0.5442
  837MPD2    H212308   1.319   4.351  10.181 -1.8564  0.6700 -3.7763
  837MPD2    H312309   1.426   4.502  10.334  0.9669  3.1648 -0.7311
  837MPD2     N12310   1.085   0.066  10.341  0.4612 -0.5143  0.3495
  837MPD2    H512311   1.001   0.075  10.284  0.9446 -0.1918 -0.3108
  837MPD2    N112312   1.061   4.383  10.097 -0.2611 -0.1810  0.8469
  837MPD2    H712313   0.964   4.412  10.086 -0.1222  0.2376  0.7296
  838MPD2     C12314   3.960   2.962  11.679  0.0705  0.1719 -0.7463
  838MPD2    C112315   3.936   2.823  11.708  0.6068 -0.2637 -0.6365
  838MPD2    C212316   3.808   2.797  11.757 -0.3158  0.5359  0.6775
  838MPD2    C312317   3.709   2.890  11.777 -0.7207 -0.6255 -0.2944
  838MPD2    C412318   3.729   3.017  11.725 -0.1297 -0.6853 -0.3516
  838MPD2    C512319   3.855   3.051  11.681  1.2751 -0.5950 -0.3275
  838MPD2     H12320   3.783   2.697  11.791 -0.2478  0.7688  1.4261
  838MPD2    H112321   3.646   3.086  11.720  1.1623  1.0181  1.3091
  838MPD2    H212322   4.051   3.000  11.634  0.5823 -2.0543 -1.5865
  838MPD2    H312323   3.877   3.152  11.648 -0.9006 -0.6441 -1.9361
  838MPD2     N12324   3.592   2.850  11.840  0.3849 -0.1639 -0.0795
  838MPD2    H512325   3.605   2.760  11.886 -0.3978 -0.6059 -0.7186
  838MPD2    N112326   4.036   2.727  11.681  0.8384  0.6026  0.7800
  838MPD2    H712327   4.006   2.631  11.670  0.0567  0.8589  0.7223
  839MPD2     C12328   3.602   2.514  11.263  0.6355 -0.1033  0.8563
  839MPD2    C112329   3.686   2.421  11.215 -0.0827  0.1799  0.2831
  839MPD2    C212330   3.822   2.444  11.230  0.7461  0.4254  0.1415
  839MPD2    C312331   3.868   2.551  11.304 -0.2584 -0.3242  0.5568
  839MPD2    C412332   3.772   2.637  11.354 -0.0903  0.3494 -0.0280
  839MPD2    C512333   3.638   2.626  11.328 -0.1983 -0.1786  0.0099
  839MPD2     H12334   3.894   2.370  11.196  1.1586 -0.2182  2.4317
  839MPD2    H112335   3.795   2.732  11.401 -0.7285 -0.9978  3.0300
  839MPD2    H212336   3.494   2.514  11.248  0.8559  0.2404 -0.6588
  839MPD2    H312337   3.561   2.699  11.347 -0.9989 -1.7477  2.8188
  839MPD2     N12338   4.002   2.582  11.332  0.1519 -0.7911  0.4958
  839MPD2    H512339   4.015   2.656  11.400 -0.3247  0.4032 -0.7178
  839MPD2    N112340   3.637   2.299  11.155 -0.3246  0.3150  0.2365
  839MPD2    H712341   3.707   2.237  11.117 -1.2176 -2.2111  2.6774
  840MPD2     C12342   4.564   0.224   9.977  0.6676  0.2620  0.0222
  840MPD2    C112343   4.488   0.216  10.089 -0.1510  0.1008  0.3106
  840MPD2    C212344   4.502   0.327  10.177 -0.8092 -0.7681  0.1390
  840MPD2    C312345   4.587   0.430  10.154 -1.0367  0.4220  0.0848
  840MPD2    C412346   4.658   0.437  10.031  0.7998 -0.3524  0.0383
  840MPD2    C512347   4.649   0.332   9.945  0.2249 -0.2348  0.2108
  840MPD2     H12348   4.434   0.335  10.262 -2.5733 -4.0227 -0.9707
  840MPD2    H112349   4.720   0.523  10.006  0.3219  0.3967  1.4383
  840MPD2    H212350   4.561   0.153   9.896  1.1285  0.2340  0.0257
  840MPD2    H312351   4.709   0.327   9.855 -2.0549  1.1431 -1.3378
  840MPD2     N12352   4.606   0.540  10.244 -0.2591  0.0296 -0.3995
  840MPD2    H512353   4.672   0.609  10.211 -0.0332  0.0698  0.1377
  840MPD2    N112354   4.387   0.118  10.106  0.0193 -0.2442  0.0514
  840MPD2    H712355   4.392   0.048  10.033 -0.7878  1.4138 -1.5940
  841MPD2     C12356   3.481   0.318  15.038  0.3317 -0.1267 -0.0894
  841MPD2    C112357   3.532   0.271  14.917  0.2579  0.6414 -0.0831
  841MPD2    C212358   3.566   0.368  14.827  0.5508  0.5735 -0.3134
  841MPD2    C312359   3.547   0.505  14.840  0.2031 -0.4590  0.2761
  841MPD2    C412360   3.497   0.545  14.960  0.5200  1.0950 -0.6183
  841MPD2    C512361   3.462   0.450  15.055 -0.0090  0.6649 -0.1425
  841MPD2     H12362   3.594   0.330  14.729  2.7130 -0.7868  0.8409
  841MPD2    H112363   3.472   0.647  14.985  1.4813  1.7821 -2.5319
  841MPD2    H212364   3.469   0.242  15.115  0.8998 -0.4018 -0.2699
  841MPD2    H312365   3.415   0.493  15.143 -1.2786  1.2907 -1.1143
  841MPD2     N12366   3.565   0.590  14.723  0.7022  1.3608 -0.3984
  841MPD2    H512367   3.596   0.543  14.639  0.3305 -1.4710  1.0679
  841MPD2    N112368   3.567   0.134  14.890  0.2239 -0.5334 -0.1878
  841MPD2    H712369   3.623   0.120  14.807  0.9139 -2.3767  0.5798
  842MPD2     C12370   4.710   2.034  16.968  0.3484 -0.2132  0.3280
  842MPD2    C112371   4.635   1.920  16.955 -0.0710 -0.2908 -0.0626
  842MPD2    C212372   4.674   1.802  17.023  0.2238 -0.4556 -1.1025
  842MPD2    C312373   0.042   1.811  17.124 -0.1928  0.4996 -0.0132
  842MPD2    C412374   0.124   1.926  17.129 -0.4411 -0.0714  0.2182
  842MPD2    C512375   0.091   2.035  17.051 -0.8237  0.8092 -0.5394
  842MPD2     H12376   4.604   1.719  17.017  0.0003 -0.1197 -3.1354
  842MPD2    H112377   0.216   1.924  17.186 -0.2601 -2.7419 -0.1812
  842MPD2    H212378   4.669   2.125  16.925  2.3143 -0.1375 -1.3747
  842MPD2    H312379   0.156   2.122  17.056 -0.2584  0.3123  0.7456
  842MPD2     N12380   0.064   1.707  17.219 -0.6862  0.5933  0.3907
  842MPD2    H512381   0.157   1.709  17.261 -0.0227  2.2200 -1.1953
  842MPD2    N112382   4.522   1.925  16.866 -0.2393  0.1207 -0.2086
  842MPD2    H712383   4.516   2.010  16.811  1.0648 -0.9236 -1.9733
  843MPD2     C12384   1.416   2.442  17.315  0.0083  0.6703  0.0547
  843MPD2    C112385   1.483   2.324  17.337 -0.6948  0.1192  0.1496
  843MPD2    C212386   1.620   2.317  17.332 -0.2812 -0.0627  0.5599
  843MPD2    C312387   1.691   2.430  17.296 -0.0990 -0.6231  0.5636
  843MPD2    C412388   1.621   2.544  17.269  0.9737 -0.0312  0.8559
  843MPD2    C512389   1.486   2.552  17.279 -0.8454 -0.3765  0.4926
  843MPD2     H12390   1.670   2.222  17.346  0.4586  0.3587  0.7479
  843MPD2    H112391   1.676   2.633  17.240 -1.2396  1.2252  0.4868
  843MPD2    H212392   1.309   2.455  17.318 -0.1515 -0.1431 -2.1454
  843MPD2    H312393   1.438   2.649  17.273  0.4530  0.2108 -0.5098
  843MPD2     N12394   1.830   2.435  17.301 -0.1418 -0.3722 -0.0477
  843MPD2    H512395   1.872   2.523  17.273 -0.6450 -0.6371 -1.5935
  843MPD2    N112396   1.407   2.207  17.362 -0.2457 -0.2338  0.3533
  843MPD2    H712397   1.306   2.215  17.357 -0.2500 -0.1970  0.5019
  844MPD2     C12398   0.140   1.367  16.262 -0.1134 -0.2834 -0.0834
  844MPD2    C112399   0.223   1.270  16.307  0.1614 -0.0175 -0.0133
  844MPD2    C212400   0.327   1.296  16.399  0.7173 -0.6937 -0.4058
  844MPD2    C312401   0.344   1.423  16.447  0.4970 -0.1934  0.8094
  844MPD2    C412402   0.244   1.516  16.422  0.0615  0.7240  0.4972
  844MPD2    C512403   0.150   1.487  16.325 -0.0397 -0.3655  0.0373
  844MPD2     H12404   0.399   1.223  16.436  0.0018 -1.1022  0.1941
  844MPD2    H112405   0.247   1.617  16.460 -0.3503  0.9518 -0.0759
  844MPD2    H212406   0.070   1.349  16.181 -0.5668  3.0630 -0.4247
  844MPD2    H312407   0.097   1.574  16.288  1.2697  1.4451  2.3840
  844MPD2     N12408   0.454   1.447  16.531 -0.3353  0.5665 -0.4568
  844MPD2    H512409   0.513   1.369  16.556 -0.0120  0.2048 -2.3518
  844MPD2    N112410   0.226   1.144  16.256 -0.2657 -0.5701  1.1570
  844MPD2    H712411   0.299   1.084  16.293 -0.8477 -1.0145  1.5637
  845MPD2     C12412   1.121   2.132  16.752  0.2036 -0.0479 -0.1197
  845MPD2    C112413   0.992   2.149  16.787  0.1324 -0.0459  0.3999
  845MPD2    C212414   0.907   2.041  16.768  0.1941 -0.7435  0.1481
  845MPD2    C312415   0.960   1.922  16.718  0.0094  0.1026 -0.6420
  845MPD2    C412416   1.085   1.913  16.666 -0.7910  0.1539 -0.6719
  845MPD2    C512417   1.170   2.015  16.691  0.2389  0.1985  0.3052
  845MPD2     H12418   0.805   2.041  16.804  0.4748 -0.6939  0.9402
  845MPD2    H112419   1.135   1.825  16.628 -0.7245  0.4646 -1.3154
  845MPD2    H212420   1.203   2.198  16.779 -0.8112  1.1954 -0.0977
  845MPD2    H312421   1.277   2.005  16.676 -0.5223 -3.4985 -2.4927
  845MPD2     N12422   0.878   1.809  16.715  0.2045  0.2983  0.5249
  845MPD2    H512423   0.778   1.824  16.726  0.1367  0.7669 -0.6959
  845MPD2    N112424   0.944   2.268  16.835 -0.2839 -0.3258  0.5916
  845MPD2    H712425   1.008   2.342  16.864  0.5769 -0.5233 -0.7954
  846MPD2     C12426   2.235   2.164  13.391  0.1581 -0.4487 -0.7276
  846MPD2    C112427   2.193   2.287  13.423 -0.4857  1.2717 -1.1551
  846MPD2    C212428   2.154   2.310  13.558  0.5345  0.0248  0.1430
  846MPD2    C312429   2.170   2.216  13.655 -0.4172  0.1031  0.3704
  846MPD2    C412430   2.226   2.093  13.617 -0.3750  0.4482 -0.4450
  846MPD2    C512431   2.242   2.068  13.488  0.6422 -0.0540  0.6992
  846MPD2     H12432   2.134   2.411  13.591  0.0942 -0.6337  1.8694
  846MPD2    H112433   2.241   2.010  13.685 -3.0558  0.1528 -0.2350
  846MPD2    H212434   2.277   2.152  13.291 -0.8294  0.7428 -1.2917
  846MPD2    H312435   2.284   1.973  13.456 -0.2084 -0.4039  0.6081
  846MPD2     N12436   2.125   2.240  13.788 -0.1838 -0.2442 -0.6488
  846MPD2    H512437   2.058   2.315  13.803 -0.2546 -0.7459  1.5210
  846MPD2    N112438   2.177   2.383  13.322 -0.2712 -0.3190 -1.0101
  846MPD2    H712439   2.140   2.470  13.360  1.2503  0.1095 -0.5228
  847MPD2     C12440   2.025   2.739  14.108  0.0542  0.3148 -0.4570
  847MPD2    C112441   2.133   2.823  14.077  0.0246 -0.0416 -0.5639
  847MPD2    C212442   2.249   2.814  14.151 -0.2259 -0.0834  0.3293
  847MPD2    C312443   2.257   2.733  14.252  0.0744  0.6893  0.3176
  847MPD2    C412444   2.158   2.647  14.284 -0.0342  0.1182 -0.2456
  847MPD2    C512445   2.036   2.660  14.214  0.1667 -0.2740  0.4193
  847MPD2     H12446   2.329   2.883  14.127 -0.5145  0.3259  0.5403
  847MPD2    H112447   2.170   2.575  14.364  0.8242  0.9406  0.3675
  847MPD2    H212448   1.938   2.740  14.043  1.2052 -1.3044 -1.9972
  847MPD2    H312449   1.952   2.594  14.232  0.4664 -0.3609  1.4968
  847MPD2     N12450   2.388   2.722  14.305 -0.2243 -0.3334 -0.1254
  847MPD2    H512451   2.465   2.776  14.268  0.3918 -0.7429  0.5566
  847MPD2    N112452   2.127   2.924  13.975  0.3123 -1.0890  0.2416
  847MPD2    H712453   2.220   2.954  13.945 -1.1737  2.8249 -0.4314
  848MPD2     C12454   4.629   1.791  16.302  0.0770  0.6919 -0.5879
  848MPD2    C112455   0.010   1.839  16.378 -0.4286  0.2029  0.2262
  848MPD2    C212456   0.092   1.946  16.332  0.8894  0.1592 -0.4084
  848MPD2    C312457   0.072   1.994  16.200 -0.3796  0.4525  0.6845
  848MPD2    C412458   4.700   1.941  16.124  0.5405 -0.7946 -0.7139
  848MPD2    C512459   4.617   1.845  16.176 -0.4966  0.3774 -0.0007
  848MPD2     H12460   0.173   1.989  16.390  1.6838 -0.3264 -1.1539
  848MPD2    H112461   4.683   1.986  16.027  1.0821  0.1847 -0.3551
  848MPD2    H212462   4.553   1.722  16.338  0.4549  0.8259  0.4731
  848MPD2    H312463   4.534   1.807  16.118  0.2447  0.4359 -1.1088
  848MPD2     N12464   0.137   2.108  16.156 -0.1870 -0.6152 -0.2755
  848MPD2    H512465   0.103   2.151  16.070 -0.6504  0.6026  0.5172
  848MPD2    N112466   0.032   1.787  16.508  0.3752 -0.0021 -0.5088
  848MPD2    H712467   0.105   1.829  16.564 -1.0119  2.2103 -0.3228
  849MPD2     C12468   3.796   1.568  14.094  0.6500 -0.6417  0.0555
  849MPD2    C112469   3.934   1.577  14.057 -0.4849  0.7041 -0.0303
  849MPD2    C212470   4.025   1.512  14.142  0.0131 -0.1330  0.7580
  849MPD2    C312471   3.983   1.435  14.247 -0.3288 -0.3215  0.2451
  849MPD2    C412472   3.850   1.426  14.274 -0.7990 -0.5517 -0.0251
  849MPD2    C512473   3.765   1.504  14.208 -0.3122  0.8334  0.2838
  849MPD2     H12474   4.130   1.504  14.120 -0.3155 -0.4591 -0.7225
  849MPD2    H112475   3.818   1.373  14.362  2.3330 -0.3519  1.2575
  849MPD2    H212476   3.715   1.610  14.036  0.5064  1.4264  1.7582
  849MPD2    H312477   3.660   1.503  14.237 -0.4090  1.6036 -0.0448
  849MPD2     N12478   4.080   1.358  14.313 -0.7283  0.1641  0.2339
  849MPD2    H512479   4.175   1.353  14.278 -0.9965  0.5715 -0.5478
  849MPD2    N112480   3.976   1.656  13.950 -0.5036 -0.1217 -0.8719
  849MPD2    H712481   3.904   1.694  13.889  0.1738 -1.7677 -2.6976
  850MPD2     C12482   1.946   3.887  14.644  0.3042  0.1837  0.3303
  850MPD2    C112483   1.945   3.965  14.758 -1.3169  0.4549 -0.0179
  850MPD2    C212484   2.063   4.040  14.780  0.4123  0.2035 -0.2572
  850MPD2    C312485   2.162   4.049  14.677 -0.4350 -0.1857 -0.7409
  850MPD2    C412486   2.148   3.978  14.562  0.3503 -0.0541  0.7461
  850MPD2    C512487   2.035   3.899  14.546  0.2491  0.5410  0.3418
  850MPD2     H12488   2.079   4.084  14.878  2.2140 -3.5870  1.1457
  850MPD2    H112489   2.228   3.972  14.489  0.2686  3.4355  0.3609
  850MPD2    H212490   1.869   3.816  14.617 -0.1204  0.5588  0.5539
  850MPD2    H312491   2.009   3.841  14.458  0.2040 -1.3160  1.5706
  850MPD2     N12492   2.284   4.116  14.698  0.3846 -0.0865 -0.0913
  850MPD2    H512493   2.352   4.084  14.630  1.0804  0.5386  0.3177
  850MPD2    N112494   1.831   3.940  14.841 -0.8503 -0.1490 -0.2039
  850MPD2    H712495   1.769   3.869  14.804  0.8622 -0.9251 -1.6228
  851MPD2     C12496   2.561   4.144  15.187 -0.1550  0.8808  0.5619
  851MPD2    C112497   2.469   4.039  15.166 -0.0743  0.2883  0.8261
  851MPD2    C212498   2.530   3.924  15.113  0.4441  0.3787 -0.3405
  851MPD2    C312499   2.660   3.917  15.069 -0.0379 -0.0024 -0.1008
  851MPD2    C412500   2.745   4.020  15.090 -0.4892  0.3569 -0.5409
  851MPD2    C512501   2.690   4.133  15.148  0.5676 -0.3729  0.2255
  851MPD2     H12502   2.477   3.830  15.099  1.4788 -0.0575 -1.3504
  851MPD2    H112503   2.844   4.026  15.047 -0.2139 -0.3735  0.0009
  851MPD2    H212504   2.526   4.239  15.226  0.4223  1.4452 -0.3016
  851MPD2    H312505   2.753   4.217  15.175  0.1349  0.3050 -0.8664
  851MPD2     N12506   2.696   3.793  15.014  0.1261  0.2175  0.7668
  851MPD2    H512507   2.630   3.718  15.030  0.8006 -0.6044 -0.3040
  851MPD2    N112508   2.338   4.059  15.183 -0.5968 -0.0442  0.2571
  851MPD2    H712509   2.320   4.146  15.232  0.1215  1.1030 -1.4865
  852MPD2     C12510   2.260   2.465   9.907  0.2274 -0.5107  0.6223
  852MPD2    C112511   2.278   2.349   9.984  0.0663 -0.0821  0.6175
  852MPD2    C212512   2.382   2.265   9.945  0.6154  0.1105 -0.4368
  852MPD2    C312513   2.452   2.294   9.831  0.1052  0.4090  0.1141
  852MPD2    C412514   2.427   2.411   9.758  0.3157 -0.1240  0.5142
  852MPD2    C512515   2.327   2.494   9.793 -0.4482  0.8871  0.5121
  852MPD2     H12516   2.416   2.177  10.000  1.2919  0.7655  0.1963
  852MPD2    H112517   2.475   2.433   9.664 -0.1370 -0.7629  0.1282
  852MPD2    H212518   2.176   2.530   9.928 -3.4086 -4.9737 -0.3472
  852MPD2    H312519   2.296   2.579   9.734  2.2862  0.3370 -1.7048
  852MPD2     N12520   2.558   2.210   9.801 -0.3629  0.3710 -0.3131
  852MPD2    H512521   2.564   2.127   9.860  1.7626  0.9367  0.3025
  852MPD2    N112522   2.183   2.320  10.085 -0.0187 -0.4265  0.3034
  852MPD2    H712523   2.111   2.391  10.095 -0.0310 -0.4343  0.2698
  853MPD2     C12524   4.086   1.680  12.040 -0.2294 -0.4049 -0.6625
  853MPD2    C112525   3.947   1.683  12.041 -0.0159  0.1019 -0.2462
  853MPD2    C212526   3.884   1.613  11.936 -0.1071 -0.2007  0.2411
  853MPD2    C312527   3.962   1.550  11.835  0.0371 -0.1113  0.1266
  853MPD2    C412528   4.102   1.549  11.845  0.1451 -0.1591  0.2161
  853MPD2    C512529   4.162   1.614  11.947  0.3289  0.2099  0.4104
  853MPD2     H12530   3.782   1.640  11.915 -0.1132 -0.3085  0.1339
  853MPD2    H112531   4.154   1.485  11.774 -1.4518 -1.0877 -0.1093
  853MPD2    H212532   4.143   1.728  12.118  2.0408 -1.7443 -1.4803
  853MPD2    H312533   4.270   1.613  11.957  0.4288  1.9122 -0.4427
  853MPD2     N12534   3.908   1.501  11.719 -0.3075 -0.4560 -0.0772
  853MPD2    H512535   3.974   1.496  11.642  0.9228  0.2535  0.9327
  853MPD2    N112536   3.889   1.758  12.144  0.3172 -0.5179 -0.7980
  853MPD2    H712537   3.945   1.798  12.219 -2.2749  3.3204 -0.8857
  854MPD2     C12538   0.265   1.747  12.765 -0.5884  0.4498 -0.1329
  854MPD2    C112539   0.377   1.721  12.684 -0.2550 -0.0464 -1.0166
  854MPD2    C212540   0.437   1.593  12.688  0.0564 -0.3928 -0.4188
  854MPD2    C312541   0.400   1.509  12.793  0.0286 -0.1258 -0.3760
  854MPD2    C412542   0.282   1.537  12.865 -0.2872  0.0115 -0.8569
  854MPD2    C512543   0.212   1.656  12.851  0.0492 -0.8246  0.5080
  854MPD2     H12544   0.521   1.578  12.621  1.3839 -0.2839  1.2166
  854MPD2    H112545   0.252   1.467  12.942 -1.8649 -0.0719 -1.5441
  854MPD2    H212546   0.216   1.843  12.758 -1.5396  0.1015  1.7864
  854MPD2    H312547   0.136   1.692  12.919 -1.7223  2.1940 -3.0101
  854MPD2     N12548   0.458   1.388  12.834 -0.1967  0.1943 -0.5077
  854MPD2    H512549   0.417   1.335  12.910 -1.7772  0.8203 -0.9279
  854MPD2    N112550   0.418   1.830  12.607  0.5512  0.1068 -0.2581
  854MPD2    H712551   0.365   1.912  12.631 -0.0135 -0.0600 -0.9287
  855MPD2     C12552   0.749   1.297  13.649 -0.0555  0.4273  0.8008
  855MPD2    C112553   0.829   1.204  13.589  0.4918  0.0001  0.1099
  855MPD2    C212554   0.794   1.169  13.461  0.2562 -0.0632 -0.7701
  855MPD2    C312555   0.687   1.223  13.390  0.3240  0.0810  0.6846
  855MPD2    C412556   0.613   1.320  13.453  0.3471 -0.1579 -0.2737
  855MPD2    C512557   0.644   1.350  13.582  0.2586 -0.4424 -0.6419
  855MPD2     H12558   0.848   1.089  13.410  1.9347  0.1505  0.6599
  855MPD2    H112559   0.543   1.379  13.396  0.7516 -1.6891 -2.3588
  855MPD2    H212560   0.765   1.327  13.752 -0.1856  0.2612  0.8697
  855MPD2    H312561   0.591   1.426  13.638  1.5656 -0.8255  1.1025
  855MPD2     N12562   0.667   1.195  13.254 -0.9579  0.4021  0.3190
  855MPD2    H512563   0.572   1.218  13.227 -0.2241  0.7485 -1.9534
  855MPD2    N112564   0.944   1.136  13.645  0.0196 -0.3042 -0.3330
  855MPD2    H712565   0.991   1.071  13.583 -2.4468 -2.3104 -0.1050
  856MPD2     C12566   3.369   2.423  13.169 -0.3562  0.1198  0.0078
  856MPD2    C112567   3.383   2.424  13.308  0.6516 -0.9404 -0.4693
  856MPD2    C212568   3.311   2.519  13.377  0.2971 -0.2884 -0.5961
  856MPD2    C312569   3.212   2.599  13.314  0.1487 -0.7544 -0.4868
  856MPD2    C412570   3.203   2.591  13.182 -0.1644 -0.2326 -0.3680
  856MPD2    C512571   3.279   2.504  13.109 -0.5598  0.4136  0.6512
  856MPD2     H12572   3.315   2.532  13.484 -1.0165 -2.3838 -0.2789
  856MPD2    H112573   3.136   2.653  13.124 -1.6484 -1.8823 -0.4148
  856MPD2    H212574   3.423   2.365  13.095 -2.0008  1.2887 -2.1133
  856MPD2    H312575   3.268   2.517  13.002  0.8167 -1.1228  0.3242
  856MPD2     N12576   3.128   2.696  13.377  0.7686  0.0777  0.7321
  856MPD2    H512577   3.078   2.749  13.306  0.8036 -1.4952 -0.4788
  856MPD2    N112578   3.474   2.346  13.384  0.1243 -0.0589  0.3754
  856MPD2    H712579   3.472   2.366  13.483 -3.0710  1.9474 -0.0591
  857MPD2     C12580   4.481   4.564  12.361 -0.1534  0.1937  0.0534
  857MPD2    C112581   4.601   4.554  12.422  0.1793 -0.5999  0.7081
  857MPD2    C212582   4.656   4.664  12.493 -0.2520 -0.8829 -0.5349
  857MPD2    C312583   4.585   0.059  12.499  0.3977  0.4320  0.3609
  857MPD2    C412584   4.466   0.070  12.423  0.1637  0.1781  0.2568
  857MPD2    C512585   4.412   4.682  12.361  0.1314 -0.2202 -0.0836
  857MPD2     H12586   0.025   4.661  12.546 -0.3771 -0.6674 -0.2988
  857MPD2    H112587   4.404   0.158  12.417 -2.9120 -2.0394 -0.9906
  857MPD2    H212588   4.435   4.479  12.313 -0.5369  1.4260 -1.7585
  857MPD2    H312589   4.318   4.683  12.308 -0.7344 -1.6486  1.4273
  857MPD2     N12590   4.642   0.166  12.574  0.3081  0.1889  0.7688
  857MPD2    H512591   4.721   0.163  12.637  1.5618  0.9636 -0.7400
  857MPD2    N112592   4.654   4.425  12.411  0.5462 -0.1226  0.7018
  857MPD2    H712593   4.598   4.360  12.358 -0.7274  2.8040 -1.5145
  858MPD2     C12594   0.462   4.121  16.394 -0.2978  0.4714  0.7895
  858MPD2    C112595   0.562   4.046  16.446  0.3735 -0.2335  0.0068
  858MPD2    C212596   0.591   4.057  16.584  0.0219 -0.1759  0.2969
  858MPD2    C312597   0.526   4.153  16.657  0.0521 -0.2527  0.3712
  858MPD2    C412598   0.424   4.231  16.603 -0.0856 -0.0874  0.1346
  858MPD2    C512599   0.389   4.209  16.472 -0.3608  0.3247  0.3540
  858MPD2     H12600   0.667   3.996  16.631  0.9330  0.1940 -0.6642
  858MPD2    H112601   0.364   4.300  16.661  0.4811 -0.4289  1.1295
  858MPD2    H212602   0.435   4.121  16.289  0.3372 -0.9952  0.6244
  858MPD2    H312603   0.305   4.265  16.433 -1.2958 -0.5201  1.1578
  858MPD2     N12604   0.565   4.182  16.795 -0.1372 -0.0434  0.0422
  858MPD2    H512605   0.518   4.258  16.841  1.3432  0.1065  1.2878
  858MPD2    N112606   0.636   3.952  16.370  0.2102  0.0741  0.0204
  858MPD2    H712607   0.711   3.912  16.425  0.0132 -1.2015 -0.6415
  859MPD2     C12608   4.077   0.968  15.396 -0.5394 -0.2305 -0.0249
  859MPD2    C112609   4.128   0.970  15.269 -0.3105  0.4376  0.3747
  859MPD2    C212610   4.148   0.841  15.208  0.3417 -0.3514  0.6798
  859MPD2    C312611   4.111   0.726  15.275  1.1600  0.3121  0.2877
  859MPD2    C412612   4.067   0.731  15.402 -0.4396  0.0716  0.4999
  859MPD2    C512613   4.049   0.847  15.463  0.6353  0.1281 -0.5723
  859MPD2     H12614   4.189   0.827  15.109  0.2969  1.2828  0.4305
  859MPD2    H112615   4.047   0.641  15.460  0.1032  0.5661  1.4643
  859MPD2    H212616   4.064   1.057  15.456  0.0371 -0.1272 -0.0488
  859MPD2    H312617   4.009   0.832  15.562 -0.9198  1.0069 -1.0653
  859MPD2     N12618   4.120   0.600  15.214 -0.0516  0.1426  0.8451
  859MPD2    H512619   4.116   0.517  15.273  1.5526 -0.2154  0.4603
  859MPD2    N112620   4.164   1.092  15.214  0.3296  0.2011  0.3185
  859MPD2    H712621   4.158   1.174  15.272 -2.1534  1.6918 -2.0482
  860MPD2     C12622   1.917   1.391  11.566 -0.4979  0.6416  0.8391
  860MPD2    C112623   1.913   1.445  11.691  0.4591 -0.0312 -0.2413
  860MPD2    C212624   1.813   1.421  11.773  0.5242  0.8606  0.5277
  860MPD2    C312625   1.711   1.333  11.734  0.1035 -0.3272  0.0213
  860MPD2    C412626   1.718   1.266  11.614  0.0595 -0.3255  0.2093
  860MPD2    C512627   1.814   1.304  11.529  0.1547 -0.4413 -0.1701
  860MPD2     H12628   1.803   1.460  11.874  1.9302  0.7781  0.7062
  860MPD2    H112629   1.635   1.207  11.578  1.4982 -1.8383 -0.6565
  860MPD2    H212630   1.998   1.408  11.496  0.1772 -0.5276  1.3496
  860MPD2    H312631   1.811   1.257  11.431  1.2591  0.9063 -0.8547
  860MPD2     N12632   1.605   1.310  11.824  0.2945  0.5468 -0.2915
  860MPD2    H512633   1.606   1.368  11.907 -1.1574 -0.6922  0.5881
  860MPD2    N112634   2.009   1.539  11.741 -0.3915 -0.0616 -0.2774
  860MPD2    H712635   2.007   1.566  11.839 -0.0814 -1.6614  0.1862
  861MPD2     C12636   0.315   4.191  10.828  0.8371  0.7656 -0.4037
  861MPD2    C112637   0.392   4.298  10.785  1.0471  1.1385  0.1295
  861MPD2    C212638   0.355   4.368  10.671  0.2616 -0.0237 -0.0171
  861MPD2    C312639   0.239   4.338  10.609  0.8122  0.3535  0.4114
  861MPD2    C412640   0.164   4.240  10.657 -0.1207  0.1396  0.4388
  861MPD2    C512641   0.200   4.163  10.764 -1.0741  0.2452  0.1193
  861MPD2     H12642   0.422   4.448  10.642 -1.4413  0.9842 -1.1165
  861MPD2    H112643   0.064   4.219  10.619  0.4092 -0.6739 -0.4873
  861MPD2    H212644   0.339   4.141  10.921  0.6094  1.9531  0.2786
  861MPD2    H312645   0.138   4.084  10.806 -1.3880 -0.5052 -1.7735
  861MPD2     N12646   0.187   4.404  10.496 -0.5247  0.0039 -0.0299
  861MPD2    H512647   0.087   4.397  10.478 -0.4718  0.8466 -0.6468
  861MPD2    N112648   0.513   4.339  10.850  0.6477 -0.5379 -0.3406
  861MPD2    H712649   0.560   4.420  10.812 -0.2458  0.3357  0.4392
  862MPD2     C12650   0.079   4.504   9.719 -0.5133 -0.7397  0.1451
  862MPD2    C112651   0.087   4.444   9.844  0.3234  0.9187  0.3444
  862MPD2    C212652   0.051   4.312   9.857 -0.1791 -0.8017 -0.5957
  862MPD2    C312653   0.020   4.227   9.756  0.4031  0.7605 -0.3704
  862MPD2    C412654   4.721   4.285   9.633 -0.6978 -0.3546 -0.3116
  862MPD2    C512655   0.047   4.419   9.613 -0.2805 -0.2822  0.0998
  862MPD2     H12656   0.071   4.280   9.959  0.4931 -0.8761 -0.7502
  862MPD2    H112657   4.694   4.227   9.545 -1.0043 -1.7528  0.7109
  862MPD2    H212658   0.111   4.604   9.693  0.0184 -1.1116 -0.6238
  862MPD2    H312659   0.042   4.455   9.511  1.3592 -0.2100  0.0519
  862MPD2     N12660   0.019   4.085   9.777  0.4088  0.3223  0.6102
  862MPD2    H512661   0.035   4.035   9.690 -2.0345  1.1759 -0.3204
  862MPD2    N112662   0.119   4.513   9.971 -0.5244 -0.0311  0.7519
  862MPD2    H712663   0.122   4.447  10.048  0.9296 -0.4445  0.3380
  863MPD2     C12664   3.764   2.504  16.369 -0.0135 -0.1882  0.3026
  863MPD2    C112665   3.707   2.622  16.420  0.3850 -0.6468  1.0656
  863MPD2    C212666   3.767   2.681  16.536  0.3780 -0.3033 -0.0378
  863MPD2    C312667   3.873   2.621  16.601  0.2558 -0.5979 -0.1047
  863MPD2    C412668   3.919   2.503  16.552  0.8912  0.7559 -0.4910
  863MPD2    C512669   3.868   2.454  16.436 -0.4664 -0.2177  0.2191
  863MPD2     H12670   3.720   2.768  16.579  1.1967  0.1845 -0.1305
  863MPD2    H112671   4.009   2.454  16.587  0.9193  0.9129 -0.3474
  863MPD2    H212672   3.723   2.462  16.278 -0.9182  2.5012 -0.5402
  863MPD2    H312673   3.916   2.362  16.403 -0.7012  0.0011 -0.7177
  863MPD2     N12674   3.936   2.683  16.710 -0.0908 -0.2305 -0.1508
  863MPD2    H512675   3.996   2.620  16.763 -0.4309 -1.8634 -1.7192
  863MPD2    N112676   3.608   2.680  16.343 -0.5188 -0.3717 -0.7454
  863MPD2    H712677   3.576   2.621  16.267 -2.0743  1.0837 -1.2069
  864MPD2     C12678   4.004   3.850  17.147  0.3559  0.2550 -0.1140
  864MPD2    C112679   4.035   3.827  17.018 -0.0237  0.6621 -0.4875
  864MPD2    C212680   4.091   3.923  16.933  0.1364  0.1262 -0.5395
  864MPD2    C312681   4.119   4.048  16.990  0.2492  0.0641  0.6113
  864MPD2    C412682   4.071   4.085  17.117  0.2864  0.6563 -0.1199
  864MPD2    C512683   4.019   3.981  17.194 -0.2008  0.5956 -0.3566
  864MPD2     H12684   4.119   3.894  16.833 -2.5102 -1.8100 -0.7228
  864MPD2    H112685   4.089   4.183  17.159 -0.7065  0.3478  1.0128
  864MPD2    H212686   3.967   3.780  17.220  0.8673 -0.1875 -0.2805
  864MPD2    H312687   3.989   4.004  17.295  2.0010  1.3976  0.1123
  864MPD2     N12688   4.180   4.147  16.909 -0.0947  0.4899  0.0743
  864MPD2    H512689   4.181   4.240  16.949  3.3124  0.7782 -0.6677
  864MPD2    N112690   4.006   3.697  16.968  0.5307 -1.0724 -0.3760
  864MPD2    H712691   3.982   3.626  17.037  0.3630  0.1234  0.7890
  865MPD2     C12692   4.255   4.388  16.008  0.2736 -0.1533 -0.9724
  865MPD2    C112693   4.256   4.291  16.104 -0.3391  0.4072  0.1881
  865MPD2    C212694   4.205   4.314  16.232 -0.3305  0.8469  0.0797
  865MPD2    C312695   4.164   4.440  16.262  0.8308 -0.2810 -0.2813
  865MPD2    C412696   4.178   4.539  16.168 -0.1413 -0.2037 -0.0260
  865MPD2    C512697   4.226   4.516  16.035  0.1845 -0.1131 -0.2750
  865MPD2     H12698   4.186   4.233  16.302 -0.2357  0.7330 -0.0276
  865MPD2    H112699   4.152   4.641  16.194  0.8318 -0.2550  1.1470
  865MPD2    H212700   4.301   4.385  15.910  0.3294 -1.8767 -0.8916
  865MPD2    H312701   4.245   4.600  15.969  2.4748 -0.2735  0.1848
  865MPD2     N12702   4.141   4.479  16.392 -0.0974  0.5140  0.1763
  865MPD2    H512703   4.157   4.579  16.402 -0.0384  0.1893  3.0948
  865MPD2    N112704   4.304   4.164  16.060 -0.2890  0.1222  0.3307
  865MPD2    H712705   4.323   4.150  15.962 -3.1690 -2.0238  0.0809
  866MPD2     C12706   1.234   0.096  11.001 -0.1878  0.0422  0.4638
  866MPD2    C112707   1.214   0.020  10.886 -0.5423  0.1116  0.2825
  866MPD2    C212708   1.099   0.036  10.813  0.1421  0.9215 -0.5472
  866MPD2    C312709   1.010   0.140  10.844  0.4559  0.5783  0.2627
  866MPD2    C412710   1.029   0.209  10.957 -0.6514  0.1760  1.0210
  866MPD2    C512711   1.135   0.188  11.032  0.4294 -0.2706  0.2452
  866MPD2     H12712   1.075   4.702  10.725 -1.2826  2.2294 -1.0309
  866MPD2    H112713   0.956   0.281  10.992 -1.2595 -0.1262  0.3519
  866MPD2    H212714   1.328   0.093  11.054 -0.2249 -1.4675  0.4408
  866MPD2    H312715   1.145   0.251  11.120  1.5617 -0.1246  0.0034
  866MPD2     N12716   0.885   0.164  10.771  0.3170  0.3662 -0.0945
  866MPD2    H512717   0.824   0.234  10.812  2.3775  0.8448  2.1760
  866MPD2    N112718   1.313   4.647  10.867  0.6193 -0.6950 -0.0703
  866MPD2    H712719   1.389   4.637  10.934 -1.2463 -0.4388  2.0777
  867MPD2     C12720   3.099   4.000  16.264 -0.1301 -0.9495  0.4010
  867MPD2    C112721   3.205   4.018  16.346 -0.1807 -1.5931 -0.9385
  867MPD2    C212722   3.267   4.145  16.357 -0.2667  0.0823 -1.0487
  867MPD2    C312723   3.199   4.248  16.299 -0.6383  0.0011  0.1145
  867MPD2    C412724   3.094   4.225  16.218 -0.0539  0.2207  0.0563
  867MPD2    C512725   3.041   4.103  16.199 -0.5455 -0.0852  0.4466
  867MPD2     H12726   3.364   4.149  16.405  0.0451 -1.1654 -1.5767
  867MPD2    H112727   3.035   4.307  16.179 -1.0145 -0.6266 -0.2534
  867MPD2    H212728   3.063   3.898  16.254  0.7236 -1.0322 -1.7226
  867MPD2    H312729   2.959   4.088  16.130  0.3568 -0.1333 -0.6182
  867MPD2     N12730   3.248   4.379  16.308 -1.2269  0.2262  0.2732
  867MPD2    H512731   3.190   4.446  16.259 -0.4313  0.0399 -0.9333
  867MPD2    N112732   3.272   3.902  16.392  0.8141  0.1846  0.1024
  867MPD2    H712733   3.255   3.816  16.340 -0.3316  0.7752 -0.5172
  868MPD2     C12734   0.408   3.076  12.738 -0.0066 -0.6677 -0.6141
  868MPD2    C112735   0.415   3.000  12.855 -0.3183 -0.1080 -0.5528
  868MPD2    C212736   0.324   3.036  12.956 -0.1520  0.6661  0.4420
  868MPD2    C312737   0.217   3.122  12.931 -0.7337 -0.1181  0.3437
  868MPD2    C412738   0.209   3.193  12.812 -0.1756  0.0490 -0.3021
  868MPD2    C512739   0.305   3.166  12.720  0.4927 -0.3193 -0.1530
  868MPD2     H12740   0.341   2.988  13.051  1.0405  0.9354  0.3670
  868MPD2    H112741   0.122   3.252  12.784 -1.3726 -1.3629  0.4190
  868MPD2    H212742   0.470   3.055  12.651 -0.5883  0.2903 -1.2574
  868MPD2    H312743   0.303   3.217  12.625 -0.5157  0.3401  0.2342
  868MPD2     N12744   0.114   3.149  13.028 -0.1243  0.0133  0.1544
  868MPD2    H512745   0.052   3.221  12.993 -0.4486  0.1911  1.1138
  868MPD2    N112746   0.517   2.897  12.866  0.5969  0.1709  0.0775
  868MPD2    H712747   0.588   2.904  12.794 -0.8748  0.5229 -1.3304
  869MPD2     C12748   2.161   1.844   1.169 -0.6413 -0.1347 -1.3430
  869MPD2    C112749   2.161   1.834   1.031  0.1918 -0.1098 -0.2679
  869MPD2    C212750   2.042   1.851   0.963 -0.6731 -0.4613 -0.3570
  869MPD2    C312751   1.932   1.905   1.023 -0.4246  0.6945 -0.1340
  869MPD2    C412752   1.938   1.931   1.166 -0.1425  1.0514  0.0984
  869MPD2    C512753   2.049   1.897   1.233 -0.1717 -0.7065  0.4931
  869MPD2     H12754   2.037   1.800   0.867 -3.1215  0.0181 -0.4901
  869MPD2    H112755   1.850   1.974   1.213 -0.3126  1.1303 -0.2951
  869MPD2    H212756   2.237   1.797   1.230  0.1448  2.1790 -0.5623
  869MPD2    H312757   2.046   1.897   1.342 -2.2025 -3.5166  0.4273
  869MPD2     N12758   1.806   1.918   0.966  0.1615  0.2066 -0.1131
  869MPD2    H512759   1.733   1.951   1.028 -0.2568  0.3007 -0.6574
  869MPD2    N112760   2.279   1.785   0.966  0.2377 -0.6306 -0.2209
  869MPD2    H712761   2.363   1.768   1.021  1.8212 -2.8015 -3.3772
  870MPD2     C12762   1.594   0.610   1.211 -0.0437  0.0766  0.1692
  870MPD2    C112763   1.532   0.487   1.179 -0.1212 -0.6521 -0.6033
  870MPD2    C212764   1.395   0.501   1.144 -0.4691 -0.5265 -0.1204
  870MPD2    C312765   1.330   0.624   1.132  0.1269 -0.4906  0.5210
  870MPD2    C412766   1.395   0.739   1.174  0.1864 -0.8746  0.0284
  870MPD2    C512767   1.529   0.728   1.203 -0.2571  0.3696 -0.3263
  870MPD2     H12768   1.335   0.416   1.112 -1.5490  0.9453 -1.9554
  870MPD2    H112769   1.353   0.838   1.165 -1.2072 -1.6406 -1.8360
  870MPD2    H212770   1.701   0.614   1.227 -0.0734  0.0734  0.3613
  870MPD2    H312771   1.583   0.821   1.222  0.7232 -0.4079  0.7294
  870MPD2     N12772   1.196   0.622   1.092  0.0375  0.4874  0.0693
  870MPD2    H512773   1.151   0.534   1.070 -2.1107  0.6197  4.0575
  870MPD2    N112774   1.600   0.369   1.202 -0.4318  0.2433  0.4784
  870MPD2    H712775   1.699   0.375   1.224  0.0029 -0.6040 -1.2074
  871MPD2     C12776   2.020   4.171  16.085 -0.2415 -0.0922 -0.0255
  871MPD2    C112777   2.000   4.113  16.209 -0.6399 -0.5286 -0.0229
  871MPD2    C212778   1.985   3.983  16.227  0.4881  0.0198 -0.1775
  871MPD2    C312779   1.994   3.900  16.116  0.6775  0.5900  0.5486
  871MPD2    C412780   2.008   3.952  15.991 -0.3299 -0.4824  0.4578
  871MPD2    C512781   2.022   4.086  15.979  0.9341 -0.4838  0.2227
  871MPD2     H12782   1.981   3.933  16.323 -2.3824 -2.1388 -1.4488
  871MPD2    H112783   1.997   3.889  15.903  0.9420 -0.3725  0.2139
  871MPD2    H212784   2.046   4.275  16.071 -0.8446  0.2367  1.2669
  871MPD2    H312785   2.042   4.129  15.882  1.3294 -1.0169  0.0665
  871MPD2     N12786   1.974   3.759  16.138  0.2259 -0.2490 -0.9908
  871MPD2    H512787   1.948   3.732  16.233 -0.7022  1.3402 -0.7924
  871MPD2    N112788   1.987   4.205  16.319 -0.6557 -0.1044  0.6143
  871MPD2    H712789   2.009   4.304  16.307 -0.7178 -0.5128 -2.7113
  872MPD2     C12790   2.709   2.210  13.482 -0.3126  0.7949 -0.2224
  872MPD2    C112791   2.795   2.124  13.543 -0.3076  0.7995  1.4110
  872MPD2    C212792   2.755   2.057  13.660  0.2782 -0.7559  0.8316
  872MPD2    C312793   2.633   2.079  13.715 -0.2860  0.3468  1.3544
  872MPD2    C412794   2.549   2.173  13.657 -0.2460 -0.5312 -0.2897
  872MPD2    C512795   2.584   2.232  13.535  0.7454  0.9842 -0.2573
  872MPD2     H12796   2.831   1.997  13.708 -0.8304 -1.9703  1.0672
  872MPD2    H112797   2.453   2.201  13.699  1.0744  2.3448  0.8255
  872MPD2    H212798   2.741   2.259  13.391  0.4954 -1.4044 -1.1398
  872MPD2    H312799   2.520   2.300  13.481 -0.6499  1.0001  1.3892
  872MPD2     N12800   2.572   2.008  13.819  0.2829  0.0996  0.0292
  872MPD2    H512801   2.478   2.039  13.839  0.2487  0.4147 -0.6310
  872MPD2    N112802   2.917   2.079  13.485 -0.0211  0.3959 -0.0359
  872MPD2    H712803   2.960   2.000  13.531  0.3010  0.2581 -0.5740
  873MPD2     C12804   4.560   1.938   0.809  0.0453 -0.6863  0.1006
  873MPD2    C112805   4.440   1.941   0.880 -1.0518  0.4086 -0.5798
  873MPD2    C212806   4.368   1.824   0.901 -0.0002 -0.6078 -0.4658
  873MPD2    C312807   4.411   1.702   0.847  0.6919 -0.3103  0.0789
  873MPD2    C412808   4.528   1.705   0.769  0.5321 -0.2502  0.8942
  873MPD2    C512809   4.599   1.821   0.759  0.1183  0.6094 -0.3484
  873MPD2     H12810   4.280   1.832   0.964  0.6035 -0.5033  0.3632
  873MPD2    H112811   4.558   1.616   0.714  0.0483  0.1895 -0.0739
  873MPD2    H212812   4.626   2.023   0.794 -0.4469 -0.5139 -1.0939
  873MPD2    H312813   4.693   1.829   0.705  0.2402 -1.5281 -0.4806
  873MPD2     N12814   4.351   1.578   0.860  0.1107 -0.4898  0.1490
  873MPD2    H512815   4.384   1.504   0.798  0.8688  0.4428 -0.5738
  873MPD2    N112816   4.409   2.066   0.943  0.6465 -0.2777  0.5679
  873MPD2    H712817   4.470   2.146   0.933 -0.7896  0.8341  0.6894
  874MPD2     C12818   4.277   2.096  16.075 -0.8444  0.1282  0.0989
  874MPD2    C112819   4.356   2.095  16.186  0.3811 -0.0880 -1.2955
  874MPD2    C212820   4.470   2.163  16.171 -0.6014 -0.6751  0.0394
  874MPD2    C312821   4.502   2.243  16.069  0.8707  0.5486  0.1753
  874MPD2    C412822   4.415   2.258  15.962  0.5327  0.3346 -1.0193
  874MPD2    C512823   4.304   2.182  15.964  0.4277  0.1639 -0.7933
  874MPD2     H12824   4.542   2.158  16.253 -1.0001  2.1982  0.5682
  874MPD2    H112825   4.435   2.316  15.873 -1.2187  1.8714 -0.4121
  874MPD2    H212826   4.190   2.032  16.081 -2.7059  2.5083 -1.1704
  874MPD2    H312827   4.239   2.193  15.878 -0.8348  0.7413  0.2406
  874MPD2     N12828   4.624   2.316  16.076 -0.3454 -0.0584  0.2197
  874MPD2    H512829   4.670   2.321  16.166 -1.0289  2.3380  0.4526
  874MPD2    N112830   4.324   2.021  16.296 -0.9166  0.2182 -0.5187
  874MPD2    H712831   4.256   1.946  16.284  0.7182 -1.7954  2.6153
  875MPD2     C12832   0.927   0.341  14.503  0.7481 -0.3790  0.3114
  875MPD2    C112833   0.800   0.332  14.558  0.3142 -0.5408  0.4517
  875MPD2    C212834   0.790   0.371  14.686 -0.1733  0.0825  0.1023
  875MPD2    C312835   0.891   0.431  14.756 -0.0490  0.4194 -0.4960
  875MPD2    C412836   1.011   0.461  14.692  0.3563  0.1649 -1.0065
  875MPD2    C512837   1.025   0.412  14.565 -0.1790  0.1566 -0.3121
  875MPD2     H12838   0.697   0.351  14.739 -0.7862 -0.3501 -1.1377
  875MPD2    H112839   1.091   0.524  14.730  0.3902 -0.8371  0.6057
  875MPD2    H212840   0.951   0.310  14.402 -1.1035 -3.3303  0.7664
  875MPD2    H312841   1.113   0.426  14.502 -0.2032 -2.3970 -0.9015
  875MPD2     N12842   0.885   0.478  14.889  0.2206 -0.4929  0.1023
  875MPD2    H512843   0.966   0.521  14.931 -0.7882  0.6979  0.8458
  875MPD2    N112844   0.686   0.293  14.484  0.0683  0.0764  0.6267
  875MPD2    H712845   0.601   0.288  14.540 -0.1183 -1.3993  0.2081
  876MPD2     C12846   4.119   1.636  15.827  0.0479 -0.3341  0.0112
  876MPD2    C112847   4.254   1.616  15.793  0.5512 -0.8455 -0.1617
  876MPD2    C212848   4.310   1.490  15.834  0.3230  0.2573  0.3244
  876MPD2    C312849   4.249   1.400  15.925  0.5679 -0.0398 -0.2121
  876MPD2    C412850   4.117   1.430  15.959 -0.5059 -0.3639 -0.1824
  876MPD2    C512851   4.054   1.543  15.906 -0.4077  0.2625  0.6458
  876MPD2     H12852   4.406   1.465  15.791  0.5480 -0.4968  1.2414
  876MPD2    H112853   4.061   1.363  16.023  0.1313  0.3558  1.1404
  876MPD2    H212854   4.051   1.710  15.785  0.8904  0.4171 -0.0146
  876MPD2    H312855   3.948   1.554  15.922 -0.1773  2.4722  0.6564
  876MPD2     N12856   4.328   1.282  15.968 -0.3268  0.0627 -0.1333
  876MPD2    H512857   4.422   1.269  15.931  0.3542  0.4397  1.4671
  876MPD2    N112858   4.318   1.695  15.698  0.3668 -0.3746  0.4339
  876MPD2    H712859   4.266   1.761  15.641  1.7328  0.5447  0.2544
  877MPD2     C12860   4.349   2.034  15.001 -0.0587  0.5695 -0.0629
  877MPD2    C112861   4.478   2.046  15.055  0.2764 -0.7211  1.0967
  877MPD2    C212862   4.582   2.091  14.976  0.6788  0.6916 -0.3548
  877MPD2    C312863   4.569   2.096  14.837 -0.2117  0.4386 -0.0217
  877MPD2    C412864   4.441   2.078  14.783  0.3905 -0.3182 -0.8726
  877MPD2    C512865   4.337   2.044  14.865 -0.2127 -0.2436  0.3227
  877MPD2     H12866   4.680   2.088  15.023  0.5816  0.9289 -0.1406
  877MPD2    H112867   4.417   2.089  14.678 -0.3493 -0.1317 -0.6837
  877MPD2    H212868   4.268   2.004  15.066  1.1983 -1.3016  0.6463
  877MPD2    H312869   4.244   2.021  14.815  0.3831  0.6453 -1.1864
  877MPD2     N12870   4.678   2.121  14.749 -0.3042 -0.2986  0.5651
  877MPD2    H512871   4.655   2.134  14.651  0.8247  3.3845  0.8025
  877MPD2    N112872   4.510   2.018  15.193  0.8773 -0.5378 -0.0383
  877MPD2    H712873   4.598   2.044  15.235 -0.3482  1.2648  1.4382
  878MPD2     C12874   4.055   1.151  13.186  0.3470  0.6374  0.2563
  878MPD2    C112875   4.160   1.232  13.152  0.3242  0.3712 -0.5199
  878MPD2    C212876   4.188   1.337  13.238  0.5239 -1.0122 -0.2277
  878MPD2    C312877   4.118   1.357  13.361  0.0444  0.1386  0.7127
  878MPD2    C412878   4.004   1.287  13.377  0.3053  0.5754  0.1591
  878MPD2    C512879   3.976   1.188  13.293  0.2508  0.3288 -0.7151
  878MPD2     H12880   4.273   1.403  13.222  0.2683 -0.9709 -1.3639
  878MPD2    H112881   3.944   1.290  13.468 -1.0151  0.4179 -0.7082
  878MPD2    H212882   4.029   1.066  13.124 -1.3003  0.7953  0.7321
  878MPD2    H312883   3.890   1.131  13.326  1.2926 -1.8372 -1.7087
  878MPD2     N12884   4.158   1.467  13.437  0.2841 -0.3438 -0.3815
  878MPD2    H512885   4.222   1.529  13.389  1.4649 -0.5423  0.9583
  878MPD2    N112886   4.219   1.206  13.027  0.6422  0.2347 -0.0304
  878MPD2    H712887   4.182   1.127  12.976 -1.5857  0.8644  0.6075
  879MPD2     C12888   4.441   3.197  16.692 -0.5488 -0.3944 -0.2083
  879MPD2    C112889   4.498   3.103  16.773 -0.5242  0.3180  0.4017
  879MPD2    C212890   4.472   2.970  16.740 -1.1908 -0.3437  0.1204
  879MPD2    C312891   4.379   2.939  16.641  1.1845 -0.7201  0.2124
  879MPD2    C412892   4.303   3.040  16.578 -0.4449 -0.2063 -0.0651
  879MPD2    C512893   4.345   3.163  16.600 -0.1679 -0.1274  0.0992
  879MPD2     H12894   4.527   2.894  16.793  0.7854  0.8312 -0.2562
  879MPD2    H112895   4.222   3.013  16.513 -1.2896  0.7310  0.5954
  879MPD2    H212896   4.459   3.303  16.704  1.6097 -0.6645 -1.0238
  879MPD2    H312897   4.298   3.245  16.546 -2.1465 -0.2374  1.6615
  879MPD2     N12898   4.344   2.806  16.602  0.2947 -0.2752  0.3624
  879MPD2    H512899   4.294   2.791  16.515 -0.4276  0.8585  0.5924
  879MPD2    N112900   4.581   3.144  16.879 -0.0217 -0.2374  0.2739
  879MPD2    H712901   4.588   3.245  16.888  2.4958 -0.3520 -0.4512
  880MPD2     C12902   1.075   4.191   0.530  0.0272 -0.0267  0.4168
  880MPD2    C112903   1.167   4.279   0.472  0.1305 -0.3224 -0.3318
  880MPD2    C212904   1.303   4.264   0.501  0.1114  0.5377  0.3452
  880MPD2    C312905   1.356   4.175   0.593 -0.7035  0.7450  0.9059
  880MPD2    C412906   1.258   4.092   0.654  0.2173  0.4406 -0.6313
  880MPD2    C512907   1.126   4.103   0.613  0.5241 -0.5668  0.4723
  880MPD2     H12908   1.369   4.338   0.459 -0.5273 -0.5696 -2.6255
  880MPD2    H112909   1.278   4.023   0.735 -2.0870  0.3523 -0.1565
  880MPD2    H212910   0.970   4.196   0.505  0.2744  1.5772 -0.2824
  880MPD2    H312911   1.055   4.045   0.671 -0.0966  0.3292  0.5989
  880MPD2     N12912   1.496   4.173   0.636  0.5992 -0.4166 -0.3075
  880MPD2    H512913   1.543   4.259   0.608 -3.2160  1.0888 -2.0972
  880MPD2    N112914   1.113   4.377   0.382 -0.2215 -0.1292  0.7580
  880MPD2    H712915   1.019   4.405   0.405 -0.6467 -0.5068 -0.5485
  881MPD2     C12916   1.347   0.481  17.399 -0.2323 -0.3573 -0.2581
  881MPD2    C112917   1.364   0.348  17.378 -0.5217  0.2054 -0.4519
  881MPD2    C212918   1.314   0.260  17.472 -0.2428  0.7406 -0.2295
  881MPD2    C312919   1.288   0.303  17.597 -0.5000  0.1089  0.8512
  881MPD2    C412920   1.317   0.429  17.626 -0.2753  0.5121  0.1264
  881MPD2    C512921   1.338   0.523  17.527  0.2929  0.1163 -0.8079
  881MPD2     H12922   1.312   0.154  17.452 -0.4199  1.1139 -2.1913
  881MPD2    H112923   1.320   0.457   0.029  0.9040  0.1505  0.1941
  881MPD2    H212924   1.372   0.549  17.319 -0.5350  1.2024  0.9823
  881MPD2    H312925   1.329   0.630  17.542  0.8855  0.2326 -1.2634
  881MPD2     N12926   1.237   0.212  17.694  0.3932  0.8068 -0.8132
  881MPD2    H512927   1.222   0.258   0.082  2.7632  2.8850 -1.4999
  881MPD2    N112928   1.387   0.315  17.243 -0.6453 -0.4257  0.6122
  881MPD2    H712929   1.403   0.397  17.185 -0.4644 -1.6242 -1.0395
  882MPD2     C12930   4.482   2.397  14.274  0.2692  0.2018 -0.5020
  882MPD2    C112931   4.486   2.270  14.318  0.4612  0.1292 -0.1089
  882MPD2    C212932   4.363   2.198  14.315  0.2722 -0.3585  1.0877
  882MPD2    C312933   4.248   2.263  14.272 -0.5129  0.0935 -0.0874
  882MPD2    C412934   4.250   2.391  14.224  0.0818 -0.0765 -0.2028
  882MPD2    C512935   4.371   2.452  14.209 -0.0560 -0.5100  0.1568
  882MPD2     H12936   4.362   2.091  14.333 -2.2427 -0.5164  0.0985
  882MPD2    H112937   4.156   2.439  14.198  0.3478 -0.2053 -1.3858
  882MPD2    H212938   4.572   2.457  14.278 -0.3688  1.3049 -2.8059
  882MPD2    H312939   4.364   2.558  14.189 -1.7272 -1.1588 -2.7414
  882MPD2     N12940   4.123   2.197  14.277  0.5158  0.8213  0.3123
  882MPD2    H512941   4.040   2.256  14.281  0.9753  1.3425  2.1735
  882MPD2    N112942   4.610   2.211  14.357  0.3285 -0.1508 -0.2535
  882MPD2    H712943   4.692   2.271  14.361 -1.0106  1.6010  0.6500
  883MPD2     C12944   1.491   1.659  15.916 -0.2457  0.5682 -0.7018
  883MPD2    C112945   1.605   1.607  15.871 -0.1197 -0.0745 -0.1587
  883MPD2    C212946   1.716   1.601  15.947  0.0877 -0.1879  0.1331
  883MPD2    C312947   1.722   1.645  16.074 -0.6595  0.0056 -0.3874
  883MPD2    C412948   1.606   1.699  16.124 -0.2360 -0.3998  0.5420
  883MPD2    C512949   1.493   1.706  16.043  0.1474 -0.2127  0.0598
  883MPD2     H12950   1.809   1.557  15.914  0.3310 -0.0301  0.6111
  883MPD2    H112951   1.598   1.728  16.228 -0.9120  0.1954  0.3208
  883MPD2    H212952   1.403   1.675  15.855 -1.4885  1.8561  1.4283
  883MPD2    H312953   1.405   1.754  16.084 -0.6744 -0.0946 -1.8273
  883MPD2     N12954   1.846   1.649  16.137 -0.2438 -0.0920  0.4146
  883MPD2    H512955   1.917   1.620  16.071  1.5281  4.2003  0.3962
  883MPD2    N112956   1.626   1.570  15.736 -0.1237 -0.3402  0.2270
  883MPD2    H712957   1.722   1.548  15.712  0.2787  0.5684  0.9872
  884MPD2     C12958   3.654   2.663  15.068 -0.1699 -0.2096  0.6532
  884MPD2    C112959   3.596   2.754  14.979  0.2750  0.1446 -0.8457
  884MPD2    C212960   3.453   2.758  14.973 -0.2531 -0.8044 -0.2380
  884MPD2    C312961   3.376   2.683  15.058  1.2033  0.1170 -0.0473
  884MPD2    C412962   3.439   2.598  15.142 -0.2295 -0.5267 -0.2076
  884MPD2    C512963   3.572   2.594  15.151 -0.1716  0.0943  0.3706
  884MPD2     H12964   3.400   2.822  14.904 -1.5062 -1.2385  0.3186
  884MPD2    H112965   3.372   2.548  15.210 -0.5490  1.7941  1.1839
  884MPD2    H212966   3.758   2.660  15.096  0.3884 -0.9592 -1.5658
  884MPD2    H312967   3.606   2.538  15.238 -0.0719 -1.2268 -0.5284
  884MPD2     N12968   3.239   2.713  15.062  0.1424 -0.3472 -0.8339
  884MPD2    H512969   3.206   2.783  14.997  0.0761 -1.2213 -1.7385
  884MPD2    N112970   3.662   2.824  14.880  0.4782 -0.0603 -0.2175
  884MPD2    H712971   3.603   2.878  14.817 -1.2970 -1.9619 -0.2000
  885MPD2     C12972   1.760   3.108   0.018  0.3307  0.4430 -0.0442
  885MPD2    C112973   1.803   2.996  17.652  0.2201  0.8202 -0.7909
  885MPD2    C212974   1.785   2.990  17.514  0.3353  0.0743 -0.0783
  885MPD2    C312975   1.740   3.106  17.447  0.0650  0.2217 -0.1443
  885MPD2    C412976   1.686   3.210  17.522 -0.0184 -0.3430 -0.1462
  885MPD2    C512977   1.703   3.215  17.655  0.3137 -0.3431 -0.7822
  885MPD2     H12978   1.814   2.898  17.466 -0.1400 -1.2206  2.1404
  885MPD2    H112979   1.636   3.296  17.480 -0.2645  0.4677  1.8379
  885MPD2    H212980   1.755   3.111   0.127  1.5649  0.2321  0.0227
  885MPD2    H312981   1.663   3.297   0.012  1.5979  0.8734 -1.6120
  885MPD2     N12982   1.725   3.097  17.309  0.3965  0.6041 -0.3263
  885MPD2    H512983   1.757   3.010  17.268 -0.4484  1.1249 -2.0915
  885MPD2    N112984   1.860   2.896   0.030  0.2266 -0.2651  0.2223
  885MPD2    H712985   1.882   2.930   0.123 -2.6377 -0.6225  1.0310
  886MPD2     C12986   2.860   1.281  14.875  0.7584  0.4915  0.3128
  886MPD2    C112987   2.995   1.272  14.916 -0.1624 -0.1301  0.4679
  886MPD2    C212988   3.100   1.329  14.840  0.0525  0.2529 -0.2578
  886MPD2    C312989   3.064   1.409  14.727  0.0586  0.6203 -0.5863
  886MPD2    C412990   2.934   1.401  14.680  0.5526  1.0058  0.7732
  886MPD2    C512991   2.837   1.340  14.750  0.0006  0.5932 -0.1786
  886MPD2     H12992   3.202   1.323  14.875 -0.1218  0.2417  0.2479
  886MPD2    H112993   2.914   1.460  14.592 -2.3749  0.2727  0.9413
  886MPD2    H212994   2.774   1.248  14.933  0.2653  1.8340  0.3495
  886MPD2    H312995   2.734   1.361  14.725  0.0354  0.5680 -0.3420
  886MPD2     N12996   3.151   1.495  14.660 -0.1624  0.4974  0.1014
  886MPD2    H512997   3.109   1.551  14.587 -0.4408  0.0312 -0.0921
  886MPD2    N112998   3.035   1.197  15.027  0.3860 -0.3999  1.0696
  886MPD2    H712999   3.134   1.200  15.047  0.4826 -0.8931  0.6462
  887MPD2     C13000   3.601   1.002  15.430 -0.6553 -0.0734 -0.0442
  887MPD2    C113001   3.516   1.093  15.369  0.0582 -0.4860  1.0145
  887MPD2    C213002   3.554   1.224  15.372  0.2645  0.3859  0.0194
  887MPD2    C313003   3.665   1.268  15.441 -0.5503  0.0090 -0.1789
  887MPD2    C413004   3.751   1.176  15.494  0.9641  0.2201 -0.3847
  887MPD2    C513005   3.716   1.045  15.497 -0.0899  0.1604 -0.3253
  887MPD2     H13006   3.483   1.297  15.336 -0.3635 -0.1393  0.1947
  887MPD2    H113007   3.848   1.203  15.534  0.6413  0.1434  0.4346
  887MPD2    H213008   3.579   0.896  15.420 -0.8919 -0.1730  1.6953
  887MPD2    H313009   3.784   0.972  15.538 -2.2924 -1.9698 -0.5286
  887MPD2     N13010   3.694   1.411  15.445  0.1255  0.3067  0.3604
  887MPD2    H513011   3.634   1.462  15.382 -0.3739 -1.4721 -0.6210
  887MPD2    N113012   3.390   1.060  15.313 -1.0762 -0.5815  0.3104
  887MPD2    H713013   3.335   1.127  15.260  0.6413  0.8410  0.3317
  888MPD2     C13014   0.917   1.529  14.651 -0.8672 -0.1131  0.0501
  888MPD2    C113015   0.882   1.586  14.770 -0.5111  0.0298 -0.4113
  888MPD2    C213016   0.944   1.694  14.811  0.3147  1.1231 -0.3014
  888MPD2    C313017   1.030   1.767  14.738  0.5474  0.8321 -0.3034
  888MPD2    C413018   1.067   1.713  14.622  0.0308  0.2383 -0.1943
  888MPD2    C513019   1.003   1.602  14.570 -0.0614  0.0022 -0.1059
  888MPD2     H13020   0.908   1.734  14.905 -2.4827  0.7224 -1.2104
  888MPD2    H113021   1.135   1.761  14.552 -0.9952  1.1531 -0.5681
  888MPD2    H213022   0.855   1.450  14.609  0.2648  0.2191 -2.2160
  888MPD2    H313023   1.028   1.572  14.469 -2.5207  2.5295 -1.4583
  888MPD2     N13024   1.071   1.900  14.785 -0.2920 -0.3671  0.3222
  888MPD2    H513025   1.037   1.929  14.876  0.2293  1.3056 -0.0183
  888MPD2    N113026   0.791   1.527  14.862 -0.2563 -0.7343  0.1492
  888MPD2    H713027   0.762   1.584  14.940  0.1582 -0.1311 -0.1395
  889MPD2     C13028   0.167   1.010  12.656  0.3927 -0.3284 -0.0064
  889MPD2    C113029   0.051   0.970  12.712  0.6798  0.6643 -0.1901
  889MPD2    C213030   0.002   1.052  12.815 -0.0867 -0.2752  0.2704
  889MPD2    C313031   0.036   1.182  12.829  0.5637 -0.1890 -0.5268
  889MPD2    C413032   0.133   1.232  12.737  0.8146 -0.2837 -0.6635
  889MPD2    C513033   0.195   1.144  12.659  0.1933 -0.6110  0.0190
  889MPD2     H13034   4.642   1.013  12.870 -0.7969  1.3306  0.3148
  889MPD2    H113035   0.151   1.339  12.730 -1.0128 -0.0479 -1.7880
  889MPD2    H213036   0.230   0.948  12.593 -0.0568 -0.5106 -0.2778
  889MPD2    H313037   0.292   1.169  12.617 -0.8468 -0.1291 -2.1097
  889MPD2     N13038   4.710   1.262  12.934  0.0082  0.2689 -0.8470
  889MPD2    H513039   4.655   1.221  13.008  1.3878 -3.4723 -1.8987
  889MPD2    N113040   0.023   0.837  12.714  0.1826 -0.3588  0.1762
  889MPD2    H713041   4.702   0.797  12.795  0.0509 -2.9746 -1.1819
  890MPD2     C13042   4.123   2.748  14.307  0.5427  0.6337  0.2093
  890MPD2    C113043   4.259   2.766  14.321 -0.9771 -0.3004 -0.3340
  890MPD2    C213044   4.313   2.716  14.439  0.6012  0.7681 -0.4921
  890MPD2    C313045   4.240   2.626  14.516 -0.6056  0.1004  0.4924
  890MPD2    C413046   4.104   2.605  14.493 -0.1510 -0.0097 -0.6628
  890MPD2    C513047   4.044   2.680  14.398  0.5803 -1.0626  0.2145
  890MPD2     H13048   4.413   2.739  14.476  0.9967 -0.9196 -0.4735
  890MPD2    H113049   4.040   2.542  14.554  0.3660 -1.9259 -2.1144
  890MPD2    H213050   4.067   2.805  14.234 -2.2009 -1.1798  0.9373
  890MPD2    H313051   3.940   2.658  14.375  0.1768 -0.3246  1.4030
  890MPD2     N13052   4.309   2.569  14.620 -0.0291  0.4452  0.2580
  890MPD2    H513053   4.405   2.600  14.633  0.6323 -1.8503  0.9456
  890MPD2    N113054   4.332   2.842  14.223 -0.5929  0.8542 -0.1674
  890MPD2    H713055   4.276   2.869  14.143 -2.2464 -0.0497  0.6798
  891MPD2     C13056   2.463   1.108  16.328 -0.1341 -0.5148  0.8167
  891MPD2    C113057   2.373   1.129  16.422 -0.3030  0.0601 -0.0718
  891MPD2    C213058   2.398   1.091  16.550  0.0570 -0.3969  0.3500
  891MPD2    C313059   2.524   1.046  16.595  0.8944 -0.3725  0.2356
  891MPD2    C413060   2.612   1.019  16.496 -0.5028  0.2446  0.2645
  891MPD2    C513061   2.578   1.044  16.363 -0.6280 -0.5136  0.4958
  891MPD2     H13062   2.328   1.117  16.628  1.6928  0.6991  1.4821
  891MPD2    H113063   2.705   0.967  16.516 -1.0999 -1.0574 -0.3124
  891MPD2    H213064   2.441   1.131  16.224  1.3961 -0.6190  0.4582
  891MPD2    H313065   2.654   1.016  16.291 -0.4964 -1.8477  1.1649
  891MPD2     N13066   2.552   1.028  16.733 -0.0588  0.0704  0.6547
  891MPD2    H513067   2.476   1.055  16.795 -0.3952  0.5483  0.0257
  891MPD2    N113068   2.253   1.197  16.384 -0.4663 -0.0731 -0.3903
  891MPD2    H713069   2.255   1.243  16.293  2.5518 -0.9552 -0.7660
  892MPD2     C13070   3.430   1.944  14.821 -0.1238 -0.5473 -0.3307
  892MPD2    C113071   3.380   2.024  14.724 -0.2305  0.7343 -0.4329
  892MPD2    C213072   3.465   2.069  14.633  0.1971  0.0779  0.2360
  892MPD2    C313073   3.595   2.029  14.630  0.0742  0.6462 -0.2080
  892MPD2    C413074   3.647   1.944  14.730  0.7560 -0.4514  0.2268
  892MPD2    C513075   3.556   1.886  14.821  0.0741  0.4159 -0.2882
  892MPD2     H13076   3.426   2.133  14.554  2.1689  1.6747  0.5329
  892MPD2    H113077   3.752   1.920  14.733  1.2458  1.8071  0.9416
  892MPD2    H213078   3.367   1.890  14.891  1.5846 -0.3006  1.4034
  892MPD2    H313079   3.594   1.816  14.895 -1.3720 -0.3109 -0.2161
  892MPD2     N13080   3.691   2.069  14.536 -0.1814 -0.8488 -0.4287
  892MPD2    H513081   3.789   2.051  14.557  0.5263 -0.6271 -3.4537
  892MPD2    N113082   3.241   2.067  14.722 -0.8571  0.2298  0.1686
  892MPD2    H713083   3.211   2.124  14.643 -3.1939 -2.6814 -1.0817
  893MPD2     C13084   2.515   0.658   1.645  0.2156  0.0631 -0.3398
  893MPD2    C113085   2.385   0.693   1.680 -0.7979 -0.0392 -0.2191
  893MPD2    C213086   2.287   0.593   1.678 -0.2063  0.0629  0.3836
  893MPD2    C313087   2.320   0.462   1.652 -0.1753  0.1138  0.3859
  893MPD2    C413088   2.453   0.428   1.639  0.3626 -0.3628  0.4641
  893MPD2    C513089   2.551   0.525   1.628 -0.3647 -0.3013 -0.4395
  893MPD2     H13090   2.183   0.609   1.705 -0.9135 -2.8736 -0.6521
  893MPD2    H113091   2.487   0.326   1.625 -0.6366 -0.5757 -0.4378
  893MPD2    H213092   2.587   0.737   1.624  0.8392 -0.7738 -1.3866
  893MPD2    H313093   2.656   0.506   1.611 -0.3037 -0.3468 -0.0002
  893MPD2     N13094   2.231   0.360   1.654 -0.3633 -0.5052  0.3656
  893MPD2    H513095   2.275   0.270   1.637  0.4141  0.0852 -0.7659
  893MPD2    N113096   2.361   0.822   1.708  0.4219  0.3945 -0.0917
  893MPD2    H713097   2.443   0.879   1.691  0.9175 -0.1461  0.4648
  894MPD2     C13098   3.357   3.694   0.246  0.8846  0.5035  0.2735
  894MPD2    C113099   3.334   3.667   0.385  0.1179  0.1025  0.5898
  894MPD2    C213100   3.302   3.770   0.472  0.4400  0.0465 -0.1229
  894MPD2    C313101   3.296   3.902   0.417  0.4394 -0.0381  0.5685
  894MPD2    C413102   3.315   3.922   0.282 -0.3480  0.2227 -0.4352
  894MPD2    C513103   3.335   3.822   0.193 -0.6593 -0.5072  0.4875
  894MPD2     H13104   3.287   3.753   0.578  3.6941 -1.1885  0.1263
  894MPD2    H113105   3.318   4.023   0.244 -0.2859  0.5525  0.4535
  894MPD2    H213106   3.373   3.617   0.171 -0.5735  2.8312 -2.4350
  894MPD2    H313107   3.349   3.829   0.086 -0.8650  0.0986  0.5054
  894MPD2     N13108   3.260   4.012   0.507  0.0054 -0.0602  0.2843
  894MPD2    H513109   3.231   3.986   0.601 -2.7860  0.7735 -0.3641
  894MPD2    N113110   3.347   3.541   0.441 -0.0635  0.9969  0.4000
  894MPD2    H713111   3.303   3.532   0.532  0.7980  1.7985  0.8894
  895MPD2     C13112   3.001   1.330  13.678  0.0236  0.0506  0.1569
  895MPD2    C113113   2.929   1.348  13.560  0.4066 -0.4650  0.2592
  895MPD2    C213114   2.918   1.246  13.472  0.2518 -0.4419 -0.4533
  895MPD2    C313115   2.998   1.136  13.497 -0.0253 -0.2568  0.4539
  895MPD2    C413116   3.069   1.115  13.607 -0.1428 -0.2626  0.6992
  895MPD2    C513117   3.067   1.209  13.706 -0.4797  0.3804 -0.3806
  895MPD2     H13118   2.862   1.254  13.380 -1.1000  0.1089  0.4291
  895MPD2    H113119   3.120   1.022  13.630 -1.5753 -0.7540  1.8560
  895MPD2    H213120   2.994   1.409  13.752  3.1377  0.5415 -0.0741
  895MPD2    H313121   3.118   1.196  13.801 -0.2640 -1.2543 -0.7311
  895MPD2     N13122   2.983   1.038  13.403 -0.1586 -0.2489  0.0219
  895MPD2    H513123   2.910   1.061  13.336  1.3076  0.3430 -1.3595
  895MPD2    N113124   2.855   1.461  13.524 -0.1228 -0.3414  0.6103
  895MPD2    H713125   2.822   1.461  13.428 -0.5243 -1.3411  0.7488
  896MPD2     C13126   0.410   4.647   1.292  0.1731  0.2539 -0.0958
  896MPD2    C113127   0.392   4.617   1.157  0.0510 -0.7540  0.1402
  896MPD2    C213128   0.263   4.618   1.112 -0.6535 -0.4092  0.6759
  896MPD2    C313129   0.157   4.632   1.191  0.2632  0.0616  0.3662
  896MPD2    C413130   0.176   4.655   1.322  0.6539  0.2514  0.1403
  896MPD2    C513131   0.301   4.651   1.372 -0.9392 -0.6143 -0.0879
  896MPD2     H13132   0.243   4.625   1.006  0.1823 -3.6246  0.3278
  896MPD2    H113133   0.088   4.663   1.384 -0.3291 -1.3886 -1.0194
  896MPD2    H213134   0.512   4.643   1.329 -1.0477 -0.6076  3.1576
  896MPD2    H313135   0.303   4.654   1.480 -0.2934  0.5018 -0.1227
  896MPD2     N13136   0.031   4.614   1.131  0.4120 -0.8646 -0.2191
  896MPD2    H513137   0.044   4.573   1.039  0.4024  2.0830 -1.5381
  896MPD2    N113138   0.508   4.587   1.079 -0.2291  0.1767  0.3460
  896MPD2    H713139   0.600   4.608   1.115 -1.0155  0.9218  1.9095
  897MPD2     C13140   1.397   0.877   9.936  0.5859 -0.8963  0.3727
  897MPD2    C113141   1.379   0.793  10.047  0.0390  0.4822 -0.4097
  897MPD2    C213142   1.275   0.822  10.135  0.0847 -0.1843 -0.1559
  897MPD2    C313143   1.184   0.925  10.111 -0.3243  0.1756 -0.5502
  897MPD2    C413144   1.199   1.002   9.995  0.2501 -0.6381  0.0119
  897MPD2    C513145   1.313   0.974   9.918  1.2514 -0.1626  0.3567
  897MPD2     H13146   1.260   0.746  10.210  0.4592  0.5483  0.6587
  897MPD2    H113147   1.137   1.083   9.959  1.0524  0.6800  1.6101
  897MPD2    H213148   1.484   0.858   9.875  0.3603 -0.1829 -0.1628
  897MPD2    H313149   1.338   1.037   9.833 -1.8470  0.0436 -0.4253
  897MPD2     N13150   1.065   0.943  10.186 -0.2068 -0.0395 -0.1447
  897MPD2    H513151   1.052   0.869  10.255  0.8213 -0.1752 -0.0896
  897MPD2    N113152   1.479   0.695  10.060 -0.0746 -0.6749  0.2189
  897MPD2    H713153   1.548   0.686   9.986 -0.4813  0.6377 -0.3049
  898MPD2     C13154   3.897   1.818   0.099 -0.2736  0.5381 -0.0472
  898MPD2    C113155   3.812   1.926   0.108 -0.5437 -0.3386  0.8156
  898MPD2    C213156   3.719   1.946   0.010 -0.0689  0.0389  0.4770
  898MPD2    C313157   3.714   1.864  17.597  0.7236 -0.2946  0.7570
  898MPD2    C413158   3.796   1.751  17.594 -0.6164  0.2971  0.3119
  898MPD2    C513159   3.884   1.728  17.692  0.5356  0.0554  0.8699
  898MPD2     H13160   3.665   2.039   0.021  1.4458  1.3402 -3.1027
  898MPD2    H113161   3.800   1.677  17.515  1.8085  0.8019 -0.0228
  898MPD2    H213162   3.968   1.792   0.177  0.1900 -1.1704 -1.0224
  898MPD2    H313163   3.954   1.645  17.687  0.1045 -0.1899 -1.3550
  898MPD2     N13164   3.621   1.902  17.500  0.6501 -0.0395  0.0345
  898MPD2    H513165   3.563   1.983  17.520  0.1477 -0.3433 -0.2066
  898MPD2    N113166   3.826   2.012   0.216 -0.4419 -0.0710  0.2036
  898MPD2    H713167   3.749   2.079   0.223 -0.9912 -0.4728 -1.8044
  899MPD2     C13168   4.529   2.475  17.016 -0.0733 -1.0290  0.7698
  899MPD2    C113169   4.413   2.509  17.077  0.4828  0.2886 -0.3835
  899MPD2    C213170   4.361   2.423  17.175  0.7652 -0.7637  0.1424
  899MPD2    C313171   4.410   2.304  17.213  0.0897 -0.2394  0.9883
  899MPD2    C413172   4.533   2.274  17.154  0.4993 -0.0385 -0.5193
  899MPD2    C513173   4.592   2.358  17.059  0.3626  0.4598  0.1409
  899MPD2     H13174   4.270   2.452  17.228  1.7250 -0.0846  1.4191
  899MPD2    H113175   4.582   2.182  17.185 -1.3413 -0.8185  0.1045
  899MPD2    H213176   4.578   2.535  16.941 -1.9029 -2.8691 -1.9143
  899MPD2    H313177   4.695   2.335  17.032 -0.3676 -0.4282 -1.9041
  899MPD2     N13178   4.345   2.217  17.305  0.3453  0.2090 -0.0908
  899MPD2    H513179   4.363   2.118  17.291 -1.5601 -0.0898 -0.3925
  899MPD2    N113180   4.340   2.623  17.039 -0.6032  0.3993 -0.4060
  899MPD2    H713181   4.390   2.678  16.970  1.5439  0.3545  1.1161
  900MPD2     C13182   3.934   3.955  12.479 -0.6851 -0.0159 -0.5387
  900MPD2    C113183   3.845   3.853  12.465 -0.4890 -0.7158 -0.0650
  900MPD2    C213184   3.708   3.881  12.440 -0.5584  0.0849  0.2641
  900MPD2    C313185   3.657   4.009  12.448 -0.4119 -0.3898  0.0290
  900MPD2    C413186   3.748   4.111  12.477 -0.0202  0.0017 -0.9524
  900MPD2    C513187   3.881   4.079  12.491 -0.1187  0.4421 -0.6353
  900MPD2     H13188   3.636   3.801  12.441 -0.4011 -0.0946 -2.4714
  900MPD2    H113189   3.717   4.213  12.497  0.9491 -0.3785  2.4769
  900MPD2    H213190   4.041   3.939  12.482 -0.6940  0.1303  0.5001
  900MPD2    H313191   3.948   4.160  12.519 -2.7994  2.3226  0.3837
  900MPD2     N13192   3.527   4.039  12.404  0.0519  0.2860 -0.1878
  900MPD2    H513193   3.464   3.966  12.374 -0.2787  0.3914  0.2505
  900MPD2    N113194   3.903   3.724  12.446 -0.3220  0.1828 -0.3125
  900MPD2    H713195   4.000   3.712  12.472 -0.1027  0.0290 -1.2224
  901MPD2     C13196   3.836   2.604  12.457  0.3491  0.2193 -0.7705
  901MPD2    C113197   3.957   2.654  12.423  0.8551  0.4258 -0.0744
  901MPD2    C213198   3.983   2.792  12.425  0.0849  0.6367  0.9784
  901MPD2    C313199   3.894   2.884  12.456  0.2503 -0.0375 -0.3740
  901MPD2    C413200   3.769   2.837  12.496  0.3695  0.0882 -0.0525
  901MPD2    C513201   3.745   2.702  12.500 -0.3227 -0.5930 -0.1900
  901MPD2     H13202   4.085   2.826  12.406  0.6565  0.1753  3.2229
  901MPD2    H113203   3.695   2.911  12.523  0.3115 -0.8386  2.2858
  901MPD2    H213204   3.821   2.497  12.471  0.5063  0.4844  1.4842
  901MPD2    H313205   3.651   2.671  12.544 -0.8561  1.0383 -0.1855
  901MPD2     N13206   3.930   3.017  12.454  0.7457 -0.6157 -0.1146
  901MPD2    H513207   4.028   3.034  12.432  1.1782 -1.7506  0.9523
  901MPD2    N113208   4.058   2.559  12.392  0.3788  0.3209 -0.1630
  901MPD2    H713209   4.019   2.476  12.348  3.7817 -1.3070 -0.1561
  902MPD2     C13210   2.804   1.499  12.358  0.0989  1.3833 -0.4886
  902MPD2    C113211   2.889   1.610  12.355  0.5037  0.3642 -0.0959
  902MPD2    C213212   3.017   1.598  12.306 -0.3596 -0.7489 -0.5699
  902MPD2    C313213   3.058   1.478  12.255 -0.8099  0.4762 -0.1784
  902MPD2    C413214   2.967   1.372  12.236  0.0898  0.1046  0.4684
  902MPD2    C513215   2.842   1.383  12.297 -0.0288  0.3963  0.0755
  902MPD2     H13216   3.077   1.689  12.304  2.1191 -2.3592  0.6199
  902MPD2    H113217   2.993   1.275  12.196 -0.4231  0.1696 -0.0105
  902MPD2    H213218   2.701   1.509  12.392 -0.1468  1.6429 -1.3073
  902MPD2    H313219   2.763   1.309  12.293  2.0648 -1.8937  0.5004
  902MPD2     N13220   3.184   1.470  12.193  0.1125 -0.0494 -0.5095
  902MPD2    H513221   3.223   1.561  12.170  0.3291  0.0131  0.1233
  902MPD2    N113222   2.839   1.730  12.410  0.1155 -0.2014  0.0102
  902MPD2    H713223   2.740   1.736  12.432  0.4903 -3.1424  2.4069
  903MPD2     C13224   2.944   1.856  12.059  0.2109 -0.0773  0.4933
  903MPD2    C113225   2.900   1.761  11.971  0.1168 -0.5960  0.4207
  903MPD2    C213226   2.772   1.768  11.918  0.4093 -0.5179 -0.0312
  903MPD2    C313227   2.681   1.861  11.962 -0.1029  0.4014 -0.2441
  903MPD2    C413228   2.721   1.955  12.049  0.0209  0.7541  0.4869
  903MPD2    C513229   2.851   1.949  12.095 -0.8264 -0.1698 -0.2468
  903MPD2     H13230   2.731   1.684  11.862 -1.6017  0.4947 -0.0681
  903MPD2    H113231   2.655   2.037  12.073 -2.1122 -1.0675  0.9347
  903MPD2    H213232   3.047   1.863  12.090  0.4874  0.3882 -0.5580
  903MPD2    H313233   2.884   2.035  12.152  0.3992  1.3286 -3.2195
  903MPD2     N13234   2.548   1.877  11.919  0.2453 -0.3631  0.4730
  903MPD2    H513235   2.491   1.940  11.974 -0.5214  0.6969 -1.5176
  903MPD2    N113236   2.989   1.661  11.938 -0.5972  0.0866  0.3514
  903MPD2    H713237   3.078   1.662  11.987 -0.4156  1.2357  0.0080
  904MPD2     C13238   2.800   0.525  13.543  0.2872  0.1018  0.1500
  904MPD2    C113239   2.797   0.658  13.581  0.2338  0.3277  0.1896
  904MPD2    C213240   2.903   0.700  13.662  0.6531 -0.7845  0.7841
  904MPD2    C313241   3.000   0.609  13.708 -0.3430  0.9165 -0.3773
  904MPD2    C413242   2.997   0.483  13.667  0.0988  0.2969 -0.4026
  904MPD2    C513243   2.901   0.444  13.580  0.2133 -0.4204  0.2625
  904MPD2     H13244   2.908   0.800  13.702 -1.3125 -0.5088  0.3289
  904MPD2    H113245   3.066   0.406  13.700 -0.4361  0.4652  1.1066
  904MPD2    H213246   2.719   0.484  13.484  1.4152 -2.2626  0.2558
  904MPD2    H313247   2.913   0.345  13.538 -0.5981 -0.8008  0.9443
  904MPD2     N13248   3.100   0.664  13.792  0.2094 -0.4012 -0.3570
  904MPD2    H513249   3.087   0.762  13.814 -2.8211 -0.6098 -1.2940
  904MPD2    N113250   2.702   0.751  13.532  0.2305  0.1894 -0.5607
  904MPD2    H713251   2.691   0.838  13.583 -2.0631  0.0164 -0.7410
  905MPD2     C13252   2.247   0.632  12.998  0.5825  0.3068  0.3422
  905MPD2    C113253   2.284   0.742  13.071  0.2122 -0.2205  0.1297
  905MPD2    C213254   2.410   0.788  13.057  0.8432  0.0093 -0.0589
  905MPD2    C313255   2.505   0.716  12.978  0.3129 -0.4260  0.1379
  905MPD2    C413256   2.468   0.608  12.907 -0.7328  0.1945  0.0501
  905MPD2    C513257   2.337   0.565  12.919  0.4369 -0.0868  0.3794
  905MPD2     H13258   2.443   0.874  13.115  1.8306 -0.8941  0.7031
  905MPD2    H113259   2.542   0.549  12.854 -1.3666  1.6431 -2.4246
  905MPD2    H213260   2.151   0.582  13.001  1.1985 -0.9266 -0.7092
  905MPD2    H313261   2.305   0.471  12.874 -2.7546  0.5362  1.3203
  905MPD2     N13262   2.646   0.741  12.979  0.2099  0.1636  0.1770
  905MPD2    H513263   2.700   0.684  12.914  0.1459  0.2182  0.0760
  905MPD2    N113264   2.187   0.786  13.161 -0.1982 -0.7516 -0.6342
  905MPD2    H713265   2.091   0.758  13.147 -0.4385  0.0357 -0.5229
  906MPD2     C13266   4.551   0.717  11.086  0.0105  0.8062 -0.9566
  906MPD2    C113267   4.583   0.637  10.981 -0.8400 -0.0096  0.6208
  906MPD2    C213268   4.609   0.502  10.992 -0.4809 -0.1189 -0.4583
  906MPD2    C313269   4.577   0.446  11.114  0.3029  0.8969 -0.2620
  906MPD2    C413270   4.510   0.528  11.211 -0.1737 -0.3018 -0.8550
  906MPD2    C513271   4.507   0.661  11.206 -0.9093 -0.8584 -0.4414
  906MPD2     H13272   4.646   0.445  10.908  0.8497  0.1389 -0.0595
  906MPD2    H113273   4.495   0.487  11.310 -1.2094  0.0173 -0.8829
  906MPD2    H213274   4.550   0.826  11.080  0.7615  0.9324  1.2625
  906MPD2    H313275   4.461   0.723  11.282  0.0087 -0.4533 -0.2109
  906MPD2     N13276   4.576   0.303  11.138  0.6393  0.1833  0.0754
  906MPD2    H513277   4.529   0.280  11.225  1.5043  0.1467  0.5398
  906MPD2    N113278   4.601   0.681  10.850 -0.6075 -0.5207  0.3397
  906MPD2    H713279   4.636   0.607  10.790  0.0334  0.7936 -0.9096
  907MPD2     C13280   3.010   0.314  15.173  0.1594  0.3961  0.4995
  907MPD2    C113281   3.133   0.244  15.181  0.2217  0.2788  0.3086
  907MPD2    C213282   3.224   0.284  15.276 -0.1440 -0.0799 -0.3990
  907MPD2    C313283   3.196   0.377  15.364  0.5385 -0.7834  0.4072
  907MPD2    C413284   3.074   0.442  15.367  0.0023 -0.6096 -0.3310
  907MPD2    C513285   2.984   0.410  15.265 -0.1249 -0.1705  0.2294
  907MPD2     H13286   3.317   0.234  15.301  0.6487  2.2783  1.2822
  907MPD2    H113287   3.043   0.503  15.450 -1.4958  0.9184 -2.0174
  907MPD2    H213288   2.939   0.307  15.091  0.7427 -0.0491  0.0232
  907MPD2    H313289   2.892   0.465  15.252 -0.8758 -1.4370  0.1582
  907MPD2     N13290   3.305   0.419  15.450  0.8994  0.1859 -0.9815
  907MPD2    H513291   3.394   0.371  15.438  0.1812 -1.5046  0.3688
  907MPD2    N113292   3.184   0.147  15.086  0.6300  0.1620 -0.6508
  907MPD2    H713293   3.272   0.098  15.101 -0.0737 -1.5206 -2.0197
  908MPD2     C13294   1.580   4.433   9.914  0.1963  0.3740  0.7059
  908MPD2    C113295   1.597   4.456  10.049 -0.2458 -0.3472 -0.1244
  908MPD2    C213296   1.625   4.581  10.097  0.0640  0.1836 -0.3376
  908MPD2    C313297   1.644   4.689  10.010  1.0147 -0.4909 -0.2526
  908MPD2    C413298   1.633   4.666   9.879 -0.0202 -0.2696 -0.1143
  908MPD2    C513299   1.598   4.545   9.836  0.0192  0.2898  0.7462
  908MPD2     H13300   1.630   4.593  10.205  2.0920  1.1919 -0.5380
  908MPD2    H113301   1.653   0.026   9.814  1.2918 -1.4375 -1.2245
  908MPD2    H213302   1.559   4.335   9.873  2.0850 -0.4812  1.7855
  908MPD2    H313303   1.583   4.528   9.730  1.6824  2.4343  0.1831
  908MPD2     N13304   1.657   0.087  10.073 -0.0793  0.2690 -0.0432
  908MPD2    H513305   1.670   0.085  10.174  0.2717  6.0740  0.0469
  908MPD2    N113306   1.605   4.354  10.143 -0.2870 -0.1756  0.4656
  908MPD2    H713307   1.622   4.380  10.240  0.2541  0.9881  0.0608
  909MPD2     C13308   1.227   3.209  11.696  0.6969 -0.7635 -0.7433
  909MPD2    C113309   1.312   3.313  11.663 -0.8132 -0.5383 -0.5942
  909MPD2    C213310   1.284   3.440  11.711 -0.6790 -1.1697  0.2310
  909MPD2    C313311   1.166   3.467  11.782  0.0333 -0.3480 -0.6120
  909MPD2    C413312   1.082   3.364  11.815 -0.7979  0.3858 -0.1577
  909MPD2    C513313   1.120   3.239  11.772  0.5147  0.0968 -0.6300
  909MPD2     H13314   1.346   3.527  11.691 -2.1978 -0.3500 -0.8494
  909MPD2    H113315   0.990   3.376  11.871 -0.6844 -0.4173  0.1972
  909MPD2    H213316   1.247   3.109  11.659  0.9945 -0.9124 -0.1837
  909MPD2    H313317   1.044   3.164  11.793  0.8107  0.2397  0.9387
  909MPD2     N13318   1.142   3.593  11.820  0.1186  0.2403  0.4756
  909MPD2    H513319   1.218   3.653  11.788 -1.8043  1.1024 -2.4737
  909MPD2    N113320   1.431   3.293  11.587 -0.4446 -0.5706 -0.7405
  909MPD2    H713321   1.466   3.385  11.562  1.2665 -1.4277 -1.5251
  910MPD2     C13322   2.652   0.576  15.739  0.4453 -0.2747  0.4606
  910MPD2    C113323   2.771   0.578  15.666  0.1982 -0.2682 -0.0505
  910MPD2    C213324   2.774   0.620  15.539  0.3247  0.3410 -0.1414
  910MPD2    C313325   2.656   0.666  15.475  0.4848  0.9918 -0.0210
  910MPD2    C413326   2.536   0.663  15.552 -0.4915  0.2804 -0.7776
  910MPD2    C513327   2.533   0.620  15.681 -0.3942 -0.4486 -0.6102
  910MPD2     H13328   2.868   0.621  15.486  0.1880  0.4262 -0.3846
  910MPD2    H113329   2.448   0.704  15.504 -0.0835  1.2179 -0.7272
  910MPD2    H213330   2.639   0.536  15.839  2.4478  0.2291  0.9272
  910MPD2    H313331   2.438   0.616  15.733  0.3626  0.9265  0.8505
  910MPD2     N13332   2.642   0.701  15.338 -0.0248 -0.4580 -0.5315
  910MPD2    H513333   2.549   0.720  15.301 -0.3948 -1.3855 -0.0795
  910MPD2    N113334   2.894   0.536  15.721  0.2373 -0.0689  0.3096
  910MPD2    H713335   2.979   0.521  15.668 -0.9577  1.0050 -1.8695
  911MPD2     C13336   0.626   1.226  16.157 -0.0164  0.5059  0.0282
  911MPD2    C113337   0.698   1.333  16.207  0.1044 -0.9113  0.2461
  911MPD2    C213338   0.645   1.454  16.202  0.1455  0.1076  0.4907
  911MPD2    C313339   0.521   1.470  16.146  0.1993  0.0538 -0.3088
  911MPD2    C413340   0.446   1.370  16.100  0.4895  0.0500  0.3267
  911MPD2    C513341   0.503   1.245  16.101 -0.2526  0.1643 -0.3620
  911MPD2     H13342   0.696   1.539  16.246  0.9910  1.2640 -2.6654
  911MPD2    H113343   0.351   1.387  16.050 -0.2369 -0.7158  1.4447
  911MPD2    H213344   0.665   1.126  16.168 -2.4565 -0.4231  0.3621
  911MPD2    H313345   0.440   1.166  16.062 -2.1117  0.8233  1.3097
  911MPD2     N13346   0.452   1.593  16.125  0.0956  0.4309  0.2990
  911MPD2    H513347   0.354   1.590  16.101 -0.2841 -2.0221  2.0979
  911MPD2    N113348   0.819   1.302  16.264 -0.3762 -0.0071  0.5318
  911MPD2    H713349   0.850   1.208  16.241  0.3335  0.7004 -1.3678
  912MPD2     C13350   0.363   1.509  15.613  0.6475  0.2261  0.1508
  912MPD2    C113351   0.298   1.510  15.736  0.1657 -0.3202  0.0401
  912MPD2    C213352   0.257   1.388  15.793 -0.4605 -0.2099  0.3256
  912MPD2    C313353   0.302   1.271  15.735  0.1316  0.1093 -0.5613
  912MPD2    C413354   0.378   1.271  15.621 -0.0298 -0.1354 -0.2673
  912MPD2    C513355   0.398   1.392  15.551 -0.0835  0.2388 -0.2101
  912MPD2     H13356   0.199   1.392  15.884 -0.9022  0.6124  0.0147
  912MPD2    H113357   0.415   1.184  15.567  1.4756 -0.5441  1.4282
  912MPD2    H213358   0.389   1.597  15.557  0.0179 -1.0481 -2.1684
  912MPD2    H313359   0.456   1.392  15.460  0.6934  0.6117  0.2884
  912MPD2     N13360   0.276   1.150  15.809 -0.6193  0.3954  0.4521
  912MPD2    H513361   0.217   1.160  15.890  2.3694  3.9395  2.1929
  912MPD2    N113362   0.274   1.634  15.794 -0.4553 -0.2382 -0.0114
  912MPD2    H713363   0.323   1.707  15.743  1.0531 -2.0477 -1.1602
  913MPD2     C13364   1.283   1.404  10.201  0.6221  0.1972  0.0094
  913MPD2    C113365   1.316   1.490  10.299  0.5268 -0.3881  0.8435
  913MPD2    C213366   1.261   1.618  10.300  0.2930 -0.0985 -0.6618
  913MPD2    C313367   1.188   1.667  10.192 -0.6822 -0.1108  0.3547
  913MPD2    C413368   1.172   1.581  10.086 -0.2583  0.2837 -0.4639
  913MPD2    C513369   1.217   1.453  10.096  0.2633 -0.0422 -0.1271
  913MPD2     H13370   1.266   1.677  10.391  0.3822 -0.4946 -0.4075
  913MPD2    H113371   1.107   1.606  10.003 -0.2366  0.7164 -0.3499
  913MPD2    H213372   1.296   1.298  10.216 -0.3675 -0.0919 -1.1646
  913MPD2    H313373   1.183   1.385  10.018  0.9495 -0.3879 -0.1259
  913MPD2     N13374   1.127   1.795  10.192  1.1413  0.0649  0.0929
  913MPD2    H513375   1.080   1.823  10.106  0.8114 -0.7958 -0.0058
  913MPD2    N113376   1.381   1.432  10.410  0.4034  0.2778 -0.2671
  913MPD2    H713377   1.404   1.334  10.413  1.5065  0.6065  1.6244
  914MPD2     C13378   3.582   2.372  12.365  0.5265 -0.0773  0.1982
  914MPD2    C113379   3.634   2.453  12.264 -0.0972 -0.5643 -0.0226
  914MPD2    C213380   3.761   2.420  12.213 -0.4708  0.2305 -0.0578
  914MPD2    C313381   3.831   2.316  12.259  0.9148  0.5591 -0.6913
  914MPD2    C413382   3.787   2.246  12.367 -0.4110 -0.1648  0.7037
  914MPD2    C513383   3.665   2.278  12.418  0.4238 -0.0587 -0.1106
  914MPD2     H13384   3.807   2.480  12.135  1.6010 -1.9244 -0.4934
  914MPD2    H113385   3.847   2.172  12.419  1.7050 -0.2478 -1.8554
  914MPD2    H213386   3.485   2.392  12.411  0.6945 -0.7194  0.8197
  914MPD2    H313387   3.643   2.208  12.498  0.1301 -0.7493 -0.7895
  914MPD2     N13388   3.962   2.303  12.208  0.3833 -0.9237  0.2520
  914MPD2    H513389   3.982   2.367  12.132 -2.5218 -0.4288 -0.0961
  914MPD2    N113390   3.559   2.557  12.218  0.2144  0.0480 -0.7545
  914MPD2    H713391   3.481   2.576  12.280  1.9064 -0.3048  1.4936
  915MPD2     C13392   2.076   2.652  15.702  0.1031  0.2870 -0.4114
  915MPD2    C113393   1.963   2.702  15.648  0.1933 -0.0363 -0.7158
  915MPD2    C213394   1.847   2.711  15.726  0.7056  0.2116 -0.1238
  915MPD2    C313395   1.847   2.681  15.861  0.9765  0.8195  0.4212
  915MPD2    C413396   1.963   2.628  15.916 -0.0923 -0.3224 -0.2830
  915MPD2    C513397   2.078   2.608  15.835 -0.5974 -0.0351  0.0520
  915MPD2     H13398   1.756   2.763  15.700  1.4719  0.5263 -2.2226
  915MPD2    H113399   1.976   2.606  16.022  2.6013 -0.7485 -0.7135
  915MPD2    H213400   2.162   2.639  15.636 -1.5462  1.6700 -2.8163
  915MPD2    H313401   2.162   2.553  15.877  2.0284  2.3559 -2.1253
  915MPD2     N13402   1.731   2.709  15.943 -0.5401  0.2841 -0.1145
  915MPD2    H513403   1.660   2.771  15.905  0.9064  1.2387 -1.2549
  915MPD2    N113404   1.962   2.737  15.512 -0.0526  0.2552 -0.2524
  915MPD2    H713405   2.047   2.719  15.459  1.3011 -1.6870  2.5387
  916MPD2     C13406   0.035   1.000  15.604 -0.2456  0.6981  0.0597
  916MPD2    C113407   4.705   0.901  15.685  0.7943 -0.7917  0.6132
  916MPD2    C213408   0.000   0.772  15.645  0.2671 -0.3425  0.2511
  916MPD2    C313409   0.093   0.742  15.544  0.0646  0.2811  0.0119
  916MPD2    C413410   0.125   0.841  15.449 -0.7562 -0.0844 -0.2734
  916MPD2    C513411   0.108   0.969  15.490  0.0648  0.2431  0.8311
  916MPD2     H13412   4.691   0.689  15.707  1.9763 -0.7346  0.6704
  916MPD2    H113413   0.173   0.831  15.352  0.7967 -0.9742  0.5915
  916MPD2    H213414   0.010   1.104  15.617 -1.1854  0.8261 -2.7800
  916MPD2    H313415   0.130   1.053  15.425 -0.2181 -1.3052 -1.2574
  916MPD2     N13416   0.126   0.604  15.519 -0.0040 -0.0889 -0.0606
  916MPD2    H513417   0.089   0.539  15.588  0.6740 -1.5279 -1.0683
  916MPD2    N113418   4.617   0.939  15.790  0.8666  0.8261 -0.7768
  916MPD2    H713419   4.591   1.037  15.784  2.3740  1.2523 -0.4719
  917MPD2     C13420   0.405   2.793  10.868  0.2773  0.3053 -0.3558
  917MPD2    C113421   0.411   2.877  10.975  0.5862 -1.1644 -0.0837
  917MPD2    C213422   0.472   2.999  10.962 -0.8339 -0.1599  0.1487
  917MPD2    C313423   0.518   3.040  10.840  0.3393 -0.1256 -0.0552
  917MPD2    C413424   0.500   2.959  10.729  0.1730  0.3143 -0.0570
  917MPD2    C513425   0.444   2.837  10.745  0.0512 -0.5764 -0.0062
  917MPD2     H13426   0.500   3.051  11.053  1.0621  0.3609 -0.7343
  917MPD2    H113427   0.555   2.995  10.642 -0.3928 -1.0347 -0.9771
  917MPD2    H213428   0.376   2.690  10.883  1.0592 -0.0322 -1.1973
  917MPD2    H313429   0.445   2.762  10.667  3.8847 -0.9295  0.3787
  917MPD2     N13430   0.582   3.170  10.824  0.2514  0.3743 -0.3565
  917MPD2    H513431   0.634   3.193  10.740 -0.7043 -1.1594 -1.3669
  917MPD2    N113432   0.361   2.827  11.099 -0.0219 -0.3211 -0.0127
  917MPD2    H713433   0.305   2.743  11.095 -0.2760 -0.1481 -0.1109
  918MPD2     C13434   0.551   3.175  12.034  0.4599 -0.5175  0.5883
  918MPD2    C113435   0.630   3.098  11.952 -0.6880  0.4270  0.1441
  918MPD2    C213436   0.578   3.038  11.840 -0.1261  0.2545 -0.2138
  918MPD2    C313437   0.445   3.039  11.806 -0.2124  0.0438  0.2731
  918MPD2    C413438   0.360   3.116  11.882  0.2917 -0.5392  0.0159
  918MPD2    C513439   0.414   3.179  11.995  0.2599  0.5254  0.0449
  918MPD2     H13440   0.631   2.955  11.796 -0.9532 -0.7745  0.7270
  918MPD2    H113441   0.253   3.118  11.864  0.2852  0.2902  0.1574
  918MPD2    H213442   0.584   3.235  12.118 -1.1658 -0.4597  1.1767
  918MPD2    H313443   0.351   3.240  12.060 -1.2533  0.0981 -1.0256
  918MPD2     N13444   0.392   2.960  11.704 -0.5594  0.3317  0.1904
  918MPD2    H513445   0.454   2.912  11.640 -0.7484  0.3601 -0.0165
  918MPD2    N113446   0.759   3.063  11.988 -0.0716 -0.1195  0.3967
  918MPD2    H713447   0.796   2.983  11.936 -0.8545  1.2417 -2.2476
  919MPD2     C13448   0.934   1.854  11.606  0.6227  0.3814 -0.4329
  919MPD2    C113449   0.941   1.737  11.543  0.0197  1.2989 -0.5774
  919MPD2    C213450   0.997   1.737  11.416 -0.0791  0.2856  0.0645
  919MPD2    C313451   1.028   1.853  11.347  0.3906 -1.1067 -0.2051
  919MPD2    C413452   1.019   1.971  11.410  0.2836 -0.2003  0.4198
  919MPD2    C513453   0.979   1.965  11.543 -0.2461  0.6928 -0.1206
  919MPD2     H13454   0.988   1.644  11.362  1.6374  0.7764 -1.0576
  919MPD2    H113455   1.028   2.069  11.365  0.0281  0.4989  1.9040
  919MPD2    H213456   0.907   1.850  11.711  1.7385 -0.7721 -0.1805
  919MPD2    H313457   0.941   2.058  11.583 -1.7309  0.7415 -1.6437
  919MPD2     N13458   1.068   1.853  11.211  0.1205 -0.1206 -0.1676
  919MPD2    H513459   1.077   1.946  11.171 -0.7267  0.1657  0.3136
  919MPD2    N113460   0.878   1.619  11.587 -0.0125 -0.1845  0.2636
  919MPD2    H713461   0.891   1.541  11.524 -2.2842 -1.2059  1.0578
  920MPD2     C13462   0.773   2.304  10.376 -0.1514 -0.1303  0.5171
  920MPD2    C113463   0.713   2.177  10.362  0.2336  0.3287 -0.3538
  920MPD2    C213464   0.760   2.075  10.448 -0.3265 -0.7419 -0.3942
  920MPD2    C313465   0.862   2.102  10.544  0.8164  0.7038  0.3537
  920MPD2    C413466   0.917   2.225  10.549  0.1534  0.2687 -0.5852
  920MPD2    C513467   0.870   2.321  10.467  0.2874  0.1901 -0.2079
  920MPD2     H13468   0.707   1.980  10.441 -2.3503  0.2835  0.9426
  920MPD2    H113469   1.000   2.255  10.613 -2.2526  0.5344  2.4219
  920MPD2    H213470   0.750   2.389  10.312  0.6673 -0.8451 -0.7165
  920MPD2    H313471   0.911   2.420  10.483 -0.8020  0.3132  1.8186
  920MPD2     N13472   0.906   1.998  10.625  0.3329 -0.5846 -0.2634
  920MPD2    H513473   0.867   1.904  10.618  0.4751 -0.7620  1.4295
  920MPD2    N113474   0.614   2.146  10.266 -0.4489 -0.7576 -0.1844
  920MPD2    H713475   0.574   2.053  10.272 -0.6085 -0.5571  1.7878
  921MPD2     C13476   1.629   1.663  16.710 -0.4410 -0.4932  0.9250
  921MPD2    C113477   1.617   1.534  16.665  0.9173  0.4541 -0.5486
  921MPD2    C213478   1.501   1.473  16.664  0.0179  0.2294  0.2661
  921MPD2    C313479   1.386   1.537  16.713 -0.0311 -0.2060  0.1563
  921MPD2    C413480   1.395   1.672  16.744 -0.1394  0.2778 -0.2760
  921MPD2    C513481   1.517   1.730  16.750 -0.7451  0.0407 -0.3730
  921MPD2     H13482   1.493   1.377  16.614  1.5801 -0.1529  0.7565
  921MPD2    H113483   1.302   1.714  16.781  1.2564  0.5352  3.0140
  921MPD2    H213484   1.723   1.716  16.704 -0.7409  0.2701  3.1357
  921MPD2    H313485   1.524   1.833  16.783 -0.3180  0.1168 -0.7007
  921MPD2     N13486   1.263   1.483  16.685 -0.3644 -0.0653 -0.3237
  921MPD2    H513487   1.183   1.543  16.699 -1.8586 -1.8361 -1.2893
  921MPD2    N113488   1.722   1.483  16.593  0.2199 -0.2519 -0.4285
  921MPD2    H713489   1.806   1.540  16.599  1.4312 -2.0408 -0.3741
  922MPD2     C13490   2.541   3.606  16.532 -0.3285 -0.2782 -0.4215
  922MPD2    C113491   2.509   3.706  16.622  1.1147 -0.4127  0.0617
  922MPD2    C213492   2.425   3.680  16.728 -0.2664 -0.3080 -0.3189
  922MPD2    C313493   2.369   3.556  16.746  0.1325  0.0715  0.3369
  922MPD2    C413494   2.399   3.455  16.657 -0.1148 -0.2092 -0.1565
  922MPD2    C513495   2.480   3.481  16.550  0.4522 -0.4639 -0.3462
  922MPD2     H13496   2.416   3.763  16.797 -2.7375 -0.5774 -0.3354
  922MPD2    H113497   2.389   3.349  16.677 -2.5335  0.1476  0.5316
  922MPD2    H213498   2.589   3.622  16.436  0.3672  0.0305 -0.0216
  922MPD2    H313499   2.518   3.400  16.489 -0.9619 -0.5756 -1.0690
  922MPD2     N13500   2.300   3.530  16.863  0.6218 -0.2241  0.7332
  922MPD2    H513501   2.275   3.607  16.924 -1.0900 -1.4442  1.6065
  922MPD2    N113502   2.560   3.834  16.627 -0.1992  0.0492  0.0144
  922MPD2    H713503   2.510   3.899  16.687  1.5288  1.8151 -0.4523
  923MPD2     C13504   3.818   0.642   8.733  0.3305  0.4952  0.0868
  923MPD2    C113505   3.856   0.754   8.806 -0.5512  0.3263  0.2072
  923MPD2    C213506   3.967   0.745   8.885 -0.9119  0.0195 -0.2117
  923MPD2    C313507   4.036   0.625   8.891 -0.2287  0.1663 -0.3334
  923MPD2    C413508   3.989   0.513   8.832  0.3282 -0.7171 -0.4049
  923MPD2    C513509   3.884   0.525   8.745 -0.2501  0.1131 -0.3852
  923MPD2     H13510   4.009   0.830   8.936  4.0734 -1.7668 -1.3216
  923MPD2    H113511   4.039   0.417   8.835  0.8996 -0.3732  0.9165
  923MPD2    H213512   3.737   0.644   8.661 -0.9102  0.0098  1.4676
  923MPD2    H313513   3.857   0.442   8.680 -0.3480  0.2564 -0.5282
  923MPD2     N13514   4.160   0.603   8.967 -0.0037 -0.3725  0.0966
  923MPD2    H513515   4.196   0.509   8.982  0.4314 -0.0313  1.1597
  923MPD2    N113516   3.787   0.875   8.787  0.1790 -0.3841 -0.3736
  923MPD2    H713517   3.719   0.871   8.712  0.0459  0.6599 -0.3117
  924MPD2     C13518   3.965   0.168  15.194  0.1674  0.2378 -1.0246
  924MPD2    C113519   4.001   0.199  15.323 -0.2019  0.0324  0.0821
  924MPD2    C213520   3.941   0.303  15.383 -0.1471 -0.0390  0.5113
  924MPD2    C313521   3.843   0.385  15.324 -0.7947  0.0632 -0.6568
  924MPD2    C413522   3.819   0.355  15.186  0.1273 -0.4522 -0.4058
  924MPD2    C513523   3.875   0.249  15.129  0.7402  0.2751 -1.2865
  924MPD2     H13524   3.961   0.335  15.485 -0.9559 -3.9688  1.8923
  924MPD2    H113525   3.747   0.412  15.127 -0.0815  2.4423  2.6177
  924MPD2    H213526   4.000   0.078  15.147  0.1303  0.2228 -1.0234
  924MPD2    H313527   3.859   0.219  15.026 -1.1325  0.1188 -0.9440
  924MPD2     N13528   3.760   0.487  15.390  0.5014  0.7644  0.0383
  924MPD2    H513529   3.688   0.533  15.335  0.2294 -0.4407 -0.5962
  924MPD2    N113530   4.084   0.103  15.394 -0.2349 -0.7250 -0.4832
  924MPD2    H713531   4.102   0.014  15.348  0.1898 -0.9341  0.0909
  925MPD2     C13532   2.635   1.838  14.628  0.3918 -0.4931 -0.1429
  925MPD2    C113533   2.530   1.899  14.562 -0.0681  0.2068 -0.3253
  925MPD2    C213534   2.452   1.985  14.635 -0.0247  0.0832 -0.1768
  925MPD2    C313535   2.471   2.008  14.767  0.0334  0.1657  0.2569
  925MPD2    C413536   2.586   1.968  14.821  0.5983 -0.6112  0.0904
  925MPD2    C513537   2.672   1.886  14.756  0.7693  0.1275  0.2110
  925MPD2     H13538   2.381   2.037  14.571 -2.3014 -2.5160  0.2598
  925MPD2    H113539   2.607   1.993  14.924 -1.0983  0.0945  0.2605
  925MPD2    H213540   2.702   1.768  14.580 -0.6379  0.0120 -2.3177
  925MPD2    H313541   2.758   1.841  14.803  2.2961  0.8359 -1.9168
  925MPD2     N13542   2.381   2.068  14.847  0.4113  0.6037  0.3568
  925MPD2    H513543   2.401   2.071  14.947  2.0593  1.3382  0.0102
  925MPD2    N113544   2.497   1.873  14.427  0.2682 -0.0711  0.0833
  925MPD2    H713545   2.411   1.907  14.385 -0.7870 -4.5263 -1.4024
  926MPD2     C13546   1.058   0.029  12.827 -0.0893 -1.6297  0.0904
  926MPD2    C113547   1.139   0.102  12.910 -1.0350  0.0794 -0.0723
  926MPD2    C213548   1.222   0.204  12.865  0.7187  1.0892 -0.2138
  926MPD2    C313549   1.232   0.229  12.730 -0.1466 -0.1618  0.2651
  926MPD2    C413550   1.162   0.142  12.649 -0.0399  0.3297 -0.3471
  926MPD2    C513551   1.076   0.045  12.694 -0.3893 -0.1697 -0.2983
  926MPD2     H13552   1.301   0.245  12.927 -0.9430  1.7522  1.4932
  926MPD2    H113553   1.171   0.154  12.541  0.6665 -1.0255 -0.4356
  926MPD2    H213554   0.998   4.670  12.859 -1.2079 -2.0270 -2.9950
  926MPD2    H313555   1.038   4.699  12.621 -3.5199  0.9728  0.2123
  926MPD2     N13556   1.301   0.329  12.655  0.1070  0.2058  0.0262
  926MPD2    H513557   1.276   0.349  12.559  0.1885 -1.2372 -0.3018
  926MPD2    N113558   1.145   0.072  13.052  0.6784 -0.6750 -0.3222
  926MPD2    H713559   1.209   0.125  13.111 -1.1777 -0.5489  1.5693
  927MPD2     C13560   0.931   2.474  17.311 -0.3145 -0.2473 -0.9092
  927MPD2    C113561   0.900   2.603  17.260 -0.6423  0.2494  0.1850
  927MPD2    C213562   0.961   2.657  17.149 -0.1592  0.0984  0.1091
  927MPD2    C313563   1.041   2.569  17.080  0.1487 -0.4539  0.0527
  927MPD2    C413564   1.065   2.439  17.119  0.1251 -0.3881 -0.3324
  927MPD2    C513565   1.014   2.389  17.238  0.5683 -0.4683 -0.1073
  927MPD2     H13566   0.957   2.760  17.115 -0.2637 -0.0507 -0.3228
  927MPD2    H113567   1.131   2.375  17.063  0.0444 -0.1788 -0.6690
  927MPD2    H213568   0.879   2.440  17.399  0.3015  1.6583  0.1945
  927MPD2    H313569   1.021   2.287  17.276  1.3309 -0.9707 -1.5782
  927MPD2     N13570   1.112   2.627  16.972  0.3905 -0.3611 -0.3112
  927MPD2    H513571   1.107   2.726  16.951 -0.9407 -0.4805 -0.5532
  927MPD2    N113572   0.808   2.677  17.336  0.5972 -0.2326 -0.0666
  927MPD2    H713573   0.793   2.636  17.428  2.7361  0.2503  0.4883
  928MPD2     C13574   2.888   1.622   0.102 -0.1018  0.3519  0.2370
  928MPD2    C113575   2.950   1.644   0.227  0.4722 -0.3804  0.2808
  928MPD2    C213576   3.088   1.614   0.244  0.1733 -0.6734  0.0059
  928MPD2    C313577   3.162   1.569   0.143 -0.2574  0.4564  0.5254
  928MPD2    C413578   3.104   1.565   0.019  0.2273  0.1436  0.8932
  928MPD2    C513579   2.965   1.570  17.699  0.0111  0.1400  0.1671
  928MPD2     H13580   3.144   1.625   0.337  0.7013 -0.6402 -0.3188
  928MPD2    H113581   3.153   1.550  17.625  0.2845 -2.8019  1.4120
  928MPD2    H213582   2.781   1.640   0.093 -0.2198 -0.2068  0.5273
  928MPD2    H313583   2.921   1.530  17.608  0.1186 -1.4118  0.7851
  928MPD2     N13584   3.300   1.547   0.142 -0.2676  0.5015  0.1825
  928MPD2    H513585   3.350   1.549   0.054  0.0185  0.4867  0.3464
  928MPD2    N113586   2.877   1.716   0.332 -0.1535 -0.2695 -0.0895
  928MPD2    H713587   2.782   1.751   0.321  0.7441  2.6777  1.3852
  929MPD2     C13588   4.184   0.492  10.141 -0.4645 -0.1210  0.6592
  929MPD2    C113589   4.064   0.431  10.135  0.6983 -0.2209 -0.2971
  929MPD2    C213590   3.986   0.456  10.029  0.2251 -0.7696 -0.2940
  929MPD2    C313591   4.030   0.545   9.930  0.2981 -0.5103  0.9298
  929MPD2    C413592   4.158   0.602   9.938  0.1070 -0.2178 -0.3143
  929MPD2    C513593   4.238   0.567  10.044  0.0293  0.7309 -0.0044
  929MPD2     H13594   3.883   0.421  10.022 -0.5353  1.4418 -0.0778
  929MPD2    H113595   4.188   0.673   9.862 -0.5790 -1.8782 -2.1199
  929MPD2    H213596   4.252   0.458  10.218 -0.4067  0.3585  0.8177
  929MPD2    H313597   4.337   0.609  10.054  1.1466 -1.5447 -1.4908
  929MPD2     N13598   3.953   0.600   9.824  0.2263  0.2910  0.1865
  929MPD2    H513599   4.002   0.664   9.763  1.4206 -1.2777 -0.5146
  929MPD2    N113600   4.028   0.351  10.244  0.4117  0.7941  0.5850
  929MPD2    H713601   4.076   0.351  10.333 -0.3928 -0.4061  1.0157
  930MPD2     C13602   0.693   3.358  13.898 -0.1373 -0.5923  0.4148
  930MPD2    C113603   0.721   3.398  13.773  0.0267 -0.1584 -0.0073
  930MPD2    C213604   0.652   3.342  13.668 -0.1844  0.0611 -0.0845
  930MPD2    C313605   0.563   3.241  13.692  0.3215 -0.1292 -0.0438
  930MPD2    C413606   0.537   3.201  13.813  0.6006  0.2213 -0.0968
  930MPD2    C513607   0.604   3.257  13.924 -0.4494  0.2625  0.3790
  930MPD2     H13608   0.675   3.370  13.566  3.8429  1.2050  1.1223
  930MPD2    H113609   0.462   3.125  13.831  1.1708  0.2486  2.3856
  930MPD2    H213610   0.744   3.404  13.981 -1.5616  1.6092  0.0715
  930MPD2    H313611   0.580   3.229  14.026 -1.3780 -2.6903 -0.6299
  930MPD2     N13612   0.503   3.163  13.579 -0.8628  0.4074  0.5279
  930MPD2    H513613   0.464   3.071  13.595  1.9727 -0.4492  2.4763
  930MPD2    N113614   0.822   3.499  13.760 -0.0390 -0.5953  0.5829
  930MPD2    H713615   0.868   3.527  13.846 -0.2821  0.9280  0.2158
  931MPD2     C13616   0.248   2.838   0.239 -0.2398 -0.0262 -0.2220
  931MPD2    C113617   0.371   2.787   0.210 -0.1590 -0.8823  0.2784
  931MPD2    C213618   0.432   2.701   0.293  0.2539 -0.1204 -0.2202
  931MPD2    C313619   0.374   2.677   0.418 -0.2820 -0.4569  0.1624
  931MPD2    C413620   0.243   2.716   0.440  0.2043 -0.5778 -0.6252
  931MPD2    C513621   0.178   2.803   0.352  0.0336  0.5087  0.0942
  931MPD2     H13622   0.533   2.668   0.273  0.5264  0.0933  0.8061
  931MPD2    H113623   0.188   2.688   0.529  0.5619 -1.1439 -0.5794
  931MPD2    H213624   0.196   2.903   0.168 -2.1282  1.1450  2.2402
  931MPD2    H313625   0.075   2.831   0.371  0.5010  1.4846  1.1937
  931MPD2     N13626   0.428   2.600   0.520  0.2310  0.1270 -0.2702
  931MPD2    H513627   0.373   2.588   0.605 -1.1020  0.1533 -1.1203
  931MPD2    N113628   0.425   2.833   0.088 -0.2114  0.0966  0.1775
  931MPD2    H713629   0.373   2.898   0.030 -0.7750  1.4632  2.1983
  932MPD2     C13630   2.201   1.519  11.005  0.2329 -0.2437 -0.1848
  932MPD2    C113631   2.338   1.491  11.020  0.5409 -0.0470  0.3933
  932MPD2    C213632   2.377   1.365  11.051  0.4616  0.2625  0.0796
  932MPD2    C313633   2.292   1.264  11.066  0.4446  0.2939  0.0850
  932MPD2    C413634   2.155   1.283  11.030  0.0760  0.1438  0.7099
  932MPD2    C513635   2.107   1.413  11.006 -0.2638  0.3651 -0.1839
  932MPD2     H13636   2.483   1.353  11.071  0.0188 -0.2636  2.1091
  932MPD2    H113637   2.080   1.209  11.054  1.9605 -1.6493  1.1408
  932MPD2    H213638   2.157   1.617  10.995  1.5031  0.4478  0.9580
  932MPD2    H313639   2.003   1.434  10.986 -0.1164 -0.3268 -1.6821
  932MPD2     N13640   2.347   1.137  11.091 -0.4630  0.2878  0.4339
  932MPD2    H513641   2.448   1.136  11.104 -0.4602  0.5322  0.4200
  932MPD2    N113642   2.442   1.591  11.004  0.1719  0.6177 -0.2859
  932MPD2    H713643   2.536   1.553  11.004  0.0217  0.2235  0.9267
  933MPD2     C13644   2.293   1.922   0.311 -0.0297  0.6483  0.2041
  933MPD2    C113645   2.346   1.996   0.411 -0.2138 -0.0963  0.3587
  933MPD2    C213646   2.278   2.111   0.451  0.0985 -0.2723 -0.7376
  933MPD2    C313647   2.167   2.155   0.380 -0.7396 -0.2245 -0.3145
  933MPD2    C413648   2.125   2.085   0.267 -0.4534 -1.1437  0.0075
  933MPD2    C513649   2.189   1.968   0.234  0.9905  0.1790  0.3591
  933MPD2     H13650   2.303   2.173   0.537  3.3860 -0.6782 -1.4160
  933MPD2    H113651   2.036   2.109   0.211  0.7982  0.1980 -1.3957
  933MPD2    H213652   2.331   1.822   0.301  1.6366  1.0815  2.1652
  933MPD2    H313653   2.135   1.912   0.159  0.8081 -0.3815  0.9083
  933MPD2     N13654   2.093   2.259   0.444 -0.2985  0.2536  0.7856
  933MPD2    H513655   2.110   2.278   0.542 -1.6647  1.7793  0.7124
  933MPD2    N113656   2.478   1.957   0.457 -0.8599 -0.5217 -0.2077
  933MPD2    H713657   2.507   1.871   0.412 -1.3639  0.2444 -2.0221
  934MPD2     C13658   4.386   4.321   1.360 -0.5969 -0.2783  0.0314
  934MPD2    C113659   4.445   4.229   1.273 -0.1053 -0.4976 -0.0126
  934MPD2    C213660   4.360   4.138   1.206  0.1991 -0.4582 -1.0482
  934MPD2    C313661   4.220   4.139   1.228  0.6199 -0.2636 -0.0637
  934MPD2    C413662   4.168   4.235   1.305  0.2369 -0.2610 -0.2981
  934MPD2    C513663   4.254   4.322   1.373  0.3628  0.1949  0.0161
  934MPD2     H13664   4.402   4.074   1.129 -2.7360 -1.2471 -2.0178
  934MPD2    H113665   4.065   4.224   1.339 -0.4093 -0.3178 -2.2759
  934MPD2    H213666   4.433   4.401   1.417 -0.2240 -1.6892  1.7077
  934MPD2    H313667   4.212   4.392   1.444  2.3951  1.9305 -0.4857
  934MPD2     N13668   4.130   4.047   1.169 -0.2540  0.1002  0.1306
  934MPD2    H513669   4.035   4.051   1.204  0.0192 -0.9076  1.0017
  934MPD2    N113670   4.583   4.209   1.257 -0.0790  0.1047 -0.2215
  934MPD2    H713671   4.611   4.132   1.197 -1.8925  0.2091 -1.2057
  935MPD2     C13672   3.797   3.033   1.004  0.0336  0.0307  0.5183
  935MPD2    C113673   3.886   3.100   0.922  1.0512 -1.0213 -0.2576
  935MPD2    C213674   3.906   3.231   0.931  0.2615  0.1538  0.3929
  935MPD2    C313675   3.844   3.299   1.035 -0.1947  0.1006 -0.4242
  935MPD2    C413676   3.749   3.240   1.110  0.6865  0.3769  0.2581
  935MPD2    C513677   3.729   3.105   1.098  0.3946  0.2841 -0.0686
  935MPD2     H13678   3.963   3.293   0.863 -1.7190  1.3512 -0.1683
  935MPD2    H113679   3.699   3.299   1.186  1.4869 -1.0563  1.8947
  935MPD2    H213680   3.755   2.937   0.977 -0.4651  0.7081 -1.1012
  935MPD2    H313681   3.650   3.057   1.154  0.7110 -0.4028 -0.2167
  935MPD2     N13682   3.868   3.428   1.067 -0.6338  0.3773  0.5842
  935MPD2    H513683   3.807   3.461   1.141 -2.6825  0.2689 -1.0691
  935MPD2    N113684   3.944   3.034   0.810 -0.7645 -0.5143 -0.1734
  935MPD2    H713685   4.008   3.099   0.764 -0.8337  1.2825  2.2496
  936MPD2     C13686   3.121   0.285  12.146  0.2737 -0.3871 -0.4020
  936MPD2    C113687   3.133   0.409  12.207 -0.1427 -1.1606  0.0033
  936MPD2    C213688   3.254   0.465  12.233  0.4026 -0.3908  0.4697
  936MPD2    C313689   3.364   0.383  12.244 -0.1444  0.3073 -0.2556
  936MPD2    C413690   3.349   0.255  12.198 -0.7917 -0.0041 -0.0878
  936MPD2    C513691   3.235   0.210  12.141 -0.1353 -0.2583 -0.0577
  936MPD2     H13692   3.264   0.567  12.266 -1.4433  1.3140 -4.1640
  936MPD2    H113693   3.433   0.187  12.205 -0.2483  0.5880 -0.8131
  936MPD2    H213694   3.024   0.249  12.114  0.0420  0.2054 -0.3728
  936MPD2    H313695   3.243   0.114  12.093  1.6910 -0.5516  0.8338
  936MPD2     N13696   3.486   0.423  12.300 -0.2394 -0.0837  0.2729
  936MPD2    H513697   3.569   0.364  12.300  1.2000  1.9745 -1.8560
  936MPD2    N113698   3.021   0.493  12.238 -0.1020  0.0126  0.0300
  936MPD2    H713699   3.032   0.585  12.279  2.0212 -0.3410  0.2608
  937MPD2     C13700   0.849   0.930  11.387  0.2628  0.6572  0.5305
  937MPD2    C113701   0.924   1.029  11.436  0.1727 -0.5359 -0.1579
  937MPD2    C213702   1.056   1.046  11.383  0.4323  0.0211 -0.3437
  937MPD2    C313703   1.119   0.953  11.302 -0.1142  1.1241 -0.6488
  937MPD2    C413704   1.039   0.846  11.255  0.2384  0.5734 -0.3034
  937MPD2    C513705   0.906   0.844  11.296  0.2625 -0.2956  0.1269
  937MPD2     H13706   1.114   1.134  11.408 -1.1962  0.9296  0.2037
  937MPD2    H113707   1.066   0.762  11.193 -0.4691  1.7141 -2.1586
  937MPD2    H213708   0.743   0.921  11.409 -0.1360  1.8692 -0.8888
  937MPD2    H313709   0.852   0.754  11.269 -1.0982  0.4510  0.3688
  937MPD2     N13710   1.245   0.974  11.261  0.2195  0.1411  0.3180
  937MPD2    H513711   1.302   1.042  11.310 -0.1720 -0.4014  1.5094
  937MPD2    N113712   0.864   1.137  11.502  0.0858 -0.2168 -0.9435
  937MPD2    H713713   0.905   1.229  11.494  1.3655 -0.5304  2.0955
  938MPD2     C13714   3.684   3.237   0.614 -0.1723 -0.7526 -0.4043
  938MPD2    C113715   3.618   3.318   0.708 -0.1863 -1.0090  0.1246
  938MPD2    C213716   3.528   3.265   0.800 -0.0970  0.4883  0.1186
  938MPD2    C313717   3.498   3.130   0.804  0.3404 -0.2277  0.0051
  938MPD2    C413718   3.570   3.055   0.719  0.4976 -0.5697 -0.4493
  938MPD2    C513719   3.658   3.107   0.633  0.1090  0.4307  0.0629
  938MPD2     H13720   3.476   3.335   0.865 -0.9230  1.1693 -1.2683
  938MPD2    H113721   3.545   2.950   0.710  1.8292 -0.7928 -1.4553
  938MPD2    H213722   3.761   3.268   0.544 -0.9974  1.6347 -0.2620
  938MPD2    H313723   3.713   3.035   0.572 -0.9368  0.7872 -1.3044
  938MPD2     N13724   3.403   3.068   0.886 -0.1001 -0.2137 -0.2711
  938MPD2    H513725   3.399   2.969   0.866  1.3345 -0.4622  0.6653
  938MPD2    N113726   3.640   3.458   0.714  0.1204  0.4363 -0.0971
  938MPD2    H713727   3.590   3.510   0.785 -0.2401  0.9864 -0.7556
  939MPD2     C13728   4.160   4.635   0.597 -0.3162  0.5119  0.8636
  939MPD2    C113729   4.260   4.710   0.651 -0.3734 -0.7822  0.4777
  939MPD2    C213730   4.389   4.673   0.643 -0.1307 -0.2557 -0.3498
  939MPD2    C313731   4.426   4.562   0.571 -0.2709 -0.2089 -0.2638
  939MPD2    C413732   4.327   4.477   0.533 -0.7964  0.3536  0.5765
  939MPD2    C513733   4.198   4.511   0.546 -0.2609  0.1100  0.1625
  939MPD2     H13734   4.470   0.012   0.675  0.9669 -1.9290  0.1929
  939MPD2    H113735   4.334   4.376   0.495 -0.3520  0.6069 -0.0112
  939MPD2    H213736   4.055   4.662   0.595  0.3157  2.8754 -0.9268
  939MPD2    H313737   4.128   4.436   0.510 -0.8471  1.0198 -0.6136
  939MPD2     N13738   4.563   4.533   0.548 -0.5636  0.4121  0.4121
  939MPD2    H513739   4.632   4.601   0.579 -2.5719  3.1294 -1.1146
  939MPD2    N113740   4.223   0.098   0.723 -0.1080 -0.0915  0.2327
  939MPD2    H713741   4.125   0.125   0.723 -0.4491 -1.3203  0.5001
  940MPD2     C13742   3.884   4.447  13.421  0.0585  0.0952  0.3069
  940MPD2    C113743   3.936   4.563  13.471  0.0498  0.4107  0.2416
  940MPD2    C213744   3.940   4.674  13.388 -0.0373  0.2037  0.1573
  940MPD2    C313745   3.896   4.662  13.254 -0.4248  0.2203  0.3250
  940MPD2    C413746   3.841   4.548  13.209  0.4187  0.6566  0.8409
  940MPD2    C513747   3.827   4.440  13.297 -0.0479 -0.3372  0.7405
  940MPD2     H13748   3.986   0.040  13.426  0.0348 -0.0703  0.7339
  940MPD2    H113749   3.817   4.532  13.104 -2.7899 -1.0636  1.8485
  940MPD2    H213750   3.867   4.352  13.469 -0.0167  0.8366  1.7407
  940MPD2    H313751   3.797   4.343  13.259 -1.4320 -0.3889  1.9798
  940MPD2     N13752   3.906   0.037  13.163  0.1287 -0.8025 -0.5718
  940MPD2    H513753   3.869   0.012  13.072 -0.4635 -0.5230 -0.4075
  940MPD2    N113754   3.992   4.574  13.598  0.0366 -0.0929 -0.6179
  940MPD2    H713755   4.044   4.658  13.617 -2.9501  1.6772 -0.2534
  941MPD2     C13756   2.950   3.856   9.181 -0.4103  0.2834 -0.5216
  941MPD2    C113757   3.053   3.803   9.258 -0.1331 -0.2075 -0.5273
  941MPD2    C213758   3.028   3.698   9.340 -0.6532  0.4864  0.1315
  941MPD2    C313759   2.905   3.641   9.356  0.3077 -0.0840  0.6870
  941MPD2    C413760   2.802   3.687   9.278  0.4499 -0.4997  0.3935
  941MPD2    C513761   2.825   3.799   9.194 -0.2417  0.9666  0.0639
  941MPD2     H13762   3.109   3.658   9.400  1.0686  1.4335 -1.5553
  941MPD2    H113763   2.699   3.652   9.282 -0.6673  2.7903  0.2283
  941MPD2    H213764   2.968   3.934   9.109  2.7650  2.0325  2.2002
  941MPD2    H313765   2.748   3.832   9.125  0.0698 -1.9569 -1.6782
  941MPD2     N13766   2.881   3.534   9.437  0.8233  0.1566 -0.0038
  941MPD2    H513767   2.781   3.517   9.445  0.6685  1.5221  0.9446
  941MPD2    N113768   3.187   3.838   9.251 -0.3635  0.2379  0.5110
  941MPD2    H713769   3.250   3.775   9.300 -0.7498  1.1192  2.1433
  942MPD2     C13770   2.761   1.052   9.383 -0.3550 -0.2027 -0.3951
  942MPD2    C113771   2.804   1.140   9.286  0.0114  0.3206  0.4485
  942MPD2    C213772   2.915   1.113   9.219  0.5870 -0.3430 -0.4954
  942MPD2    C313773   2.976   0.989   9.227  0.5129 -0.3058  0.3558
  942MPD2    C413774   2.933   0.901   9.318 -0.3694  0.1460  0.0250
  942MPD2    C513775   2.826   0.934   9.404  0.3478 -0.1278  0.4085
  942MPD2     H13776   2.945   1.194   9.153 -0.6366  0.3151 -0.2334
  942MPD2    H113777   2.990   0.808   9.321 -1.1277 -0.3387 -0.5175
  942MPD2    H213778   2.678   1.075   9.450  0.0769 -0.1206  0.1126
  942MPD2    H313779   2.794   0.855   9.471 -1.0228 -0.4126 -0.5866
  942MPD2     N13780   3.083   0.955   9.151  1.0756  0.0963  0.1170
  942MPD2    H513781   3.134   0.873   9.183  1.1128 -0.2682 -0.9078
  942MPD2    N113782   2.741   1.265   9.268  0.2208 -0.5873  0.7106
  942MPD2    H713783   2.798   1.328   9.212  0.1594  0.6622  2.0383
  943MPD2     C13784   2.066   3.362  10.401 -0.2713 -0.7545 -0.3186
  943MPD2    C113785   1.947   3.296  10.420 -0.1059 -0.3419  0.2178
  943MPD2    C213786   1.868   3.322  10.537  0.5836 -0.1762 -0.2967
  943MPD2    C313787   1.911   3.413  10.627 -0.2641 -0.1268 -0.0772
  943MPD2    C413788   2.028   3.481  10.610  0.4576 -0.0286  0.1448
  943MPD2    C513789   2.097   3.457  10.493 -0.3448  0.1187  0.4085
  943MPD2     H13790   1.772   3.275  10.556  0.3424  0.3632 -0.1822
  943MPD2    H113791   2.059   3.555  10.683  2.3378 -1.5774  0.9208
  943MPD2    H213792   2.138   3.335  10.324 -2.6682  2.7510 -3.8404
  943MPD2    H313793   2.184   3.519  10.477 -0.7098  0.5531  0.0920
  943MPD2     N13794   1.829   3.430  10.746  0.2419 -0.2887 -0.1845
  943MPD2    H513795   1.737   3.392  10.730 -0.1506  1.6848 -2.6503
  943MPD2    N113796   1.909   3.202  10.317 -0.0558 -0.7056 -0.3493
  943MPD2    H713797   1.974   3.167  10.248  0.4429 -1.1944  0.3730
  944MPD2     C13798   1.507   2.144  10.819  0.1182  0.2494 -0.5626
  944MPD2    C113799   1.581   2.252  10.768 -0.8128  0.0413  1.2184
  944MPD2    C213800   1.635   2.344  10.858  0.3888  0.0897 -0.2078
  944MPD2    C313801   1.622   2.327  10.995 -0.1959 -0.1638  0.6069
  944MPD2    C413802   1.571   2.208  11.040  0.1794  0.2368 -0.4255
  944MPD2    C513803   1.506   2.119  10.957  0.1142  0.0898 -0.8559
  944MPD2     H13804   1.676   2.437  10.819 -2.7434  0.9862 -1.4096
  944MPD2    H113805   1.576   2.183  11.146  1.3141 -2.3813 -1.0981
  944MPD2    H213806   1.476   2.062  10.755  3.3058 -0.4807 -1.1634
  944MPD2    H313807   1.467   2.032  11.008  1.7901 -0.9075 -1.2791
  944MPD2     N13808   1.658   2.432  11.078 -0.0472  0.2323 -0.2983
  944MPD2    H513809   1.686   2.516  11.027  1.1043  0.2136  0.3104
  944MPD2    N113810   1.602   2.254  10.634 -0.3145  0.4077 -0.3858
  944MPD2    H713811   1.562   2.179  10.578  0.0801 -0.2957  0.2719
    1TCq1    O113812   4.181   3.403  13.984 -0.1742 -0.1675  0.4113
    1TCq1    C113813   4.275   3.458  14.060 -0.2332 -0.1982 -0.7539
    1TCq1    O213814   4.373   3.403  14.112  0.5582  0.0507 -0.3364
    1TCq1    C213815   4.262   3.603  14.056  0.2427 -0.1747  0.1319
    1TCq1    C313816   4.192   3.670  13.957  0.8589 -0.7157 -1.1661
    1TCq1    C413817   4.188   3.804  13.967  0.3418 -0.6751  0.2661
    1TCq1    C513818   4.258   3.874  14.059 -0.0979  0.8938  0.4962
    1TCq1    C613819   4.338   3.805  14.147  0.5128 -0.4431  0.4102
    1TCq1    C713820   4.336   3.669  14.153 -0.0079  0.3185  0.3353
    1TCq1    C813821   4.407   3.866  14.265  0.1843 -0.6357 -0.1431
    1TCq1    O413822   4.438   3.794  14.363 -0.0165  0.1842 -0.2150
    1TCq1    C913823   4.119   3.876  13.858 -0.1932  0.0741 -0.4843
    1TCq1    O513824   4.035   3.807  13.787 -0.0537  0.6871 -0.1421
    1TCq1    O613825   4.102   4.000  13.880  0.1622  0.1255 -0.1161
    1TCq1    H113826   4.099   3.457  13.981  0.5002  1.0457  4.0121
    1TCq1    H213827   4.144   3.622  13.873 -0.5476 -1.4536  0.0530
    1TCq1    H313828   4.233   3.979  14.055 -0.5139  0.8340  1.5838
    1TCq1    H413829   4.390   3.614  14.229  0.1107  0.5041  0.3877
    2MPD2     C13830   4.668   4.258  14.451  0.0825 -0.1665  0.4318
    2MPD2    C113831   4.594   4.305  14.348  0.6228  0.1492  0.1531
    2MPD2    C213832   4.516   4.215  14.277  0.2951 -0.2909  0.3530
    2MPD2    C313833   4.501   4.086  14.320 -0.3580 -0.4195  0.3843
    2MPD2    C413834   4.564   4.046  14.436  1.0420 -0.4409  0.3877
    2MPD2    C513835   4.643   4.132  14.501  0.0944 -0.2324  0.4241
    2MPD2     H13836   4.458   4.245  14.191 -0.4176 -1.3422  0.4607
    2MPD2    H113837   4.554   3.949  14.483 -0.0381 -0.2970  0.4411
    2MPD2    H213838   0.004   4.322  14.513  1.2993  0.1612 -1.1240
    2MPD2    H313839   4.684   4.091  14.592 -3.0867 -2.2245  0.9656
    2MPD2     N13840   4.425   3.997  14.245  0.5781  0.0170 -0.0704
    2MPD2    H513841   4.393   4.028  14.153 -1.3830 -1.0189  0.2579
    2MPD2    N113842   4.597   4.441  14.333 -0.1194 -0.2075 -0.0748
    2MPD2    H713843   4.669   4.494  14.380 -1.8604  1.8769  0.2690
    3TMC2    C113844   4.557   4.649  14.223  0.7810  0.1172  0.4330
    3TMC2    C213845   4.563   4.715  14.343  0.6002  0.1126 -0.9331
    3TMC2    C313846   4.574   0.124  14.342  0.7246  0.5347  0.4503
    3TMC2    C413847   4.527   4.716  14.104  0.2215 -0.3288 -0.8034
    3TMC2    C513848   4.531   0.126  14.114 -0.4622  0.3865 -0.7855
    3TMC2    C613849   4.561   0.196  14.231 -0.1662 -0.6438  0.3402
    3TMC2     C13850   4.528   4.507  14.229  0.0231 -0.2083  0.7717
    3TMC2     O13851   4.447   4.466  14.146 -0.0960  0.5551 -0.0563
    3TMC2     H13852   4.554   4.661  14.437  3.1012  0.6104 -0.4061
    3TMC2    H113853   4.501   4.664  14.013 -0.2080 -2.5382  0.5833
    3TMC2    H213854   4.586   0.301  14.236 -2.2745 -0.1002 -0.7257
    3TMC2    C713855   4.540   0.212  13.998 -0.3763  0.4589  0.0201
    3TMC2    C813856   4.621   0.194  14.463 -0.4047  0.5624 -1.1525
    3TMC2    O113857   4.524   0.333  14.011  0.4251 -0.1985  0.4934
    3TMC2    O213858   4.611   0.317  14.478  0.3147  0.0820  0.1070
    3TMC2    O513859   4.706   0.118  14.534  0.4264 -0.7232 -0.1934
    3TMC2    H513860   4.724   0.033  14.489  0.7344 -0.9800  0.4068
    4MPD2     C13861   3.585   0.890  13.344  0.1856  0.2101 -0.2207
    4MPD2    C113862   3.656   0.838  13.239  0.0518  0.5974 -0.1497
    4MPD2    C213863   3.790   0.810  13.260 -0.0707  0.4686 -0.2146
    4MPD2    C313864   3.847   0.834  13.381 -0.1228  0.4532  0.0425
    4MPD2    C413865   3.777   0.903  13.479 -0.0115  0.0308  0.3672
    4MPD2    C513866   3.643   0.917  13.466 -0.0428  0.2037 -0.1082
    4MPD2     H13867   3.869   0.778  13.192 -0.4767 -0.3334 -0.3065
    4MPD2    H113868   3.833   0.935  13.566 -1.8419  2.6012  0.5988
    4MPD2    H213869   3.478   0.905  13.331  0.0123 -0.9145 -0.0637
    4MPD2    H313870   3.577   0.952  13.544 -0.2694 -0.0428 -0.1879
    4MPD2     N13871   3.989   0.817  13.393  0.4261  0.0075  0.5737
    4MPD2    H513872   4.040   0.776  13.316  0.9302 -0.0683  0.9478
    4MPD2    N113873   3.589   0.826  13.120  0.6498 -0.1355 -0.8368
    4MPD2    H713874   3.489   0.845  13.127  0.9215  0.1836  2.2542
    5TCq2    C113875   4.064   0.836  13.507 -0.2794 -0.7161 -0.1745
    5TCq2    O213876   4.032   0.844  13.626 -0.7376  0.5482 -0.2011
    5TCq2    C213877   4.207   0.834  13.480 -0.9699 -0.3561 -0.2977
    5TCq2    C313878   4.258   0.842  13.350  0.8220 -0.4867  0.4766
    5TCq2    C413879   4.376   0.781  13.325 -0.7172 -0.0941  0.3148
    5TCq2    C513880   4.444   0.720  13.424 -1.0450 -0.0564  0.0422
    5TCq2    C613881   4.397   0.711  13.553  0.7032  0.4772  0.3905
    5TCq2    C713882   4.279   0.778  13.583  0.7616 -0.2746 -0.5559
    5TCq2    C813883   4.419   0.580  13.620  0.2212  0.3194  0.1045
    5TCq2    O413884   4.354   0.545  13.718  0.4548  0.2500 -0.1195
    5TCq2    C913885   4.444   0.791  13.194  0.0198 -0.1695  0.5628
    5TCq2    O513886   4.396   0.876  13.116 -0.3205  0.2168  0.2126
    5TCq2    O613887   4.496   0.684  13.157  0.4659  0.0640  0.5561
    5TCq2    H213888   4.199   0.880  13.267  0.4900  1.5412  1.6500
    5TCq2    H313889   4.542   0.687  13.392 -0.7070  2.1557 -1.1257
    5TCq2    H413890   4.238   0.780  13.683  0.7784  1.5376 -0.5804
    6MPD1     C13891   2.576   2.050  12.972  0.5834  0.1811  0.8841
    6MPD1    C113892   2.630   2.050  13.099 -0.1311  0.0726 -0.2853
    6MPD1    C213893   2.765   2.003  13.107  0.1321  0.1777 -0.7818
    6MPD1    C313894   2.826   1.954  12.997 -0.6002  0.0854  0.1643
    6MPD1    C413895   2.772   1.967  12.871  0.8377  0.1101 -0.0199
    6MPD1    C513896   2.645   2.014  12.860  0.5093 -0.4494  0.9773
    6MPD1     H13897   2.823   1.997  13.198  0.7733  1.2406 -1.1198
    6MPD1    H113898   2.832   1.941  12.785  0.9046 -0.6836  0.2674
    6MPD1    H213899   2.484   2.105  12.957 -0.4594 -2.3499 -2.0344
    6MPD1    H313900   2.588   2.021  12.768  0.3575  2.5056  1.2879
    6MPD1     N13901   2.945   1.881  13.000 -0.1063  0.4689  0.4880
    6MPD1    H513902   2.998   1.863  12.915 -0.0249 -0.9562  0.8289
    6MPD1    N113903   2.555   2.112  13.204 -0.2834 -0.1488 -0.1851
    6MPD1    H613904   2.585   2.085  13.297  0.0560 -0.0885 -0.2734
    6MPD1    H713905   2.454   2.106  13.197 -0.3757  0.6431  0.5102
    7MPD2     C13906   3.006   1.344  13.143 -0.4028 -0.4682  0.1003
    7MPD2    C113907   3.117   1.284  13.208  0.2252 -0.2695  0.6193
    7MPD2    C213908   3.148   1.156  13.155  0.5583  0.2179 -0.5839
    7MPD2    C313909   3.076   1.095  13.051 -0.1177  0.2096 -0.3869
    7MPD2    C413910   2.965   1.159  13.003  0.3223 -0.8194  0.3038
    7MPD2    C513911   2.932   1.282  13.047 -0.1842 -0.4526 -0.3361
    7MPD2     H13912   3.241   1.115  13.193 -0.8836 -1.6096  0.9694
    7MPD2    H113913   2.908   1.116  12.922 -0.3043 -1.5375  1.1295
    7MPD2    H213914   2.971   1.438  13.183  1.1211 -0.8005  2.2503
    7MPD2    H313915   2.848   1.336  13.005 -0.3311 -1.9684 -1.9942
    7MPD2     N13916   3.123   0.976  12.987 -0.8712 -0.5361  0.2397
    7MPD2    H513917   3.085   0.954  12.895 -0.2947 -0.7588  0.0540
    7MPD2    N113918   3.219   1.344  13.291  0.3617  0.0207  0.4300
    7MPD2    H713919   3.268   1.284  13.358  2.4347 -2.2519 -3.1232
    8TMC3    C113920   3.290   0.820  12.932 -0.2822 -0.3668  0.4734
    8TMC3    C213921   3.397   0.758  12.984  0.0279 -0.0227 -0.0455
    8TMC3    C313922   3.520   0.768  12.914  0.9067  0.3213 -0.0564
    8TMC3    C413923   3.297   0.894  12.813 -0.2946  0.4591 -0.2855
    8TMC3    C513924   3.419   0.901  12.748  0.0655  0.3297  0.0090
    8TMC3    C613925   3.530   0.833  12.795 -0.3632  0.0819  0.4621
    8TMC3     C13926   3.229   0.899  13.032 -0.0314  0.0063  0.0296
    8TMC3     O13927   3.284   0.906  13.139 -0.7045  0.0411 -0.1805
    8TMC3     H13928   3.379   0.704  13.077  1.8922  1.5683  1.2396
    8TMC3    H113929   3.211   0.951  12.781 -0.7849 -0.2425 -0.2199
    8TMC3    H213930   3.630   0.842  12.753 -0.5296 -1.0636 -0.1607
    8TMC3    C713931   3.428   0.944  12.608  0.9749 -0.2269 -0.0853
    8TMC3    C813932   3.638   0.779  12.999 -0.8375 -0.1472 -0.4472
    8TMC3    O113933   3.532   0.912  12.548  0.0419  0.1615 -0.6260
    8TMC3    O213934   3.754   0.775  12.958 -0.5389 -0.4170 -0.0666
    9TMC3    C113935   3.119   1.750  13.088 -0.5082 -0.0286  0.4052
    9TMC3    C213936   3.130   1.698  12.961  0.3543  0.2208  0.0413
    9TMC3    C313937   3.191   1.571  12.945 -0.4367  0.2236  0.1596
    9TMC3    C413938   3.167   1.683  13.198 -0.2323 -0.4212 -0.1180
    9TMC3    C513939   3.217   1.558  13.177 -0.0482 -0.2867  0.1616
    9TMC3    C613940   3.245   1.507  13.051 -0.6577  0.5969 -0.2461
    9TMC3     C13941   2.999   1.820  13.113 -0.0134  0.3847 -0.5710
    9TMC3     O13942   2.946   1.810  13.219 -0.6130 -0.4064  1.1787
    9TMC3     H13943   3.103   1.757  12.874 -0.3055 -0.1827 -0.0227
    9TMC3    H113944   3.160   1.724  13.298  0.7222 -0.8708  0.1328
    9TMC3    H213945   3.295   1.411  13.046  0.8587  1.3107  1.5233
    9TMC3    C713946   3.253   1.477  13.292  0.0322  0.0307 -0.2994
    9TMC3    C813947   3.149   1.498  12.829 -0.0043 -0.0837 -0.7390
    9TMC3    O113948   3.323   1.528  13.382 -0.6144  0.2717 -0.5164
    9TMC3    O213949   3.073   1.563  12.759 -0.2329  0.5559  0.9859
   10MPD2     C13950   3.102   1.109  12.514  0.5733  0.8120 -0.8467
   10MPD2    C113951   3.216   1.093  12.587  0.4858  0.1763 -0.1550
   10MPD2    C213952   3.250   1.180  12.688  0.5112 -0.5145  0.1187
   10MPD2    C313953   3.167   1.289  12.709 -0.3234  0.2105 -0.2546
   10MPD2    C413954   3.061   1.313  12.626  0.0781 -0.0358 -0.4113
   10MPD2    C513955   3.024   1.217  12.532 -0.0660 -0.7249 -0.1749
   10MPD2     H13956   3.337   1.171  12.752  0.0462  0.9632  0.9633
   10MPD2    H113957   2.988   1.392  12.640  0.1803  0.0265 -0.2314
   10MPD2    H213958   3.074   1.036  12.439 -0.0750  0.8504 -0.6411
   10MPD2    H313959   2.925   1.229  12.491 -0.0751  0.2457  0.1358
   10MPD2     N13960   3.202   1.375  12.819  0.0679 -0.1776  0.0652
   10MPD2    H513961   3.271   1.339  12.883  0.5212  0.6518  0.0471
   10MPD2    N113962   3.304   0.982  12.553 -0.2298  0.3408 -0.5418
   10MPD2    H713963   3.292   0.941  12.461  0.9606 -0.7890 -0.2053
   11MPD2     C13964   4.648   0.118  13.653  0.1826  0.2975 -0.2637
   11MPD2    C113965   4.583   0.191  13.752 -0.2831  0.0825 -1.1316
   11MPD2    C213966   4.532   0.314  13.715  0.1733 -0.2009 -0.3791
   11MPD2    C313967   4.551   0.367  13.585  0.3999 -0.0089 -1.0108
   11MPD2    C413968   4.620   0.291  13.492  0.8351 -0.7233 -0.5068
   11MPD2    C513969   4.665   0.172  13.531 -0.9514 -0.9609 -0.1063
   11MPD2     H13970   4.494   0.384  13.789 -0.7809  0.4145 -1.4424
   11MPD2    H113971   4.657   0.330  13.398  2.3660 -1.6754 -0.3057
   11MPD2    H213972   4.688   0.020  13.679 -0.3682  1.0302  3.3480
   11MPD2    H313973   4.721   0.119  13.455 -1.9209 -1.4616 -0.4763
   11MPD2     N13974   4.512   0.498  13.552 -0.1771  0.1368 -0.0932
   11MPD2    H513975   4.551   0.532  13.465  1.1099 -0.1502  0.3623
   11MPD2    N113976   4.581   0.144  13.891 -0.0851  0.0180  0.0893
   11MPD2    H713977   4.588   0.043  13.902  2.3617  0.0190 -1.3062
    1MPD1     C13978   2.645   1.425  16.527  0.2765 -0.7227 -0.8398
    1MPD1    C113979   2.752   1.513  16.518 -0.2912  0.2019 -0.6671
    1MPD1    C213980   2.731   1.647  16.565  0.4074 -0.0625 -0.0018
    1MPD1    C313981   2.611   1.702  16.605 -0.7931  0.6749 -0.7612
    1MPD1    C413982   2.504   1.610  16.610  0.7067  0.6888  0.2146
    1MPD1    C513983   2.524   1.474  16.571 -0.0323  0.1313 -0.9134
    1MPD1     H13984   2.818   1.712  16.569 -0.4973  1.1324  0.2945
    1MPD1    H113985   2.408   1.650  16.640  2.0914  2.3332  2.4354
    1MPD1    H213986   2.648   1.319  16.505  0.2456 -1.2020  1.4304
    1MPD1    H313987   2.438   1.409  16.559 -0.0855 -0.1684  1.2270
    1MPD1     N13988   2.594   1.835  16.651 -0.0962 -0.2010 -0.3794
    1MPD1    H513989   2.496   1.862  16.658  0.0958  0.2554  0.4604
    1MPD1    N113990   2.882   1.463  16.496  0.1734  0.2889 -0.0461
    1MPD1    H613991   2.939   1.538  16.458 -2.0427  1.1631 -1.6034
    1MPD1    H713992   2.887   1.387  16.429 -0.3641 -1.3827  1.8190
    2MPD1     C13993   2.069   2.395  16.230 -0.3447 -0.4086  0.2959
    2MPD1    C113994   2.038   2.444  16.359  0.0412  0.3627  0.0600
    2MPD1    C213995   2.120   2.418  16.465  0.3075 -0.0031 -0.2510
    2MPD1    C313996   2.218   2.318  16.446  0.1751  0.6615  0.2892
    2MPD1    C413997   2.238   2.266  16.319 -0.1507  0.4288  0.8855
    2MPD1    C513998   2.169   2.304  16.213  0.6641 -0.2365  0.7063
    2MPD1     H13999   2.107   2.468  16.560  1.1206 -1.7061  0.7608
    2MPD1    H114000   2.318   2.196  16.299 -0.2039  0.2246  1.3829
    2MPD1    H214001   1.995   2.420  16.155 -1.6231 -1.1571  1.3070
    2MPD1    H314002   2.178   2.254  16.117  0.2004 -1.0029  1.0640
    2MPD1     N14003   2.290   2.284  16.559 -0.3528  0.0218  0.3259
    2MPD1    H514004   2.278   2.342  16.642 -1.1186  0.8970 -0.4015
    2MPD1    N114005   1.926   2.529  16.374 -0.6715  0.6306  0.3098
    2MPD1    H614006   1.881   2.519  16.465 -1.0328 -1.5235 -0.1029
    2MPD1    H714007   1.863   2.513  16.296 -3.3327 -0.3960  2.6939
    3TMC3    C114008   2.457   2.190  16.675  0.2186  0.6364  0.2782
    3TMC3    C214009   2.544   2.293  16.659  0.3483  0.5255 -0.0055
    3TMC3    C314010   2.686   2.268  16.669 -0.1527 -0.5811  0.1904
    3TMC3    C414011   2.510   2.069  16.713 -0.1079  0.1762  0.2974
    3TMC3    C514012   2.643   2.047  16.720  0.4526 -0.4086 -0.4019
    3TMC3    C614013   2.737   2.144  16.699  0.3387  0.6434 -0.2658
    3TMC3     C14014   2.375   2.182  16.565 -0.0644 -0.0125  0.3419
    3TMC3     O14015   2.417   2.107  16.479  0.3847  0.2709  0.0987
    3TMC3     H14016   2.508   2.384  16.611 -1.9431 -0.0345  0.6683
    3TMC3    H114017   2.444   1.987  16.739 -0.3790  0.9364  2.0003
    3TMC3    H214018   2.844   2.128  16.704  0.1741 -0.7868 -1.1215
    3TMC3    C714019   2.694   1.924  16.679  0.6233 -1.1493  0.1438
    3TMC3    C814020   2.788   2.358  16.627  0.0526  1.0232 -0.0337
    3TMC3    O114021   2.814   1.901  16.680  0.2295 -0.2795  0.2284
    3TMC3    O214022   2.905   2.325  16.613 -0.2215 -0.3142  0.1396
    4MPD1     C14023   2.943   2.716  16.305  0.2249  0.0187 -0.1639
    4MPD1    C114024   2.844   2.769  16.381 -0.4110  0.4494  0.1825
    4MPD1    C214025   2.768   2.687  16.466  0.0640  0.4655 -0.2427
    4MPD1    C314026   2.804   2.557  16.481  0.2945 -0.3261  0.0149
    4MPD1    C414027   2.898   2.502  16.397  0.4913 -0.0818 -0.9278
    4MPD1    C514028   2.972   2.583  16.321 -0.1813 -0.5235  0.1241
    4MPD1     H14029   2.697   2.732  16.534 -0.9227  0.9191 -1.5756
    4MPD1    H114030   2.945   2.405  16.398  0.0155 -0.2984  0.5021
    4MPD1    H214031   2.995   2.762  16.222  0.3372  0.1245 -0.0340
    4MPD1    H314032   3.046   2.527  16.265  0.4136  0.5432 -0.1650
    4MPD1     N14033   2.738   2.478  16.581  0.1425 -0.2252 -0.3751
    4MPD1    H514034   2.659   2.517  16.630  1.8741  2.8381 -0.0201
    4MPD1    N114035   2.796   2.904  16.359 -0.0482  0.9312  0.1034
    4MPD1    H614036   2.759   2.939  16.446 -0.8303  2.3384 -0.7947
    4MPD1    H714037   2.864   2.968  16.319  1.9452 -0.3520  1.4771
    1TCq1    O114038   3.088   1.389  11.326  0.6836  0.1698 -0.7867
    1TCq1    C114039   3.032   1.385  11.446 -0.0555 -0.4387  0.4091
    1TCq1    O214040   3.088   1.373  11.553  0.0426  0.2980  0.2759
    1TCq1    C214041   2.906   1.311  11.418  0.3064  0.0734 -0.5481
    1TCq1    C314042   2.880   1.267  11.294 -0.2606  0.0229  0.6084
    1TCq1    C414043   2.754   1.255  11.250  0.0908  0.1095 -0.6697
    1TCq1    C514044   2.662   1.243  11.348 -0.4418  0.3348 -0.2516
    1TCq1    C614045   2.685   1.285  11.476  0.6645  0.0600 -0.9564
    1TCq1    C714046   2.808   1.336  11.512 -0.5227 -0.4952 -0.1959
    1TCq1    C814047   2.567   1.316  11.561 -0.1938  0.1254  0.9806
    1TCq1    O414048   2.460   1.321  11.504  0.0132  0.3018 -0.0507
    1TCq1    C914049   2.725   1.196  11.115  0.1319  0.6409  0.0018
    1TCq1    O514050   2.627   1.117  11.111  0.3660  0.0821 -0.1332
    1TCq1    O614051   2.814   1.208  11.027  0.4115  0.3091 -0.2416
    1TCq1    H114052   3.030   1.421  11.254  0.1854 -0.3084 -0.6002
    1TCq1    H214053   2.957   1.253  11.218 -0.3018  0.5097  0.4806
    1TCq1    H314054   2.563   1.215  11.315  0.2278 -1.6360 -0.5832
    1TCq1    H414055   2.834   1.387  11.604  0.1408  1.0767 -1.2610
    2MPD1     C14056   2.342   1.473  12.002 -0.2307  0.1400 -0.6975
    2MPD1    C114057   2.477   1.502  12.002  0.0834 -0.6525  0.4422
    2MPD1    C214058   2.556   1.451  11.901  0.5288  0.0996 -0.3895
    2MPD1    C314059   2.510   1.392  11.791 -0.4335  0.1822  0.4214
    2MPD1    C414060   2.376   1.368  11.784  0.1368  0.0315 -0.6896
    2MPD1    C514061   2.294   1.404  11.894  0.7518 -0.1635 -0.4051
    2MPD1     H14062   2.665   1.451  11.905  0.4791 -1.0807  0.9129
    2MPD1    H114063   2.327   1.326  11.697  0.5315 -1.6296 -0.0978
    2MPD1    H214064   2.279   1.508  12.083 -0.0586  0.8229 -0.8623
    2MPD1    H314065   2.188   1.381  11.896  1.0125 -1.3981 -0.8793
    2MPD1     N14066   2.601   1.360  11.688  0.5823 -0.0998  0.6158
    2MPD1    H514067   2.697   1.383  11.710  0.6348  0.1142  0.1650
    2MPD1    N114068   2.536   1.558  12.118 -0.3418  0.3988  0.1115
    2MPD1    H614069   2.625   1.607  12.112 -0.7534  1.2238  0.7509
    2MPD1    H714070   2.473   1.617  12.171 -0.6509 -2.0751  2.5394
    1TCq1    O114071   3.934   0.375   8.118 -0.3949 -0.5060  0.1632
    1TCq1    C114072   4.024   0.466   8.129  0.0420 -0.5748 -0.2480
    1TCq1    O214073   4.087   0.527   8.045 -0.3925  0.2950 -0.5851
    1TCq1    C214074   4.038   0.506   8.269 -0.4949 -0.6141 -0.7317
    1TCq1    C314075   4.060   0.412   8.363  0.6172 -0.4316  0.3239
    1TCq1    C414076   4.098   0.459   8.486  0.3186 -0.1351  0.0910
    1TCq1    C514077   4.116   0.592   8.506 -0.0202 -0.2986  0.1720
    1TCq1    C614078   4.085   0.686   8.403 -0.6093 -0.1210  0.2323
    1TCq1    C714079   4.048   0.639   8.288  0.3829  0.2815  1.0181
    1TCq1    C814080   4.057   0.825   8.428 -0.8470 -0.2081 -0.0653
    1TCq1    O414081   4.019   0.886   8.331 -0.2888 -0.4686 -0.4178
    1TCq1    C914082   4.160   0.365   8.572 -0.1514 -0.4037 -0.4116
    1TCq1    O514083   4.122   0.246   8.553 -0.2930  0.0869  0.2971
    1TCq1    O614084   4.247   0.400   8.660  0.0974  0.4555  0.2351
    1TCq1    H114085   3.884   0.365   8.202  0.0867 -0.5575  0.4426
    1TCq1    H214086   4.072   0.307   8.336  1.0557 -0.4142  0.4486
    1TCq1    H314087   4.151   0.628   8.602  1.2846 -2.6885  0.6086
    1TCq1    H414088   4.033   0.697   8.198 -0.0549 -3.2684 -1.1959
    2MPD1     C14089   4.031   1.251   8.696 -0.5655 -0.1985 -0.2360
    2MPD1    C114090   4.105   1.161   8.771 -0.4000 -0.3815  0.6451
    2MPD1    C214091   4.126   1.034   8.724  0.5468 -0.1053  0.5480
    2MPD1    C314092   4.068   1.000   8.605  0.6141  0.3001  0.7513
    2MPD1    C414093   4.002   1.095   8.533 -0.4537  0.4799 -0.2750
    2MPD1    C514094   3.989   1.223   8.571 -0.2864 -0.2828 -0.8618
    2MPD1     H14095   4.186   0.970   8.788 -0.7613 -0.9713  0.9215
    2MPD1    H114096   3.940   1.080   8.445  0.1489 -2.7576 -0.1628
    2MPD1    H214097   4.028   1.356   8.721 -0.4973 -0.3481  0.4063
    2MPD1    H314098   3.950   1.301   8.506 -0.4889  1.5217  1.4340
    2MPD1     N14099   4.082   0.864   8.557 -0.7061  0.4195 -0.0014
    2MPD1    H514100   4.115   0.790   8.617  0.8551  2.3728  1.5433
    2MPD1    N114101   4.173   1.213   8.888 -0.6302 -0.1370  0.2123
    2MPD1    H614102   4.116   1.277   8.944  1.4462  1.2466  0.7602
    2MPD1    H714103   4.184   1.149   8.966  0.5168  0.2998  0.4047
    1MPD1     C14104   4.247   1.156  11.778  0.3441  0.9423  0.4562
    1MPD1    C114105   4.321   1.157  11.898 -0.3737 -0.4800  0.7687
    1MPD1    C214106   4.430   1.239  11.906 -0.4091 -0.6327  0.4071
    1MPD1    C314107   4.480   1.300  11.783  0.4814  0.0194  0.3246
    1MPD1    C414108   4.410   1.289  11.663  0.5134  0.2039  0.4465
    1MPD1    C514109   4.291   1.221  11.664  0.5463  0.1201  0.2295
    1MPD1     H14110   4.488   1.248  11.997  2.2249 -0.5786 -1.2812
    1MPD1    H114111   4.431   1.350  11.576 -0.5172  0.2330  0.2201
    1MPD1    H214112   4.158   1.094  11.779  0.4241  0.8161 -0.7805
    1MPD1    H314113   4.230   1.215  11.575 -0.9202 -0.6482  1.2763
    1MPD1     N14114   4.608   1.358  11.793 -0.1184  0.0358  0.1498
    1MPD1    H514115   4.663   1.351  11.878  0.1181  0.1819  0.0093
    1MPD1    N114116   4.258   1.112  12.023  0.3696 -0.2938 -0.5451
    1MPD1    H614117   4.202   1.027  12.020 -1.0423  0.7077 -2.4255
    1MPD1    H714118   4.319   1.108  12.105 -2.8146 -2.9669  1.6973
    2MPD1     C14119   4.267   1.646  11.082 -0.3760 -0.3192  0.2952
    2MPD1    C114120   4.253   1.703  10.961 -0.1579  0.0349 -0.8137
    2MPD1    C214121   4.307   1.636  10.849 -0.0372  0.9634  0.2437
    2MPD1    C314122   4.378   1.515  10.857  0.7992 -0.2915  0.8750
    2MPD1    C414123   4.395   1.461  10.985 -0.0083 -0.1766  0.0772
    2MPD1    C514124   4.342   1.526  11.093 -0.6210 -0.3103  0.1530
    2MPD1     H14125   4.302   1.684  10.752 -0.0901 -0.0154 -0.2371
    2MPD1    H114126   4.444   1.365  10.997 -0.8099 -0.6940 -0.8149
    2MPD1    H214127   4.233   1.691  11.175  0.9231  1.7069 -0.2205
    2MPD1    H314128   4.360   1.488  11.193 -0.6086 -3.0646 -0.8853
    2MPD1     N14129   4.439   1.444  10.753 -0.1395  0.0089  0.3416
    2MPD1    H514130   4.494   1.361  10.770  0.1986  0.3533  0.9335
    2MPD1    N114131   4.200   1.832  10.950  0.2581 -0.2615 -0.3589
    2MPD1    H614132   4.145   1.858  11.032  0.1243 -0.7444 -0.2909
    2MPD1    H714133   4.147   1.830  10.863 -2.4742 -1.8413  1.3086
    3MPD1     C14134   4.520   1.265   9.669 -0.3901 -0.0074 -0.7445
    3MPD1    C114135   4.598   1.376   9.697  0.2892  0.1509  0.1262
    3MPD1    C214136   4.634   1.402   9.828 -0.2455 -0.1920 -0.0542
    3MPD1    C314137   4.578   1.335   9.934 -0.1549  0.2485  0.5343
    3MPD1    C414138   4.494   1.230   9.902 -0.6587 -0.2586  0.7446
    3MPD1    C514139   4.473   1.192   9.776 -0.2386 -0.3378  0.0749
    3MPD1     H14140   4.695   1.488   9.851 -0.0813 -0.6000  1.0453
    3MPD1    H114141   4.453   1.173   9.985 -3.7380  0.4702 -0.2785
    3MPD1    H214142   4.504   1.236   9.566 -0.5571  1.0677 -1.0261
    3MPD1    H314143   4.399   1.115   9.759 -2.1031  1.1384  1.5454
    3MPD1     N14144   4.598   1.389  10.062  0.1040  0.5708  0.0335
    3MPD1    H514145   4.681   1.447  10.069  1.1751 -1.2410  2.5910
    3MPD1    N114146   4.668   1.447   9.594  0.1403 -0.1846  0.2460
    3MPD1    H614147   4.626   1.446   9.502  0.2051  0.2218  0.2143
    3MPD1    H714148   4.710   1.537   9.614 -0.4496  0.5250 -1.6864
    4MPD2     C14149   0.458   1.886  11.470 -0.3849  0.0088 -0.8956
    4MPD2    C114150   0.456   1.750  11.493 -0.2513 -0.1013 -0.2794
    4MPD2    C214151   0.538   1.669  11.421  0.0892  0.2602 -0.2189
    4MPD2    C314152   0.613   1.717  11.317  1.2410  0.0140 -0.1448
    4MPD2    C414153   0.613   1.851  11.300  0.0127 -0.3198 -0.3539
    4MPD2    C514154   0.535   1.935  11.377  0.0936  0.3710 -0.7353
    4MPD2     H14155   0.535   1.563  11.445  0.1769  0.7635  1.9571
    4MPD2    H114156   0.679   1.894  11.226  1.1684 -2.4477 -0.5634
    4MPD2    H214157   0.390   1.954  11.520  1.5585 -0.5929  2.5111
    4MPD2    H314158   0.529   2.041  11.357 -0.3384  0.6231  0.7222
    4MPD2     N14159   0.693   1.634  11.233 -0.3294  0.0323  0.3887
    4MPD2    H514160   0.737   1.690  11.161  0.7354 -0.4948  0.6301
    4MPD2    N114161   0.375   1.688  11.587 -0.1371  0.2625  0.2576
    4MPD2    H714162   0.402   1.590  11.596  2.0104  0.7896 -0.2920
    5TMC3    C114163   0.243   1.630  11.755 -0.7686 -0.7125  0.3092
    5TMC3    C214164   0.113   1.603  11.727 -0.1146  0.0158 -0.6059
    5TMC3    C314165   0.069   1.476  11.741 -0.1145 -0.2360  0.2039
    5TMC3    C414166   0.328   1.527  11.779  0.8057  0.5945 -0.1855
    5TMC3    C514167   0.285   1.396  11.769  0.1554  0.4310  0.8759
    5TMC3    C614168   0.150   1.369  11.762 -0.1514 -0.5870 -0.1653
    5TMC3     C14169   0.301   1.744  11.688  0.4258  0.8102  0.9077
    5TMC3     O14170   0.288   1.861  11.713  0.1816  0.1649  0.1496
    5TMC3     H14171   0.049   1.683  11.691  0.1787  1.2589  1.6414
    5TMC3    H114172   0.432   1.536  11.806  0.9885 -1.4763 -0.1713
    5TMC3    H214173   0.110   1.269  11.759  2.2124 -1.5416 -0.1328
    5TMC3    C714174   0.353   1.333  11.660  0.0224 -0.4247 -0.6694
    5TMC3    C814175   4.660   1.449  11.705  0.6204  0.4132 -0.3067
    5TMC3    O114176   0.431   1.408  11.603  0.1143  0.3942 -0.1034
    5TMC3    O214177   4.613   1.497  11.603  0.1051  0.9254 -0.7353
    6TMC3    C114178   4.503   1.392  10.531 -0.7207 -0.3426  0.4346
    6TMC3    C214179   4.473   1.403  10.402  0.5740  0.2646  0.0595
    6TMC3    C314180   4.571   1.398  10.307 -0.0588 -0.3466  0.3913
    6TMC3    C414181   4.626   1.367  10.571 -0.5923 -0.0185  0.3882
    6TMC3    C514182   0.001   1.353  10.477 -0.1520 -0.2098  0.4752
    6TMC3    C614183   4.703   1.368  10.339  0.3643  0.2528 -0.9927
    6TMC3     C14184   4.418   1.475  10.620  0.1129  0.3019  0.3333
    6TMC3     O14185   4.332   1.549  10.566  0.2060 -0.2453 -0.1303
    6TMC3     H14186   4.369   1.418  10.374 -0.0588 -0.3751  2.0487
    6TMC3    H114187   4.652   1.372  10.677  0.2036  0.9774  0.1409
    6TMC3    H214188   0.059   1.363  10.267  1.5272  0.6595  0.2755
    6TMC3    C714189   0.130   1.348  10.533 -0.2183 -0.3259  0.5454
    6TMC3    C814190   4.527   1.356  10.176  0.2644  0.2837  0.4071
    6TMC3    O114191   0.148   1.329  10.653 -0.6871 -0.1077  0.3918
    6TMC3    O214192   4.428   1.281  10.188 -0.5302 -0.1622 -0.5026
    7MPD2     C14193   0.463   0.964  11.307 -0.0593 -0.1426  0.2926
    7MPD2    C114194   0.510   1.090  11.337 -0.1192  0.5416 -0.6833
    7MPD2    C214195   0.452   1.174  11.429  0.1426  0.0833 -0.3282
    7MPD2    C314196   0.357   1.134  11.514 -0.0682 -0.1502 -0.0562
    7MPD2    C414197   0.322   0.998  11.504 -0.3064  0.4684  1.1198
    7MPD2    C514198   0.365   0.916  11.399  0.3164 -0.4451 -0.1645
    7MPD2     H14199   0.492   1.275  11.436  0.7004 -0.0640 -1.4941
    7MPD2    H114200   0.242   0.953  11.562 -0.3018 -0.5709  0.3227
    7MPD2    H214201   0.495   0.908  11.220 -1.8065 -1.3848  0.4556
    7MPD2    H314202   0.319   0.819  11.384 -2.7499  0.9967 -0.0577
    7MPD2     N14203   0.308   1.208  11.623 -0.1142  0.0992 -0.3823
    7MPD2    H514204   0.244   1.160  11.685 -0.6236 -1.2869 -1.9772
    7MPD2    N114205   0.620   1.147  11.271 -0.2734  0.2585  0.2824
    7MPD2    H714206   0.660   1.233  11.308 -0.7613  0.1127  1.1612
    8TMC3    C114207   0.755   1.217  11.082  0.2828  0.7031 -0.2271
    8TMC3    C214208   0.734   1.256  10.952  0.0724 -0.1452 -0.0117
    8TMC3    C314209   0.748   1.389  10.918  0.1469  0.1389  1.1144
    8TMC3    C414210   0.802   1.313  11.171  0.1980  0.3491  0.3469
    8TMC3    C514211   0.793   1.444  11.138  0.2138 -0.2316 -0.2066
    8TMC3    C614212   0.763   1.487  11.015  0.0032  0.0684  0.2463
    8TMC3     C14213   0.669   1.113  11.143 -0.3942  0.1716 -0.2231
    8TMC3     O14214   0.617   1.036  11.063 -0.2015 -0.3700 -0.5918
    8TMC3     H14215   0.705   1.183  10.877 -1.3230  0.2862  0.1072
    8TMC3    H114216   0.840   1.275  11.265 -0.1616  2.8839  1.5173
    8TMC3    H214217   0.749   1.592  10.994 -0.2413 -0.3269 -1.5658
    8TMC3    C714218   0.718   1.502  11.248 -0.1909 -0.1084 -0.0336
    8TMC3    C814219   0.724   1.431  10.780  0.1540 -0.7065  0.1020
    8TMC3    O114220   0.703   1.435  11.349 -0.2272  0.0646 -0.3413
    8TMC3    O214221   0.780   1.531  10.737  0.4495 -0.0352  0.2506
    9MPD2     C14222   0.631   1.458  10.497  0.2959  0.0666 -0.4825
    9MPD2    C114223   0.560   1.402  10.600  0.3059  0.0131 -0.1348
    9MPD2    C214224   0.429   1.363  10.586 -0.3918  0.3617 -0.5623
    9MPD2    C314225   0.362   1.398  10.467 -0.6822  0.3740  0.6207
    9MPD2    C414226   0.431   1.465  10.372 -0.2270  0.5024  0.1199
    9MPD2    C514227   0.569   1.482  10.379  0.2293  0.3097 -0.5690
    9MPD2     H14228   0.380   1.309  10.666 -0.7149 -0.4453 -1.3086
    9MPD2    H114229   0.374   1.496  10.285  1.7326  0.1044 -1.3020
    9MPD2    H214230   0.737   1.480  10.493  0.6688 -1.6454 -0.1026
    9MPD2    H314231   0.625   1.532  10.300  0.1390  1.6694  0.2331
    9MPD2     N14232   0.222   1.376  10.438 -0.7654  0.3108  0.0796
    9MPD2    H514233   0.187   1.401  10.347  0.2153  0.9212 -0.1269
    9MPD2    N114234   0.613   1.372  10.731  0.4605  0.0162  0.4201
    9MPD2    H714235   0.545   1.336  10.797  0.7008  0.7398  1.0642
    1MPD1     C14236   4.567   0.945  16.602 -0.4007  0.3092 -0.1372
    1MPD1    C114237   4.690   0.965  16.533  0.3516 -0.0345 -0.3295
    1MPD1    C214238   0.021   0.857  16.466  1.1566 -0.3746  0.9300
    1MPD1    C314239   4.675   0.735  16.461  0.0989  0.0722  0.2779
    1MPD1    C414240   4.547   0.724  16.522  0.4420  0.4725 -0.5536
    1MPD1    C514241   4.497   0.829  16.594  0.1315 -0.2941 -0.4924
    1MPD1     H14242   0.112   0.882  16.412  1.5034 -1.4455  1.0197
    1MPD1    H114243   4.483   0.638  16.505  1.0870 -0.0919 -0.1364
    1MPD1    H214244   4.522   1.029  16.654 -2.6257 -1.4911  0.8432
    1MPD1    H314245   4.402   0.820  16.644  1.2901 -1.4556  1.4750
    1MPD1     N14246   0.002   0.616  16.391 -0.4075  0.1255  0.3742
    1MPD1    H514247   4.662   0.542  16.366 -2.0854  2.0379 -0.8720
    1MPD1    N114248   0.020   1.093  16.524 -0.7929  0.0037 -0.2430
    1MPD1    H614249   4.674   1.165  16.526  0.3310  1.0108  3.4348
    1MPD1    H714250   0.080   1.120  16.446 -0.6561  0.8585  0.1524
    2MPD1     C14251   0.895   0.496  15.952 -0.2318 -0.1018  0.1954
    2MPD1    C114252   0.778   0.521  15.872  0.4371 -0.2928 -0.2847
    2MPD1    C214253   0.656   0.498  15.927 -0.4511 -0.4767  0.1169
    2MPD1    C314254   0.653   0.431  16.053 -0.2086 -0.0686  0.0271
    2MPD1    C414255   0.767   0.389  16.122 -0.5948 -1.0302  0.2361
    2MPD1    C514256   0.888   0.421  16.075  0.0557 -0.3503 -0.5734
    2MPD1     H14257   0.560   0.517  15.881 -1.0038 -1.8292  0.7068
    2MPD1    H114258   0.768   0.348  16.222 -1.9421 -1.3525  0.1090
    2MPD1    H214259   0.988   0.544  15.923 -0.5105  0.2608 -0.1041
    2MPD1    H314260   0.972   0.397  16.139 -0.9265  0.6144  1.0565
    2MPD1     N14261   0.524   0.415  16.111 -0.1726  0.4403  0.1014
    2MPD1    H514262   0.449   0.456  16.055  1.7587  2.8526 -0.7527
    2MPD1    N114263   0.790   0.601  15.760  0.0247  0.1144 -0.8605
    2MPD1    H614264   0.719   0.589  15.689  1.7831 -1.8646 -2.2951
    2MPD1    H714265   0.883   0.592  15.718  2.0649  1.8610  3.2136
    3TCq2    C114266   0.493   0.341  16.225 -0.0830  0.6439  0.4171
    3TCq2    O214267   0.560   0.262  16.291 -0.6491  0.2009 -0.0774
    3TCq2    C214268   0.350   0.338  16.257  0.6899  0.2148  0.5987
    3TCq2    C314269   0.293   0.228  16.330  0.9530 -0.0758  0.0935
    3TCq2    C414270   0.172   0.245  16.382  0.3091  0.0487 -0.0219
    3TCq2    C514271   0.106   0.363  16.380 -0.2217  0.2495  0.5417
    3TCq2    C614272   0.164   0.464  16.313  0.3547  0.5893 -0.3344
    3TCq2    C714273   0.283   0.458  16.248  0.8770 -0.0231  0.5911
    3TCq2    C814274   0.134   0.600  16.355  0.0754 -1.4788  0.2591
    3TCq2    O414275   0.223   0.682  16.340 -0.2270  0.0954 -0.1539
    3TCq2    C914276   0.103   0.135  16.430 -0.1654 -0.9384  0.6791
    3TCq2    O514277   0.021   0.153  16.526  0.2996 -0.4450 -0.0559
    3TCq2    O614278   0.150   0.022  16.399  0.6268  0.8138 -0.4587
    3TCq2    H214279   0.329   0.126  16.326  1.1239  0.0439 -1.4068
    3TCq2    H314280   0.008   0.358  16.426 -0.5083 -2.2116 -0.3457
    3TCq2    H414281   0.331   0.544  16.203  1.4996  0.0856  1.4551
    1TCq1    O114282   2.646   4.108  12.785 -0.3371  0.1713 -0.0081
    1TCq1    C114283   2.707   4.173  12.883  0.0590  0.4383  0.3270
    1TCq1    O214284   2.677   4.167  13.003  0.0816  0.5922 -0.2809
    1TCq1    C214285   2.820   4.251  12.830  0.9357 -0.8841 -0.1234
    1TCq1    C314286   2.832   4.283  12.697  0.5786  0.0822 -0.2317
    1TCq1    C414287   2.931   4.370  12.659  0.5276  0.1341 -0.1490
    1TCq1    C514288   3.022   4.410  12.748 -0.6281 -0.0356 -0.1523
    1TCq1    C614289   3.018   4.372  12.874  0.2772 -0.0052  0.1428
    1TCq1    C714290   2.918   4.286  12.917 -0.8111 -0.4357 -0.1466
    1TCq1    C814291   3.135   4.400  12.953  0.0592 -0.3839 -1.0449
    1TCq1    O414292   3.218   4.475  12.912  0.1111 -0.4321 -0.1401
    1TCq1    C914293   2.944   4.410  12.525 -0.0820 -0.0640 -1.0832
    1TCq1    O514294   2.837   4.411  12.458 -0.4945 -0.1675  0.2518
    1TCq1    O614295   3.049   4.458  12.481 -0.0878  0.2748  0.3231
    1TCq1    H114296   2.695   4.112  12.700  0.9335  0.0913  0.7177
    1TCq1    H214297   2.748   4.263  12.631  0.2179 -0.2351  0.3222
    1TCq1    H314298   3.096   4.485  12.722 -1.3779  0.8412  0.2535
    1TCq1    H414299   2.911   4.258  13.021  0.3765 -2.0006 -0.4957
    2MPD2     C14300   3.395   4.379  13.105 -0.1858  0.7830  0.1217
    2MPD2    C114301   3.271   4.319  13.143  0.4785  0.6868  0.0892
    2MPD2    C214302   3.276   4.239  13.255 -1.2471  0.0305  0.2983
    2MPD2    C314303   3.384   4.238  13.349 -0.3794 -0.6995  0.2079
    2MPD2    C414304   3.496   4.308  13.308  0.0983  0.8077 -0.1055
    2MPD2    C514305   3.504   4.368  13.186 -0.3167  0.6512 -0.2439
    2MPD2     H14306   3.192   4.176  13.282  0.3024 -1.8455  0.7523
    2MPD2    H114307   3.589   4.316  13.363  1.0947  2.1145 -1.9848
    2MPD2    H214308   3.414   4.426  13.009 -1.1168  1.3954  0.2377
    2MPD2    H314309   3.602   4.407  13.159 -0.0146 -0.8448 -1.2744
    2MPD2     N14310   3.374   4.148  13.456 -0.9804 -0.4667  0.5520
    2MPD2    H514311   3.287   4.099  13.471  0.0051 -2.4863 -0.3791
    2MPD2    N114312   3.153   4.322  13.066  0.4604 -0.7882 -0.1031
    2MPD2    H714313   3.076   4.267  13.103 -0.5704 -1.3918 -3.2014
    3TCq1    O114314   3.104   3.964  13.765  0.0348 -0.0919  0.4156
    3TCq1    C114315   3.189   3.893  13.844  0.0095  0.1542  0.6297
    3TCq1    O214316   3.167   3.828  13.947 -0.7052 -0.8060  0.0415
    3TCq1    C214317   3.321   3.914  13.788  0.1839  0.4204 -0.4535
    3TCq1    C314318   3.419   3.826  13.821 -0.5918  0.0585 -0.7791
    3TCq1    C414319   3.533   3.827  13.749  0.5741 -0.5955 -0.0398
    3TCq1    C514320   3.555   3.922  13.647 -0.1700  0.2416  0.0391
    3TCq1    C614321   3.453   4.003  13.620 -0.5920 -0.0163 -0.2345
    3TCq1    C714322   3.334   4.007  13.684  1.0573 -0.0833 -0.3479
    3TCq1    C814323   3.487   4.117  13.533 -0.6858 -0.4164 -0.6000
    3TCq1    O414324   3.605   4.150  13.530 -0.4056 -0.3184 -0.6669
    3TCq1    C914325   3.627   3.721  13.763  0.5100  0.6919 -0.2277
    3TCq1    O514326   3.740   3.752  13.733  0.1038  0.1724 -0.1765
    3TCq1    O614327   3.589   3.604  13.785  0.7921  0.1082 -0.1810
    3TCq1    H114328   3.152   3.987  13.683 -0.7720 -1.0087 -0.3189
    3TCq1    H214329   3.388   3.744  13.885  1.8755 -0.9600 -0.8937
    3TCq1    H314330   3.644   3.910  13.587  0.0591 -0.9979  0.6261
    3TCq1    H414331   3.277   4.099  13.682  0.4872 -0.4296 -0.1696
    1MPD2     C14332   2.580   0.000  14.815 -0.9989  0.6031 -0.0970
    1MPD2    C114333   2.453   4.675  14.796  0.8813 -0.6485 -0.8971
    1MPD2    C214334   2.423   4.625  14.674  0.4161 -0.2545 -0.3239
    1MPD2    C314335   2.523   4.610  14.580  0.1123 -0.1761 -0.0958
    1MPD2    C414336   2.655   4.649  14.602 -0.6813  0.2190  0.5553
    1MPD2    C514337   2.682   4.716  14.717 -0.4971  0.5264 -0.0745
    1MPD2     H14338   2.324   4.591  14.645  1.3281 -3.8964  0.8895
    1MPD2    H114339   2.731   4.634  14.527  0.8781  2.5792  1.6950
    1MPD2    H214340   2.618   0.030  14.912 -1.7552 -0.4749  0.5324
    1MPD2    H314341   2.784   0.020  14.739  0.4655 -2.0610 -1.0566
    1MPD2     N14342   2.482   4.549  14.455 -0.8909 -0.0418 -1.0149
    1MPD2    H514343   2.384   4.524  14.460 -0.8325  0.2077  1.4701
    1MPD2    N114344   2.359   4.693  14.907  0.2060  0.5711  0.2537
    1MPD2    H714345   2.396   0.018  14.987 -0.9511 -0.2905  1.3219
    2TMC3    C114346   2.170   4.622  15.026 -0.1482 -0.0867 -0.2524
    2TMC3    C214347   2.084   4.508  15.041 -0.2360 -0.0953 -0.3975
    2TMC3    C314348   1.951   4.524  15.070  0.5909 -0.5762 -0.5055
    2TMC3    C414349   2.124   0.024  15.069  0.1789 -0.4101 -0.0500
    2TMC3    C514350   1.999   0.033  15.117 -0.5896 -0.5859  0.1104
    2TMC3    C614351   1.909   4.645  15.109  0.0495  0.0127  0.8708
    2TMC3     C14352   2.243   4.621  14.905  0.1921  0.0080  1.0954
    2TMC3     O14353   2.179   4.558  14.818  0.5936  0.6945  0.6274
    2TMC3     H14354   2.119   4.410  15.010 -0.4277 -0.0884 -0.6316
    2TMC3    H114355   2.196   0.105  15.074  0.6301 -0.6570 -2.4283
    2TMC3    H214356   1.803   4.661  15.127  0.0793  0.4661  0.6250
    2TMC3    C714357   1.934   0.161  15.113 -0.2244  0.2339  0.2705
    2TMC3    C814358   1.861   4.463  14.978 -1.0915 -0.2929 -0.2661
    2TMC3    O114359   1.974   0.245  15.031 -0.5430  0.0798  0.0200
    2TMC3    O214360   1.736   4.462  14.988  0.6740 -0.0951  0.2293
    3TCq1    O114361   1.303   0.911  14.575  0.3445 -0.0446 -0.3248
    3TCq1    C114362   1.290   0.813  14.663 -0.2743  0.0836  0.0956
    3TCq1    O214363   1.177   0.779  14.701 -0.1517  0.0169 -0.0818
    3TCq1    C214364   1.402   0.790  14.742  0.1627 -0.0000  0.9264
    3TCq1    C314365   1.520   0.820  14.686  0.1268  0.3276 -0.4330
    3TCq1    C414366   1.630   0.814  14.768 -0.3662 -0.2190 -0.1817
    3TCq1    C514367   1.622   0.765  14.893  0.1935  0.2221 -1.1397
    3TCq1    C614368   1.497   0.726  14.942  0.4976 -0.0452  0.4505
    3TCq1    C714369   1.383   0.748  14.870  0.8871  0.3557  0.2040
    3TCq1    C814370   1.487   0.645  15.063  0.9377 -0.4760  0.1953
    3TCq1    O414371   1.385   0.649  15.129  0.5144 -0.7113  0.1614
    3TCq1    C914372   1.766   0.816  14.715  0.1709 -0.0132 -0.2022
    3TCq1    O514373   1.862   0.770  14.786 -0.1668 -0.3183 -0.3031
    3TCq1    O614374   1.774   0.816  14.590  0.1698 -0.0036 -0.1825
    3TCq1    H114375   1.391   0.953  14.566 -1.1825  3.3979  0.7362
    3TCq1    H214376   1.538   0.848  14.583  2.1959 -0.6579 -0.3375
    3TCq1    H314377   1.712   0.761  14.954  0.0876 -0.1525 -1.0049
    3TCq1    H414378   1.288   0.713  14.908  2.7520 -4.0392  0.8199
    4MPD2     C14379   1.542   0.446  15.283  0.2161 -0.3081  0.2528
    4MPD2    C114380   1.626   0.471  15.174  0.0954  0.6184  0.4955
    4MPD2    C214381   1.737   0.385  15.152  0.4583 -0.0836  0.8264
    4MPD2    C314382   1.753   0.273  15.233  0.0227 -0.3672 -0.5011
    4MPD2    C414383   1.675   0.254  15.341  0.2199  0.5263  0.0343
    4MPD2    C514384   1.567   0.336  15.366  0.6151 -0.1081  0.4196
    4MPD2     H14385   1.814   0.404  15.078 -1.2928  1.6369 -0.5488
    4MPD2    H114386   1.691   0.177  15.416 -0.5298  1.7717  1.4690
    4MPD2    H214387   1.452   0.506  15.287  1.4882  1.6678 -0.1901
    4MPD2    H314388   1.497   0.319  15.447  0.0541  1.4577  0.2487
    4MPD2     N14389   1.848   0.170  15.213  0.0896  0.1641  0.0704
    4MPD2    H514390   1.831   0.085  15.265 -0.9843 -0.8979 -2.0541
    4MPD2    N114391   1.598   0.562  15.074  0.4444 -0.0521  0.0533
    4MPD2    H714392   1.657   0.572  14.992  2.3597 -0.8278  1.3215
    5TMC2    C114393   2.271   4.326  14.312 -0.1951  0.4581 -0.4724
    5TMC2    C214394   2.345   4.209  14.323 -0.0604 -0.2686 -0.4182
    5TMC2    C314395   2.477   4.204  14.286 -0.2868 -0.1147 -0.2661
    5TMC2    C414396   2.349   4.443  14.296 -0.4709 -0.3132 -0.4642
    5TMC2    C514397   2.483   4.439  14.258 -0.4361 -0.2553  0.5031
    5TMC2    C614398   2.545   4.319  14.254 -0.0168  0.0233 -0.2108
    5TMC2     C14399   2.179   4.346  14.421  0.7711  0.0138 -0.2808
    5TMC2     O14400   2.213   4.441  14.493  0.3803  0.0592 -0.3228
    5TMC2     H14401   2.293   4.115  14.337 -2.1164  0.9191 -0.0693
    5TMC2    H114402   2.306   4.543  14.302  1.5327  0.5449 -0.4475
    5TMC2    H214403   2.648   4.314  14.220  0.8180 -1.2509  2.4780
    5TMC2    C714404   2.559   4.525  14.343 -0.1496  0.3873 -0.0497
    5TMC2    C814405   2.537   4.074  14.295 -0.1113  0.0523  0.4213
    5TMC2    O114406   2.676   4.550  14.319 -0.8388  0.3052 -0.4097
    5TMC2    O214407   2.466   3.973  14.293  0.1861  0.0995 -0.1286
    5TMC2    O514408   2.656   4.076  14.354  0.0500  0.4400 -0.3135
    5TMC2    H514409   2.676   4.159  14.402 -1.7529  0.6777  0.0433
    6MPD2     C14410   1.755   4.328  14.712  0.1704 -0.1929  0.2302
    6MPD2    C114411   1.882   4.376  14.742 -0.1123  0.2303 -0.7225
    6MPD2    C214412   1.980   4.350  14.644  0.2696 -0.8580  0.8164
    6MPD2    C314413   1.965   4.282  14.528  0.6692  0.0361 -0.0950
    6MPD2    C414414   1.841   4.227  14.511  0.2214  0.6144  0.2259
    6MPD2    C514415   1.737   4.248  14.601  0.4960  0.0149  0.3137
    6MPD2     H14416   2.076   4.392  14.671 -0.2994  0.3305  1.0166
    6MPD2    H114417   1.828   4.159  14.427  0.1030 -0.9200  1.4797
    6MPD2    H214418   1.672   4.350  14.779  0.7577  0.9470  0.5882
    6MPD2    H314419   1.639   4.202  14.590  1.5387 -2.1808  0.3454
    6MPD2     N14420   2.068   4.265  14.430 -0.5400 -0.3808 -0.1093
    6MPD2    H514421   2.051   4.216  14.343  0.0571 -1.5630  0.4401
    6MPD2    N114422   1.927   4.432  14.862 -0.2042  0.2980  0.2754
    6MPD2    H714423   2.026   4.449  14.852 -0.4834 -0.0352 -2.8692
  945NH3     N114424   2.383   0.603   8.806  0.2515  0.4692 -0.4554
  945NH3     H214425   2.479   0.630   8.785 -0.0892  3.1219  1.4533
  945NH3     H314426   2.396   0.541   8.886  0.2299  1.2735  0.1690
  945NH3     H414427   2.367   0.531   8.736 -0.1569 -1.3864  1.5323
  946SOD     NA14428   0.117   4.607  16.824  0.1631  0.7661 -0.1681
  947SOD     NA14429   4.392   4.582  14.730 -0.9084 -0.1307 -0.2212
  948SOD     NA14430   2.752   1.016  14.476  0.3423 -0.1549 -0.2445
  949SOD     NA14431   4.092   4.481  11.426 -0.5289 -0.2637 -0.2215
  950SOD     NA14432   1.648   3.854  11.462  0.1048  0.0264 -0.3975
  951SOD     NA14433   3.906   0.897   3.681 -0.1329  0.0815 -0.0751
  952SOD     NA14434   1.060   3.174  13.080 -0.2475 -0.0093  0.1988
  953SOD     NA14435   0.945   4.271  15.766  0.3391  0.1830  0.0853
  954SOD     NA14436   0.034   2.720  13.135 -0.1702 -0.3753 -0.6168
  955SOD     NA14437   3.998   0.276  13.504 -0.0960 -1.1007  0.2518
  956SOD     NA14438   1.797   1.542   2.650  0.2685  0.3802 -0.6636
  957SOD     NA14439   3.765   3.466  11.441  0.0908  0.0928  0.4336
  958SOD     NA14440   3.820   0.230  11.294 -0.2853  0.0041 -0.0619
  959SOD     NA14441   2.253   0.516  14.682  0.2744  0.2472  0.2071
  960SOD     NA14442   2.106   1.067  14.768  0.0111 -0.0001  0.1707
  961SOD     NA14443   2.589   3.111   9.059 -0.4820 -0.0417  0.1385
  962SOD     NA14444   2.499   1.600   9.867 -0.2843 -0.4527 -0.5250
  963SOD     NA14445   4.479   3.510   2.159 -0.1007 -0.5971  0.3609
  964SOD     NA14446   2.933   4.390  12.062  0.4771 -0.1927 -0.5992
  965SOD     NA14447   3.684   1.195  12.222 -0.9302 -0.4429  0.5339
  966SOD     NA14448   3.916   3.708  13.623  0.1712 -0.0790  0.4061
  967SOD     NA14449   2.042   1.932  15.750  0.0534 -0.0928  0.0494
  968SOD     NA14450   2.981   3.471  15.946 -0.0530  0.2295 -0.1419
  969SOD     NA14451   3.406   3.706  11.482  0.2128  0.0441 -0.1263
  970SOD     NA14452   0.103   0.735  17.307 -0.3533 -0.1185 -0.5513
  971SOD     NA14453   0.087   2.727   7.444 -0.4307 -0.5521 -0.5084
  972SOD     NA14454   4.260   1.432   7.324  0.3785 -0.0984  0.6687
  973SOD     NA14455   2.232   1.052   9.981  0.2660 -0.1009  0.7568
  974SOD     NA14456   3.826   1.299  14.684 -0.2906  0.5342 -0.5924
  975SOD     NA14457   0.920   1.608   6.733  0.2534  0.1554  0.5833
  976SOD     NA14458   2.701   3.171  11.097  0.0979  0.0734  0.6501
  977SOD     NA14459   0.824   3.166  11.346 -0.1637  0.5864 -0.5860
  978SOD     NA14460   3.772   3.007  16.516  0.0208  0.4242 -0.2290
  979SOD     NA14461   4.399   3.047  12.431  0.3939 -0.1626  0.0021
  980SOD     NA14462   3.876   3.939  13.789  0.4749 -0.2051  0.3505
  981SOD     NA14463   2.104   4.100  12.695  0.6461 -0.1171 -0.0348
  982SOD     NA14464   1.386   3.864  11.355  0.3157 -0.7317 -0.4579
  983SOD     NA14465   0.143   0.642   9.285  0.0671  0.7771 -0.0231
  984SOD     NA14466   1.309   1.405   0.801 -0.0509 -0.3059 -0.3062
  985SOD     NA14467   0.571   4.193   1.631  0.1233  0.3335 -0.1345
  986SOD     NA14468   2.594   4.371  10.139  0.1113 -0.1205  0.5463
  987SOD     NA14469   1.304   3.672   4.079  0.5069  0.1827 -0.1236
  988SOD     NA14470   0.166   2.845  14.612  0.3260  0.2250  0.0697
  989SOD     NA14471   4.316   0.784   1.106 -0.0631 -0.0365 -0.3113
  990SOD     NA14472   0.093   3.928   0.602  0.1158 -0.2112  0.0301
  991SOD     NA14473   0.109   0.142  14.995  0.4530  0.1895 -0.1039
  992SOD     NA14474   1.443   3.515  15.068 -0.1813  0.6270  0.0069
  993SOD     NA14475   2.622   2.732   9.873 -0.3250 -0.1489 -0.0038
  994SOD     NA14476   1.420   2.457  13.830  0.1203  0.2012  0.1470
  995SOD     NA14477   4.205   0.365  13.706 -0.2194 -0.3452  0.4372
  996SOD     NA14478   1.662   2.862   8.206  0.1602  0.0167 -0.1445
  997SOD     NA14479   0.170   0.275   0.220  0.3398  0.3818 -0.0780
  998SOD     NA14480   2.270   3.127   2.489  0.2382  0.3757 -0.2775
  999SOD     NA14481   2.477   3.083   9.949 -0.1692  0.0773  0.6315
 1000SOD     NA14482   1.921   0.063  10.438 -0.4871 -0.4728  0.0534
 1001SOD     NA14483   2.959   4.646  11.784 -0.1062  0.4467  0.1552
 1002SOD     NA14484   3.977   4.085  14.053  0.0003 -0.0038  0.2922
 1003SOD     NA14485   3.492   3.127  10.745  0.2842 -0.1543  0.0743
 1004SOD     NA14486   3.050   4.283  11.761  0.0992 -0.0042 -0.5880
 1005SOD     NA14487   1.927   3.883  11.271 -0.1697 -0.0733  0.2705
 1006SOD     NA14488   2.159   3.127   9.975  0.3026  0.1954  0.3163
 1007SOD     NA14489   1.794   2.296   0.120  0.3344  0.1725 -0.1391
 1008SOD     NA14490   0.927   3.331   0.663 -0.0705  0.0133 -0.6210
 1009SOD     NA14491   3.096   2.397  16.724  0.2317  0.1820 -0.0319
 1010SOD     NA14492   1.980   4.033  10.747 -0.0069  0.1821 -0.2610
 1011SOD     NA14493   1.756   3.333   3.946 -0.0138 -0.0691 -0.0256
 1012SOL     OW14494   1.149   3.626  10.981  0.1183 -0.1256  0.5462
 1012SOL    HW114495   1.095   3.581  11.046 -0.6005 -1.0659 -0.6888
 1012SOL    HW214496   1.144   3.714  11.019 -0.7740  1.4239 -3.1465
 1013SOL     OW14497   3.400   0.446   1.888  0.9340 -0.3164  0.4299
 1013SOL    HW114498   3.405   0.542   1.895 -1.0184  0.0062 -3.0226
 1013SOL    HW214499   3.402   0.417   1.979 -1.3773 -1.6013  0.0652
 1014SOL     OW14500   1.825   2.958   8.065 -0.3872  0.1774 -0.6780
 1014SOL    HW114501   1.916   2.928   8.062 -0.0194  1.0945  0.8147
 1014SOL    HW214502   1.804   2.994   7.979 -0.8652 -0.5748 -0.8760
 1015SOL     OW14503   2.874   3.615  16.444  0.1695  0.0854 -0.4695
 1015SOL    HW114504   2.831   3.700  16.446 -1.0057 -0.5451  1.4512
 1015SOL    HW214505   2.845   3.570  16.365 -2.5644 -0.3796  0.7846
 1016SOL     OW14506   4.031   1.247   6.132  0.4687  0.1922 -0.0367
 1016SOL    HW114507   4.049   1.166   6.083 -1.0223 -0.7428  0.9618
 1016SOL    HW214508   4.118   1.270   6.165  0.3925  1.4118 -0.6914
 1017SOL     OW14509   4.348   1.616   9.685 -0.2598  0.2679  0.3506
 1017SOL    HW114510   4.339   1.567   9.767  0.0687  0.3389  0.4276
 1017SOL    HW214511   4.440   1.601   9.664  0.1501 -0.2423  2.5529
 1018SOL     OW14512   0.416   1.073   1.533 -0.3763 -0.5982 -0.1451
 1018SOL    HW114513   0.486   1.137   1.515 -0.0072 -0.9282  0.1280
 1018SOL    HW214514   0.451   1.015   1.601 -1.7675  0.0390  1.1064
 1019SOL     OW14515   2.251   0.550   6.134  0.2979  0.3041 -0.1240
 1019SOL    HW114516   2.273   0.457   6.145 -0.0353  0.2797  0.3143
 1019SOL    HW214517   2.163   0.548   6.169  0.0463 -2.2346 -0.9013
 1020SOL     OW14518   4.586   1.456   2.616  0.2177  0.1547  0.2696
 1020SOL    HW114519   4.651   1.511   2.572  1.7535 -0.1169  2.1977
 1020SOL    HW214520   4.621   1.451   2.705 -0.5194 -0.8787  0.5030
 1021SOL     OW14521   0.515   0.838   9.507  0.2042 -0.3611  0.2243
 1021SOL    HW114522   0.491   0.925   9.476  1.8540  0.4967  1.3983
 1021SOL    HW214523   0.572   0.866   9.579 -2.3071  0.9752  1.6795
 1022SOL     OW14524   1.478   3.238   1.877  0.0224 -0.2482  0.0028
 1022SOL    HW114525   1.555   3.188   1.849  0.7112  1.1889 -0.6518
 1022SOL    HW214526   1.533   3.307   1.915 -0.0830 -0.5483  0.7100
 1023SOL     OW14527   1.615   1.103   5.269  0.8394  0.4141 -0.2004
 1023SOL    HW114528   1.627   1.166   5.198  0.8803 -0.5663 -1.0593
 1023SOL    HW214529   1.681   1.035   5.256  0.5872  0.3823 -1.3814
 1024SOL     OW14530   3.005   0.389  14.711 -0.5258  0.5475 -0.4268
 1024SOL    HW114531   3.067   0.462  14.709 -1.2065  1.0762 -2.0960
 1024SOL    HW214532   3.036   0.341  14.788 -0.8423  1.6302  0.3802
 1025SOL     OW14533   2.916   4.330  11.449  0.7487 -0.2515  0.3064
 1025SOL    HW114534   2.861   4.304  11.523 -0.4442  0.5469 -0.2979
 1025SOL    HW214535   2.996   4.287  11.479  0.5874  0.4869  1.8041
 1026SOL     OW14536   4.095   0.039   3.397  0.1659 -0.0182  0.8167
 1026SOL    HW114537   4.046   4.692   3.436 -0.8684 -0.3092 -1.0227
 1026SOL    HW214538   4.027   0.077   3.341  1.1879  0.0210 -0.3789
 1027SOL     OW14539   1.086   3.264   6.618  0.5132 -0.9066  0.3731
 1027SOL    HW114540   1.084   3.310   6.534 -0.8920 -0.5165  0.6154
 1027SOL    HW214541   1.076   3.334   6.682 -3.8775 -0.7410 -0.4986
 1028SOL     OW14542   1.054   2.917  17.594 -0.1350  0.5147  0.1794
 1028SOL    HW114543   0.975   2.971  17.582 -1.1217 -1.3609 -1.6965
 1028SOL    HW214544   1.097   2.939  17.511 -0.3468  0.1629 -0.0237
 1029SOL     OW14545   2.466   2.305   3.342 -0.2867  0.6831 -0.2236
 1029SOL    HW114546   2.422   2.276   3.262 -0.5908  0.6084 -0.0318
 1029SOL    HW214547   2.553   2.280   3.312  0.1493  2.6101 -0.5679
 1030SOL     OW14548   0.682   1.220   3.431 -0.1749 -0.3021 -0.2085
 1030SOL    HW114549   0.635   1.303   3.441  2.6150  1.0538  1.7430
 1030SOL    HW214550   0.691   1.229   3.336  2.0848 -1.0998 -0.0817
 1031SOL     OW14551   1.683   3.127   2.920 -0.1248  0.1063  0.3210
 1031SOL    HW114552   1.705   3.195   2.856  2.0690 -0.4284  0.4939
 1031SOL    HW214553   1.609   3.084   2.878  1.2149 -4.1211  2.2623
 1032SOL     OW14554   0.506   2.276  13.226 -0.4809 -0.3183 -0.1555
 1032SOL    HW114555   0.573   2.344  13.226 -0.0539 -0.7369  1.3096
 1032SOL    HW214556   0.467   2.274  13.313 -0.9662 -2.8649 -0.4369
 1033SOL     OW14557   3.804   1.176   1.673 -0.4515  0.4475 -0.2967
 1033SOL    HW114558   3.843   1.090   1.663  0.7620  1.0483 -0.8069
 1033SOL    HW214559   3.718   1.162   1.635 -0.4036 -3.1636  0.9321
 1034SOL     OW14560   1.068   3.096   6.894 -0.2240 -0.0034 -0.0857
 1034SOL    HW114561   1.118   3.152   6.835 -0.8433 -1.2844 -1.8583
 1034SOL    HW214562   1.111   3.014   6.868 -0.2612  0.1920 -0.7742
 1035SOL     OW14563   0.070   2.114  11.290  0.0631  0.2772 -0.1149
 1035SOL    HW114564   4.720   2.143  11.240 -0.5361  0.8631  1.1181
 1035SOL    HW214565   0.132   2.185  11.274  0.8796  0.2294  2.6898
 1036SOL     OW14566   1.213   4.354   7.210  0.6895 -0.4359  0.4258
 1036SOL    HW114567   1.209   4.403   7.292 -0.7747  0.0521  0.0672
 1036SOL    HW214568   1.123   4.321   7.214  0.9054 -1.0927 -0.1866
 1037SOL     OW14569   0.488   1.694  10.605 -0.2065  0.0224  0.0333
 1037SOL    HW114570   0.470   1.600  10.600  3.3321 -0.6813  0.5358
 1037SOL    HW214571   0.480   1.707  10.699  2.4287  0.2787  0.2343
 1038SOL     OW14572   1.256   2.429   4.056  0.6095  0.3577 -0.0106
 1038SOL    HW114573   1.186   2.401   4.115  0.0624  0.3312 -0.6641
 1038SOL    HW214574   1.205   2.439   3.975 -0.1727 -1.0431  0.3033
 1039SOL     OW14575   1.036   1.307  13.188 -0.5579 -0.0691  0.3490
 1039SOL    HW114576   0.984   1.380  13.222  0.1615  0.2697  0.7206
 1039SOL    HW214577   0.976   1.234  13.173 -2.0582  1.1994  0.1055
 1040SOL     OW14578   3.803   2.771   5.076 -0.5257 -0.6254 -1.0603
 1040SOL    HW114579   3.831   2.713   5.005  0.2353  1.8425 -2.7503
 1040SOL    HW214580   3.881   2.826   5.073  0.1755 -1.4710  1.5686
 1041SOL     OW14581   2.470   1.205   7.806  0.2483 -0.0972 -0.1282
 1041SOL    HW114582   2.380   1.204   7.772 -0.0172 -0.0815  0.5618
 1041SOL    HW214583   2.507   1.243   7.727 -1.2506  0.3980 -0.5950
 1042SOL     OW14584   3.138   2.679   2.973  0.0323 -0.2913 -0.1095
 1042SOL    HW114585   3.135   2.696   3.068 -0.9331  0.8750 -0.3439
 1042SOL    HW214586   3.053   2.711   2.943 -0.2866 -0.2687  0.8129
 1043SOL     OW14587   2.218   4.584   4.777 -0.2404  0.2135  0.0485
 1043SOL    HW114588   2.190   4.605   4.688 -3.3389 -2.2415  0.4518
 1043SOL    HW214589   2.167   4.627   4.846 -1.0437 -1.8839  0.7536
 1044SOL     OW14590   3.379   0.991   0.971 -0.0615 -0.4377  0.5763
 1044SOL    HW114591   3.306   1.049   0.995 -1.0036 -0.5398 -2.1169
 1044SOL    HW214592   3.415   1.037   0.896 -3.2254 -0.3272 -0.8628
 1045SOL     OW14593   4.005   3.090   7.536  0.3594 -0.2445 -0.0925
 1045SOL    HW114594   4.044   3.177   7.524  1.2636 -0.9278 -2.1315
 1045SOL    HW214595   3.998   3.093   7.631  1.9345 -2.3572  0.0903
 1046SOL     OW14596   3.164   0.865   7.682  0.3248  0.0723 -0.2206
 1046SOL    HW114597   3.073   0.852   7.706  0.4600 -1.0026 -0.3050
 1046SOL    HW214598   3.189   0.773   7.681  0.8516  0.2472 -3.6027
 1047SOL     OW14599   0.606   4.260   8.399  0.1413 -0.1046  0.6838
 1047SOL    HW114600   0.554   4.334   8.429  1.5078  1.4072 -0.7477
 1047SOL    HW214601   0.558   4.195   8.450  0.3730 -0.5968  0.2728
 1048SOL     OW14602   3.295   2.469  16.255 -0.2991 -0.2422 -0.0567
 1048SOL    HW114603   3.386   2.473  16.227  0.0953 -0.1496  1.2523
 1048SOL    HW214604   3.252   2.415  16.189 -0.4368 -0.2119  0.0078
 1049SOL     OW14605   1.545   2.137   6.063 -0.2663 -0.0994  0.0473
 1049SOL    HW114606   1.578   2.204   6.123 -1.9846 -0.1077  1.0162
 1049SOL    HW214607   1.526   2.191   5.986 -1.0312 -0.7032 -0.1804
 1050SOL     OW14608   4.092   2.422   4.121  0.4663  0.0621 -0.2371
 1050SOL    HW114609   4.040   2.500   4.143 -0.8788 -0.5605 -1.1817
 1050SOL    HW214610   4.129   2.443   4.035  0.6354  2.9994  0.5433
 1051SOL     OW14611   0.867   0.767   6.140  0.7010  0.3663  0.1655
 1051SOL    HW114612   0.952   0.727   6.157  1.0073  0.0923 -2.1239
 1051SOL    HW214613   0.885   0.851   6.183 -0.0845  1.1173 -0.9872
 1052SOL     OW14614   0.960   2.310   8.319 -0.1580 -0.5788  0.8564
 1052SOL    HW114615   0.957   2.405   8.334  2.3448 -0.4643  0.6387
 1052SOL    HW214616   0.875   2.283   8.286  0.3413  1.8629 -2.4356
 1053SOL     OW14617   2.716   0.010   2.125  0.3557 -0.3561  0.0936
 1053SOL    HW114618   2.685   0.057   2.048 -1.5996 -1.7081  0.0621
 1053SOL    HW214619   2.690   4.647   2.097  0.2714 -0.3613  0.1901
 1054SOL     OW14620   1.595   3.552   4.984 -0.1804  0.1368  0.2351
 1054SOL    HW114621   1.678   3.509   4.962  0.4545  1.3405  0.2385
 1054SOL    HW214622   1.621   3.587   5.070 -0.1329 -0.6732  0.5533
 1055SOL     OW14623   0.477   2.309   6.654  0.4032 -0.2661 -0.4237
 1055SOL    HW114624   0.412   2.262   6.706  0.5474 -0.4623 -0.4187
 1055SOL    HW214625   0.410   2.338   6.593  0.6729 -1.4968 -1.3121
 1056SOL     OW14626   2.732   2.239   6.292 -0.4974  0.5242 -0.1555
 1056SOL    HW114627   2.650   2.247   6.243 -0.2407 -2.1452 -1.0286
 1056SOL    HW214628   2.760   2.149   6.274 -2.0556  0.0620 -0.2750
 1057SOL     OW14629   2.961   0.531   3.756 -0.1065  0.3733 -0.4072
 1057SOL    HW114630   3.030   0.489   3.706 -0.5114 -0.4897 -0.2316
 1057SOL    HW214631   2.960   0.471   3.830 -0.9307 -0.2018 -0.8833
 1058SOL     OW14632   1.924   0.083   8.261  0.2510  0.2461 -0.2358
 1058SOL    HW114633   1.909   0.000   8.306  0.7410  1.0254  1.3760
 1058SOL    HW214634   1.987   0.056   8.195  1.6294 -0.5942  1.4137
 1059SOL     OW14635   1.001   0.253  14.019 -0.0494  0.4805 -0.3781
 1059SOL    HW114636   1.032   0.330  14.066  0.5708  0.1960 -0.3250
 1059SOL    HW214637   0.999   0.190  14.091  1.5576  0.2313 -0.5608
 1060SOL     OW14638   0.246   1.523   3.934 -0.2500 -0.2791 -0.3469
 1060SOL    HW114639   0.337   1.550   3.952  0.0235 -1.6277  0.2680
 1060SOL    HW214640   0.237   1.475   4.016 -0.9078 -0.8345 -0.7466
 1061SOL     OW14641   0.606   4.301   6.855  1.0497  0.3430 -0.1256
 1061SOL    HW114642   0.595   4.227   6.795  0.3937  0.3949 -0.0653
 1061SOL    HW214643   0.607   4.374   6.794  1.1230  1.0451  0.7137
 1062SOL     OW14644   0.955   2.526   6.257 -0.1569  0.2271 -0.1719
 1062SOL    HW114645   0.890   2.596   6.260  1.2459  1.5280 -0.1521
 1062SOL    HW214646   0.951   2.501   6.349 -1.3994  3.7462  0.7061
 1063SOL     OW14647   0.618   1.584   8.808 -0.1929 -0.3486 -0.1821
 1063SOL    HW114648   0.549   1.537   8.761  0.0101 -0.8205 -0.0028
 1063SOL    HW214649   0.658   1.618   8.728 -0.2712  0.6913  0.2219
 1064SOL     OW14650   4.014   3.934  11.762  0.7537  0.0039 -0.3560
 1064SOL    HW114651   4.033   4.024  11.789  0.4235 -0.4352  1.3440
 1064SOL    HW214652   3.963   3.954  11.683 -0.2983  2.8407  1.0262
 1065SOL     OW14653   0.885   2.760   1.358  0.0207 -0.6705  0.7482
 1065SOL    HW114654   0.809   2.755   1.300  1.5062  0.6395 -1.3326
 1065SOL    HW214655   0.958   2.782   1.300  0.3617 -0.1337  1.3840
 1066SOL     OW14656   0.496   0.719   4.486  0.0413 -0.1024 -0.0073
 1066SOL    HW114657   0.503   0.682   4.398 -2.1512 -0.6924  0.0521
 1066SOL    HW214658   0.589   0.736   4.501  0.6754 -4.2003  0.7035
 1067SOL     OW14659   2.255   1.354   4.792 -0.0186 -0.2271 -0.6208
 1067SOL    HW114660   2.215   1.296   4.727 -0.4891  0.3554 -0.8505
 1067SOL    HW214661   2.350   1.342   4.782  0.1486 -0.4865  1.3199
 1068SOL     OW14662   1.555   3.320   3.073 -0.0849 -0.2473 -0.4499
 1068SOL    HW114663   1.499   3.351   3.002 -1.2218  0.2995  0.7040
 1068SOL    HW214664   1.632   3.342   3.020  0.0949  0.4034  0.0817
 1069SOL     OW14665   2.623   2.666   8.278 -0.0262 -0.6177 -0.5196
 1069SOL    HW114666   2.653   2.733   8.217 -0.2366  0.4643  0.5705
 1069SOL    HW214667   2.568   2.616   8.218  0.0691 -1.8566  0.4175
 1070SOL     OW14668   2.113   0.789   7.542  0.5835  0.0727  0.1599
 1070SOL    HW114669   2.112   0.702   7.582  0.8442 -0.3928 -0.8643
 1070SOL    HW214670   2.190   0.831   7.582  0.0599  1.5347 -0.3462
 1071SOL     OW14671   4.377   0.086  14.685 -0.7900  0.8602 -0.9270
 1071SOL    HW114672   4.333   0.102  14.601 -4.2009  0.2528  0.7546
 1071SOL    HW214673   4.377   0.178  14.713  1.3194  0.4337  0.4393
 1072SOL     OW14674   3.877   2.821  10.557 -0.0442 -0.3149 -0.4992
 1072SOL    HW114675   3.943   2.778  10.502  0.1512  1.3849 -1.5845
 1072SOL    HW214676   3.815   2.752  10.582  0.8780 -0.0791  2.4521
 1073SOL     OW14677   2.194   0.237   9.269 -0.2592  0.0820  0.0588
 1073SOL    HW114678   2.157   0.231   9.181  1.7014  0.1859 -0.7777
 1073SOL    HW214679   2.231   0.326   9.269  1.8916 -0.8044  2.8214
 1074SOL     OW14680   4.273   2.277   7.119  0.0482 -0.5378 -0.4310
 1074SOL    HW114681   4.240   2.206   7.064  1.6220 -2.0784  0.5907
 1074SOL    HW214682   4.283   2.242   7.207  0.3545 -0.6299 -0.5011
 1075SOL     OW14683   1.954   1.631  16.649 -0.4448 -0.1343 -0.3747
 1075SOL    HW114684   2.043   1.656  16.627 -0.6347 -1.0641 -2.1685
 1075SOL    HW214685   1.951   1.672  16.736  2.2784 -2.5298  0.8503
 1076SOL     OW14686   4.211   0.898   5.736  0.1244  0.2588 -0.2610
 1076SOL    HW114687   4.182   0.970   5.680 -0.7097  1.1467  1.3254
 1076SOL    HW214688   4.287   0.862   5.691 -0.4175  0.9192 -1.7360
 1077SOL     OW14689   1.204   0.557   3.070  0.0147  0.4020 -0.5933
 1077SOL    HW114690   1.259   0.565   2.993 -1.1859  0.3518 -1.4569
 1077SOL    HW214691   1.216   0.642   3.112  1.5229 -1.0730  1.9953
 1078SOL     OW14692   3.221   0.857   9.556 -0.0226 -0.1853 -0.2663
 1078SOL    HW114693   3.246   0.948   9.574  3.4690 -1.3819  0.9460
 1078SOL    HW214694   3.168   0.836   9.633 -0.0878  1.0645  0.0401
 1079SOL     OW14695   2.663   4.652   3.685  0.1349  0.4357  0.3344
 1079SOL    HW114696   2.669   4.600   3.605 -1.1439  1.9195 -0.7546
 1079SOL    HW214697   2.568   4.652   3.700 -0.0787  1.9107 -0.8922
 1080SOL     OW14698   0.962   3.158   9.424  0.1084 -0.1886  0.0434
 1080SOL    HW114699   0.901   3.167   9.496 -0.8920 -1.2345 -0.6720
 1080SOL    HW214700   0.981   3.066   9.441  2.2224  0.8089  3.1824
 1081SOL     OW14701   3.633   4.061   1.734  0.9794 -0.1957 -0.0486
 1081SOL    HW114702   3.636   4.157   1.739 -1.5747 -0.1124 -0.4227
 1081SOL    HW214703   3.648   4.026   1.822  3.9822  1.1005 -0.0350
 1082SOL     OW14704   3.271   2.139   5.211  0.1245  0.4562 -0.6094
 1082SOL    HW114705   3.360   2.169   5.231  0.0052 -0.6101  1.5504
 1082SOL    HW214706   3.269   2.167   5.120  0.7713  0.9627 -0.4687
 1083SOL     OW14707   1.426   2.875   3.871 -0.2589  0.0358  0.1893
 1083SOL    HW114708   1.423   2.779   3.873 -1.1591  0.0644 -0.0992
 1083SOL    HW214709   1.500   2.883   3.811 -0.5093  2.1012  0.1596
 1084SOL     OW14710   1.157   4.296  15.713  0.2732 -0.5182 -0.0289
 1084SOL    HW114711   1.224   4.261  15.771  0.9700  0.0223 -0.5109
 1084SOL    HW214712   1.208   4.307  15.633 -0.3224 -0.3878 -0.3914
 1085SOL     OW14713   4.088   3.260   3.327 -0.6446  0.0325 -0.3813
 1085SOL    HW114714   4.092   3.346   3.368 -0.5282 -0.4125  0.5428
 1085SOL    HW214715   4.084   3.196   3.398 -0.1798 -0.3268 -0.6756
 1086SOL     OW14716   3.597   1.884   3.964 -0.0696 -0.1385  0.1504
 1086SOL    HW114717   3.583   1.951   4.031  0.0634 -0.3491  0.3882
 1086SOL    HW214718   3.536   1.924   3.902 -0.2920 -1.6811 -0.6259
 1087SOL     OW14719   2.913   4.711   2.312  0.2045  0.2705  0.1910
 1087SOL    HW114720   2.855   0.006   2.239 -2.6593  0.1744  2.4752
 1087SOL    HW214721   2.853   4.693   2.383  0.0665 -0.4527 -0.1150
 1088SOL     OW14722   4.702   0.437   7.526 -0.1312  0.0962  0.1853
 1088SOL    HW114723   0.009   0.455   7.614 -1.8569  0.1166  0.8102
 1088SOL    HW214724   4.672   0.526   7.507 -1.5902 -0.8012 -1.7969
 1089SOL     OW14725   0.468   0.432   7.586  0.3772  0.2074 -0.5345
 1089SOL    HW114726   0.390   0.392   7.547 -0.7485  3.3608 -1.5385
 1089SOL    HW214727   0.431   0.513   7.621  1.5332  0.3810  0.2978
 1090SOL     OW14728   3.702   3.725   8.616 -0.2314 -0.1628  0.1776
 1090SOL    HW114729   3.781   3.707   8.565  0.7335 -0.3132  1.7253
 1090SOL    HW214730   3.750   3.747   8.696 -0.8558  0.7274  0.3104
 1091SOL     OW14731   4.221   1.435   5.112 -0.1827  0.3708 -0.1925
 1091SOL    HW114732   4.273   1.505   5.150  0.4525  0.4070 -1.1413
 1091SOL    HW214733   4.208   1.391   5.196  2.2373 -1.7960 -0.9457
 1092SOL     OW14734   1.515   0.797   9.053  0.4391  0.4041 -0.0616
 1092SOL    HW114735   1.533   0.732   8.985  2.9597 -0.4197  1.3836
 1092SOL    HW214736   1.503   0.870   8.992 -1.2647  2.0861  2.2851
 1093SOL     OW14737   0.225   1.898   9.457 -0.2080 -0.2571  0.5446
 1093SOL    HW114738   0.200   1.958   9.526  1.1773  2.1710 -1.0790
 1093SOL    HW214739   0.140   1.853   9.451 -0.3677  0.3149 -1.6410
 1094SOL     OW14740   2.636   2.807   8.818  0.0996 -0.2428 -0.6958
 1094SOL    HW114741   2.635   2.778   8.727  1.5546 -0.1115 -0.7581
 1094SOL    HW214742   2.605   2.721   8.847 -0.8457 -0.5179 -2.5442
 1095SOL     OW14743   2.634   4.221   5.188 -0.1355  0.1759  0.3629
 1095SOL    HW114744   2.640   4.142   5.241  2.5147  1.5696  2.1112
 1095SOL    HW214745   2.717   4.225   5.140 -1.5117 -2.5724 -2.2155
 1096SOL     OW14746   2.082   1.432   4.021 -0.1298 -0.3526 -0.4396
 1096SOL    HW114747   2.082   1.472   4.108 -0.0039 -1.7740  0.2137
 1096SOL    HW214748   2.033   1.353   4.042 -1.3832  0.4792 -0.2472
 1097SOL     OW14749   0.262   0.320   5.572 -0.2593 -0.0813 -0.7845
 1097SOL    HW114750   0.352   0.327   5.541  0.8693 -3.2804  1.7266
 1097SOL    HW214751   0.232   0.246   5.519  0.4339 -1.1203  0.2712
 1098SOL     OW14752   2.560   3.131   3.581 -0.2175  0.1492  0.5098
 1098SOL    HW114753   2.650   3.100   3.578 -0.0598  0.6144  0.3178
 1098SOL    HW214754   2.520   3.080   3.650  1.5131 -1.4611  0.3255
 1099SOL     OW14755   3.971   0.288   4.709 -0.0106 -0.5456  0.6291
 1099SOL    HW114756   3.971   0.377   4.745 -0.6208 -0.5913  0.7462
 1099SOL    HW214757   4.003   0.251   4.791  0.0290 -0.8506  0.4763
 1100SOL     OW14758   4.394   0.962   4.978  0.6466 -0.0350 -0.1508
 1100SOL    HW114759   4.321   1.023   4.974 -0.2176 -1.1163 -1.1329
 1100SOL    HW214760   4.434   0.985   4.894  0.7447  1.4688  0.3020
 1101SOL     OW14761   3.112   1.113   3.412  0.0900 -0.0261  0.3571
 1101SOL    HW114762   3.129   1.118   3.318 -1.2944 -1.9438 -0.0020
 1101SOL    HW214763   3.203   1.097   3.435 -0.0433 -0.9026  0.2851
 1102SOL     OW14764   1.763   4.171   5.548 -0.4730 -0.4985  0.1296
 1102SOL    HW114765   1.815   4.240   5.507 -0.7405 -0.6378 -0.4407
 1102SOL    HW214766   1.679   4.218   5.551  0.2749  0.8103  0.4971
 1103SOL     OW14767   2.640   3.896  16.177  0.2119 -0.2307  0.1239
 1103SOL    HW114768   2.665   3.872  16.266  1.7737 -1.8918 -0.7467
 1103SOL    HW214769   2.710   3.859  16.122 -3.0256 -0.3163 -3.9692
 1104SOL     OW14770   1.671   3.441   5.816  0.1977 -0.4405  0.0776
 1104SOL    HW114771   1.613   3.477   5.884  1.4839 -1.3039  1.6462
 1104SOL    HW214772   1.659   3.347   5.817  1.3835 -0.5912  0.2962
 1105SOL     OW14773   0.982   0.881   8.543  0.1900 -0.3651 -0.9272
 1105SOL    HW114774   0.978   0.794   8.582 -1.1788 -1.2122 -2.9450
 1105SOL    HW214775   0.917   0.873   8.473  0.0858 -0.7902 -0.7818
 1106SOL     OW14776   3.240   3.889   8.312 -0.0276  0.0650  0.6698
 1106SOL    HW114777   3.325   3.849   8.294 -0.4402  0.0231 -1.2758
 1106SOL    HW214778   3.228   3.950   8.239 -0.0046 -0.8003 -0.0571
 1107SOL     OW14779   0.543   4.542  10.132 -0.1444 -0.4135 -0.2701
 1107SOL    HW114780   0.476   4.497  10.182  1.3905 -2.4445 -0.0468
 1107SOL    HW214781   0.510   4.632  10.139 -0.6173 -0.7464  1.7616
 1108SOL     OW14782   3.215   4.625   4.040  0.2472  0.4988 -0.3033
 1108SOL    HW114783   3.169   4.588   4.115 -0.6721  3.0765  0.4072
 1108SOL    HW214784   3.258   4.549   4.000 -0.2085  0.9038 -1.5545
 1109SOL     OW14785   3.163   4.487   1.397 -0.0109 -0.0045 -0.2694
 1109SOL    HW114786   3.222   4.450   1.463  0.8973 -2.5675 -2.4884
 1109SOL    HW214787   3.101   4.414   1.396  1.0944 -0.9234 -0.9498
 1110SOL     OW14788   3.082   1.503   1.703 -0.2844 -0.0288  0.3287
 1110SOL    HW114789   3.104   1.434   1.642 -1.5364  0.5973 -0.8293
 1110SOL    HW214790   3.164   1.516   1.751  0.3713  0.5126 -0.9408
 1111SOL     OW14791   0.611   0.816   0.612  0.3605  0.1754  0.1229
 1111SOL    HW114792   0.516   0.805   0.616  0.2367  1.4346  0.5358
 1111SOL    HW214793   0.621   0.903   0.573 -3.4846 -0.8744 -3.1419
 1112SOL     OW14794   0.310   4.175  17.028 -0.4551 -0.0548 -0.3534
 1112SOL    HW114795   0.241   4.211  17.084  0.3160 -0.9489  1.1636
 1112SOL    HW214796   0.274   4.091  16.998 -0.0174  0.0975 -1.3265
 1113SOL     OW14797   4.368   1.409   3.287 -0.0179  0.5967  0.3684
 1113SOL    HW114798   4.321   1.368   3.214  0.2280  0.1960  0.4312
 1113SOL    HW214799   4.421   1.475   3.241  0.0309  0.5824  0.4043
 1114SOL     OW14800   2.501   0.750   7.787  0.5665 -0.0317 -0.0347
 1114SOL    HW114801   2.523   0.659   7.807  1.1142  0.3072  0.9243
 1114SOL    HW214802   2.576   0.781   7.737 -1.6240  1.1804 -2.5320
 1115SOL     OW14803   0.155   2.811   3.469  0.3589 -0.1892 -0.1691
 1115SOL    HW114804   0.247   2.831   3.451  0.2641 -0.7901 -1.2678
 1115SOL    HW214805   0.159   2.780   3.560 -0.5389  0.6993  0.1692
 1116SOL     OW14806   3.614   1.315   6.846  0.1169 -0.4287 -0.0281
 1116SOL    HW114807   3.585   1.390   6.897 -0.7315 -0.3466 -0.6369
 1116SOL    HW214808   3.702   1.340   6.816  0.5850 -2.6228 -0.4677
 1117SOL     OW14809   3.416   3.548   3.174  0.1688  0.1420  0.2737
 1117SOL    HW114810   3.403   3.591   3.090 -0.9296 -0.7744 -0.0191
 1117SOL    HW214811   3.404   3.615   3.242  0.8422 -0.1274  0.6552
 1118SOL     OW14812   1.374   4.190   1.592 -0.0012 -0.1901 -0.0587
 1118SOL    HW114813   1.423   4.123   1.544 -1.6261  0.0526 -2.0605
 1118SOL    HW214814   1.339   4.243   1.521 -0.4122  1.2028  1.1969
 1119SOL     OW14815   0.554   0.079   7.605  0.1771  0.2098  0.3946
 1119SOL    HW114816   0.562   0.164   7.562  1.1240  0.3798  0.9077
 1119SOL    HW214817   0.507   0.030   7.538  1.3374 -1.5201  0.8266
 1120SOL     OW14818   3.486   0.369   9.782 -0.6749 -0.2460 -0.2516
 1120SOL    HW114819   3.430   0.331   9.850 -1.1354  0.2363 -0.3614
 1120SOL    HW214820   3.572   0.349   9.820 -0.8019 -0.3693 -0.0258
 1121SOL     OW14821   2.920   2.756   3.645  0.2725  0.1126  0.1652
 1121SOL    HW114822   2.967   2.838   3.664  4.0212 -2.4369  1.7757
 1121SOL    HW214823   2.829   2.774   3.666  0.3287 -0.1505  0.6164
 1122SOL     OW14824   1.394   1.487   6.195  0.1953 -0.1078  0.8346
 1122SOL    HW114825   1.382   1.406   6.145  0.0914  0.2922  0.2184
 1122SOL    HW214826   1.308   1.502   6.234  0.0353 -0.2102  0.5275
 1123SOL     OW14827   1.735   0.805   9.313 -0.2612 -0.7578  0.4477
 1123SOL    HW114828   1.737   0.822   9.219  2.9588 -2.1018  0.2928
 1123SOL    HW214829   1.826   0.821   9.335 -1.0752  0.9601  2.5305
 1124SOL     OW14830   3.418   0.089   0.802 -0.7566 -0.1995 -0.1884
 1124SOL    HW114831   3.384   0.169   0.841  1.4315  0.2581  0.7638
 1124SOL    HW214832   3.338   0.047   0.771  0.3762 -2.2018 -0.4459
 1125SOL     OW14833   3.252   2.490  12.074 -0.1213 -0.3320 -0.2567
 1125SOL    HW114834   3.268   2.516  12.165  1.1468 -0.9163 -0.3193
 1125SOL    HW214835   3.214   2.403  12.088 -2.0734  0.2380 -1.9314
 1126SOL     OW14836   2.879   4.517  10.456 -0.3973  0.0428  0.6123
 1126SOL    HW114837   2.946   4.566  10.504  0.3018  0.7274 -1.0413
 1126SOL    HW214838   2.895   4.434  10.500  0.8087  0.1170  0.3199
 1127SOL     OW14839   4.651   3.472   4.995 -1.0880 -0.4446  0.0567
 1127SOL    HW114840   4.677   3.562   5.013 -1.2123 -0.2799 -0.5886
 1127SOL    HW214841   4.630   3.439   5.083 -0.0762 -2.5869 -0.5125
 1128SOL     OW14842   1.798   3.878   4.185 -0.3467 -0.2634  0.2022
 1128SOL    HW114843   1.734   3.900   4.118 -1.4904 -0.8154  1.1052
 1128SOL    HW214844   1.816   3.967   4.215  2.0525 -1.3250  1.9474
 1129SOL     OW14845   2.872   4.002   1.931  0.1116 -0.3162  0.0923
 1129SOL    HW114846   2.891   3.914   1.962  2.9468  0.7525  1.4236
 1129SOL    HW214847   2.835   3.993   1.843 -1.7740  0.0100  0.8450
 1130SOL     OW14848   3.993   4.636   1.938  0.2138  0.2593  0.6571
 1130SOL    HW114849   4.047   4.690   1.881  0.5831 -1.1529 -0.3212
 1130SOL    HW214850   4.038   4.552   1.928 -1.2988 -0.5583  0.7669
 1131SOL     OW14851   1.680   0.094   6.677  0.1173  0.1627 -0.4953
 1131SOL    HW114852   1.627   0.055   6.747  1.8188 -1.2566 -0.0145
 1131SOL    HW214853   1.706   0.013   6.633 -1.1811 -0.7558  0.3993
 1132SOL     OW14854   1.956   3.495   7.832  0.2557 -0.3976 -0.6511
 1132SOL    HW114855   1.972   3.568   7.771 -3.0858  1.7839  1.0957
 1132SOL    HW214856   2.025   3.510   7.897 -0.1388 -0.1938 -0.2825
 1133SOL     OW14857   3.009   4.432  15.574  0.3263  0.5237  0.0842
 1133SOL    HW114858   3.027   4.374  15.649 -1.7949 -0.0376  0.1666
 1133SOL    HW214859   2.996   4.516  15.619  2.1817  0.5882  0.4891
 1134SOL     OW14860   4.693   2.853   4.684 -0.3599  0.3763 -0.4145
 1134SOL    HW114861   4.608   2.897   4.693  0.0459  0.9949  0.4083
 1134SOL    HW214862   4.706   2.853   4.589 -1.7900  0.1981 -0.6118
 1135SOL     OW14863   4.590   0.774   5.045 -0.3729 -0.3522  0.1344
 1135SOL    HW114864   4.543   0.726   5.113  0.4466 -0.9128  0.3160
 1135SOL    HW214865   4.536   0.853   5.039 -0.9627 -0.7239  0.6536
 1136SOL     OW14866   0.155   4.547   7.410  0.1670  0.0456 -0.0696
 1136SOL    HW114867   0.171   4.453   7.422  0.0900  0.2027  1.2700
 1136SOL    HW214868   0.061   4.544   7.425  0.5509 -0.1805  2.3872
 1137SOL     OW14869   2.138   1.218  12.375 -0.5227  0.3401 -0.1863
 1137SOL    HW114870   2.130   1.261  12.290  3.1885  0.4213 -0.4809
 1137SOL    HW214871   2.068   1.263  12.422 -0.6327 -0.1657  0.1394
 1138SOL     OW14872   1.250   0.088   8.474  0.1725 -0.2998 -0.3839
 1138SOL    HW114873   1.275   0.004   8.512  1.2423  0.3591  0.3621
 1138SOL    HW214874   1.158   0.094   8.501  1.1787  0.9809  2.6463
 1139SOL     OW14875   1.211   2.269   1.820  0.5730 -0.0430 -0.4510
 1139SOL    HW114876   1.193   2.175   1.821  1.8231 -0.2834 -0.9188
 1139SOL    HW214877   1.181   2.295   1.733  3.6938  1.5101 -1.0407
 1140SOL     OW14878   2.985   4.541   2.967 -0.4589  0.6081  0.1194
 1140SOL    HW114879   3.041   4.485   3.021 -0.6362  1.4482  1.1701
 1140SOL    HW214880   3.023   4.530   2.879 -1.2914 -1.0938 -0.0428
 1141SOL     OW14881   4.409   0.109  10.519 -0.5081 -0.1347 -0.4258
 1141SOL    HW114882   4.459   0.038  10.479  0.8289  0.7573 -0.3491
 1141SOL    HW214883   4.371   0.142  10.438 -1.7569  1.6202  0.8890
 1142SOL     OW14884   3.028   3.498   4.122 -0.6937 -0.2469  0.0779
 1142SOL    HW114885   3.056   3.459   4.039  0.0872  2.5665 -0.9899
 1142SOL    HW214886   2.935   3.498   4.100 -1.0496 -0.0697  1.6339
 1143SOL     OW14887   2.227   0.753  15.679 -0.1124  0.4213  0.0929
 1143SOL    HW114888   2.291   0.814  15.716 -3.7545  1.6661  4.3254
 1143SOL    HW214889   2.213   0.789  15.592 -0.2063  2.4965  0.9603
 1144SOL     OW14890   0.547   1.321   8.667  0.4170  0.1570  0.2635
 1144SOL    HW114891   0.515   1.266   8.739 -1.2062  0.5656 -0.1474
 1144SOL    HW214892   0.468   1.351   8.622  0.7226 -0.9797 -1.0303
 1145SOL     OW14893   1.737   3.729   7.445 -0.3114  0.3723 -0.5299
 1145SOL    HW114894   1.748   3.796   7.512 -1.7883  0.7798 -0.6855
 1145SOL    HW214895   1.812   3.669   7.448 -0.0972  0.6657 -0.1627
 1146SOL     OW14896   1.662   2.165  17.675 -0.0150  0.0026  0.2135
 1146SOL    HW114897   1.581   2.143   0.021 -0.2413  1.3917  0.4727
 1146SOL    HW214898   1.661   2.102  17.603 -0.4971 -0.7625  0.8910
 1147SOL     OW14899   2.160   1.213   6.176 -0.2437 -0.9329 -0.0270
 1147SOL    HW114900   2.245   1.228   6.218 -0.9145 -0.4951  1.1915
 1147SOL    HW214901   2.130   1.304   6.171  1.1944 -0.4918 -0.7648
 1148SOL     OW14902   0.361   1.459   9.765 -0.5661  0.3771  0.2195
 1148SOL    HW114903   0.430   1.439   9.702 -0.7718 -1.5599  0.6266
 1148SOL    HW214904   0.309   1.381   9.748  0.1864  0.2381 -1.4657
 1149SOL     OW14905   1.193   1.661   4.400  0.6861  0.2583 -0.6921
 1149SOL    HW114906   1.167   1.750   4.424  2.3957  0.4720  0.3849
 1149SOL    HW214907   1.271   1.679   4.348  1.9797  1.6760  1.6983
 1150SOL     OW14908   0.927   3.278  11.508 -0.1827 -0.5659 -0.2663
 1150SOL    HW114909   0.906   3.328  11.587  2.0026  0.6049 -0.4213
 1150SOL    HW214910   1.010   3.312  11.475 -0.0088 -2.2980 -1.5931
 1151SOL     OW14911   3.667   2.561   1.899  0.3719  0.7675 -0.3322
 1151SOL    HW114912   3.615   2.504   1.955  0.6570  2.0183  1.2008
 1151SOL    HW214913   3.753   2.518   1.904  1.6376  3.1651 -1.3063
 1152SOL     OW14914   1.548   1.767  10.829  0.7713  0.3240 -0.1227
 1152SOL    HW114915   1.540   1.809  10.744 -0.4702 -1.3436 -0.8358
 1152SOL    HW214916   1.614   1.822  10.871 -0.4493  1.4082  0.3594
 1153SOL     OW14917   4.007   2.439  11.966 -0.8392  0.0234  0.0743
 1153SOL    HW114918   3.967   2.444  11.879  0.0624 -1.1402 -0.4079
 1153SOL    HW214919   4.100   2.430  11.946 -0.6722  0.9539  0.4309
 1154SOL     OW14920   4.702   2.673  15.287  0.2114  0.0441  0.0125
 1154SOL    HW114921   4.632   2.608  15.288  0.9376 -0.7212  0.6591
 1154SOL    HW214922   0.040   2.640  15.351  0.5372  3.6015  1.5659
 1155SOL     OW14923   3.524   0.662   3.148 -0.1792 -0.4993  0.0727
 1155SOL    HW114924   3.490   0.574   3.132 -0.6798 -0.5444  1.4353
 1155SOL    HW214925   3.473   0.721   3.093 -0.4513 -1.3963 -0.6446
 1156SOL     OW14926   0.826   1.131   8.023 -0.2611 -0.2780 -0.6965
 1156SOL    HW114927   0.733   1.153   8.038  0.0994  0.7804  0.0358
 1156SOL    HW214928   0.870   1.205   8.065 -0.5997 -1.0817  1.0746
 1157SOL     OW14929   4.387   3.628   9.385 -0.0951  0.2493 -0.4224
 1157SOL    HW114930   4.363   3.537   9.398  0.6247  0.2325  0.7556
 1157SOL    HW214931   4.414   3.626   9.293  1.4319 -2.7796  0.0831
 1158SOL     OW14932   1.113   1.692  14.190  0.2075  0.6292  0.6573
 1158SOL    HW114933   1.138   1.601  14.172  0.7880  1.1955 -1.4494
 1158SOL    HW214934   1.026   1.705  14.153  0.8760  0.8089 -0.8620
 1159SOL     OW14935   4.357   2.921   3.975  0.4668 -0.1671 -0.0345
 1159SOL    HW114936   4.297   2.988   4.005  1.2374  0.7262 -0.4912
 1159SOL    HW214937   4.318   2.913   3.888  0.8118  1.1361 -0.2940
 1160SOL     OW14938   0.822   0.925   8.271  0.2001  0.9234 -0.4058
 1160SOL    HW114939   0.798   1.012   8.239  0.9375  1.6973  1.1269
 1160SOL    HW214940   0.734   0.889   8.277  0.7203 -0.1004  1.1376
 1161SOL     OW14941   2.189   2.031  15.618 -0.3116 -0.3096  0.0646
 1161SOL    HW114942   2.204   2.118  15.654 -0.1127 -0.4329  0.2758
 1161SOL    HW214943   2.281   2.007  15.606 -0.3769  0.8432 -2.6794
 1162SOL     OW14944   1.802   2.953   8.609 -0.3841 -0.4326  0.2927
 1162SOL    HW114945   1.792   3.044   8.635 -4.2977 -0.1645 -2.0407
 1162SOL    HW214946   1.821   2.914   8.694 -3.9117  0.5545  1.5374
 1163SOL     OW14947   2.402   3.933  12.385 -0.0370 -0.3043 -0.0032
 1163SOL    HW114948   2.335   3.868  12.406 -1.0573  0.5718 -0.5787
 1163SOL    HW214949   2.455   3.939  12.464  0.3437 -0.2529 -0.2629
 1164SOL     OW14950   3.686   0.471   3.954  0.1811 -0.1956  1.0592
 1164SOL    HW114951   3.761   0.480   4.012  0.2352  1.6137  0.7169
 1164SOL    HW214952   3.738   0.468   3.873  0.4353  1.1415  1.1761
 1165SOL     OW14953   1.124   3.217   7.134 -0.0590  0.4174 -0.0905
 1165SOL    HW114954   1.130   3.157   7.060 -1.4259  2.9418 -2.2358
 1165SOL    HW214955   1.053   3.188   7.192  0.0862  3.0344  1.4090
 1166SOL     OW14956   3.253   2.025   6.192  0.1222  0.3942  0.2037
 1166SOL    HW114957   3.331   1.992   6.148 -0.8012  1.7946 -2.5488
 1166SOL    HW214958   3.227   2.098   6.136  0.1670  0.8766  0.8124
 1167SOL     OW14959   3.837   1.764   5.121 -0.1583 -0.5477 -0.1507
 1167SOL    HW114960   3.860   1.728   5.206 -1.0019  1.2915  0.8404
 1167SOL    HW214961   3.918   1.754   5.071 -0.5452 -0.5005 -0.7880
 1168SOL     OW14962   2.717   2.616   1.836  0.0457 -0.6909 -0.2643
 1168SOL    HW114963   2.796   2.566   1.856  0.3937  0.6641  1.6521
 1168SOL    HW214964   2.669   2.583   1.911  0.3540 -0.5814 -0.0201
 1169SOL     OW14965   4.483   1.848   5.477 -0.1158 -0.2294 -0.8225
 1169SOL    HW114966   4.457   1.883   5.392  2.5540 -0.8614 -1.9064
 1169SOL    HW214967   4.551   1.914   5.491  1.9555 -2.2188 -1.4365
 1170SOL     OW14968   0.271   4.424   3.170 -0.5570 -0.5612  0.1514
 1170SOL    HW114969   0.229   4.450   3.089  0.8112  1.7282  0.1935
 1170SOL    HW214970   0.364   4.444   3.157  0.3563 -2.3655  3.6434
 1171SOL     OW14971   2.144   0.744   0.110  0.0768 -0.3091  0.6413
 1171SOL    HW114972   2.230   0.770   0.077  0.0437 -0.2999  0.5620
 1171SOL    HW214973   2.086   0.780   0.043 -0.3815 -0.3194  1.0308
 1172SOL     OW14974   4.429   2.689   9.312 -0.1050 -0.1780  0.5247
 1172SOL    HW114975   4.507   2.733   9.347  1.7408 -3.9509  1.1104
 1172SOL    HW214976   4.409   2.637   9.390 -0.2594  1.5903  1.6771
 1173SOL     OW14977   3.866   0.067   7.390 -0.2222 -0.0014 -0.4304
 1173SOL    HW114978   3.939   0.022   7.434 -0.7095  1.6751  2.1184
 1173SOL    HW214979   3.803   0.003   7.357  0.3492 -0.7662 -0.0684
 1174SOL     OW14980   4.699   0.650   3.570  0.2132  0.1187 -0.0786
 1174SOL    HW114981   4.719   0.594   3.646  2.9089 -0.1992 -1.0120
 1174SOL    HW214982   4.654   0.589   3.511  0.0029  0.9864 -0.8033
 1175SOL     OW14983   2.063   3.454   6.191 -0.2561 -1.0310 -0.8223
 1175SOL    HW114984   2.092   3.440   6.281 -2.7485  0.1840  0.1483
 1175SOL    HW214985   2.129   3.520   6.168 -0.7122 -1.0825 -2.2709
 1176SOL     OW14986   2.530   3.911   2.702  0.4932 -0.2648 -0.1115
 1176SOL    HW114987   2.591   3.839   2.685  0.6751 -0.5358  1.6590
 1176SOL    HW214988   2.583   3.990   2.693 -3.2264  2.2923  0.7516
 1177SOL     OW14989   0.933   4.375   7.247 -0.2540  0.5517  0.1226
 1177SOL    HW114990   0.908   4.429   7.172 -1.8340  0.6605  0.7230
 1177SOL    HW214991   0.883   4.421   7.315  2.1551  0.3986  1.9933
 1178SOL     OW14992   3.954   0.817  17.491  0.0532  0.8473  0.0533
 1178SOL    HW114993   3.962   0.727  17.457 -0.1660 -0.3318  3.1370
 1178SOL    HW214994   3.888   0.843  17.427  0.5482  0.6675 -0.5382
 1179SOL     OW14995   4.631   4.002   7.691 -0.2447 -0.0242 -0.0182
 1179SOL    HW114996   4.595   4.060   7.623  2.1041  1.5078  0.0561
 1179SOL    HW214997   4.566   3.932   7.701  0.4735 -0.2865  2.7572
 1180SOL     OW14998   3.048   4.091   7.091 -0.2584 -0.3439 -0.0607
 1180SOL    HW114999   3.022   3.999   7.093 -1.6212  0.0326 -0.4165
 1180SOL    HW215000   2.962   4.130   7.072  0.2317 -0.6463 -2.9178
 1181SOL     OW15001   4.421   2.523   7.225  0.2738  0.1985  0.5240
 1181SOL    HW115002   4.358   2.512   7.296  0.2298  0.8510  0.5907
 1181SOL    HW215003   4.414   2.443   7.173 -0.1768  1.3345 -1.1595
 1182SOL     OW15004   0.321   2.948  13.664  0.0465 -0.1149 -0.4625
 1182SOL    HW115005   0.258   3.020  13.655 -0.5063 -0.4721  0.6588
 1182SOL    HW215006   0.280   2.875  13.618  0.8468 -0.3340 -0.8223
 1183SOL     OW15007   2.212   1.195  14.608  0.1396  0.1573  0.3717
 1183SOL    HW115008   2.135   1.239  14.573  0.0130 -0.7984 -0.5627
 1183SOL    HW215009   2.276   1.264  14.592  0.3209 -0.5287 -1.9540
 1184SOL     OW15010   2.273   3.531  12.263 -0.3115 -0.2735  0.1016
 1184SOL    HW115011   2.221   3.578  12.197 -0.7588 -1.3679 -0.3174
 1184SOL    HW215012   2.273   3.599  12.330  0.9081 -1.0632  0.8881
 1185SOL     OW15013   1.026   1.814   9.908  0.1524  0.6168 -0.4906
 1185SOL    HW115014   1.095   1.867   9.866  1.7758 -0.3624  0.9506
 1185SOL    HW215015   1.038   1.741   9.847  0.6504  0.7693 -0.5814
 1186SOL     OW15016   4.206   2.202  14.578 -0.3231 -0.7790  0.3318
 1186SOL    HW115017   4.202   2.232  14.487  1.8619 -1.7631 -0.0956
 1186SOL    HW215018   4.210   2.287  14.620  0.2467  0.5360 -2.3471
 1187SOL     OW15019   1.125   3.479  14.162 -0.1149 -0.2998 -0.1431
 1187SOL    HW115020   1.143   3.556  14.107 -1.2731  0.0587 -0.0172
 1187SOL    HW215021   1.082   3.425  14.096 -0.1429  0.7679 -1.0012
 1188SOL     OW15022   2.529   4.160   0.181  0.3628 -1.0141  0.2353
 1188SOL    HW115023   2.501   4.250   0.165 -1.2424 -1.6790 -0.6718
 1188SOL    HW215024   2.493   4.120   0.102  2.0801 -1.6361 -0.2289
 1189SOL     OW15025   3.489   3.559   0.961 -0.2206 -0.1023  0.2911
 1189SOL    HW115026   3.487   3.652   0.981 -2.9170 -0.4693  1.8678
 1189SOL    HW215027   3.471   3.520   1.047  1.2832 -0.9055  0.2292
 1190SOL     OW15028   4.142   3.512   0.685  0.7010 -0.5486  0.1631
 1190SOL    HW115029   4.111   3.491   0.773 -0.5013  0.6304  0.0231
 1190SOL    HW215030   4.191   3.593   0.698  0.7268 -0.9299  2.4308
 1191SOL     OW15031   3.735   2.464  13.172  0.2984 -0.9567  0.2601
 1191SOL    HW115032   3.651   2.427  13.201 -0.5589  0.9952  0.3374
 1191SOL    HW215033   3.685   2.543  13.148  2.7005 -0.0971 -1.8574
 1192SOL     OW15034   3.373   1.525   1.439  0.1981  0.6204 -0.6231
 1192SOL    HW115035   3.452   1.488   1.400  1.3332  0.0317  2.1929
 1192SOL    HW215036   3.307   1.487   1.381 -0.8481 -0.2437  1.1271
 1193SOL     OW15037   4.546   3.249   0.844  0.3416 -0.3025  0.2900
 1193SOL    HW115038   4.510   3.262   0.756  0.6803 -1.6876 -0.0525
 1193SOL    HW215039   4.486   3.314   0.882 -0.6321 -1.0093 -0.0564
 1194SOL     OW15040   1.034   0.882  14.907  0.3008  0.7183  0.5068
 1194SOL    HW115041   1.083   0.856  14.829 -1.9415  1.3284 -1.0856
 1194SOL    HW215042   1.008   0.973  14.889  1.3099  0.3750 -2.6273
 1195SOL     OW15043   1.298   1.880   6.816 -0.2251  0.0319  0.2113
 1195SOL    HW115044   1.273   1.944   6.749 -1.0953 -1.4428 -0.8784
 1195SOL    HW215045   1.298   1.939   6.891  2.6438  0.2841  0.0230
 1196SOL     OW15046   1.838   0.951   5.144  0.6726 -0.1216  0.6679
 1196SOL    HW115047   1.824   1.012   5.072 -2.7015 -1.8494 -0.1369
 1196SOL    HW215048   1.904   0.888   5.115  0.7183 -0.0720  0.6646
 1197SOL     OW15049   2.938   0.725   4.857  0.2083 -0.0711 -0.5095
 1197SOL    HW115050   2.864   0.690   4.807 -1.3032  0.8826  1.0754
 1197SOL    HW215051   2.978   0.786   4.795  0.8009 -0.2978 -0.3496
 1198SOL     OW15052   3.902   4.023   6.288  0.2961 -0.0896  0.0876
 1198SOL    HW115053   3.965   4.015   6.359  0.0486  0.2817  0.3516
 1198SOL    HW215054   3.928   4.105   6.246 -2.4425  0.7385 -0.0080
 1199SOL     OW15055   0.460   0.260  11.513 -0.0610 -0.2495 -0.3554
 1199SOL    HW115056   0.483   0.340  11.559 -1.6664 -0.1240  0.2254
 1199SOL    HW215057   0.389   0.286  11.455  1.1389  0.2601 -1.6002
 1200SOL     OW15058   3.970   1.562   6.659  0.3947 -0.0165 -0.2493
 1200SOL    HW115059   3.894   1.529   6.611  1.4330 -0.0770 -1.8385
 1200SOL    HW215060   4.043   1.510   6.626 -0.3726 -2.0917  1.3759
 1201SOL     OW15061   2.049   0.900  16.641  0.4922 -0.2822 -0.1120
 1201SOL    HW115062   2.094   0.984  16.652 -3.0157  1.5222  0.5252
 1201SOL    HW215063   1.965   0.925  16.603  0.0921 -0.0213  0.9274
 1202SOL     OW15064   3.910   4.117   1.941  0.3482 -0.0317  0.2907
 1202SOL    HW115065   4.002   4.118   1.912  0.9133 -0.2234  2.0807
 1202SOL    HW215066   3.873   4.164   1.866 -1.6269 -1.9575  0.0838
 1203SOL     OW15067   0.245   1.892   5.538  0.4069  0.0694  0.5715
 1203SOL    HW115068   0.311   1.842   5.586  0.0412  0.5843  1.6163
 1203SOL    HW215069   0.226   1.958   5.605 -0.9060  1.2394 -0.9412
 1204SOL     OW15070   0.213   0.390  11.778 -0.1058 -0.1702 -0.4928
 1204SOL    HW115071   0.237   0.480  11.761  0.8141 -0.5081 -0.9685
 1204SOL    HW215072   0.196   0.388  11.873 -0.5556 -1.2195 -0.5931
 1205SOL     OW15073   3.664   3.598   2.624  0.0236  0.4245  0.5373
 1205SOL    HW115074   3.754   3.576   2.600 -0.3976  0.2391 -0.8472
 1205SOL    HW215075   3.611   3.551   2.560  1.7756 -0.4167 -0.3011
 1206SOL     OW15076   3.811   3.808   6.170 -0.5227  0.1372 -0.3077
 1206SOL    HW115077   3.855   3.878   6.218  1.0064 -0.9446 -0.1210
 1206SOL    HW215078   3.806   3.738   6.236 -1.4608  1.9347  1.5290
 1207SOL     OW15079   1.107   1.100   9.425  0.2348 -0.1127  0.3835
 1207SOL    HW115080   1.024   1.080   9.381 -0.2333  0.5065  0.9727
 1207SOL    HW215081   1.076   1.130   9.511 -0.5474 -1.0980  0.4366
 1208SOL     OW15082   1.973   2.745   2.071  0.3722  0.0322  0.8353
 1208SOL    HW115083   2.053   2.751   2.017 -0.8968 -0.4762 -1.1044
 1208SOL    HW215084   1.964   2.836   2.098  0.3144  0.2219  0.1931
 1209SOL     OW15085   4.339   1.052   1.612 -0.3784 -0.5406  0.5572
 1209SOL    HW115086   4.292   0.978   1.572  1.2370 -0.9243 -0.6492
 1209SOL    HW215087   4.402   1.079   1.545 -1.0274  0.1605  0.2338
 1210SOL     OW15088   2.993   0.848  14.210  0.1757 -0.6257 -0.0333
 1210SOL    HW115089   2.904   0.867  14.241 -0.0483 -0.1333 -0.9700
 1210SOL    HW215090   2.972   0.829  14.119  0.0875  1.2014 -0.3937
 1211SOL     OW15091   3.477   3.898   5.238  0.2071 -0.1680 -0.4995
 1211SOL    HW115092   3.395   3.849   5.237  1.1006 -1.6499 -1.1641
 1211SOL    HW215093   3.473   3.929   5.148  0.0290 -0.0162 -0.4389
 1212SOL     OW15094   4.418   1.261   2.789 -0.0362  0.1155  0.0846
 1212SOL    HW115095   4.436   1.311   2.709  1.5170 -0.1332  0.2831
 1212SOL    HW215096   4.403   1.176   2.748 -0.8762  0.2106  0.1897
 1213SOL     OW15097   1.282   2.682  14.989  0.1842  0.5965 -0.2786
 1213SOL    HW115098   1.328   2.766  14.992  0.1243  0.6535 -1.0984
 1213SOL    HW215099   1.329   2.656  14.910 -0.0453 -2.1072  0.5004
 1214SOL     OW15100   4.446   4.152   5.884 -0.1637 -0.3552  0.3875
 1214SOL    HW115101   4.489   4.237   5.874  1.1009 -0.8516  1.4143
 1214SOL    HW215102   4.467   4.119   5.797  0.3789 -1.3669  0.8902
 1215SOL     OW15103   3.130   4.582  11.923  0.3905  0.0646 -0.2028
 1215SOL    HW115104   3.140   4.602  12.016  0.4623  2.3510 -0.6833
 1215SOL    HW215105   3.179   4.502  11.907 -0.1802 -0.0353 -1.4231
 1216SOL     OW15106   4.190   3.218  10.234  0.5817 -0.4395  0.0730
 1216SOL    HW115107   4.266   3.272  10.256  1.4512 -0.0163 -4.0586
 1216SOL    HW215108   4.235   3.160  10.174  1.8328 -1.1762  1.7149
 1217SOL     OW15109   4.510   1.117   2.187  0.2501 -0.3450  0.7491
 1217SOL    HW115110   4.490   1.129   2.280  0.1605 -0.3407  0.7301
 1217SOL    HW215111   4.572   1.048   2.208 -0.8644 -0.6939  2.9237
 1218SOL     OW15112   0.364   3.336   6.213 -0.1696 -0.4697 -0.0288
 1218SOL    HW115113   0.440   3.279   6.222  0.5780  0.4099 -0.7474
 1218SOL    HW215114   0.336   3.361   6.301  3.7757  0.2650  0.9875
 1219SOL     OW15115   3.690   1.348  15.067 -0.0242 -0.1178 -0.0553
 1219SOL    HW115116   3.776   1.382  15.090  1.3333 -3.9871  0.6268
 1219SOL    HW215117   3.707   1.256  15.088 -1.7373 -0.1140  1.3858
 1220SOL     OW15118   2.310   0.413  10.300  0.8338 -0.3106 -0.1987
 1220SOL    HW115119   2.399   0.446  10.311  0.3995  0.6714  0.4517
 1220SOL    HW215120   2.270   0.409  10.387  0.2303  1.1114 -0.4117
 1221SOL     OW15121   1.057   1.426  13.620  0.4365  0.8103  0.7396
 1221SOL    HW115122   1.017   1.363  13.679 -0.1859 -0.5139 -1.1183
 1221SOL    HW215123   0.986   1.437  13.557 -0.5934 -2.1697  1.3692
 1222SOL     OW15124   0.632   1.270   9.173 -0.6525 -0.0876  0.3525
 1222SOL    HW115125   0.695   1.318   9.226  1.1104 -0.0975 -1.7383
 1222SOL    HW215126   0.682   1.191   9.152  0.4521  0.6529  0.2042
 1223SOL     OW15127   0.664   1.577   7.175  0.0868 -0.2549 -0.5631
 1223SOL    HW115128   0.657   1.669   7.147 -2.9990 -0.1942  0.3699
 1223SOL    HW215129   0.754   1.561   7.148 -0.1581 -0.3414 -1.3288
 1224SOL     OW15130   4.149   4.381   6.568 -0.3094  0.5892 -0.4430
 1224SOL    HW115131   4.110   4.466   6.546 -2.1040  0.1946  1.1781
 1224SOL    HW215132   4.074   4.322   6.564 -0.7367  1.0403  0.7806
 1225SOL     OW15133   1.301   3.548   3.570 -0.4213  0.3521 -0.0543
 1225SOL    HW115134   1.325   3.456   3.576  0.3434  0.5237 -0.4545
 1225SOL    HW215135   1.206   3.548   3.579 -0.5218 -0.5428 -1.1748
 1226SOL     OW15136   0.634   2.753   1.834 -0.1569 -0.6520 -0.4553
 1226SOL    HW115137   0.587   2.776   1.754  0.6416 -1.5753 -1.1811
 1226SOL    HW215138   0.576   2.693   1.882 -0.6408  0.7831  0.7611
 1227SOL     OW15139   3.375   3.524  15.814  0.2889  0.3351  0.5696
 1227SOL    HW115140   3.391   3.444  15.763 -1.1283  0.3104  0.1600
 1227SOL    HW215141   3.461   3.527  15.856  0.5538  1.2864 -0.0474
 1228SOL     OW15142   0.646   0.502   7.934 -0.1481 -0.7595 -0.0869
 1228SOL    HW115143   0.697   0.421   7.934  0.0581 -0.6289 -0.4823
 1228SOL    HW215144   0.627   0.510   7.840 -0.5885  1.9187  0.2381
 1229SOL     OW15145   3.582   0.842  13.809 -0.4977  0.2787 -0.1166
 1229SOL    HW115146   3.514   0.870  13.749  0.9650  2.6093 -0.6646
 1229SOL    HW215147   3.653   0.903  13.790  1.3585 -1.2771  1.7632
 1230SOL     OW15148   2.879   0.293   9.287  0.3917 -0.0902  0.1396
 1230SOL    HW115149   2.800   0.317   9.238  0.0347 -1.7226 -0.0910
 1230SOL    HW215150   2.895   0.204   9.256  0.7227  0.4494 -1.2266
 1231SOL     OW15151   3.295   1.696   4.707  0.5402  0.0631 -0.0887
 1231SOL    HW115152   3.391   1.688   4.710  0.6418  2.1443  1.4405
 1231SOL    HW215153   3.276   1.632   4.776  2.4784  0.7456  1.0815
 1232SOL     OW15154   0.992   1.048   7.503 -0.3191 -0.1939 -0.2134
 1232SOL    HW115155   1.067   1.019   7.451 -1.2654 -3.6559  0.3831
 1232SOL    HW215156   1.022   1.119   7.560 -1.3357  0.6639 -0.7691
 1233SOL     OW15157   3.954   0.508   4.058 -0.6947  0.0459  0.1984
 1233SOL    HW115158   4.003   0.510   3.976 -1.1214 -1.0911 -0.0883
 1233SOL    HW215159   3.979   0.589   4.103  1.1405 -0.3590 -0.0737
 1234SOL     OW15160   3.890   2.840   6.640  0.0369  0.0255  0.1292
 1234SOL    HW115161   3.935   2.923   6.660 -1.9761  0.7578  1.5474
 1234SOL    HW215162   3.807   2.855   6.684 -1.6152 -1.1174 -2.6342
 1235SOL     OW15163   0.249   1.874  13.085  0.2712  0.0568 -0.3094
 1235SOL    HW115164   0.339   1.860  13.054  0.3968  0.2756 -0.0456
 1235SOL    HW215165   0.254   1.956  13.135 -0.1238  0.8788 -1.6210
 1236SOL     OW15166   0.201   0.044  13.766 -0.4567  0.4604 -0.4315
 1236SOL    HW115167   0.221   0.081  13.680 -1.2333  2.1644  0.1308
 1236SOL    HW215168   0.284   0.060  13.811  0.2920 -0.4687 -1.4768
 1237SOL     OW15169   0.226   0.720   9.872 -0.0401  0.7100  0.1264
 1237SOL    HW115170   0.230   0.751   9.782 -0.3726  1.1427  0.2594
 1237SOL    HW215171   0.317   0.734   9.898  0.0718 -0.2715  0.2910
 1238SOL     OW15172   2.666   2.179   6.908 -0.2307 -0.5233 -0.0290
 1238SOL    HW115173   2.756   2.197   6.934 -0.2308  1.0028 -1.0626
 1238SOL    HW215174   2.647   2.268   6.879 -2.7357 -0.9682  0.2341
 1239SOL     OW15175   2.633   0.438   8.367  1.1274 -0.3156 -0.3223
 1239SOL    HW115176   2.702   0.498   8.394 -0.1140 -1.0020  4.3877
 1239SOL    HW215177   2.622   0.398   8.453  0.8972  0.0133 -0.2005
 1240SOL     OW15178   2.645   0.913  10.408 -0.2054 -0.1812 -0.4736
 1240SOL    HW115179   2.702   0.854  10.456 -1.8505 -2.3001 -1.1299
 1240SOL    HW215180   2.598   0.958  10.478  2.7026  1.4827  0.4183
 1241SOL     OW15181   2.672   3.507   2.144  0.0744 -0.1313 -0.3401
 1241SOL    HW115182   2.765   3.530   2.146  0.2010 -0.5694 -1.3456
 1241SOL    HW215183   2.669   3.452   2.223  0.1320  1.6917  0.9392
 1242SOL     OW15184   2.848   4.656  16.552 -0.2064  0.6123  0.0942
 1242SOL    HW115185   2.782   4.723  16.570  1.2386  1.9888  0.3552
 1242SOL    HW215186   2.786   4.587  16.529 -1.3962  2.5102 -2.2956
 1243SOL     OW15187   4.179   0.960   4.659 -0.0038  0.4284 -0.0866
 1243SOL    HW115188   4.148   1.034   4.607  0.9111  1.3092  0.6160
 1243SOL    HW215189   4.248   0.932   4.600  0.7689  0.4515  0.8058
 1244SOL     OW15190   4.554   1.195   7.608 -0.2237 -0.0069 -0.3004
 1244SOL    HW115191   4.637   1.156   7.581 -1.2553 -0.7796 -2.3554
 1244SOL    HW215192   4.496   1.149   7.547  0.7156 -1.4639 -0.1068
 1245SOL     OW15193   1.084   2.694   7.230 -0.1526  0.3311  0.0582
 1245SOL    HW115194   1.157   2.637   7.253 -1.8103 -2.1140 -0.7263
 1245SOL    HW215195   1.013   2.634   7.207  0.4378 -1.0329  1.7696
 1246SOL     OW15196   0.973   2.844   9.013  0.4240 -0.1973 -0.0953
 1246SOL    HW115197   0.985   2.861   9.107  4.0664  1.9448 -0.9678
 1246SOL    HW215198   0.921   2.916   8.978  1.6345 -0.2065 -1.8918
 1247SOL     OW15199   1.442   3.328  15.190  0.5460 -0.6116 -0.0920
 1247SOL    HW115200   1.488   3.338  15.273  1.2678 -0.2645 -0.5376
 1247SOL    HW215201   1.426   3.234  15.198  1.0761 -0.7008 -0.0663
 1248SOL     OW15202   3.503   3.928   8.577 -0.0541 -0.1402  0.2747
 1248SOL    HW115203   3.557   3.859   8.616 -0.4615 -1.3212 -1.2391
 1248SOL    HW215204   3.426   3.905   8.629  0.9977 -1.4877  1.2288
 1249SOL     OW15205   0.017   0.075  10.726 -0.3994 -0.3006  0.1594
 1249SOL    HW115206   0.036   0.152  10.672  3.0772 -0.7598  0.7486
 1249SOL    HW215207   0.024   0.108  10.815 -3.9236  3.6392 -1.0132
 1250SOL     OW15208   0.535   4.655   6.962 -0.0407 -0.0029 -0.0260
 1250SOL    HW115209   0.506   4.589   7.024 -1.5696  0.6922 -0.0151
 1250SOL    HW215210   0.543   0.006   7.020 -0.2078 -0.0295  0.0303
 1251SOL     OW15211   2.329   4.185   2.756  0.4713 -0.0567 -0.4350
 1251SOL    HW115212   2.292   4.142   2.833 -1.6088  2.8001  0.1917
 1251SOL    HW215213   2.314   4.121   2.686  0.5326 -0.5701  0.0233
 1252SOL     OW15214   3.299   1.821  11.903 -0.1368 -0.2045 -0.3549
 1252SOL    HW115215   3.372   1.768  11.872  2.0010  2.1928  0.6362
 1252SOL    HW215216   3.299   1.803  11.997  1.0913  0.0992 -0.3019
 1253SOL     OW15217   4.604   3.418   6.494  0.3614 -0.7322  0.4903
 1253SOL    HW115218   4.589   3.512   6.496 -1.6657 -1.0461  0.2714
 1253SOL    HW215219   4.549   3.386   6.423  0.0130  0.1219  0.3846
 1254SOL     OW15220   0.771   3.634   6.375  0.1527  0.4530  0.5436
 1254SOL    HW115221   0.836   3.692   6.335  0.2642 -0.7724 -1.0750
 1254SOL    HW215222   0.748   3.586   6.295 -0.0798  0.0006  0.8778
 1255SOL     OW15223   1.537   0.955  12.202 -0.9335  0.1383  0.6798
 1255SOL    HW115224   1.451   0.917  12.186 -0.8643  0.5418 -0.7248
 1255SOL    HW215225   1.598   0.929  12.132 -1.8256  0.5613 -0.2502
 1256SOL     OW15226   3.804   0.652   2.033 -0.0766 -0.4205  0.1421
 1256SOL    HW115227   3.735   0.705   2.072 -0.4925 -1.4542  0.8277
 1256SOL    HW215228   3.795   0.580   2.095 -2.6443 -0.2682 -0.0659
 1257SOL     OW15229   4.437   3.527   7.393 -0.4637  0.0021 -0.0414
 1257SOL    HW115230   4.475   3.439   7.387  0.8817  0.6405 -0.9640
 1257SOL    HW215231   4.385   3.540   7.314 -1.3510 -1.5123  0.2780
 1258SOL     OW15232   2.903   2.806   4.130 -0.1367 -0.8184  0.5238
 1258SOL    HW115233   2.923   2.757   4.210 -2.9496 -0.0136  1.6814
 1258SOL    HW215234   2.847   2.871   4.173 -1.3885 -1.3822 -0.2707
 1259SOL     OW15235   3.261   3.623   5.261 -0.5272 -0.3940 -0.3565
 1259SOL    HW115236   3.295   3.537   5.286 -0.6510 -0.3533 -0.0552
 1259SOL    HW215237   3.241   3.660   5.347 -0.7592  1.1840 -1.0808
 1260SOL     OW15238   3.882   2.140   5.201  0.0586  0.4440 -0.0964
 1260SOL    HW115239   3.848   2.178   5.282 -0.5480  0.8681 -0.5547
 1260SOL    HW215240   3.941   2.073   5.235 -1.7314 -1.4053 -0.6776
 1261SOL     OW15241   3.764   2.990   7.188  0.4418  0.3253 -0.2275
 1261SOL    HW115242   3.840   3.027   7.231  0.6942 -2.1199  1.4579
 1261SOL    HW215243   3.710   2.964   7.263 -0.2449 -1.5179 -1.3473
 1262SOL     OW15244   4.386   2.355   3.990 -0.0156  0.1379 -0.0337
 1262SOL    HW115245   4.390   2.450   3.979 -2.8102  0.4839  1.8778
 1262SOL    HW215246   4.348   2.340   3.903 -0.1987  0.0822  0.0555
 1263SOL     OW15247   2.897   2.804   7.155  0.1408  0.2191  0.1228
 1263SOL    HW115248   2.866   2.726   7.201 -0.9673  1.4255  1.4081
 1263SOL    HW215249   2.959   2.767   7.092  2.2732  1.0413  1.7389
 1264SOL     OW15250   2.378   0.748  16.409  0.1578  0.3923  0.7201
 1264SOL    HW115251   2.470   0.720  16.407  0.3926  1.2666 -1.0409
 1264SOL    HW215252   2.347   0.767  16.497 -2.1671  0.2900 -0.0768
 1265SOL     OW15253   0.208   4.027  11.255 -0.1261  0.4196  0.5442
 1265SOL    HW115254   0.172   4.026  11.166  1.3126  1.6059 -0.0595
 1265SOL    HW215255   0.301   4.006  11.246 -0.2933 -0.5063  1.0218
 1266SOL     OW15256   2.530   2.333   9.032  0.5149  0.8420  0.4033
 1266SOL    HW115257   2.576   2.301   9.110 -1.9904 -0.0142  1.5174
 1266SOL    HW215258   2.444   2.302   9.059  0.9346 -1.8416 -1.3178
 1267SOL     OW15259   2.664   2.714   7.605  0.0517 -0.0870 -0.3996
 1267SOL    HW115260   2.584   2.756   7.635  0.3517  0.9117 -0.9933
 1267SOL    HW215261   2.631   2.700   7.516 -1.5077  1.6016 -0.0779
 1268SOL     OW15262   4.438   3.013   8.016 -0.2065 -0.2638 -0.5508
 1268SOL    HW115263   4.464   2.947   8.081  1.6720  0.3498 -0.7065
 1268SOL    HW215264   4.505   2.987   7.954 -0.5184 -0.9350 -0.6126
 1269SOL     OW15265   3.302   3.259  11.464 -0.5358 -0.7839  0.5566
 1269SOL    HW115266   3.223   3.209  11.445 -0.8860  0.4020 -1.1028
 1269SOL    HW215267   3.360   3.190  11.497  0.7390 -0.7251 -1.5497
 1270SOL     OW15268   1.530   2.230   2.504  0.9984  0.7172 -0.1487
 1270SOL    HW115269   1.452   2.174   2.501  1.4702  0.0157  0.7501
 1270SOL    HW215270   1.545   2.209   2.596 -0.9955  1.9287  0.4483
 1271SOL     OW15271   1.011   4.495   5.795  0.0668  0.0842  0.1105
 1271SOL    HW115272   1.029   4.505   5.702 -1.8961 -0.7072 -0.3415
 1271SOL    HW215273   0.951   4.568   5.812 -0.1847  0.5281 -2.6627
 1272SOL     OW15274   3.243   0.311   9.904 -0.0448 -0.4196  0.0960
 1272SOL    HW115275   3.150   0.329   9.887 -0.4272 -1.2839  1.2423
 1272SOL    HW215276   3.248   0.383   9.966 -1.8046 -0.9199  0.8259
 1273SOL     OW15277   1.766   4.081   3.470 -0.3390  0.0956 -0.2478
 1273SOL    HW115278   1.788   4.124   3.553  0.3796  2.2836 -1.5816
 1273SOL    HW215279   1.680   4.110   3.440 -0.6618 -2.0127 -1.3628
 1274SOL     OW15280   3.201   0.348  10.984 -0.2771  0.2997  0.4353
 1274SOL    HW115281   3.173   0.395  11.063 -0.2908  0.3946  0.3746
 1274SOL    HW215282   3.285   0.382  10.953 -1.1142  1.7162 -0.2753
 1275SOL     OW15283   1.961   3.359   0.148  0.3167  0.1331 -0.3284
 1275SOL    HW115284   2.009   3.335   0.069  1.8778  0.0191  0.6663
 1275SOL    HW215285   2.008   3.438   0.174  0.2384 -0.3950  1.3861
 1276SOL     OW15286   1.506   1.045   8.052 -0.1252  0.0714 -0.0369
 1276SOL    HW115287   1.590   1.052   8.007 -0.1091 -2.1176 -0.3522
 1276SOL    HW215288   1.474   0.960   8.022  1.8313 -0.8235  0.4098
 1277SOL     OW15289   0.593   0.843   3.562 -0.3101  0.5112  0.5740
 1277SOL    HW115290   0.513   0.890   3.540 -0.4374 -0.8393 -1.9079
 1277SOL    HW215291   0.643   0.916   3.597 -2.4648  2.0894  0.3181
 1278SOL     OW15292   2.965   0.952  12.749 -0.2987 -0.4990 -0.2518
 1278SOL    HW115293   2.873   0.927  12.751  0.0428 -1.7276  0.1951
 1278SOL    HW215294   2.968   1.021  12.683 -1.0228 -1.4163 -1.2292
 1279SOL     OW15295   4.443   0.745   5.563 -0.1930 -0.0202  0.0273
 1279SOL    HW115296   4.487   0.696   5.633 -0.2804  1.0195  0.8273
 1279SOL    HW215297   4.416   0.673   5.507 -1.4453  0.1600  0.4001
 1280SOL     OW15298   2.422   2.753   2.280  0.3119  0.2531  0.6056
 1280SOL    HW115299   2.428   2.664   2.246 -1.7057  0.4340 -0.2036
 1280SOL    HW215300   2.406   2.797   2.197  1.1947  0.7842  0.7176
 1281SOL     OW15301   2.083   4.607   1.992 -0.1837 -0.3559 -0.1429
 1281SOL    HW115302   2.172   4.620   2.024  0.7499  0.3385 -3.0316
 1281SOL    HW215303   2.087   4.519   1.954  0.6568 -1.7723  3.2308
 1282SOL     OW15304   1.258   2.179   4.266 -0.6202 -0.0920 -0.1997
 1282SOL    HW115305   1.320   2.249   4.284 -0.6526 -0.8144  2.7817
 1282SOL    HW215306   1.179   2.208   4.312  0.3548  2.1626  0.0776
 1283SOL     OW15307   2.972   2.680   5.123  0.4414 -0.0380 -0.3775
 1283SOL    HW115308   2.891   2.724   5.149 -0.3337 -0.3141 -2.3379
 1283SOL    HW215309   3.034   2.729   5.177 -2.0947  0.7061  1.8443
 1284SOL     OW15310   3.862   4.532  16.223  0.7234  0.1665  0.4497
 1284SOL    HW115311   3.796   4.600  16.214  0.5930 -0.2821 -1.8566
 1284SOL    HW215312   3.880   4.541  16.317  0.0752  0.3661  0.5517
 1285SOL     OW15313   0.928   1.575   7.759  0.2895 -0.2005  0.3151
 1285SOL    HW115314   1.021   1.561   7.744  0.0419  0.2271 -1.5829
 1285SOL    HW215315   0.928   1.591   7.853 -1.6414 -0.8262  0.4194
 1286SOL     OW15316   1.623   2.643   1.354  0.4928  0.8864 -0.1427
 1286SOL    HW115317   1.655   2.688   1.276 -0.6940  0.3837 -0.9269
 1286SOL    HW215318   1.578   2.716   1.396  1.8858  1.4528  0.3721
 1287SOL     OW15319   1.953   1.693   8.556  0.4511  0.2929  0.1693
 1287SOL    HW115320   1.872   1.686   8.505 -0.4231  0.3573  1.5321
 1287SOL    HW215321   1.991   1.607   8.572 -2.1077 -1.3708 -2.6631
 1288SOL     OW15322   0.013   2.285   4.462 -0.3367  0.1884  0.6125
 1288SOL    HW115323   0.101   2.305   4.495 -0.9682 -1.3255  3.2202
 1288SOL    HW215324   4.699   2.372   4.468 -1.5433 -0.2343 -0.9292
 1289SOL     OW15325   3.857   2.102  11.262  0.0662  0.4055  0.0456
 1289SOL    HW115326   3.838   2.023  11.313  2.4759 -0.0401  0.2607
 1289SOL    HW215327   3.938   2.076  11.219  0.4073  1.9045 -0.2366
 1290SOL     OW15328   2.403   1.194   7.168 -0.4474  0.4835  0.0672
 1290SOL    HW115329   2.348   1.125   7.204  0.7193 -0.2496  0.4546
 1290SOL    HW215330   2.488   1.173   7.206 -0.9283 -0.8239  0.4250
 1291SOL     OW15331   3.912   4.666   0.002 -0.1877 -0.0133 -0.2523
 1291SOL    HW115332   3.861   4.681   0.082 -1.0961  0.1945 -0.8824
 1291SOL    HW215333   3.976   0.012  17.701  2.2669 -2.2688 -1.7169
 1292SOL     OW15334   3.182   2.492   4.709  0.5246  0.2691  0.1019
 1292SOL    HW115335   3.170   2.399   4.728 -1.4592  0.8158  1.5060
 1292SOL    HW215336   3.186   2.531   4.796  0.5440 -0.6614  0.5146
 1293SOL     OW15337   1.658   3.344   1.353  0.1028 -0.6543  0.2069
 1293SOL    HW115338   1.630   3.413   1.292  1.1715 -1.4100 -1.1451
 1293SOL    HW215339   1.743   3.325   1.313 -0.7154  0.3610 -2.0386
 1294SOL     OW15340   1.148   2.960   5.701 -0.3234 -0.0075 -0.0311
 1294SOL    HW115341   1.185   2.980   5.786  0.4284 -1.4517 -0.0098
 1294SOL    HW215342   1.225   2.992   5.654 -1.9049  1.6501 -1.4708
 1295SOL     OW15343   2.523   2.605   4.730  0.3890 -0.1235  0.2110
 1295SOL    HW115344   2.480   2.631   4.812 -0.4817  1.4643 -0.7519
 1295SOL    HW215345   2.446   2.618   4.675  0.7202  2.8347  0.4860
 1296SOL     OW15346   3.419   0.478  17.338  0.4791 -0.8810 -0.3964
 1296SOL    HW115347   3.509   0.444  17.335  0.5965 -0.5242 -0.9058
 1296SOL    HW215348   3.365   0.399  17.332 -0.5272 -0.3452  1.3706
 1297SOL     OW15349   0.402   4.295   7.433  0.5079  0.3124  0.7662
 1297SOL    HW115350   0.443   4.327   7.353 -0.1405  0.6996  0.5889
 1297SOL    HW215351   0.389   4.204   7.406  1.6169  0.2233  0.5430
 1298SOL     OW15352   2.611   2.297  10.939  0.5238  0.4720  0.6586
 1298SOL    HW115353   2.585   2.369  10.996  0.2809 -0.8152  2.1785
 1298SOL    HW215354   2.531   2.280  10.888  0.9156 -2.3131  0.9428
 1299SOL     OW15355   4.701   3.553   6.001  0.4986 -0.0515 -0.0757
 1299SOL    HW115356   4.709   3.538   5.907  4.6188  1.3808  0.0566
 1299SOL    HW215357   0.067   3.569   6.028  0.5921 -2.3719  1.0400
 1300SOL     OW15358   2.446   3.254  15.976 -0.4367  0.2725  0.1968
 1300SOL    HW115359   2.430   3.220  15.888 -0.9156 -0.5345  0.5948
 1300SOL    HW215360   2.357   3.238  16.005 -0.7020 -0.0814 -0.8202
 1301SOL     OW15361   3.263   2.947   1.696 -0.1011 -0.1077 -0.0086
 1301SOL    HW115362   3.271   2.885   1.623  2.0278  1.6199 -1.2404
 1301SOL    HW215363   3.338   3.006   1.694 -0.9345  0.9742  0.7704
 1302SOL     OW15364   3.517   1.767   2.054 -0.1656  0.1110  0.0564
 1302SOL    HW115365   3.603   1.809   2.062  0.1944 -0.4634 -0.8005
 1302SOL    HW215366   3.540   1.719   1.975  0.6974 -2.3323  1.7981
 1303SOL     OW15367   0.808   1.794   0.053  0.1196  0.3573  0.6939
 1303SOL    HW115368   0.756   1.730   0.004  0.7236  1.1252 -0.9474
 1303SOL    HW215369   0.855   1.838  17.684  0.0602 -0.7734 -0.0560
 1304SOL     OW15370   2.713   0.596  10.498 -0.3793 -0.2666 -0.0209
 1304SOL    HW115371   2.773   0.582  10.572 -0.4558 -1.9480 -0.2649
 1304SOL    HW215372   2.774   0.594  10.423  1.2955 -1.5522  1.3515
 1305SOL     OW15373   2.283   2.510   2.145 -0.7020  0.2691 -0.6222
 1305SOL    HW115374   2.262   2.429   2.193 -1.3323  0.4823 -0.5340
 1305SOL    HW215375   2.192   2.541   2.137 -0.3047  1.9710  1.4784
 1306SOL     OW15376   4.544   4.345   1.643 -0.1818  0.1164 -0.3768
 1306SOL    HW115377   4.520   4.261   1.604  0.1021 -0.1126 -0.0647
 1306SOL    HW215378   4.593   4.374   1.566  0.6581  0.1255  0.1569
 1307SOL     OW15379   3.130   3.651  17.667 -0.3950 -0.3696  0.7397
 1307SOL    HW115380   3.125   3.612  17.580 -1.8399  0.1224  0.6010
 1307SOL    HW215381   3.154   3.742  17.647  1.1260 -0.9088  0.1807
 1308SOL     OW15382   0.713   4.302   5.781 -0.7055  0.2988 -0.6189
 1308SOL    HW115383   0.725   4.319   5.688  1.5560 -0.5227 -0.4751
 1308SOL    HW215384   0.798   4.259   5.792 -2.1749 -2.2696  0.8425
 1309SOL     OW15385   0.042   3.744  11.119  0.0851  0.2623  0.5843
 1309SOL    HW115386   0.050   3.790  11.203 -2.7286  0.7486  0.5819
 1309SOL    HW215387   0.041   3.822  11.065 -1.8198  0.4890  0.9635
 1310SOL     OW15388   3.763   3.871  15.982  0.0656  0.2081  0.2511
 1310SOL    HW115389   3.759   3.964  15.958  0.8625  0.1365 -0.1312
 1310SOL    HW215390   3.670   3.875  16.003 -0.1984 -0.6555 -0.7762
 1311SOL     OW15391   2.824   2.833   5.480  0.4584  0.2807  0.0343
 1311SOL    HW115392   2.827   2.793   5.393 -2.8416 -0.0169  0.0661
 1311SOL    HW215393   2.916   2.849   5.499  0.2184  0.3998  1.1077
 1312SOL     OW15394   0.687   2.481  13.829 -0.1770  0.0839 -0.2641
 1312SOL    HW115395   0.723   2.562  13.790  1.3485 -2.0579 -3.3258
 1312SOL    HW215396   0.611   2.518  13.874  1.1963  1.6315  0.7952
 1313SOL     OW15397   0.051   1.614   5.706 -0.2557  0.3369  0.4604
 1313SOL    HW115398   0.128   1.606   5.650  0.2457  2.0343  0.9202
 1313SOL    HW215399   0.020   1.525   5.727 -0.3106  0.1351 -0.4814
 1314SOL     OW15400   0.568   0.850   8.235 -0.2208 -0.1843 -0.3077
 1314SOL    HW115401   0.566   0.825   8.143 -1.0373 -0.4420 -0.2120
 1314SOL    HW215402   0.497   0.796   8.269 -0.5517 -0.5710 -1.6385
 1315SOL     OW15403   3.520   1.072   2.239  0.3153  0.4003  0.1151
 1315SOL    HW115404   3.554   1.126   2.311  1.0256 -1.5135  1.2198
 1315SOL    HW215405   3.469   1.002   2.281  0.9595  0.4556  0.9869
 1316SOL     OW15406   3.122   3.296   5.442  0.1249  0.4136 -0.1482
 1316SOL    HW115407   3.211   3.331   5.445  0.6205 -0.7689 -1.1886
 1316SOL    HW215408   3.095   3.312   5.533  2.8290  0.6792  0.6031
 1317SOL     OW15409   4.359   1.819   6.896 -1.4069 -0.1452 -0.2750
 1317SOL    HW115410   4.363   1.725   6.915 -1.2202 -0.0324  0.2264
 1317SOL    HW215411   4.267   1.847   6.903 -1.3712 -0.1713  0.2823
 1318SOL     OW15412   2.681   3.722   7.475  0.8015 -0.5323  0.0569
 1318SOL    HW115413   2.604   3.674   7.443  1.9868 -1.3610 -1.5624
 1318SOL    HW215414   2.646   3.783   7.540  0.0923 -0.8316 -0.0456
 1319SOL     OW15415   1.331   2.111   5.851  0.4414  0.1490  0.3627
 1319SOL    HW115416   1.330   2.050   5.925  1.9893 -1.7894 -1.2471
 1319SOL    HW215417   1.249   2.088   5.808  0.7760  1.9019 -1.2335
 1320SOL     OW15418   0.392   3.432   2.642  0.1425  0.5650  0.3050
 1320SOL    HW115419   0.452   3.470   2.578 -0.5919 -0.6008 -1.0572
 1320SOL    HW215420   0.462   3.388   2.692  0.0462 -0.3975 -0.4012
 1321SOL     OW15421   4.246   4.294   9.101 -0.1374  0.2532 -0.8347
 1321SOL    HW115422   4.262   4.203   9.077  1.5981 -0.1476  1.7682
 1321SOL    HW215423   4.166   4.301   9.152 -0.6620  2.0163 -1.8885
 1322SOL     OW15424   2.138   4.507   7.014  0.3577  0.3587 -0.0184
 1322SOL    HW115425   2.150   4.544   7.102 -1.0768  0.0195  0.3277
 1322SOL    HW215426   2.100   4.422   7.038  0.6314 -0.2025 -1.5697
 1323SOL     OW15427   0.018   2.228   5.839 -0.2657  0.0283  0.2209
 1323SOL    HW115428   0.080   2.197   5.905 -2.5284 -0.8754  1.9171
 1323SOL    HW215429   0.076   2.264   5.772 -2.0556 -2.4318 -2.6449
 1324SOL     OW15430   2.406   2.875   2.021 -0.3580 -0.1768 -0.1063
 1324SOL    HW115431   2.487   2.916   1.991 -0.9034  0.1710 -1.0930
 1324SOL    HW215432   2.349   2.952   2.026 -0.5119 -0.2308 -1.0522
 1325SOL     OW15433   3.794   0.300   5.876 -0.1063  0.4417 -0.8035
 1325SOL    HW115434   3.820   0.330   5.789  1.3013  0.1862 -0.4734
 1325SOL    HW215435   3.801   0.206   5.862 -1.7700  0.0457  0.9619
 1326SOL     OW15436   0.006   2.323   2.413 -0.4251 -0.5929 -0.4942
 1326SOL    HW115437   0.039   2.365   2.333  0.8718 -1.9071 -0.6629
 1326SOL    HW215438   4.680   2.397   2.444  1.0387  0.1195  0.1834
 1327SOL     OW15439   2.654   0.966  13.747 -0.3236 -0.4799 -0.4750
 1327SOL    HW115440   2.597   0.898  13.782 -1.6729  1.5077  1.2099
 1327SOL    HW215441   2.684   1.005  13.830 -0.1738 -0.9419 -0.3091
 1328SOL     OW15442   4.305   3.734   0.778  0.5995  0.1792  0.2567
 1328SOL    HW115443   4.275   3.823   0.758 -1.6231 -0.5229  0.4933
 1328SOL    HW215444   4.395   3.742   0.747  0.1928  1.6535 -0.5930
 1329SOL     OW15445   3.126   0.058   4.509 -0.0890 -0.8153 -0.3101
 1329SOL    HW115446   3.072   0.135   4.490  1.6459  0.0234 -1.7503
 1329SOL    HW215447   3.193   0.107   4.556 -0.5665 -1.1040  0.6949
 1330SOL     OW15448   3.948   1.581   3.643 -0.2897  0.1450 -0.2691
 1330SOL    HW115449   3.923   1.629   3.565  0.2346  1.2125  0.2173
 1330SOL    HW215450   3.940   1.491   3.611 -1.5911  0.8180 -1.8761
 1331SOL     OW15451   2.327   1.198   9.629  0.0199  0.4657 -0.6265
 1331SOL    HW115452   2.405   1.216   9.681 -0.2363 -0.8184  0.2098
 1331SOL    HW215453   2.358   1.239   9.549 -0.2541 -0.0484 -0.9925
 1332SOL     OW15454   2.584   4.527  17.337  0.2775  0.3215  0.5784
 1332SOL    HW115455   2.648   4.516  17.268  2.1088  2.2109  1.9656
 1332SOL    HW215456   2.534   4.446  17.335  3.9507 -1.8800 -1.5222
 1333SOL     OW15457   3.116   3.186   7.465  0.5577  0.0690  0.2063
 1333SOL    HW115458   3.092   3.218   7.378 -1.8464 -0.3918  0.7028
 1333SOL    HW215459   3.050   3.118   7.477 -1.7366  2.9304  3.6990
 1334SOL     OW15460   4.028   0.778   5.937  0.3507 -0.0697 -0.0575
 1334SOL    HW115461   4.065   0.715   5.999  0.8292  0.6662  0.4201
 1334SOL    HW215462   4.093   0.778   5.866  1.2302  0.8033  0.7258
 1335SOL     OW15463   3.638   0.699  16.883 -0.2777  0.2242 -0.2632
 1335SOL    HW115464   3.596   0.674  16.965 -0.0038 -1.2195 -0.5500
 1335SOL    HW215465   3.729   0.702  16.912 -0.0266  1.3545 -1.1612
 1336SOL     OW15466   3.293   2.203  12.701 -0.4642 -0.0663  0.9394
 1336SOL    HW115467   3.321   2.127  12.650 -1.4472  0.4142 -0.3283
 1336SOL    HW215468   3.329   2.183  12.787  0.7985 -0.4120  0.3311
 1337SOL     OW15469   0.085   4.616  15.277  0.0537  0.1216  0.1582
 1337SOL    HW115470   0.102   4.700  15.234 -0.0942  0.0936  0.0426
 1337SOL    HW215471   0.034   4.561  15.217 -1.1203  1.5910 -0.1965
 1338SOL     OW15472   0.348   0.601   7.788  0.1739  0.3377 -0.7970
 1338SOL    HW115473   0.365   0.646   7.870  0.1906 -0.3638 -0.4140
 1338SOL    HW215474   0.352   0.675   7.727 -0.2199  2.0917  1.3400
 1339SOL     OW15475   3.341   2.425   7.045  0.7173  0.6431 -0.2584
 1339SOL    HW115476   3.279   2.427   6.972 -0.1601 -0.4182  0.4547
 1339SOL    HW215477   3.425   2.441   7.002  1.4142 -1.0461  0.4590
 1340SOL     OW15478   1.677   1.940   2.241  0.3318  0.7206  0.0182
 1340SOL    HW115479   1.724   1.960   2.321  2.4915 -0.8149 -0.8886
 1340SOL    HW215480   1.622   2.019   2.241 -1.4574 -0.4970 -1.2774
 1341SOL     OW15481   3.893   0.019   7.750 -0.2325  0.4208 -0.6954
 1341SOL    HW115482   3.915   0.108   7.777  0.0227  0.1924 -0.1469
 1341SOL    HW215483   3.922   4.693   7.826 -1.9207  0.0842 -0.2699
 1342SOL     OW15484   4.219   0.246   4.185  0.3219 -0.5894 -0.4977
 1342SOL    HW115485   4.311   0.254   4.210 -0.1707 -1.7845  1.6387
 1342SOL    HW215486   4.213   0.159   4.223  1.6777 -0.3602  0.2299
 1343SOL     OW15487   3.545   2.701   6.487  0.4038  0.2548 -0.6699
 1343SOL    HW115488   3.593   2.783   6.483  0.4237  0.3435  1.5955
 1343SOL    HW215489   3.462   2.713   6.440 -0.7209 -2.8897  0.5222
 1344SOL     OW15490   1.250   2.134   8.642  0.0915 -0.3366  0.3825
 1344SOL    HW115491   1.299   2.215   8.632 -1.9241  1.1226  2.3568
 1344SOL    HW215492   1.197   2.137   8.722  1.1238  2.5877  0.9510
 1345SOL     OW15493   2.665   0.660   8.094  0.1764 -0.1712 -0.3500
 1345SOL    HW115494   2.677   0.585   8.153 -0.2656  0.0736  0.0434
 1345SOL    HW215495   2.604   0.633   8.025 -1.3998 -1.6865  1.6416
 1346SOL     OW15496   4.522   3.400   8.197 -0.0752 -0.0109  0.4310
 1346SOL    HW115497   4.497   3.475   8.251 -1.4550 -0.0861 -0.0982
 1346SOL    HW215498   4.485   3.326   8.245  1.2949 -2.1190 -1.7493
 1347SOL     OW15499   4.447   1.892   3.659  0.1330 -0.0460  0.0175
 1347SOL    HW115500   4.471   1.921   3.572  0.9795  1.0443  0.6150
 1347SOL    HW215501   4.351   1.898   3.660  0.2793  2.4752 -1.4597
 1348SOL     OW15502   3.972   0.807   6.982 -0.4621  0.6830 -0.2035
 1348SOL    HW115503   3.907   0.740   6.960  0.7330 -0.6875  0.4534
 1348SOL    HW215504   3.940   0.846   7.064 -1.1630 -0.1357 -0.0977
 1349SOL     OW15505   3.621   4.416   4.542  0.0817  0.4309  0.1283
 1349SOL    HW115506   3.673   4.460   4.475 -0.7188  0.7047 -0.3210
 1349SOL    HW215507   3.583   4.495   4.582  0.0999  1.2211 -1.4039
 1350SOL     OW15508   0.232   4.079   5.603 -0.4941  0.0071 -0.3046
 1350SOL    HW115509   0.200   4.143   5.540  0.3621  0.7980  0.0696
 1350SOL    HW215510   0.284   4.021   5.546 -0.2977  0.0122 -0.1280
 1351SOL     OW15511   3.376   3.247  10.414  0.3760  0.0735  0.2629
 1351SOL    HW115512   3.353   3.164  10.457 -2.0677 -0.9498 -3.0442
 1351SOL    HW215513   3.468   3.227  10.400 -0.1447 -1.7033 -0.6657
 1352SOL     OW15514   1.378   2.392  15.632  0.6790  0.0021 -0.4371
 1352SOL    HW115515   1.305   2.395  15.570  0.9871  1.1811 -0.7348
 1352SOL    HW215516   1.364   2.310  15.680  0.2905 -0.0761 -0.6805
 1353SOL     OW15517   1.296   1.376  13.177 -0.6767 -0.0336 -0.1732
 1353SOL    HW115518   1.209   1.344  13.153 -0.0204 -1.5350 -0.5890
 1353SOL    HW215519   1.287   1.389  13.271  1.0450 -0.4534  0.0542
 1354SOL     OW15520   4.031   2.807   7.741  0.2664  0.6268 -0.1630
 1354SOL    HW115521   4.065   2.896   7.727  2.1448  0.0530  0.7907
 1354SOL    HW215522   4.061   2.788   7.829  1.2340 -1.2203 -0.9013
 1355SOL     OW15523   1.914   0.165   7.194  0.3459 -0.4389  0.3909
 1355SOL    HW115524   1.838   0.193   7.143  0.8118 -0.6329 -0.4036
 1355SOL    HW215525   1.914   0.070   7.194 -0.5904 -0.4431  1.5673
 1356SOL     OW15526   0.554   1.404   9.595 -0.0483 -0.1430 -0.5006
 1356SOL    HW115527   0.597   1.464   9.534  1.7363 -0.2925  0.6002
 1356SOL    HW215528   0.609   1.326   9.587  3.4811  2.5347 -2.6779
 1357SOL     OW15529   1.654   4.351   7.818  0.2353 -0.0633 -0.1682
 1357SOL    HW115530   1.574   4.299   7.823 -1.0568  2.2571  2.9621
 1357SOL    HW215531   1.630   4.406   7.892 -0.1838 -2.6376  1.5777
 1358SOL     OW15532   1.812   0.994   4.610  0.0148  0.0356  0.5698
 1358SOL    HW115533   1.793   1.081   4.574  1.3228 -0.8155 -2.1973
 1358SOL    HW215534   1.888   1.006   4.667 -0.5049 -1.8155  1.6582
 1359SOL     OW15535   2.058   4.231   4.734  0.2191  0.6284 -0.5860
 1359SOL    HW115536   2.108   4.309   4.710  0.8535  0.6523  0.8035
 1359SOL    HW215537   1.966   4.258   4.738 -0.3772 -1.0674 -2.2610
 1360SOL     OW15538   1.339   1.543   3.285 -0.0929 -0.2410  0.4663
 1360SOL    HW115539   1.329   1.638   3.275 -1.0303 -0.2744  1.0269
 1360SOL    HW215540   1.261   1.526   3.337 -1.1592 -1.3986 -1.5061
 1361SOL     OW15541   3.567   3.289   6.790  0.1527 -0.1339 -0.0076
 1361SOL    HW115542   3.571   3.220   6.857  1.4998  0.3760  0.4357
 1361SOL    HW215543   3.644   3.343   6.807  0.3501 -0.4712  0.1679
 1362SOL     OW15544   1.821   1.585   0.999 -0.0538  0.5937  0.4979
 1362SOL    HW115545   1.866   1.591   0.915 -2.3629 -0.3417 -0.8168
 1362SOL    HW215546   1.822   1.493   1.025 -1.3637  0.0657 -1.2838
 1363SOL     OW15547   3.869   0.187  11.062 -0.1936 -0.4362  0.1181
 1363SOL    HW115548   3.942   0.159  11.006 -1.2235 -1.5351 -0.6819
 1363SOL    HW215549   3.825   0.246  11.001 -2.1364 -0.1330  1.8018
 1364SOL     OW15550   0.372   2.466   8.821  0.1616  0.4830  0.1907
 1364SOL    HW115551   0.408   2.553   8.801  1.3273  0.3265  1.5819
 1364SOL    HW215552   0.448   2.411   8.805 -1.0608 -1.2645  0.4697
 1365SOL     OW15553   1.749   3.303   9.622  0.0549  0.5946 -0.1124
 1365SOL    HW115554   1.791   3.386   9.602 -1.7623  2.1981  2.8182
 1365SOL    HW215555   1.834   3.261   9.636  0.2067  1.1964  0.6912
 1366SOL     OW15556   3.598   2.869  14.118 -0.2033  0.1923 -0.5261
 1366SOL    HW115557   3.609   2.811  14.043 -3.8112 -0.6528 -0.4316
 1366SOL    HW215558   3.541   2.810  14.168  0.7543  0.4444  0.8811
 1367SOL     OW15559   4.569   2.351  10.534  0.6079 -0.2427 -0.8979
 1367SOL    HW115560   4.617   2.430  10.509 -1.4517  1.0322 -0.7690
 1367SOL    HW215561   4.547   2.365  10.626  0.3817 -0.9022 -0.8465
 1368SOL     OW15562   3.498   2.618  14.185 -0.1975 -0.0875  0.0831
 1368SOL    HW115563   3.551   2.546  14.150  0.1828  1.2558 -2.1157
 1368SOL    HW215564   3.409   2.589  14.170  0.1208 -2.0243  1.9603
 1369SOL     OW15565   0.050   2.896   6.824 -0.5801 -0.2615 -0.0838
 1369SOL    HW115566   0.041   2.885   6.919  0.1288 -0.3424 -0.0233
 1369SOL    HW215567   4.689   2.862   6.800 -0.2318 -1.5492  0.4698
 1370SOL     OW15568   1.709   3.690  11.633 -0.2464 -0.2497 -0.0056
 1370SOL    HW115569   1.655   3.654  11.703 -0.1643 -0.3011  0.0309
 1370SOL    HW215570   1.765   3.615  11.614  1.4613  0.5676  1.7736
 1371SOL     OW15571   4.481   0.506   3.890 -0.0857  0.5817 -0.0704
 1371SOL    HW115572   4.457   0.595   3.917 -1.7030  0.2343 -0.3647
 1371SOL    HW215573   4.425   0.496   3.813  0.8874  0.3282 -0.7386
 1372SOL     OW15574   4.559   3.533   9.165 -0.1105  0.4450 -0.2947
 1372SOL    HW115575   4.625   3.508   9.229 -2.3089 -1.2006  1.3190
 1372SOL    HW215576   4.556   3.448   9.121 -0.4302 -0.2736  1.1394
 1373SOL     OW15577   0.141   1.777   6.430  0.8318  0.0943 -0.3955
 1373SOL    HW115578   0.062   1.779   6.376  1.9396 -1.2722 -2.0656
 1373SOL    HW215579   0.195   1.718   6.377  1.4478 -0.5120  0.9173
 1374SOL     OW15580   2.690   0.369   1.206 -0.4362 -0.0923  0.3202
 1374SOL    HW115581   2.724   0.322   1.283  0.8862  1.8093  0.8971
 1374SOL    HW215582   2.762   0.401   1.153 -0.4651  1.6751  1.3471
 1375SOL     OW15583   2.535   0.613   6.399 -0.3453 -0.6621  0.1767
 1375SOL    HW115584   2.598   0.604   6.328 -1.2455  2.5233 -1.0301
 1375SOL    HW215585   2.493   0.692   6.365  0.5290 -1.1976 -2.1073
 1376SOL     OW15586   0.633   1.651   2.912  0.3758 -0.5413  0.1079
 1376SOL    HW115587   0.575   1.606   2.973 -0.3647  0.1961 -0.0677
 1376SOL    HW215588   0.637   1.740   2.945  0.1391 -1.3025  2.1597
 1377SOL     OW15589   0.204   4.235   7.929  0.0084 -0.0524 -0.1660
 1377SOL    HW115590   0.242   4.261   7.845 -1.9252 -1.1017 -1.3748
 1377SOL    HW215591   0.114   4.220   7.899  0.2800 -1.1257 -0.4683
 1378SOL     OW15592   0.816   2.976   4.785  0.2138  0.3234 -0.4952
 1378SOL    HW115593   0.819   3.029   4.706 -1.0659  2.0541  0.6071
 1378SOL    HW215594   0.733   2.994   4.829  0.9032  0.7010  0.6711
 1379SOL     OW15595   3.952   3.537   3.197 -0.0446  0.2847 -0.1500
 1379SOL    HW115596   3.902   3.458   3.217  0.6400 -0.6066 -2.0147
 1379SOL    HW215597   3.950   3.540   3.102  0.0536 -0.5254 -0.1765
 1380SOL     OW15598   2.620   0.891   9.727 -0.0673 -0.2946 -0.0787
 1380SOL    HW115599   2.594   0.828   9.794  1.3948 -0.8210 -0.0075
 1380SOL    HW215600   2.536   0.907   9.684 -1.7424 -2.7226  2.3196
 1381SOL     OW15601   4.595   3.449   7.083  0.0998  0.2716 -0.1703
 1381SOL    HW115602   4.510   3.453   7.041  1.1029  0.5193 -2.1485
 1381SOL    HW215603   4.636   3.368   7.053 -0.8080 -0.2658  0.0341
 1382SOL     OW15604   1.642   3.128   3.700  0.1452 -0.3716  0.3559
 1382SOL    HW115605   1.630   3.037   3.729  1.5839 -0.2839  1.2629
 1382SOL    HW215606   1.691   3.111   3.619  1.5805 -2.7736  1.6966
 1383SOL     OW15607   1.624   3.800   0.632  0.2817 -0.3336  0.3520
 1383SOL    HW115608   1.716   3.815   0.658 -0.2603  1.0756  1.4743
 1383SOL    HW215609   1.580   3.866   0.686  0.0224 -0.4814  0.3162
 1384SOL     OW15610   1.750   4.242  13.662 -0.1766 -0.1680 -0.3459
 1384SOL    HW115611   1.795   4.281  13.737 -1.6214 -0.6943  0.7770
 1384SOL    HW215612   1.816   4.215  13.598  1.0459  0.8603  0.4755
 1385SOL     OW15613   3.389   1.778   2.868  0.0683  0.3545  0.6726
 1385SOL    HW115614   3.356   1.707   2.812 -0.3795  1.0804  0.0235
 1385SOL    HW215615   3.346   1.761   2.952  0.3929  1.7415  1.1225
 1386SOL     OW15616   1.545   3.779   6.197 -0.0472  0.5556 -0.5271
 1386SOL    HW115617   1.482   3.847   6.220 -2.3222 -1.1091 -1.8092
 1386SOL    HW215618   1.597   3.771   6.277 -3.4502  1.9787  1.8262
 1387SOL     OW15619   2.149   0.298   2.483  0.2058  0.5228 -0.9065
 1387SOL    HW115620   2.064   0.299   2.439 -1.0022 -0.0668  1.3844
 1387SOL    HW215621   2.207   0.351   2.428 -0.3080 -0.4971 -2.4198
 1388SOL     OW15622   4.065   2.956   6.991  0.3787 -0.7004 -0.0609
 1388SOL    HW115623   4.002   2.885   6.988  0.8023 -1.1082  0.9674
 1388SOL    HW215624   4.080   2.976   7.084  0.7712  0.8679 -0.4462
 1389SOL     OW15625   3.615   4.039  11.687 -0.1410 -0.5075  0.6899
 1389SOL    HW115626   3.550   4.068  11.752  1.5406 -1.1197  2.6530
 1389SOL    HW215627   3.578   3.958  11.653 -0.1417 -0.9973  1.8572
 1390SOL     OW15628   1.614   4.497   7.179 -0.1336  0.6699 -0.0559
 1390SOL    HW115629   1.651   4.546   7.253  0.1325 -0.1768  0.3662
 1390SOL    HW215630   1.631   4.408   7.209  1.4192  1.0137  0.0937
 1391SOL     OW15631   4.251   1.606  15.406  0.6109  0.8939  0.5186
 1391SOL    HW115632   4.346   1.598  15.397  0.3134 -0.5124 -1.2468
 1391SOL    HW215633   4.232   1.541  15.474 -0.9050  1.0446  0.2468
 1392SOL     OW15634   3.084   3.977   4.691 -0.2638  0.5072 -0.0585
 1392SOL    HW115635   3.054   3.992   4.601 -1.4633 -0.2878  0.2183
 1392SOL    HW215636   3.147   3.907   4.673 -1.6001 -0.0703 -2.5387
 1393SOL     OW15637   4.454   4.659   1.530  0.3907  0.8000  0.5540
 1393SOL    HW115638   4.404   0.016   1.527 -0.7426  0.1166  0.8219
 1393SOL    HW215639   4.515   4.671   1.456 -2.1189 -0.1193 -1.6618
 1394SOL     OW15640   1.391   2.364   9.208 -0.1209 -0.3335  0.4017
 1394SOL    HW115641   1.467   2.307   9.218  0.9930  1.0557 -0.2145
 1394SOL    HW215642   1.379   2.377   9.302  0.5279 -2.0506  0.7110
 1395SOL     OW15643   2.356   2.086   1.839  0.1759 -0.3005  0.2199
 1395SOL    HW115644   2.426   2.152   1.848 -0.1528  0.0063  0.4996
 1395SOL    HW215645   2.311   2.077   1.923 -2.6341  0.1948 -1.2551
 1396SOL     OW15646   0.458   0.765   1.653 -0.0617  0.0519 -0.2213
 1396SOL    HW115647   0.524   0.724   1.708 -0.6382  0.0597  0.4895
 1396SOL    HW215648   0.505   0.791   1.574  1.0164 -3.7381 -0.7957
 1397SOL     OW15649   0.730   3.941   2.724  0.4496 -0.1656  0.3311
 1397SOL    HW115650   0.720   3.929   2.818 -1.3114 -1.6811 -0.0608
 1397SOL    HW215651   0.820   3.973   2.715  0.8369 -1.4663 -0.4931
 1398SOL     OW15652   3.764   3.754   3.426 -0.2629  0.5246 -0.1453
 1398SOL    HW115653   3.717   3.671   3.433  2.2473 -0.6841  2.2916
 1398SOL    HW215654   3.855   3.733   3.449 -0.1128 -0.7306 -1.8452
 1399SOL     OW15655   2.483   2.757   5.680 -0.1339 -0.1317 -0.4234
 1399SOL    HW115656   2.443   2.817   5.617 -0.6910  0.4048  0.4420
 1399SOL    HW215657   2.565   2.803   5.695 -0.4312  0.2402  0.0400
 1400SOL     OW15658   3.981   1.552  11.026 -0.0594 -0.4397 -0.0028
 1400SOL    HW115659   3.972   1.509  10.941 -0.7748  0.9767 -0.6502
 1400SOL    HW215660   4.074   1.574  11.025 -0.3620  0.8585 -0.2696
 1401SOL     OW15661   1.918   3.434   5.727  0.4921  0.5501 -0.6001
 1401SOL    HW115662   1.830   3.433   5.762  1.2859 -0.0607  1.3773
 1401SOL    HW215663   1.944   3.526   5.723 -0.4584  0.8313 -0.3074
 1402SOL     OW15664   2.642   0.349  10.890 -0.2120 -0.2157 -0.0741
 1402SOL    HW115665   2.547   0.343  10.882 -0.4292  1.0954  1.6493
 1402SOL    HW215666   2.655   0.423  10.949 -1.7104 -1.2936  1.6189
 1403SOL     OW15667   0.849   0.476   3.348 -0.1664  0.2813 -0.2702
 1403SOL    HW115668   0.773   0.439   3.391 -1.5983  0.9470 -2.2418
 1403SOL    HW215669   0.875   0.547   3.407  1.4705 -0.1453 -0.4776
 1404SOL     OW15670   4.066   1.922  12.490  0.6888 -0.1963 -0.1238
 1404SOL    HW115671   4.114   1.970  12.558 -0.3782 -0.8396  1.0728
 1404SOL    HW215672   4.053   1.994  12.429  0.0253  1.0478  1.4929
 1405SOL     OW15673   2.732   1.253   4.119 -0.1245  0.1819  0.3431
 1405SOL    HW115674   2.676   1.304   4.178 -1.3803 -2.6022  1.5325
 1405SOL    HW215675   2.804   1.315   4.111 -0.3301  0.4730  0.7283
 1406SOL     OW15676   3.793   2.489   5.261 -0.7032  0.0699  0.0448
 1406SOL    HW115677   3.726   2.466   5.198  0.9827  0.8362 -2.0312
 1406SOL    HW215678   3.781   2.584   5.264 -2.6249 -0.1497 -0.8972
 1407SOL     OW15679   3.105   0.127   6.319  0.3216  0.4854  0.1184
 1407SOL    HW115680   3.042   0.055   6.323  2.0067 -0.9487  0.9566
 1407SOL    HW215681   3.070   0.180   6.247  0.6743 -1.0475 -1.1807
 1408SOL     OW15682   1.549   3.929   8.056 -0.0347  0.1350  0.2785
 1408SOL    HW115683   1.577   3.965   8.140 -2.0460  2.2990  0.0173
 1408SOL    HW215684   1.602   3.985   7.999  0.8842  2.1925  3.1460
 1409SOL     OW15685   3.636   3.821   9.846  0.3222  0.2777  0.9363
 1409SOL    HW115686   3.560   3.821   9.904  0.4818 -0.5967  1.1343
 1409SOL    HW215687   3.600   3.787   9.765  0.5488  0.2965  0.8270
 1410SOL     OW15688   0.247   2.263   5.682 -1.0012 -0.0060 -0.0151
 1410SOL    HW115689   0.264   2.173   5.707 -2.3711  0.4730  2.5990
 1410SOL    HW215690   0.337   2.291   5.701 -0.6923 -2.3336  1.9471
 1411SOL     OW15691   0.053   3.364   4.345  0.6299  0.4125  0.1284
 1411SOL    HW115692   0.089   3.406   4.424  3.7147  1.1441 -1.6829
 1411SOL    HW215693   0.133   3.353   4.294  1.4737 -0.5513  1.6337
 1412SOL     OW15694   4.715   3.734   5.009 -0.2072 -0.0898  0.4308
 1412SOL    HW115695   4.696   3.781   5.090  0.4760  1.2091 -0.1624
 1412SOL    HW215696   4.719   3.801   4.940  1.7110 -2.7474 -2.0455
 1413SOL     OW15697   1.696   4.633   2.155  0.2956 -0.1334 -0.3635
 1413SOL    HW115698   1.614   4.640   2.106 -1.9706 -1.4918  3.1922
 1413SOL    HW215699   1.707   4.539   2.166  0.2071 -0.1952 -0.8119
 1414SOL     OW15700   4.578   2.162   7.963  0.2445  0.3412  0.1510
 1414SOL    HW115701   4.498   2.121   7.998  0.7463  0.5557  1.5603
 1414SOL    HW215702   4.556   2.255   7.969 -0.1979  0.1091  2.0612
 1415SOL     OW15703   0.821   3.934   2.079 -0.5728  0.3397  0.2364
 1415SOL    HW115704   0.907   3.895   2.091 -1.6176 -2.3354 -0.9382
 1415SOL    HW215705   0.785   3.900   2.161  0.3482 -0.1045  0.4524
 1416SOL     OW15706   0.779   3.510  12.134 -0.0856  0.1081 -0.0596
 1416SOL    HW115707   0.854   3.540  12.082  0.0353  0.6118  0.3953
 1416SOL    HW215708   0.781   3.416  12.116  2.7208  0.0269  0.6874
 1417SOL     OW15709   3.642   4.421  11.323  0.1926  0.1548 -0.0975
 1417SOL    HW115710   3.607   4.475  11.253  0.5239  1.6453  0.8914
 1417SOL    HW215711   3.679   4.487  11.382  0.8167 -0.2513 -0.0297
 1418SOL     OW15712   3.098   2.993   3.633  0.0051 -0.0111  0.0904
 1418SOL    HW115713   3.169   2.956   3.580  1.3606  0.5375  1.4883
 1418SOL    HW215714   3.130   2.998   3.723 -1.8090  0.9706  0.6730
 1419SOL     OW15715   2.185   3.035  12.865 -0.0387  0.9065  0.6609
 1419SOL    HW115716   2.097   3.067  12.886 -0.5482 -0.3520  0.4663
 1419SOL    HW215717   2.185   3.039  12.770 -1.5763  0.9868  0.6682
 1420SOL     OW15718   3.619   1.311   1.358  0.0533  0.1673 -0.1682
 1420SOL    HW115719   3.710   1.291   1.336 -0.1978  0.4501 -1.4580
 1420SOL    HW215720   3.586   1.344   1.275  0.1743  1.1411  0.1756
 1421SOL     OW15721   3.923   3.542   2.930 -0.4770 -0.4088 -0.2015
 1421SOL    HW115722   3.978   3.554   2.853 -0.9187  1.4734 -0.2396
 1421SOL    HW215723   3.841   3.567   2.888 -1.1607 -0.1293  1.3000
 1422SOL     OW15724   4.607   0.901   7.807  0.1790 -0.0170  0.5056
 1422SOL    HW115725   4.662   0.902   7.885  0.4512 -0.7452  0.3214
 1422SOL    HW215726   4.566   0.986   7.824  0.7592  0.5365 -0.7772
 1423SOL     OW15727   3.024   3.016   6.084 -0.2207 -0.2494  0.2156
 1423SOL    HW115728   3.089   3.083   6.062 -2.9322  2.7266  1.3610
 1423SOL    HW215729   3.083   2.979   6.150  0.9088  0.1669 -0.5523
 1424SOL     OW15730   2.759   1.686   1.134  0.0532  0.2055  0.0837
 1424SOL    HW115731   2.831   1.625   1.120 -1.7651 -1.9291 -0.0064
 1424SOL    HW215732   2.805   1.756   1.182  2.3227 -1.6499  0.5898
 1425SOL     OW15733   2.121   0.924   4.880  0.4392  0.6192 -0.2311
 1425SOL    HW115734   2.106   0.972   4.961 -1.5757 -0.8263  0.2549
 1425SOL    HW215735   2.215   0.905   4.877  0.5460  1.1901 -0.6523
 1426SOL     OW15736   0.592   1.792   3.616 -0.0814  0.2209 -0.0600
 1426SOL    HW115737   0.514   1.752   3.576  0.2198 -0.2263 -0.2013
 1426SOL    HW215738   0.632   1.832   3.539  1.9187 -0.0198  0.8789
 1427SOL     OW15739   1.987   3.481   4.228  0.0711 -0.2925 -0.4101
 1427SOL    HW115740   2.066   3.492   4.281 -1.3390  0.9017  1.4544
 1427SOL    HW215741   1.972   3.575   4.214  1.3153  0.0835  0.9015
 1428SOL     OW15742   4.192   2.252   3.334 -0.3540  0.3649  0.0329
 1428SOL    HW115743   4.133   2.224   3.404 -0.1343 -2.8170 -1.0291
 1428SOL    HW215744   4.159   2.208   3.255 -0.1688 -0.7759  0.5945
 1429SOL     OW15745   2.967   2.866   5.872 -0.4247 -0.0335 -0.4898
 1429SOL    HW115746   2.951   2.934   5.937  0.2499  0.1609 -0.5215
 1429SOL    HW215747   3.047   2.897   5.829 -0.5236  0.5330 -0.2639
 1430SOL     OW15748   0.414   0.631  15.718 -0.7408 -0.7347 -0.9411
 1430SOL    HW115749   0.495   0.605  15.673  0.2119 -1.5083  1.2074
 1430SOL    HW215750   0.387   0.715  15.680  2.1687 -0.1040 -1.6089
 1431SOL     OW15751   3.054   4.100  11.611  0.5945 -0.0378  0.4372
 1431SOL    HW115752   2.979   4.041  11.611  2.8485 -2.8945 -1.4795
 1431SOL    HW215753   3.113   4.037  11.572  1.5543  0.5316  0.9748
 1432SOL     OW15754   2.999   3.711   4.315  0.7110 -0.1091  0.2461
 1432SOL    HW115755   2.946   3.656   4.372 -1.1601 -0.3125 -1.6851
 1432SOL    HW215756   3.008   3.655   4.238  0.5479  0.1643  0.0276
 1433SOL     OW15757   3.535   2.832   5.161 -0.5400 -0.6075  0.6261
 1433SOL    HW115758   3.496   2.887   5.093 -0.4186 -0.2080  0.8788
 1433SOL    HW215759   3.627   2.829   5.135 -0.7892 -0.9310 -0.2409
 1434SOL     OW15760   3.879   1.655   3.402  0.9631  0.0865 -0.2891
 1434SOL    HW115761   3.838   1.590   3.345  0.1786  0.8989 -0.6563
 1434SOL    HW215762   3.844   1.739   3.373  1.4723 -0.0385 -1.2703
 1435SOL     OW15763   0.865   3.573  16.843 -0.4278  0.6239  0.3419
 1435SOL    HW115764   0.819   3.613  16.917 -0.2882  2.2321 -0.4491
 1435SOL    HW215765   0.809   3.495  16.839  1.9582 -1.0016 -1.3663
 1436SOL     OW15766   4.544   0.074   4.171  0.3229 -0.1677 -0.7221
 1436SOL    HW115767   4.551   0.105   4.261 -1.1820  2.5829 -1.5488
 1436SOL    HW215768   4.509   0.156   4.135 -0.1973  0.0091  0.1782
 1437SOL     OW15769   3.582   0.818   1.285 -0.0191 -0.2182  0.0653
 1437SOL    HW115770   3.595   0.894   1.228 -1.5135  0.4402  0.5901
 1437SOL    HW215771   3.492   0.791   1.264 -0.2080 -0.8444  1.6765
 1438SOL     OW15772   1.043   0.860   3.424 -0.1228 -0.4790  0.6965
 1438SOL    HW115773   1.091   0.777   3.435 -1.2595 -1.1246  0.7917
 1438SOL    HW215774   1.101   0.933   3.445 -1.3284  1.1742 -1.6921
 1439SOL     OW15775   2.720   1.081   0.593 -0.2462  0.0113 -0.1197
 1439SOL    HW115776   2.659   1.125   0.534 -1.2971  1.4477  2.0438
 1439SOL    HW215777   2.664   1.047   0.662  0.1235  0.6758  0.5063
 1440SOL     OW15778   3.372   2.821   5.592  0.4147  0.0086  0.2957
 1440SOL    HW115779   3.425   2.891   5.631  2.1435 -1.5384  0.7377
 1440SOL    HW215780   3.444   2.761   5.572  0.0303  0.1581 -1.4563
 1441SOL     OW15781   1.807   4.070   7.049  0.0408 -0.3670 -0.6511
 1441SOL    HW115782   1.760   4.025   7.119  2.4404 -2.0520 -0.1092
 1441SOL    HW215783   1.743   4.054   6.980  1.1457 -0.2035 -1.7157
 1442SOL     OW15784   4.255   3.680   7.211 -0.1280  0.5584  0.1301
 1442SOL    HW115785   4.165   3.702   7.186  0.4953 -0.4455 -2.9575
 1442SOL    HW215786   4.291   3.626   7.141  2.0248  1.1281  0.7892
 1443SOL     OW15787   1.001   4.517   7.525  0.1392  0.5286 -0.0513
 1443SOL    HW115788   0.977   4.561   7.606  0.2122  1.4807 -0.5455
 1443SOL    HW215789   0.948   4.438   7.535 -1.5066  1.7638  0.8017
 1444SOL     OW15790   4.445   3.259   0.005  0.3856  0.4302  0.2469
 1444SOL    HW115791   4.418   3.247   0.096  0.1878 -1.8495 -0.1102
 1444SOL    HW215792   4.370   3.305  17.668  0.4127 -0.0018 -0.3265
 1445SOL     OW15793   2.597   0.342   8.603 -0.4552  0.2416 -0.2062
 1445SOL    HW115794   2.576   0.259   8.647  1.1051  1.5590  3.0759
 1445SOL    HW215795   2.512   0.384   8.619 -2.1393 -3.0654 -0.6168
 1446SOL     OW15796   2.499   3.230   8.867 -0.3858 -1.0159 -0.2916
 1446SOL    HW115797   2.405   3.215   8.860 -0.8894  2.7540 -1.3832
 1446SOL    HW215798   2.533   3.189   8.788  1.0533 -0.6308  0.1222
 1447SOL     OW15799   1.426   1.080  10.344 -0.4055 -0.0292  0.2925
 1447SOL    HW115800   1.427   1.058  10.251 -1.0025  2.8227 -0.4052
 1447SOL    HW215801   1.410   0.996  10.387  0.5313  0.2463  1.1720
 1448SOL     OW15802   3.760   3.184   7.887  0.5365 -0.1523  0.1936
 1448SOL    HW115803   3.749   3.092   7.862 -1.8655  0.3930 -0.6944
 1448SOL    HW215804   3.719   3.245   7.827 -1.3652  0.7219  2.3855
 1449SOL     OW15805   0.888   1.704  12.045 -0.0002  0.2898  0.0218
 1449SOL    HW115806   0.804   1.671  12.077  0.6078 -0.8206  0.4684
 1449SOL    HW215807   0.859   1.706  11.954 -1.0198 -0.4350  0.3215
 1450SOL     OW15808   0.464   1.496   1.356 -0.4833 -0.5070  0.0800
 1450SOL    HW115809   0.467   1.575   1.410 -2.0492 -0.6037  0.2933
 1450SOL    HW215810   0.496   1.538   1.276  0.3753 -0.4976  0.4259
 1451SOL     OW15811   3.718   3.018   2.353 -0.1095 -0.2064  0.0752
 1451SOL    HW115812   3.799   2.976   2.381  0.2519  0.2799 -0.2627
 1451SOL    HW215813   3.679   2.948   2.299 -0.2926 -0.5851  0.7021
 1452SOL     OW15814   2.541   1.379   3.875 -0.3765 -0.4256 -0.3322
 1452SOL    HW115815   2.578   1.448   3.930 -3.7865  0.5132  0.7783
 1452SOL    HW215816   2.473   1.345   3.932  2.7909 -1.5949  2.7485
 1453SOL     OW15817   3.295   0.307   8.007  0.5282 -0.1764 -0.3533
 1453SOL    HW115818   3.274   0.268   7.922  0.6395 -1.7759  0.3507
 1453SOL    HW215819   3.227   0.370   8.029  0.3003 -0.4296 -0.3249
 1454SOL     OW15820   3.282   4.559  11.180 -0.1169  0.1077  0.0245
 1454SOL    HW115821   3.345   4.632  11.180  1.0956 -0.9385 -2.2629
 1454SOL    HW215822   3.303   4.524  11.094 -1.2137 -1.6468  0.4708
 1455SOL     OW15823   2.343   2.189   1.571 -0.2307  0.0102  0.3551
 1455SOL    HW115824   2.365   2.152   1.656 -0.4884 -2.3154 -0.5797
 1455SOL    HW215825   2.389   2.131   1.511  0.9149  1.0383  0.2419
 1456SOL     OW15826   0.511   4.364   2.386 -0.1483 -0.2449  0.0573
 1456SOL    HW115827   0.516   4.310   2.464  1.9720 -1.2876 -0.8114
 1456SOL    HW215828   0.515   4.298   2.317  2.4474  0.5229 -0.4983
 1457SOL     OW15829   1.656   1.528  12.771  0.2242  0.2663  0.2234
 1457SOL    HW115830   1.712   1.598  12.738 -1.2915  1.0845 -0.6370
 1457SOL    HW215831   1.609   1.507  12.690  1.7269  0.0641 -0.5864
 1458SOL     OW15832   2.810   4.184  12.132  0.3407 -0.0620 -0.4497
 1458SOL    HW115833   2.773   4.188  12.220  3.0763 -1.6273  0.7978
 1458SOL    HW215834   2.735   4.148  12.086  0.0921  0.6862 -0.6265
 1459SOL     OW15835   0.885   0.523   1.962 -0.2741 -0.2392 -0.3368
 1459SOL    HW115836   0.884   0.560   1.873 -2.7282  0.3562 -0.0330
 1459SOL    HW215837   0.917   0.436   1.934  0.5543 -0.2486  0.6607
 1460SOL     OW15838   0.271   1.050  11.023  0.1035  0.3149 -0.1160
 1460SOL    HW115839   0.336   1.026  10.957 -1.8830  0.0503 -1.9890
 1460SOL    HW215840   0.198   1.073  10.965  1.0859 -1.7327 -2.1789
 1461SOL     OW15841   0.265   2.737  13.184  0.1019 -0.3072 -0.0469
 1461SOL    HW115842   0.276   2.783  13.267  1.3605  0.3462 -0.5638
 1461SOL    HW215843   0.341   2.775  13.140 -0.3331 -1.9394 -2.2352
 1462SOL     OW15844   0.260   2.943   5.573  0.0663  0.2378  0.5159
 1462SOL    HW115845   0.200   3.017   5.569  0.8752  1.0117  2.5349
 1462SOL    HW215846   0.295   2.963   5.660 -1.9560  1.1471  1.1053
 1463SOL     OW15847   3.479   0.417   0.695 -0.5780  0.0062 -0.3534
 1463SOL    HW115848   3.445   0.393   0.781  0.2117  0.6639  0.1475
 1463SOL    HW215849   3.418   0.485   0.667  0.4709  0.5596 -1.2934
 1464SOL     OW15850   1.853   3.993  11.492 -0.0692  0.4281 -0.4525
 1464SOL    HW115851   1.820   4.019  11.406 -1.2225  0.1647 -0.0999
 1464SOL    HW215852   1.930   4.050  11.494  0.3362 -0.1686  1.6053
 1465SOL     OW15853   3.890   4.403   0.784 -0.1824 -0.9497 -0.8822
 1465SOL    HW115854   3.883   4.488   0.740 -0.6872 -0.4301  0.2048
 1465SOL    HW215855   3.938   4.353   0.717  1.5377  0.0562 -0.3896
 1466SOL     OW15856   0.119   2.802   8.973  0.1638  0.0781  0.0286
 1466SOL    HW115857   0.214   2.804   8.979  0.1248 -0.1146  0.8308
 1466SOL    HW215858   0.092   2.890   8.948  0.8620  1.4073  3.9310
 1467SOL     OW15859   1.417   0.563   5.696  0.7633  0.4358  0.2814
 1467SOL    HW115860   1.339   0.590   5.744 -0.7867 -0.7022 -1.5677
 1467SOL    HW215861   1.393   0.472   5.681 -2.9701  1.7732 -2.0557
 1468SOL     OW15862   3.441   2.115   0.943 -0.0867 -0.8443 -0.1221
 1468SOL    HW115863   3.500   2.157   0.881 -0.7304  0.0149 -0.1546
 1468SOL    HW215864   3.474   2.165   1.018 -2.8978 -0.8354  1.1006
 1469SOL     OW15865   1.578   1.670   1.888 -0.3719 -0.0633 -0.0475
 1469SOL    HW115866   1.603   1.753   1.846  0.2151 -1.0394 -1.6373
 1469SOL    HW215867   1.530   1.695   1.966 -0.0325 -0.2865  0.2341
 1470SOL     OW15868   2.484   1.695   1.192  0.2505  0.4711 -0.0900
 1470SOL    HW115869   2.575   1.717   1.172  0.1632  0.7411 -0.1869
 1470SOL    HW215870   2.499   1.636   1.266 -1.6848  0.0879  0.0136
 1471SOL     OW15871   0.360   0.243   1.552  0.2090  0.0079 -0.7305
 1471SOL    HW115872   0.384   0.156   1.584  1.3834  0.1337 -1.2561
 1471SOL    HW215873   0.286   0.224   1.496 -1.3483  2.5057  0.4903
 1472SOL     OW15874   2.075   4.355   1.453  0.3237  0.5814  0.4395
 1472SOL    HW115875   1.990   4.379   1.414 -0.4240 -1.0618  1.0589
 1472SOL    HW215876   2.055   4.400   1.535  0.3272 -1.1345  1.3863
 1473SOL     OW15877   2.694   1.966   4.042  0.0986  0.3582 -0.3362
 1473SOL    HW115878   2.636   1.904   3.999 -0.0968 -0.4085  1.0136
 1473SOL    HW215879   2.688   1.935   4.133  0.2384  2.2436  0.3154
 1474SOL     OW15880   2.940   1.246   7.183 -0.7131 -0.1596 -0.0055
 1474SOL    HW115881   2.906   1.208   7.102 -2.2687 -0.6926  0.9007
 1474SOL    HW215882   3.026   1.204   7.187 -0.7096 -0.2445 -0.9621
 1475SOL     OW15883   1.612   3.922   4.000 -0.3857  0.3368  0.1183
 1475SOL    HW115884   1.537   3.866   3.982  0.0784  0.1608 -1.2044
 1475SOL    HW215885   1.614   3.987   3.930 -1.3855 -0.3989 -0.5807
 1476SOL     OW15886   4.694   0.082   0.904  0.4975 -0.2138 -0.4400
 1476SOL    HW115887   4.599   0.093   0.908  0.6765  1.6815 -1.4175
 1476SOL    HW215888   4.716   0.070   0.812  2.3559  1.1351 -0.1672
 1477SOL     OW15889   3.365   0.433   6.375 -0.1333  0.3682  0.6893
 1477SOL    HW115890   3.456   0.445   6.345 -0.4989 -3.1590 -1.7933
 1477SOL    HW215891   3.330   0.402   6.292 -2.8385  0.5511  1.7823
 1478SOL     OW15892   4.077   0.505   3.145  0.1669  0.3216 -0.3011
 1478SOL    HW115893   3.986   0.481   3.126  0.7229 -0.6611 -1.7030
 1478SOL    HW215894   4.131   0.447   3.091  1.1111 -1.4511  2.5544
 1479SOL     OW15895   0.154   0.158   8.516  0.6741  0.1849 -0.1432
 1479SOL    HW115896   0.133   0.081   8.569 -0.1152  0.2988 -0.2941
 1479SOL    HW215897   0.087   0.159   8.447  1.1764 -2.4241 -0.6834
 1480SOL     OW15898   0.308   0.167  11.120  0.6955 -0.3167  0.0906
 1480SOL    HW115899   0.296   0.078  11.087 -1.0834 -0.3420  0.7846
 1480SOL    HW215900   0.366   0.209  11.056 -0.0155  0.5639  0.0267
 1481SOL     OW15901   3.977   0.311  13.738  0.2573  0.2780 -0.1665
 1481SOL    HW115902   3.955   0.397  13.774 -2.3211 -0.2651 -0.4330
 1481SOL    HW215903   3.914   0.257  13.786  0.8068  0.1287  0.3859
 1482SOL     OW15904   1.800   1.978   4.025 -0.3339 -0.7188  0.3589
 1482SOL    HW115905   1.886   2.001   4.058 -0.4758 -0.4661  0.5575
 1482SOL    HW215906   1.812   1.987   3.930  2.3560 -0.4566  0.7261
 1483SOL     OW15907   3.832   2.533  10.487 -0.0009 -0.4341 -0.5269
 1483SOL    HW115908   3.801   2.446  10.512 -0.0924 -0.1967  0.1962
 1483SOL    HW215909   3.761   2.576  10.441 -0.2420 -2.3651 -1.9555
 1484SOL     OW15910   3.370   0.133   4.111  0.1429 -0.0786 -0.5326
 1484SOL    HW115911   3.329   0.050   4.090 -0.8620  0.6630 -1.5088
 1484SOL    HW215912   3.453   0.095   4.138 -0.0577 -0.0272  0.1682
 1485SOL     OW15913   1.087   3.643   4.056 -0.0597 -0.3194  0.9287
 1485SOL    HW115914   1.048   3.597   4.130  0.1393  0.0267  1.2517
 1485SOL    HW215915   1.021   3.666   3.991  1.6143  0.0054 -0.6431
 1486SOL     OW15916   4.223   0.568   5.734 -0.0870 -0.3630  0.0112
 1486SOL    HW115917   4.284   0.530   5.671  1.3138 -0.0912  1.1923
 1486SOL    HW215918   4.276   0.567   5.814  1.6102 -0.9363 -1.1440
 1487SOL     OW15919   0.300   2.176   8.029 -0.5295  0.1384  0.4665
 1487SOL    HW115920   0.212   2.211   8.045  0.1331  1.5645  1.0812
 1487SOL    HW215921   0.271   2.151   7.942 -2.0567 -3.0520  1.8958
 1488SOL     OW15922   1.943   0.729   4.518 -0.2683  0.4204  0.0618
 1488SOL    HW115923   1.975   0.737   4.608 -0.3541  0.3462  0.0981
 1488SOL    HW215924   1.983   0.645   4.495  1.8929  1.5444 -0.3318
 1489SOL     OW15925   2.672   2.885   8.462 -0.0813 -0.3366 -0.2465
 1489SOL    HW115926   2.619   2.945   8.410  1.9520  2.5290  0.9741
 1489SOL    HW215927   2.647   2.801   8.423 -0.5436 -1.2157  1.8922
 1490SOL     OW15928   0.445   2.587   1.947  0.1601  0.1234 -0.0050
 1490SOL    HW115929   0.428   2.627   2.033 -0.7548 -1.1619  0.4094
 1490SOL    HW215930   0.360   2.549   1.928  0.0596  0.7554 -0.8180
 1491SOL     OW15931   0.414   4.452   3.559  0.6474 -0.9460  0.1022
 1491SOL    HW115932   0.391   4.533   3.513  0.4251 -0.9076  0.2836
 1491SOL    HW215933   0.376   4.477   3.643 -0.6982  0.2145 -0.8545
 1492SOL     OW15934   3.538   3.449   6.220  0.4773 -0.3562 -0.4594
 1492SOL    HW115935   3.446   3.466   6.242 -0.1257 -2.6729 -1.2024
 1492SOL    HW215936   3.528   3.355   6.208  0.2324 -0.3524 -0.2926
 1493SOL     OW15937   3.845   4.120   7.453 -0.0885 -0.4792  0.2332
 1493SOL    HW115938   3.803   4.199   7.422  0.1738 -0.5216 -0.2289
 1493SOL    HW215939   3.890   4.150   7.533  1.3626  0.3414 -0.8970
 1494SOL     OW15940   3.117   1.392  15.248  0.3521 -0.3647 -0.5021
 1494SOL    HW115941   3.080   1.389  15.337 -0.4352 -2.3522 -0.9049
 1494SOL    HW215942   3.072   1.469  15.213  0.2825  0.2607  0.9453
 1495SOL     OW15943   0.472   3.258   7.466 -0.6494  0.6972 -0.4211
 1495SOL    HW115944   0.384   3.256   7.504 -0.1085 -0.2010  0.8006
 1495SOL    HW215945   0.485   3.352   7.467 -1.4299  0.7966  0.4178
 1496SOL     OW15946   3.283   3.994   5.893  0.2316 -0.0743 -0.4118
 1496SOL    HW115947   3.284   3.905   5.928  0.4813 -0.2170 -0.7881
 1496SOL    HW215948   3.354   4.006   5.831  1.8362  0.7703  1.5777
 1497SOL     OW15949   2.028   1.391  14.492 -0.1750 -0.4042 -0.2032
 1497SOL    HW115950   1.947   1.438  14.512 -0.0244  0.1664 -0.9013
 1497SOL    HW215951   2.055   1.431  14.409  0.2376 -0.5656 -0.1488
 1498SOL     OW15952   4.457   4.590   7.499 -0.4204 -0.4608  0.0880
 1498SOL    HW115953   4.436   4.658   7.435 -0.9904  0.5703  1.3586
 1498SOL    HW215954   4.537   4.547   7.470  0.3192  0.7450  0.3783
 1499SOL     OW15955   0.140   3.759   3.481 -0.3080 -0.3987 -0.0311
 1499SOL    HW115956   0.217   3.808   3.454 -0.3603 -0.6212 -0.5874
 1499SOL    HW215957   0.108   3.800   3.562  2.8756  4.1747 -1.1693
 1500SOL     OW15958   3.963   1.256  13.790 -0.0953  0.0896  0.0828
 1500SOL    HW115959   4.050   1.261  13.828 -0.5397  1.6852  0.9268
 1500SOL    HW215960   3.974   1.313  13.715  1.2448 -1.5889 -0.9716
 1501SOL     OW15961   0.018   4.453  16.692  0.1780  0.0637  0.1022
 1501SOL    HW115962   0.045   4.367  16.726 -0.9486 -0.6857 -0.8972
 1501SOL    HW215963   0.049   4.454  16.602  0.2183 -0.4257  0.1098
 1502SOL     OW15964   4.606   3.607  10.096 -0.2534  0.0348  0.0065
 1502SOL    HW115965   4.512   3.604  10.079 -0.0834 -0.5226 -0.8382
 1502SOL    HW215966   4.617   3.694  10.135  0.6880 -0.3005  0.5026
 1503SOL     OW15967   0.063   1.851  10.863  0.0704  0.1135  0.0205
 1503SOL    HW115968   4.706   1.899  10.849 -0.4161 -0.9105 -0.5696
 1503SOL    HW215969   0.018   1.768  10.879 -0.2249  0.4332  0.8808
 1504SOL     OW15970   4.548   4.594  10.622  0.2744 -0.3404  0.3201
 1504SOL    HW115971   4.597   4.676  10.619  1.4730 -1.1049 -1.0737
 1504SOL    HW215972   4.471   4.618  10.673 -1.8673 -2.8556 -1.6953
 1505SOL     OW15973   0.603   3.303   5.869 -0.1364  0.1464 -0.2848
 1505SOL    HW115974   0.688   3.340   5.891  0.2406 -0.3456 -0.9182
 1505SOL    HW215975   0.599   3.218   5.912 -2.0813  0.2677 -0.2234
 1506SOL     OW15976   3.645   4.009   3.983  0.0502  0.1057 -0.3090
 1506SOL    HW115977   3.739   3.991   3.979  0.2481  0.9509  0.6555
 1506SOL    HW215978   3.633   4.102   4.004 -1.2335  0.0878 -0.9601
 1507SOL     OW15979   4.180   0.714  10.453 -0.0140 -0.3079 -0.3892
 1507SOL    HW115980   4.224   0.794  10.483 -1.9682  0.9083 -0.7513
 1507SOL    HW215981   4.146   0.747  10.370 -1.5569 -1.3129 -0.1542
 1508SOL     OW15982   1.505   0.707   4.099 -0.0158  0.2925  0.4623
 1508SOL    HW115983   1.449   0.630   4.097  0.2229  0.0888  1.8768
 1508SOL    HW215984   1.586   0.658   4.115  0.7732  1.4240 -0.0555
 1509SOL     OW15985   1.315   2.780   5.174 -0.3403  0.3058 -0.0048
 1509SOL    HW115986   1.258   2.723   5.122 -0.8847 -1.2399  2.2606
 1509SOL    HW215987   1.384   2.717   5.196 -1.0612  0.0667  1.5497
 1510SOL     OW15988   0.658   0.819   6.888 -0.3612  0.1357 -0.3337
 1510SOL    HW115989   0.700   0.853   6.967  1.8815 -1.1097 -0.9771
 1510SOL    HW215990   0.664   0.890   6.824  2.0761  1.2395  1.1031
 1511SOL     OW15991   4.444   2.284   3.535  0.1229 -0.2934 -0.1677
 1511SOL    HW115992   4.382   2.271   3.464  0.6148  2.9314 -1.1799
 1511SOL    HW215993   4.519   2.228   3.514  0.0913  0.5773 -2.5905
 1512SOL     OW15994   2.289   1.539   5.776 -0.2278 -0.1492 -0.4713
 1512SOL    HW115995   2.273   1.622   5.731 -0.2102 -1.7334 -3.3805
 1512SOL    HW215996   2.293   1.577   5.864  0.8344 -0.1512 -0.5145
 1513SOL     OW15997   3.263   2.746  14.636  0.9293  0.2139  0.5056
 1513SOL    HW115998   3.262   2.736  14.540 -3.0756  1.7304  0.3664
 1513SOL    HW215999   3.306   2.666  14.665  0.9262  0.2981  0.7423
 1514SOL     OW16000   1.819   2.527   9.409 -0.4689  0.2986 -0.0336
 1514SOL    HW116001   1.864   2.605   9.442 -1.8950  0.8971  0.5264
 1514SOL    HW216002   1.828   2.485   9.495 -0.0525 -0.0374 -0.2432
 1515SOL     OW16003   1.959   4.605   5.424 -0.6272 -0.2493  0.1510
 1515SOL    HW116004   2.040   4.583   5.469 -0.0824 -1.9949 -1.6837
 1515SOL    HW216005   1.940   4.696   5.447 -0.1627  0.1732 -1.1336
 1516SOL     OW16006   1.988   0.056   6.823  0.5861  0.1835 -0.0519
 1516SOL    HW116007   1.991   4.693   6.786 -1.5157 -0.3599  1.1155
 1516SOL    HW216008   1.922   0.037   6.889  1.4421 -1.1993  0.3925
 1517SOL     OW16009   2.303   0.655  12.588  0.3538 -0.3514  0.0827
 1517SOL    HW116010   2.294   0.703  12.670 -0.5835 -0.9650  0.3286
 1517SOL    HW216011   2.351   0.725  12.543  1.9112 -0.1797  1.9881
 1518SOL     OW16012   2.425   4.028   7.525  0.3923  0.1477 -0.2151
 1518SOL    HW116013   2.387   4.078   7.452 -0.2720 -1.8411 -1.2272
 1518SOL    HW216014   2.385   3.943   7.507  1.7687 -0.3621 -0.8952
 1519SOL     OW16015   0.535   0.239   1.838  0.4936 -0.2058 -0.1311
 1519SOL    HW116016   0.449   0.230   1.796 -0.5840 -1.4527  2.3075
 1519SOL    HW216017   0.513   0.299   1.909 -0.6256  2.6853 -2.9625
 1520SOL     OW16018   4.508   3.391   8.939  0.3929 -0.3362  0.0705
 1520SOL    HW116019   4.500   3.299   8.915 -0.2771  0.0284 -1.1373
 1520SOL    HW216020   4.589   3.420   8.897  0.5776 -0.1595  0.5521
 1521SOL     OW16021   1.171   3.600   2.770 -0.4914 -0.2755  0.5209
 1521SOL    HW116022   1.139   3.690   2.777 -1.4379 -0.6656  1.2077
 1521SOL    HW216023   1.262   3.613   2.742 -1.1291 -1.8067 -2.2596
 1522SOL     OW16024   0.675   3.257   6.188  0.1981  0.3968  0.3378
 1522SOL    HW116025   0.668   3.197   6.262  2.2418  2.1772  1.9648
 1522SOL    HW216026   0.673   3.189   6.121 -2.2660  2.1712 -1.3837
 1523SOL     OW16027   2.786   0.238   5.600 -0.0214  0.4319  0.3546
 1523SOL    HW116028   2.778   0.333   5.612 -0.2592  0.3491  0.8426
 1523SOL    HW216029   2.821   0.224   5.512  2.1206 -0.8644  1.4140
 1524SOL     OW16030   1.814   2.045  10.706 -0.2273  0.1681  0.3609
 1524SOL    HW116031   1.823   1.979  10.773  2.1339  0.7581  0.6102
 1524SOL    HW216032   1.757   1.997  10.645  0.0327  1.4996 -0.9512
 1525SOL     OW16033   2.375   0.488  14.450  0.1988  0.2024 -0.0676
 1525SOL    HW116034   2.422   0.418  14.495  1.6294  0.4586 -1.1354
 1525SOL    HW216035   2.441   0.557  14.465  1.9950 -1.4241 -0.4600
 1526SOL     OW16036   2.231   1.230   8.791  0.5479 -0.7370 -0.1575
 1526SOL    HW116037   2.201   1.193   8.874  0.7395 -0.7226 -0.0818
 1526SOL    HW216038   2.211   1.324   8.785 -0.3791 -0.7384  2.5523
 1527SOL     OW16039   2.125   3.046   9.342 -0.1377 -0.4940  0.8877
 1527SOL    HW116040   2.139   3.032   9.248 -2.5718 -1.5323  0.6676
 1527SOL    HW216041   2.034   3.015   9.335 -0.4769  0.7647 -0.3256
 1528SOL     OW16042   0.505   3.338   0.902  0.0702  0.4063  0.2904
 1528SOL    HW116043   0.584   3.287   0.922 -1.4781 -1.4059  1.8806
 1528SOL    HW216044   0.446   3.269   0.871 -0.5125  1.7092 -1.4607
 1529SOL     OW16045   1.006   3.889  11.574 -0.0648 -0.6337 -0.0657
 1529SOL    HW116046   1.010   3.802  11.534  1.8568 -0.3823 -0.3948
 1529SOL    HW216047   0.914   3.902  11.597  0.0636  0.1879 -0.0278
 1530SOL     OW16048   4.171   3.468   2.312  0.5643  0.3808 -0.2421
 1530SOL    HW116049   4.111   3.395   2.325 -0.0923  0.8153 -0.8099
 1530SOL    HW216050   4.255   3.423   2.310  0.5501  0.3962 -1.8342
 1531SOL     OW16051   3.076   0.740   1.001 -0.5488  0.5578 -0.2391
 1531SOL    HW116052   2.998   0.719   1.054  0.7631 -1.6086  0.8487
 1531SOL    HW216053   3.060   0.702   0.914  1.4063  0.6863 -0.6430
 1532SOL     OW16054   2.216   4.505  10.244  0.3559  0.5737  0.5705
 1532SOL    HW116055   2.213   4.492  10.149  0.9873  0.6477  0.5397
 1532SOL    HW216056   2.265   4.587  10.240  0.9925 -0.0442 -3.8496
 1533SOL     OW16057   1.181   2.954   9.513 -0.1085  0.0055 -0.3399
 1533SOL    HW116058   1.265   2.948   9.467  0.6843  0.5071  1.0470
 1533SOL    HW216059   1.192   2.876   9.568 -3.7976 -1.4890 -1.7238
 1534SOL     OW16060   4.192   3.883   6.038  0.0222  0.0433  0.1697
 1534SOL    HW116061   4.136   3.834   6.098 -2.6139  3.0931  0.2073
 1534SOL    HW216062   4.255   3.942   6.080 -0.8369  0.8619  0.2984
 1535SOL     OW16063   3.945   0.471   5.678 -0.2832  0.2136  0.1104
 1535SOL    HW116064   3.986   0.405   5.623  1.9839  1.2166  0.6143
 1535SOL    HW216065   4.019   0.529   5.696 -0.2938  0.1559  0.3390
 1536SOL     OW16066   0.219   2.166   2.497  0.5802 -0.6160  0.1058
 1536SOL    HW116067   0.304   2.204   2.478 -0.6300  0.2680 -3.4339
 1536SOL    HW216068   0.163   2.232   2.456 -0.3513  0.6492  3.4047
 1537SOL     OW16069   4.298   3.625   8.516 -0.2648 -0.2096 -0.4710
 1537SOL    HW116070   4.298   3.530   8.529 -1.4330 -0.4109 -1.8873
 1537SOL    HW216071   4.233   3.629   8.586  1.0416  2.4931  0.5842
 1538SOL     OW16072   4.092   3.677  10.249 -0.3892 -0.5004  0.2240
 1538SOL    HW116073   4.070   3.693  10.157  0.3022  1.5150  0.4244
 1538SOL    HW216074   4.031   3.605  10.269 -1.9968  0.5499 -0.8775
 1539SOL     OW16075   2.410   0.178  15.168  0.1388 -0.2303 -0.5939
 1539SOL    HW116076   2.450   0.221  15.093 -0.0048 -0.0737 -0.5805
 1539SOL    HW216077   2.426   0.254  15.223  2.3903  0.1741 -1.8088
 1540SOL     OW16078   2.543   2.138   4.366 -0.6428  0.4294  0.2519
 1540SOL    HW116079   2.582   2.126   4.280  1.1524  1.2573  0.9635
 1540SOL    HW216080   2.582   2.223   4.384 -2.5147  1.2218  0.5743
 1541SOL     OW16081   1.875   3.730   4.494  0.0885  0.2261 -0.1292
 1541SOL    HW116082   1.938   3.800   4.475  0.3559 -0.3052 -1.2128
 1541SOL    HW216083   1.798   3.773   4.529  0.5797  1.6083 -0.7533
 1542SOL     OW16084   0.026   1.582   5.320  0.5789 -0.2871  0.2334
 1542SOL    HW116085   0.095   1.555   5.381  1.1847  1.0284  0.1280
 1542SOL    HW216086   4.717   1.664   5.355 -0.4350 -0.7818  0.3972
 1543SOL     OW16087   0.567   0.690  10.488  0.7182  0.4794 -0.2559
 1543SOL    HW116088   0.600   0.707  10.576  0.1251  1.0692 -0.1478
 1543SOL    HW216089   0.488   0.743  10.504  0.0640 -0.3017 -0.9140
 1544SOL     OW16090   0.297   1.835   7.125  0.2866 -0.5176 -0.8191
 1544SOL    HW116091   0.254   1.839   7.039  0.2971  0.1950 -0.7908
 1544SOL    HW216092   0.351   1.757   7.118  0.8490 -0.1505 -0.5357
 1545SOL     OW16093   3.433   3.401   4.217 -0.3405  0.4542  0.4230
 1545SOL    HW116094   3.351   3.372   4.255 -0.1708  3.3408  2.9849
 1545SOL    HW216095   3.401   3.412   4.127 -0.8008  0.1595  0.5550
 1546SOL     OW16096   2.720   2.822   1.172  0.1982  0.1729 -0.2259
 1546SOL    HW116097   2.676   2.821   1.257 -0.2071 -0.6817 -0.4450
 1546SOL    HW216098   2.788   2.885   1.195 -0.6380  1.1746 -0.4966
 1547SOL     OW16099   4.602   2.378   0.301  0.2060 -0.4014 -0.4881
 1547SOL    HW116100   4.605   2.455   0.358  1.8373 -0.8530  0.0414
 1547SOL    HW216101   4.552   2.314   0.351  3.1696 -0.6950  2.1362
 1548SOL     OW16102   4.364   0.505   0.553  0.4181  0.3917 -0.1200
 1548SOL    HW116103   4.346   0.591   0.516  0.4544 -0.0210 -1.0990
 1548SOL    HW216104   4.286   0.454   0.530  0.0604  0.1587  1.5500
 1549SOL     OW16105   0.173   1.758  11.136  0.7886  0.6867  0.0346
 1549SOL    HW116106   0.083   1.787  11.127  0.2925 -1.5764 -2.1838
 1549SOL    HW216107   0.204   1.800  11.055 -1.5721  0.5764 -0.9358
 1550SOL     OW16108   0.837   2.557   7.195  1.2880 -0.1697 -0.3716
 1550SOL    HW116109   0.795   2.606   7.265  1.1252 -0.6778 -0.1098
 1550SOL    HW216110   0.896   2.502   7.247  0.2768 -1.1130 -0.2294
 1551SOL     OW16111   3.797   4.324   1.235 -0.3027  0.4730  0.2253
 1551SOL    HW116112   3.746   4.328   1.316 -0.6978  1.5489 -0.0847
 1551SOL    HW216113   3.734   4.357   1.171 -1.0109 -0.9066  0.2043
 1552SOL     OW16114   4.518   1.552   5.873 -0.3669  0.2014 -0.3024
 1552SOL    HW116115   4.425   1.540   5.895 -0.2213  0.0922  0.2394
 1552SOL    HW216116   4.514   1.588   5.784  1.9646  1.4366  0.0981
 1553SOL     OW16117   3.466   2.063   3.812 -0.1058 -0.0584  0.4424
 1553SOL    HW116118   3.410   2.051   3.736 -0.1041 -2.9848  0.8954
 1553SOL    HW216119   3.469   2.158   3.806 -0.4773 -0.1200 -0.6527
 1554SOL     OW16120   2.547   3.456   5.744  0.4087 -0.2063 -0.2128
 1554SOL    HW116121   2.520   3.534   5.792  1.2262  1.5120 -2.5584
 1554SOL    HW216122   2.483   3.396   5.783 -0.0372 -0.1608 -0.8640
 1555SOL     OW16123   1.512   1.008   2.278 -0.8000 -0.4930 -0.4298
 1555SOL    HW116124   1.509   0.952   2.200  2.8841  0.9975 -1.6301
 1555SOL    HW216125   1.494   1.095   2.244 -0.1820 -0.6317 -1.1213
 1556SOL     OW16126   0.223   2.464  10.848  0.7681 -0.1159  0.1640
 1556SOL    HW116127   0.169   2.394  10.811 -0.6378  1.0877 -0.0490
 1556SOL    HW216128   0.269   2.493  10.769  0.7393  1.8730  0.8746
 1557SOL     OW16129   2.030   0.623   3.509 -0.2344  0.6136 -0.5235
 1557SOL    HW116130   1.977   0.565   3.455  0.0977  1.9662 -2.3105
 1557SOL    HW216131   2.061   0.562   3.576 -1.8857  0.2290 -0.1195
 1558SOL     OW16132   0.204   2.416   0.700 -0.5583  0.6054 -0.6131
 1558SOL    HW116133   0.178   2.393   0.611 -2.0170  0.1243 -0.0504
 1558SOL    HW216134   0.178   2.337   0.747 -0.2928  1.7949  1.5380
 1559SOL     OW16135   1.554   2.980   2.664 -0.0947  0.1717 -0.0938
 1559SOL    HW116136   1.590   3.033   2.592  1.1848 -0.1235  0.3359
 1559SOL    HW216137   1.467   3.019   2.672  0.9907  2.1479  2.1930
 1560SOL     OW16138   0.654   2.818  14.366 -0.3815 -0.4687  0.7600
 1560SOL    HW116139   0.567   2.807  14.327 -0.2273  0.7417  0.0668
 1560SOL    HW216140   0.655   2.743  14.426  2.8670  0.5407  1.9693
 1561SOL     OW16141   2.672   2.170   2.979  0.1051  0.2426 -0.4919
 1561SOL    HW116142   2.597   2.230   2.985  0.1918  0.2109  0.8537
 1561SOL    HW216143   2.648   2.112   3.052  1.1514 -0.1240 -0.4409
 1562SOL     OW16144   2.570   3.508   2.788  0.4057  0.2776  0.3338
 1562SOL    HW116145   2.647   3.467   2.826  0.9903 -1.5468 -2.8333
 1562SOL    HW216146   2.606   3.581   2.737  0.3809 -0.5994 -0.9507
 1563SOL     OW16147   1.719   1.737  13.109  0.1309  0.2344  0.0410
 1563SOL    HW116148   1.695   1.784  13.190  0.4092  1.9176 -0.8527
 1563SOL    HW216149   1.714   1.810  13.047 -1.2274 -0.5083 -0.7111
 1564SOL     OW16150   3.805   0.604   6.407  0.2508  0.3321  0.1000
 1564SOL    HW116151   3.748   0.678   6.428  0.7808  1.3852 -2.1119
 1564SOL    HW216152   3.765   0.575   6.325 -1.7332  0.6505  0.9670
 1565SOL     OW16153   3.972   4.550   3.523  0.0860  0.3258  0.4345
 1565SOL    HW116154   3.969   4.536   3.617  0.0858 -1.4715  0.1614
 1565SOL    HW216155   4.055   4.508   3.499 -0.6525 -1.3213  0.7781
 1566SOL     OW16156   3.883   2.703   5.502  0.2106 -0.0028 -0.1996
 1566SOL    HW116157   3.889   2.650   5.582  0.0579  0.4164  0.0884
 1566SOL    HW216158   3.971   2.731   5.476  0.3455  0.8220  1.1273
 1567SOL     OW16159   4.208   2.086   6.289  0.0287  0.0256 -1.1903
 1567SOL    HW116160   4.178   2.135   6.366  0.9595 -1.4479  0.1092
 1567SOL    HW216161   4.173   2.141   6.219 -0.8331  0.9500 -0.0281
 1568SOL     OW16162   2.387   2.556   3.169 -0.5591  0.4244  0.2889
 1568SOL    HW116163   2.314   2.522   3.221  0.3250 -0.3154  1.0556
 1568SOL    HW216164   2.451   2.579   3.237  0.3453  0.1057 -0.4494
 1569SOL     OW16165   1.974   1.752   7.822 -0.1073  0.5113  0.3675
 1569SOL    HW116166   1.918   1.675   7.834 -0.2524  0.4465 -0.7079
 1569SOL    HW216167   2.061   1.711   7.820 -0.0536  0.7603 -1.8199
 1570SOL     OW16168   3.918   1.348   5.409 -0.0708 -0.2947 -0.3481
 1570SOL    HW116169   3.920   1.253   5.413 -2.8666 -0.3306  0.2813
 1570SOL    HW216170   3.871   1.358   5.326 -1.4704  0.7839  0.5769
 1571SOL     OW16171   0.338   0.410   5.033  0.1622  0.0829 -0.4800
 1571SOL    HW116172   0.310   0.365   4.953  0.2905  0.1404 -0.5577
 1571SOL    HW216173   0.323   0.499   5.002 -0.0925 -0.3363 -1.5514
 1572SOL     OW16174   1.146   4.441  12.036  0.5208 -0.6203 -0.2947
 1572SOL    HW116175   1.224   4.491  12.059 -0.5246 -0.0150  1.8452
 1572SOL    HW216176   1.189   4.365  11.995  0.0914 -1.8034  1.4667
 1573SOL     OW16177   2.592   3.494   3.179  0.0278 -0.7741  0.1263
 1573SOL    HW116178   2.686   3.501   3.199 -0.6681 -1.0640  3.5060
 1573SOL    HW216179   2.568   3.443   3.256  0.2197 -1.6114 -0.3608
 1574SOL     OW16180   0.592   4.078   6.687 -0.1979  0.3618  0.0525
 1574SOL    HW116181   0.664   4.081   6.625  0.3805 -0.5598  0.6878
 1574SOL    HW216182   0.595   3.986   6.713 -2.6422  0.3642  0.3633
 1575SOL     OW16183   2.805   0.052   4.188 -0.1614  0.0337 -0.0012
 1575SOL    HW116184   2.830   0.122   4.127 -2.3291  0.7014 -0.1087
 1575SOL    HW216185   2.896   0.021   4.191  0.1616  1.0703  1.0569
 1576SOL     OW16186   1.332   3.803   0.878 -0.8053  0.3681  0.0024
 1576SOL    HW116187   1.379   3.792   0.961  0.1959  2.8972 -0.2242
 1576SOL    HW216188   1.380   3.877   0.841 -0.1189 -1.2030 -2.2035
 1577SOL     OW16189   4.204   3.357   7.152  0.1404  0.1913 -0.1459
 1577SOL    HW116190   4.272   3.395   7.096 -0.1708 -1.6928 -1.7873
 1577SOL    HW216191   4.228   3.265   7.146  0.1667  0.3054 -1.7316
 1578SOL     OW16192   0.827   3.689   2.564  0.1876 -0.3100 -0.2499
 1578SOL    HW116193   0.871   3.736   2.493 -2.5523  0.8779 -1.1794
 1578SOL    HW216194   0.803   3.763   2.620  1.3550 -1.3424  1.6076
 1579SOL     OW16195   2.024   0.405   3.672  0.2667  0.0435  0.6211
 1579SOL    HW116196   1.952   0.347   3.646 -1.4816  2.8492 -0.7265
 1579SOL    HW216197   2.090   0.343   3.704 -0.2971 -0.0554  1.5984
 1580SOL     OW16198   1.773   3.339  12.816 -0.0361 -0.3462 -0.5202
 1580SOL    HW116199   1.698   3.398  12.813  0.0735 -0.2780 -1.8377
 1580SOL    HW216200   1.774   3.298  12.729  1.6318 -1.2583 -0.0586
 1581SOL     OW16201   3.892   0.423   3.741  0.3710 -0.8061  0.3884
 1581SOL    HW116202   3.971   0.467   3.771 -1.6727  1.4604  2.4074
 1581SOL    HW216203   3.879   0.454   3.651  0.8719 -0.7107  0.3505
 1582SOL     OW16204   1.950   3.598   3.414  0.3376 -0.5728  0.1497
 1582SOL    HW116205   2.036   3.640   3.419 -0.5786  1.5253 -1.4910
 1582SOL    HW216206   1.904   3.668   3.462 -1.8968 -0.5677 -2.0006
 1583SOL     OW16207   0.476   4.034  11.216 -0.1265  0.1338  0.0406
 1583SOL    HW116208   0.494   4.104  11.154  1.7917  0.6570  1.1778
 1583SOL    HW216209   0.565   4.008  11.239 -0.3054 -1.1841 -0.7596
 1584SOL     OW16210   3.187   3.648   1.250 -0.0545  0.4196  0.3460
 1584SOL    HW116211   3.198   3.696   1.168  2.1274  1.4463  1.2235
 1584SOL    HW216212   3.185   3.733   1.296 -0.3205  0.0286  1.0606
 1585SOL     OW16213   3.488   2.622   8.875 -0.2019  0.0960 -0.3611
 1585SOL    HW116214   3.549   2.695   8.863  0.6838 -0.7680 -1.1433
 1585SOL    HW216215   3.531   2.550   8.829  1.0441  0.4200  0.3104
 1586SOL     OW16216   0.524   0.584   3.500  0.1156 -0.6839  0.0431
 1586SOL    HW116217   0.483   0.652   3.447  1.0901  0.8241  1.2254
 1586SOL    HW216218   0.589   0.633   3.551  2.2137 -0.4475 -2.8364
 1587SOL     OW16219   0.802   0.699  10.135  0.5509 -0.2278 -0.2224
 1587SOL    HW116220   0.795   0.644  10.057 -0.0942  1.5091 -1.3750
 1587SOL    HW216221   0.713   0.721  10.163  0.4336  0.4056 -1.1008
 1588SOL     OW16222   0.228   3.088   0.017 -0.0825 -0.1541  0.4757
 1588SOL    HW116223   0.143   3.106   0.057 -0.0929 -1.4255  1.0191
 1588SOL    HW216224   0.193   3.084  17.629 -0.6064 -0.9738  0.7232
 1589SOL     OW16225   2.119   3.491  15.763 -0.0342  0.4171  0.2311
 1589SOL    HW116226   2.147   3.575  15.799 -0.6923  1.1427 -0.9869
 1589SOL    HW216227   2.203   3.472  15.720  0.1592  0.7302  0.4654
 1590SOL     OW16228   4.178   1.556   8.836  0.1747 -0.5310 -0.1489
 1590SOL    HW116229   4.197   1.477   8.785 -0.4081  0.3524 -1.7149
 1590SOL    HW216230   4.258   1.604   8.818 -0.8349  0.4056 -2.0908
 1591SOL     OW16231   2.089   4.555  14.063 -0.5909  0.0128  0.0188
 1591SOL    HW116232   2.013   4.514  14.105  0.9851  0.5350  3.4181
 1591SOL    HW216233   2.058   4.644  14.047  1.3622  0.3167 -2.2243
 1592SOL     OW16234   3.923   2.391  14.300 -0.5209 -0.3235  0.0411
 1592SOL    HW116235   3.953   2.386  14.209  0.3347 -0.2482  0.3211
 1592SOL    HW216236   3.849   2.449  14.280  0.2451  0.5270 -0.3047
 1593SOL     OW16237   2.769   4.024  12.575 -0.0484  0.4819 -0.3515
 1593SOL    HW116238   2.692   3.968  12.566  0.0162  0.3075  0.2284
 1593SOL    HW216239   2.827   3.973  12.631  1.3060 -0.3818 -2.5432
 1594SOL     OW16240   0.004   1.328   5.705 -0.1330 -0.7738  0.1039
 1594SOL    HW116241   0.000   1.252   5.647  0.0099  0.9357 -2.1469
 1594SOL    HW216242   0.093   1.321   5.740  0.1688  0.9149 -0.3310
 1595SOL     OW16243   2.887   4.235  15.408  0.2279  0.2200 -0.5987
 1595SOL    HW116244   2.923   4.316  15.444  0.2832 -0.2460  0.3927
 1595SOL    HW216245   2.964   4.217  15.353 -0.2000  1.4669 -1.6016
 1596SOL     OW16246   0.798   2.614  14.800 -0.8163 -0.2026 -0.1522
 1596SOL    HW116247   0.835   2.668  14.870 -1.2921 -0.0295 -0.0385
 1596SOL    HW216248   0.828   2.527  14.830 -1.7513 -1.1536 -2.0078
 1597SOL     OW16249   0.788   0.854   7.610  0.1315  0.1075  1.0990
 1597SOL    HW116250   0.815   0.845   7.701  0.4564 -1.7057  0.8178
 1597SOL    HW216251   0.835   0.931   7.579  1.2129 -0.5894  1.0143
 1598SOL     OW16252   3.060   0.150  13.777  0.2324  0.1383 -0.0998
 1598SOL    HW116253   2.975   0.157  13.733  0.4734  0.4259 -0.5307
 1598SOL    HW216254   3.035   0.094  13.850 -1.3737  0.1084 -0.6740
 1599SOL     OW16255   0.817   0.225   4.636 -0.1297 -0.3709 -0.1150
 1599SOL    HW116256   0.818   0.130   4.641 -2.7211 -0.2955  2.0141
 1599SOL    HW216257   0.790   0.236   4.544 -0.2994  2.7247  0.3054
 1600SOL     OW16258   3.748   4.318   7.795  0.4511  0.0287 -0.2271
 1600SOL    HW116259   3.723   4.400   7.838 -0.3573 -0.1982 -0.2570
 1600SOL    HW216260   3.698   4.247   7.836  1.3359 -1.3859 -1.5985
 1601SOL     OW16261   4.214   3.029  11.942 -0.0619 -0.0120 -0.3507
 1601SOL    HW116262   4.305   3.050  11.919 -0.3184  1.2222 -0.2451
 1601SOL    HW216263   4.203   2.947  11.893 -0.2353 -0.1969  0.0006
 1602SOL     OW16264   4.615   1.218  10.871  0.1717 -1.0684 -0.7389
 1602SOL    HW116265   4.667   1.272  10.931 -0.2866 -0.3477 -0.9909
 1602SOL    HW216266   4.685   1.155  10.851  0.6005 -1.0151  0.5794
 1603SOL     OW16267   4.652   2.092  13.277 -0.1907 -0.2422  0.2637
 1603SOL    HW116268   4.566   2.118  13.308 -0.4562 -0.7988 -0.0008
 1603SOL    HW216269   4.669   2.170  13.224 -0.0761 -0.0029  0.6554
 1604SOL     OW16270   2.389   0.432   7.578 -0.3197 -0.4712  0.2037
 1604SOL    HW116271   2.359   0.510   7.533 -1.4722 -1.3700 -0.5846
 1604SOL    HW216272   2.420   0.461   7.664  2.5094 -3.4046  0.2120
 1605SOL     OW16273   1.186   2.596   8.194  0.2998 -0.7175  0.0918
 1605SOL    HW116274   1.215   2.664   8.134 -0.2845  1.6494  2.4902
 1605SOL    HW216275   1.201   2.624   8.284  0.5676 -1.6060  0.3252
 1606SOL     OW16276   1.655   2.957   4.732  0.6324 -0.3311  0.1308
 1606SOL    HW116277   1.735   2.968   4.681 -0.1656  0.0513 -1.0297
 1606SOL    HW216278   1.641   3.045   4.765  1.1761 -0.1888 -0.0230
 1607SOL     OW16279   0.577   0.604   1.849  0.2206 -0.1526 -0.3024
 1607SOL    HW116280   0.523   0.539   1.893  1.0379  1.1034  2.6259
 1607SOL    HW216281   0.627   0.643   1.921  1.1127  0.8151 -1.4465
 1608SOL     OW16282   2.139   1.042   3.020  0.2691 -0.0133  0.1817
 1608SOL    HW116283   2.170   0.965   2.972 -1.0905  0.0744 -0.8191
 1608SOL    HW216284   2.070   1.008   3.077  0.4112 -0.3452  0.1581
 1609SOL     OW16285   2.052   3.593   1.108  0.4751  0.3483 -0.1401
 1609SOL    HW116286   2.031   3.532   1.037  0.0019  0.5183 -0.1393
 1609SOL    HW216287   2.025   3.672   1.062  2.8875  1.3247  0.1110
 1610SOL     OW16288   0.541   3.051   4.241  0.3456  0.1843  0.4492
 1610SOL    HW116289   0.595   3.106   4.185 -1.3210  0.0804 -1.2431
 1610SOL    HW216290   0.610   3.000   4.283 -0.1977 -0.8647  0.0771
 1611SOL     OW16291   0.588   2.799   5.988  0.0725 -0.6157  0.3893
 1611SOL    HW116292   0.614   2.733   6.053  2.8980  1.2440  1.1760
 1611SOL    HW216293   0.595   2.745   5.910  1.8850  0.9470 -0.5368
 1612SOL     OW16294   2.575   3.302   1.937 -0.3440  0.4260  0.5731
 1612SOL    HW116295   2.545   3.370   1.877 -0.3231 -1.0425 -1.1176
 1612SOL    HW216296   2.615   3.360   2.001 -0.1930 -0.5922  1.4032
 1613SOL     OW16297   0.583   2.574   3.611 -0.0173  0.4024  0.4085
 1613SOL    HW116298   0.638   2.591   3.535 -0.0700 -1.0076  0.0569
 1613SOL    HW216299   0.571   2.665   3.637 -0.3470  1.4466 -3.4361
 1614SOL     OW16300   3.632   2.392   4.200 -0.2055  0.2460 -0.4633
 1614SOL    HW116301   3.656   2.303   4.174 -0.4979  0.5768 -1.8810
 1614SOL    HW216302   3.585   2.411   4.119 -0.9651  1.0221  0.1499
 1615SOL     OW16303   3.678   0.616   2.877 -0.0293  0.2258  0.3273
 1615SOL    HW116304   3.722   0.561   2.812  0.6152  2.3514 -1.0478
 1615SOL    HW216305   3.588   0.583   2.880  0.3795 -0.9967 -1.0495
 1616SOL     OW16306   0.941   0.426   7.386  0.0178 -0.5918  0.2323
 1616SOL    HW116307   0.987   0.445   7.467  1.6007 -1.7350 -0.4049
 1616SOL    HW216308   1.014   0.378   7.346 -0.2788 -0.2055 -0.7802
 1617SOL     OW16309   4.720   0.770  10.044  0.3994  0.1198  0.0033
 1617SOL    HW116310   4.664   0.798   9.972  0.4894 -0.3637 -0.2570
 1617SOL    HW216311   0.081   0.766  10.001  1.5967  0.2050  2.3859
 1618SOL     OW16312   4.145   1.863   2.725 -0.2917 -0.0456  0.3587
 1618SOL    HW116313   4.061   1.820   2.742  0.4764 -2.1395 -1.0950
 1618SOL    HW216314   4.194   1.799   2.776  0.3283  1.0590  1.1434
 1619SOL     OW16315   0.041   3.201   8.197  0.7341  0.7897 -0.2912
 1619SOL    HW116316   0.066   3.250   8.119 -0.6095  3.0995  0.7273
 1619SOL    HW216317   4.695   3.256   8.229 -1.7138 -1.7060 -1.4199
 1620SOL     OW16318   3.231   2.437   8.803  0.3815  0.4495 -0.1193
 1620SOL    HW116319   3.318   2.475   8.813  0.5088  0.0914  0.1257
 1620SOL    HW216320   3.226   2.418   8.709  0.6782 -0.2306  0.0026
 1621SOL     OW16321   2.862   2.338   9.939  0.0755 -0.3763  0.1406
 1621SOL    HW116322   2.778   2.335   9.985 -1.0094 -2.4819 -1.9602
 1621SOL    HW216323   2.912   2.301  10.012 -0.6977 -0.8756  0.4078
 1622SOL     OW16324   2.437   1.188   3.278 -0.1485  0.3945  0.6478
 1622SOL    HW116325   2.433   1.130   3.203  3.1556 -0.4074  1.0564
 1622SOL    HW216326   2.504   1.144   3.331 -0.5201  0.7560  1.4264
 1623SOL     OW16327   1.832   2.555   8.583  0.1824  0.3757  0.3368
 1623SOL    HW116328   1.757   2.593   8.629  0.1588 -0.5526  1.0647
 1623SOL    HW216329   1.909   2.571   8.638  1.0880  3.0020 -1.6729
 1624SOL     OW16330   2.391   0.389   2.846 -0.0442  0.9272 -0.8433
 1624SOL    HW116331   2.483   0.375   2.865  0.3963  4.4350 -0.4575
 1624SOL    HW216332   2.383   0.484   2.842 -0.8729  0.8541 -1.0037
 1625SOL     OW16333   0.819   4.698   7.641 -0.2033 -0.0937  0.2924
 1625SOL    HW116334   0.862   0.033   7.579 -1.2076  1.4098  1.0487
 1625SOL    HW216335   0.737   0.022   7.652  0.2966  0.8937 -0.3271
 1626SOL     OW16336   4.501   4.253   0.180 -0.1089 -0.3020 -0.0989
 1626SOL    HW116337   4.528   4.280   0.267  3.1119  0.7972 -1.4542
 1626SOL    HW216338   4.485   4.160   0.199  2.2619 -0.3170  1.8107
 1627SOL     OW16339   2.732   1.939  15.518  0.1629 -0.2165 -0.1022
 1627SOL    HW116340   2.749   2.032  15.500 -0.5572  0.1795  1.2885
 1627SOL    HW216341   2.772   1.926  15.604 -0.1928 -2.3654 -0.2651
 1628SOL     OW16342   0.814   3.543   2.815 -0.4246 -0.0556 -0.2580
 1628SOL    HW116343   0.886   3.480   2.810  1.4233  2.0751 -0.7802
 1628SOL    HW216344   0.811   3.574   2.724  1.1597 -0.0692 -0.3224
 1629SOL     OW16345   0.598   4.601   5.260  0.4095 -0.6968  0.2652
 1629SOL    HW116346   0.626   4.620   5.171  2.5517  0.7565  1.2324
 1629SOL    HW216347   0.584   4.507   5.252 -0.7070 -0.4921 -0.1894
 1630SOL     OW16348   3.395   2.151  15.739 -0.2759  0.9601  0.4238
 1630SOL    HW116349   3.426   2.227  15.788 -0.6963  1.8853 -0.7540
 1630SOL    HW216350   3.307   2.184  15.722 -0.2315  0.3391 -1.0087
 1631SOL     OW16351   1.788   3.002   6.501  0.1390 -0.8884 -0.3306
 1631SOL    HW116352   1.842   3.081   6.500  0.1495 -0.8812  0.3260
 1631SOL    HW216353   1.704   3.044   6.482 -0.0156 -1.0187  0.0634
 1632SOL     OW16354   0.557   4.306   3.907 -0.1442 -0.1194  0.6449
 1632SOL    HW116355   0.590   4.295   3.818 -0.3264 -0.6413  0.6419
 1632SOL    HW216356   0.482   4.247   3.905 -0.7674  0.6730  0.8427
 1633SOL     OW16357   3.234   2.902  11.420 -0.2934  0.1358 -0.7224
 1633SOL    HW116358   3.249   2.808  11.431 -1.1854  0.0768  0.0392
 1633SOL    HW216359   3.314   2.945  11.450 -0.3943  0.2055 -0.5486
 1634SOL     OW16360   0.704   1.709   8.151  0.2316 -0.1187  0.1553
 1634SOL    HW116361   0.644   1.649   8.196  1.4565 -0.4493  1.3645
 1634SOL    HW216362   0.746   1.756   8.223  0.3036 -0.6435  0.4623
 1635SOL     OW16363   3.445   0.115   6.732 -0.0896  0.3744  0.2679
 1635SOL    HW116364   3.536   0.093   6.716 -0.1594  0.8614 -0.8432
 1635SOL    HW216365   3.417   0.124   6.641 -0.7207  1.1357  0.5430
 1636SOL     OW16366   2.399   4.094   9.810 -0.0828 -0.3310 -0.2057
 1636SOL    HW116367   2.488   4.115   9.840 -0.5817 -1.2927  1.9844
 1636SOL    HW216368   2.350   4.138   9.879 -0.4034  1.7186 -1.7575
 1637SOL     OW16369   2.162   2.857   9.746  0.1957 -0.4555  0.2931
 1637SOL    HW116370   2.069   2.878   9.752  0.3018 -0.5110  2.0512
 1637SOL    HW216371   2.201   2.895   9.824 -0.1029 -1.6642  1.0308
 1638SOL     OW16372   3.238   1.805   7.766 -0.2185 -0.1216  0.5261
 1638SOL    HW116373   3.162   1.789   7.710  0.4435 -0.2953 -0.3150
 1638SOL    HW216374   3.194   1.855   7.836 -2.8852  0.8091 -1.8285
 1639SOL     OW16375   1.671   1.710   8.430  0.1650  0.3264 -0.1816
 1639SOL    HW116376   1.622   1.747   8.503  0.0114  1.9687 -1.1203
 1639SOL    HW216377   1.618   1.734   8.354  0.0916 -1.1090 -0.5819
 1640SOL     OW16378   3.006   2.770   6.497  0.2904 -0.1301 -0.4298
 1640SOL    HW116379   3.090   2.725   6.506  0.2340 -0.3530 -0.9704
 1640SOL    HW216380   3.032   2.862   6.498  1.8990 -0.5644 -1.3596
 1641SOL     OW16381   4.211   1.878   2.421  0.3821 -0.2549  0.2747
 1641SOL    HW116382   4.138   1.828   2.385 -0.4605  1.4535 -0.4368
 1641SOL    HW216383   4.255   1.801   2.458  2.9797  1.2566  0.3917
 1642SOL     OW16384   4.601   4.306   3.724  0.0567 -0.1081 -0.5419
 1642SOL    HW116385   4.576   4.393   3.756 -2.2726 -1.5565  1.5694
 1642SOL    HW216386   4.675   4.323   3.666 -0.4474  1.2980 -0.7913
 1643SOL     OW16387   2.200   2.474  11.376  0.5812 -0.0069 -0.1604
 1643SOL    HW116388   2.120   2.455  11.327  0.7382 -1.4723  0.1462
 1643SOL    HW216389   2.273   2.430  11.333 -1.2350 -3.8127  0.6958
 1644SOL     OW16390   4.515   0.570   7.148 -0.0238 -0.4802  0.1238
 1644SOL    HW116391   4.427   0.545   7.178 -0.1759 -0.3815 -0.2451
 1644SOL    HW216392   4.514   0.652   7.197 -0.3360 -0.5129  0.1681
 1645SOL     OW16393   1.241   2.902   7.152  0.1491  0.1600  0.0517
 1645SOL    HW116394   1.230   2.909   7.058 -0.4027 -0.2752  0.0883
 1645SOL    HW216395   1.190   2.823   7.169  0.8248  0.1441  1.9998
 1646SOL     OW16396   1.310   1.850  14.303  0.3226  0.2977 -0.0243
 1646SOL    HW116397   1.238   1.817  14.249  1.8363 -3.4107  0.2004
 1646SOL    HW216398   1.385   1.833  14.246 -0.0942  1.8680 -1.0313
 1647SOL     OW16399   2.253   4.041   3.000 -0.1869  0.0879  0.5098
 1647SOL    HW116400   2.272   3.979   2.929 -0.1564  2.4276 -1.5102
 1647SOL    HW216401   2.203   3.979   3.054 -0.3172 -0.4816 -0.2692
 1648SOL     OW16402   0.338   3.623   5.453  0.3134 -0.2464  0.3402
 1648SOL    HW116403   0.357   3.599   5.543  2.3404  1.8893  0.4722
 1648SOL    HW216404   0.413   3.581   5.412  1.5282  0.8316  1.4580
 1649SOL     OW16405   0.672   0.553  17.329  0.3221 -0.8665 -0.0054
 1649SOL    HW116406   0.753   0.596  17.357 -0.8510  1.0107  0.5137
 1649SOL    HW216407   0.600   0.613  17.352  0.8106  0.4129 -1.8663
 1650SOL     OW16408   3.097   3.933  14.183 -0.3762 -0.5250 -0.3909
 1650SOL    HW116409   3.120   3.866  14.117 -0.0186  0.1790 -0.9808
 1650SOL    HW216410   3.176   3.987  14.177 -0.3933 -0.3629  0.8621
 1651SOL     OW16411   3.565   1.272   5.596  0.3951  0.1479  0.0793
 1651SOL    HW116412   3.505   1.323   5.651  1.8605  1.0232  0.8746
 1651SOL    HW216413   3.587   1.194   5.647 -2.7400 -0.7980 -0.0385
 1652SOL     OW16414   0.377   1.945   2.682 -0.2759  0.2425 -0.4556
 1652SOL    HW116415   0.306   1.935   2.618  1.3477  0.6413 -2.3106
 1652SOL    HW216416   0.333   1.936   2.767 -0.8042  0.4269 -0.7091
 1653SOL     OW16417   3.128   2.997   8.038 -0.1816  0.3545 -0.5125
 1653SOL    HW116418   3.127   3.029   7.948  2.6125  3.5468  0.5974
 1653SOL    HW216419   3.070   2.921   8.041  0.3339 -0.0559 -1.0036
 1654SOL     OW16420   3.447   1.005  10.866  0.2352 -0.1719  0.2522
 1654SOL    HW116421   3.378   0.956  10.910  0.0886  1.7368  2.1030
 1654SOL    HW216422   3.467   0.952  10.789 -2.3068 -0.4199 -0.2353
 1655SOL     OW16423   1.802   2.019   3.751 -0.5352  0.1718  0.9244
 1655SOL    HW116424   1.890   2.004   3.715 -1.6402  0.5772 -2.0102
 1655SOL    HW216425   1.758   1.944   3.710  2.4300 -1.8312  1.3738
 1656SOL     OW16426   4.052   3.707   5.332 -0.2215 -0.4105  0.5772
 1656SOL    HW116427   3.991   3.776   5.306  1.6990  0.7568 -0.8938
 1656SOL    HW216428   4.111   3.712   5.257  0.4876 -1.7158  1.0413
 1657SOL     OW16429   4.436   4.220   9.696  0.0340 -0.3263  0.3202
 1657SOL    HW116430   4.458   4.246   9.786 -2.7724 -0.8849  1.1666
 1657SOL    HW216431   4.513   4.167   9.672 -0.5759  0.1087 -2.6065
 1658SOL     OW16432   1.300   3.931  15.044 -0.1345 -0.3586  0.4407
 1658SOL    HW116433   1.222   3.903  14.995  0.4117 -0.2228 -0.5120
 1658SOL    HW216434   1.281   4.024  15.035 -0.2236 -0.4753 -0.5740
 1659SOL     OW16435   1.604   0.582   8.913  0.4907  0.0515  0.0509
 1659SOL    HW116436   1.643   0.498   8.938  0.7593  0.4426  0.9560
 1659SOL    HW216437   1.573   0.563   8.825  1.4547 -0.6445 -0.1445
 1660SOL     OW16438   2.143   0.184   4.873  0.1776 -0.2843 -0.0237
 1660SOL    HW116439   2.108   0.251   4.932 -0.4334 -2.0399  1.5832
 1660SOL    HW216440   2.193   0.127   4.931  2.2089  1.4851 -0.0261
 1661SOL     OW16441   1.701   4.305   6.397 -0.0141  0.3670 -0.0686
 1661SOL    HW116442   1.795   4.290   6.392  0.2887  2.2209  0.3104
 1661SOL    HW216443   1.681   4.309   6.304 -2.3509 -1.0080  0.3678
 1662SOL     OW16444   0.148   0.288   0.885  0.4279 -0.3689 -0.3739
 1662SOL    HW116445   0.100   0.367   0.911  0.2318 -0.6838  0.2268
 1662SOL    HW216446   0.074   0.231   0.865  0.8606 -1.1062  0.1415
 1663SOL     OW16447   0.350   3.652  11.071  0.6063 -0.4662 -0.1222
 1663SOL    HW116448   0.265   3.680  11.104  0.5818  1.1694 -1.5952
 1663SOL    HW216449   0.354   3.704  10.991  0.8752  0.2841  0.3726
 1664SOL     OW16450   2.599   2.830  15.874  0.7643  0.3814  0.1532
 1664SOL    HW116451   2.544   2.900  15.838  0.1934 -0.5459 -0.7926
 1664SOL    HW216452   2.602   2.855  15.966 -2.5127 -3.0059  1.1995
 1665SOL     OW16453   4.644   0.449   4.848 -0.2029  0.0877 -0.4036
 1665SOL    HW116454   4.669   0.528   4.801  0.3942 -0.3057 -0.7513
 1665SOL    HW216455   4.552   0.467   4.868 -0.5469 -2.3584  0.1874
 1666SOL     OW16456   2.966   4.591  11.567 -0.1396  0.4684  0.6868
 1666SOL    HW116457   2.947   4.512  11.516  0.9541 -1.3428  3.0980
 1666SOL    HW216458   2.958   4.656  11.497  0.6134  0.2289  0.3767
 1667SOL     OW16459   1.785   0.158   8.623 -0.0004 -0.1743 -0.0648
 1667SOL    HW116460   1.821   0.087   8.568  0.9502 -0.7663  1.3148
 1667SOL    HW216461   1.701   0.178   8.583 -0.1738 -1.8278 -0.5645
 1668SOL     OW16462   0.274   2.696  14.071 -0.1678 -0.1449 -0.0101
 1668SOL    HW116463   0.333   2.738  14.134 -3.5435  0.7987  2.5670
 1668SOL    HW216464   0.202   2.694  14.134  0.2446  2.2993  0.5607
 1669SOL     OW16465   2.373   0.502  16.244 -0.0557 -0.4891 -0.1225
 1669SOL    HW116466   2.449   0.561  16.243 -0.0262 -0.5646 -2.1653
 1669SOL    HW216467   2.312   0.551  16.298 -1.9198 -2.1921 -0.6823
 1670SOL     OW16468   3.359   3.497   1.932 -0.2921 -0.5704 -0.3216
 1670SOL    HW116469   3.425   3.432   1.912  0.4181  0.0835 -0.1175
 1670SOL    HW216470   3.387   3.567   1.874  1.2080 -1.6023 -0.8299
 1671SOL     OW16471   4.609   3.436  15.726 -0.0067 -0.1409 -0.1882
 1671SOL    HW116472   4.521   3.446  15.691  0.1157 -0.1844 -0.5151
 1671SOL    HW216473   4.586   3.408  15.814 -0.2583  0.0622 -0.1875
 1672SOL     OW16474   4.688   0.971   4.155 -0.1241  0.4595 -0.8357
 1672SOL    HW116475   0.035   1.010   4.106  0.3753  2.1150  1.2261
 1672SOL    HW216476   0.009   0.890   4.173  0.6474  0.8174 -1.2026
 1673SOL     OW16477   1.923   3.050   5.919 -0.0325 -0.5581  0.0331
 1673SOL    HW116478   1.878   3.130   5.948 -0.9612 -1.1439  0.2204
 1673SOL    HW216479   1.948   3.017   6.005  2.8344 -2.1284 -1.4097
 1674SOL     OW16480   0.250   4.426  16.887 -0.0150 -0.1124 -0.0196
 1674SOL    HW116481   0.303   4.443  16.965  1.2626  2.2055 -1.3870
 1674SOL    HW216482   0.244   4.331  16.897 -0.7537 -0.2784 -2.0479
 1675SOL     OW16483   1.329   1.877  15.702  0.3551  0.7347 -0.5525
 1675SOL    HW116484   1.379   1.798  15.682 -0.7156  0.0205 -0.3895
 1675SOL    HW216485   1.253   1.847  15.751  0.3179  1.7796  0.0478
 1676SOL     OW16486   2.296   3.521  10.221 -0.3815  0.2604  0.0220
 1676SOL    HW116487   2.234   3.556  10.157  1.3457  0.0823 -1.7354
 1676SOL    HW216488   2.372   3.579  10.212  0.4470 -0.9387 -0.7261
 1677SOL     OW16489   4.551   0.473   3.428 -0.4727  0.2426 -0.1564
 1677SOL    HW116490   4.539   0.379   3.444 -0.5168  0.1261 -0.8811
 1677SOL    HW216491   4.536   0.473   3.333 -1.9303  2.3723  0.0847
 1678SOL     OW16492   2.447   2.806   7.060  0.2734  0.5966 -0.1229
 1678SOL    HW116493   2.519   2.744   7.046 -0.7156 -0.9360  1.5597
 1678SOL    HW216494   2.385   2.736   7.040  4.2292 -3.2823  1.2077
 1679SOL     OW16495   2.795   4.342   3.064  1.1225  0.4023 -0.1973
 1679SOL    HW116496   2.758   4.357   2.977  0.8134 -0.4395 -0.2149
 1679SOL    HW216497   2.861   4.277   3.042  0.1647 -2.0128  4.0724
 1680SOL     OW16498   3.515   4.098   2.821 -0.0529  0.6592 -0.3381
 1680SOL    HW116499   3.482   4.025   2.768 -3.1986  0.9966  1.1424
 1680SOL    HW216500   3.525   4.054   2.906 -0.1435  0.7561 -0.2769
 1681SOL     OW16501   1.167   0.960   7.814 -0.3547 -0.2286  0.0381
 1681SOL    HW116502   1.208   0.892   7.867 -1.5733 -0.2217  0.9940
 1681SOL    HW216503   1.181   0.917   7.730  2.4902 -0.3005  0.5618
 1682SOL     OW16504   4.334   0.403   2.239 -0.0210  0.5115  0.2663
 1682SOL    HW116505   4.425   0.424   2.217 -0.4479  1.5891 -0.5078
 1682SOL    HW216506   4.291   0.351   2.171 -1.0286 -0.3254  1.5575
 1683SOL     OW16507   1.583   2.022   3.433 -0.1942  0.3929 -0.6350
 1683SOL    HW116508   1.536   2.070   3.501  3.0318  1.1735  1.0430
 1683SOL    HW216509   1.610   1.957   3.498 -3.0235  1.1307  1.2545
 1684SOL     OW16510   4.371   1.654   2.040 -0.2388  0.0286 -0.2478
 1684SOL    HW116511   4.395   1.658   2.132 -3.5465  1.3851  0.5792
 1684SOL    HW216512   4.417   1.729   2.003 -1.2548  0.6353 -0.2932
 1685SOL     OW16513   2.343   4.437   1.511  0.2220 -0.0832 -0.2777
 1685SOL    HW116514   2.330   4.497   1.585 -0.5817 -0.7552  0.1233
 1685SOL    HW216515   2.255   4.418   1.480  0.2308  0.2328 -0.4937
 1686SOL     OW16516   0.616   2.368   8.710 -0.2628 -0.4165  0.3328
 1686SOL    HW116517   0.583   2.313   8.638 -0.0297  1.3777 -1.1175
 1686SOL    HW216518   0.684   2.313   8.749  0.6141  1.5662  1.5335
 1687SOL     OW16519   2.229   2.506   7.188 -0.1146 -0.2065  0.0064
 1687SOL    HW116520   2.176   2.528   7.265  2.0982  2.8040  0.7025
 1687SOL    HW216521   2.198   2.418   7.168  0.7663 -1.1857  2.8150
 1688SOL     OW16522   1.414   3.971   7.660  0.3850  0.2536 -0.1787
 1688SOL    HW116523   1.345   3.925   7.610  0.1757  0.0616  0.2805
 1688SOL    HW216524   1.352   4.032   7.700  0.8676 -0.0028  0.9454
 1689SOL     OW16525   2.897   1.659   5.312 -0.6551  0.0273  0.6181
 1689SOL    HW116526   2.975   1.713   5.324  2.1290 -4.1013  1.1143
 1689SOL    HW216527   2.851   1.667   5.395 -1.4455 -0.0982  0.1964
 1690SOL     OW16528   3.802   3.751  11.764 -0.0531  0.2379  0.3462
 1690SOL    HW116529   3.775   3.763  11.855  1.3624  1.5667  0.5717
 1690SOL    HW216530   3.892   3.781  11.760  0.7928 -2.3289  0.0836
 1691SOL     OW16531   1.699   2.652   2.341  0.0139  0.3686  0.1544
 1691SOL    HW116532   1.628   2.709   2.308  0.2591  1.1950  1.0537
 1691SOL    HW216533   1.723   2.613   2.257 -2.9733 -3.4708  1.0814
 1692SOL     OW16534   4.027   1.173   6.459  0.2459 -0.0127 -0.0692
 1692SOL    HW116535   4.030   1.156   6.365 -0.9525 -1.6594  0.1798
 1692SOL    HW216536   3.941   1.136   6.480  1.2411 -1.9325  0.6116
 1693SOL     OW16537   2.469   2.509  17.147 -0.4452  0.0167 -0.1837
 1693SOL    HW116538   2.519   2.590  17.141  0.0693 -0.4081 -1.5563
 1693SOL    HW216539   2.492   2.473  17.233 -2.3592 -1.1176 -0.1411
 1694SOL     OW16540   0.772   2.190  12.859 -0.0086 -0.4284 -0.6345
 1694SOL    HW116541   0.697   2.171  12.803  0.0735  0.3294 -0.9930
 1694SOL    HW216542   0.764   2.125  12.929  2.2618 -1.0976 -1.0012
 1695SOL     OW16543   2.253   4.546   7.520  0.1521  0.0981  0.0418
 1695SOL    HW116544   2.250   4.566   7.426 -0.1893 -0.4278 -0.0580
 1695SOL    HW216545   2.249   4.450   7.525 -1.4799  0.1630 -0.1311
 1696SOL     OW16546   3.459   0.729   1.949 -0.0508 -0.7190 -0.0931
 1696SOL    HW116547   3.377   0.776   1.968  0.3470 -0.3162  0.6774
 1696SOL    HW216548   3.524   0.794   1.977 -1.5776  0.8422 -0.1851
 1697SOL     OW16549   2.171   2.168   5.018 -0.3081 -0.1574 -0.5203
 1697SOL    HW116550   2.265   2.186   5.015 -0.1329 -0.2004  4.5530
 1697SOL    HW216551   2.146   2.260   5.014  0.1961  0.0989  2.1688
 1698SOL     OW16552   0.129   4.584  14.072  0.2813  0.2160 -0.0910
 1698SOL    HW116553   0.057   4.588  14.009  1.7887 -1.3371 -1.9070
 1698SOL    HW216554   0.212   4.602  14.029 -0.1110  0.8844 -0.5606
 1699SOL     OW16555   1.749   4.003   2.356  0.2337 -0.0586  0.1208
 1699SOL    HW116556   1.720   4.026   2.268 -0.2499  0.4795  0.4188
 1699SOL    HW216557   1.678   3.940   2.370  1.3041 -1.0261  1.1530
 1700SOL     OW16558   0.215   2.042   6.089  0.4210 -0.3088 -0.6626
 1700SOL    HW116559   0.145   1.978   6.076  2.0251 -2.1158 -0.5192
 1700SOL    HW216560   0.276   1.989   6.141 -0.4473  0.4840  1.1600
 1701SOL     OW16561   4.294   3.936  10.338 -0.1430 -0.1052 -0.2653
 1701SOL    HW116562   4.291   3.970  10.427 -1.0759  0.1188 -0.3880
 1701SOL    HW216563   4.209   3.893  10.333  0.9973 -2.4138 -0.3262
 1702SOL     OW16564   0.515   3.492   2.363  0.1643 -0.5398 -0.2520
 1702SOL    HW116565   0.580   3.483   2.292  0.2670  1.7712 -0.4552
 1702SOL    HW216566   0.440   3.539   2.327 -1.3224 -0.4515  3.0308
 1703SOL     OW16567   2.310   3.857  17.267  0.6272 -0.3693 -0.0729
 1703SOL    HW116568   2.387   3.911  17.249  1.1389 -0.8136  0.7714
 1703SOL    HW216569   2.258   3.881  17.190 -0.3493 -0.8284  0.4419
 1704SOL     OW16570   3.599   1.468  17.014 -0.4385 -0.4589 -0.6244
 1704SOL    HW116571   3.541   1.522  17.068  1.7549  0.0565  1.2032
 1704SOL    HW216572   3.542   1.469  16.936 -1.4076 -1.9202  0.0696
 1705SOL     OW16573   1.031   1.380  11.438 -1.0178  0.1156  0.3522
 1705SOL    HW116574   1.117   1.397  11.476 -0.5298 -0.1398 -0.6301
 1705SOL    HW216575   1.062   1.383  11.348  1.4971 -2.3559  1.1222
 1706SOL     OW16576   3.470   3.768   2.411 -0.5184 -0.0381  0.2459
 1706SOL    HW116577   3.492   3.675   2.422  3.7861  0.7629 -1.7033
 1706SOL    HW216578   3.520   3.794   2.334  1.8035 -3.4070  0.6031
 1707SOL     OW16579   0.607   1.922  16.688  0.3437 -0.1025 -0.4784
 1707SOL    HW116580   0.562   1.936  16.604 -0.0521  1.9739  0.0938
 1707SOL    HW216581   0.539   1.937  16.753 -1.5602 -0.8195 -2.2778
 1708SOL     OW16582   2.415   0.445   7.048  0.0927  0.1385  0.0057
 1708SOL    HW116583   2.466   0.404   6.978  1.5455  0.7137  0.7417
 1708SOL    HW216584   2.342   0.385   7.063  0.9875 -0.6600  1.1925
 1709SOL     OW16585   4.498   2.899   1.206 -0.1909  0.1091 -0.0519
 1709SOL    HW116586   4.447   2.921   1.128  0.7265  2.8941  0.1305
 1709SOL    HW216587   4.456   2.816   1.230 -1.1243 -0.0262 -2.1494
 1710SOL     OW16588   3.655   3.602  15.875  0.2756  0.6238 -0.6965
 1710SOL    HW116589   3.700   3.682  15.903 -1.0665  0.7811  0.9806
 1710SOL    HW216590   3.662   3.609  15.780 -0.4321  1.9285 -0.6466
 1711SOL     OW16591   1.947   2.286  15.405  0.2964  0.6422 -0.1675
 1711SOL    HW116592   1.905   2.347  15.343 -1.7476 -1.6177 -1.0147
 1711SOL    HW216593   1.942   2.341  15.483  1.3830 -0.4326  0.6470
 1712SOL     OW16594   0.130   3.868   9.222 -0.5031  0.4886  0.2013
 1712SOL    HW116595   0.113   3.945   9.167  2.5562 -0.1054 -1.5505
 1712SOL    HW216596   0.224   3.869   9.236 -0.6516 -0.4470  1.2231
 1713SOL     OW16597   4.387   3.996  15.095 -0.4490  0.1539  0.2941
 1713SOL    HW116598   4.386   3.901  15.085 -2.7730  0.1123  0.7893
 1713SOL    HW216599   4.303   4.018  15.136  0.5963  0.8421  2.0763
 1714SOL     OW16600   3.485   2.009   8.596 -0.2179  0.1104 -0.4446
 1714SOL    HW116601   3.441   1.958   8.528  2.7415 -0.4598 -1.9253
 1714SOL    HW216602   3.575   1.997   8.566 -0.2665 -2.2187  0.3901
 1715SOL     OW16603   1.991   2.498   9.084 -0.3756  0.6597  0.1653
 1715SOL    HW116604   1.945   2.546   9.153 -1.7562 -2.2724  1.2821
 1715SOL    HW216605   2.044   2.562   9.037 -0.7543  1.2504  0.5424
 1716SOL     OW16606   4.639   1.634   8.366 -0.5643 -0.1311  0.2332
 1716SOL    HW116607   4.549   1.641   8.400  0.3772  1.6586  2.3456
 1716SOL    HW216608   4.679   1.678   8.442  1.0358 -0.9184 -0.1577
 1717SOL     OW16609   0.048   4.625   2.354  0.0674 -0.3681  0.4380
 1717SOL    HW116610   4.685   4.659   2.336  0.9026  2.6917  2.1630
 1717SOL    HW216611   0.062   4.666   2.439  0.5796  0.7370 -0.1880
 1718SOL     OW16612   1.144   3.694  13.995  0.1223 -0.3036 -0.0401
 1718SOL    HW116613   1.060   3.714  13.955 -0.1982  0.6161  1.0831
 1718SOL    HW216614   1.190   3.778  14.003  0.6647 -0.6362  0.3820
 1719SOL     OW16615   4.582   2.483   4.752  0.3176 -0.0219  0.5713
 1719SOL    HW116616   4.619   2.493   4.664  0.6216  1.6127  0.8924
 1719SOL    HW216617   4.531   2.405   4.730  0.8596 -0.4110  0.6998
 1720SOL     OW16618   2.626   2.023   8.304  0.7011 -0.1491 -0.0252
 1720SOL    HW116619   2.531   2.010   8.297  0.6301 -0.7136  1.8576
 1720SOL    HW216620   2.650   1.938   8.341  0.5830  0.2157  0.8963
 1721SOL     OW16621   0.392   1.420   2.359 -0.8158  0.3875 -0.0241
 1721SOL    HW116622   0.449   1.406   2.434 -1.2917 -0.1564  0.2358
 1721SOL    HW216623   0.308   1.404   2.400 -0.4556 -3.4163 -0.7924
 1722SOL     OW16624   0.381   0.915   1.331  0.3021  0.4604 -0.2762
 1722SOL    HW116625   0.463   0.865   1.324  0.8977  1.0065  2.6507
 1722SOL    HW216626   0.410   0.972   1.402  0.0034 -0.9245  0.9556
 1723SOL     OW16627   3.138   1.499   2.469 -0.1298  0.3513 -0.3048
 1723SOL    HW116628   3.096   1.474   2.387 -0.0593  2.3804 -0.9575
 1723SOL    HW216629   3.121   1.592   2.457  0.0767  0.7401  2.4469
 1724SOL     OW16630   1.528   3.089  14.622 -0.6577 -0.1166 -0.0628
 1724SOL    HW116631   1.602   3.064  14.568  0.3656  1.2387  0.7236
 1724SOL    HW216632   1.557   3.166  14.671 -1.1089  1.5693 -2.4495
 1725SOL     OW16633   3.804   2.954   5.508 -0.1396 -0.1154 -0.2331
 1725SOL    HW116634   3.832   2.863   5.503 -1.7143 -0.4465 -2.7559
 1725SOL    HW216635   3.812   2.971   5.414  0.9599  0.0633 -0.1083
 1726SOL     OW16636   2.235   0.293   4.309 -0.6835  0.6253  0.3543
 1726SOL    HW116637   2.251   0.289   4.403 -2.5886  0.0957  0.6648
 1726SOL    HW216638   2.321   0.294   4.267 -0.1989 -1.1497  1.2922
 1727SOL     OW16639   3.585   2.455   5.549 -0.4406 -0.6409 -0.4985
 1727SOL    HW116640   3.524   2.401   5.498  1.2403 -1.7518 -1.3487
 1727SOL    HW216641   3.581   2.537   5.500 -1.3643  0.5570  1.5801
 1728SOL     OW16642   2.791   3.944   1.608  0.3568  0.4465  0.8158
 1728SOL    HW116643   2.862   3.925   1.547 -0.3891 -0.1266  0.1254
 1728SOL    HW216644   2.782   4.037   1.588 -3.2493  0.1875  1.2297
 1729SOL     OW16645   2.035   3.636  16.441 -0.0888  0.3591  0.3816
 1729SOL    HW116646   2.050   3.699  16.512 -0.9904  1.1695 -0.1457
 1729SOL    HW216647   1.978   3.578  16.490  0.8353 -0.6542  0.2528
 1730SOL     OW16648   2.598   2.823  10.219 -0.2903  0.0598  0.2588
 1730SOL    HW116649   2.684   2.840  10.180 -0.5871 -1.3131 -0.9823
 1730SOL    HW216650   2.558   2.802  10.135 -1.9020 -0.6025  1.1944
 1731SOL     OW16651   2.044   0.974  11.525 -0.1384  0.1290  0.6171
 1731SOL    HW116652   2.131   1.015  11.516 -0.1457 -0.1353 -0.6690
 1731SOL    HW216653   2.017   0.963  11.434 -0.4725 -0.7355  0.8224
 1732SOL     OW16654   0.151   0.161   8.221  0.1372  0.4724 -0.1352
 1732SOL    HW116655   0.068   0.189   8.260 -1.0157 -1.0021 -1.5019
 1732SOL    HW216656   0.110   0.106   8.154  0.7461 -1.2403  0.9154
 1733SOL     OW16657   0.018   0.289   2.634 -0.2279 -0.9033 -0.3790
 1733SOL    HW116658   0.052   0.320   2.550  1.1022  0.6701  0.7373
 1733SOL    HW216659   0.056   0.359   2.687 -1.6263 -1.3836  1.2460
 1734SOL     OW16660   2.869   3.263   5.360  0.1988 -0.4777 -0.4077
 1734SOL    HW116661   2.958   3.264   5.395 -0.5151  0.1716  1.3851
 1734SOL    HW216662   2.854   3.357   5.354  0.5855 -0.2721  1.7235
 1735SOL     OW16663   4.559   4.458   5.494 -0.2634  0.1086 -0.4197
 1735SOL    HW116664   4.592   4.507   5.419  0.0819 -1.0479 -1.0189
 1735SOL    HW216665   4.599   4.508   5.565 -0.9150  0.9660 -0.6480
 1736SOL     OW16666   1.865   3.229   1.164 -0.0049 -0.0388 -0.3368
 1736SOL    HW116667   1.923   3.224   1.088  0.2305 -3.6952  0.0876
 1736SOL    HW216668   1.850   3.136   1.182 -0.0694  0.2361  1.0383
 1737SOL     OW16669   1.736   1.052   7.916 -0.1100 -0.8811 -0.2361
 1737SOL    HW116670   1.807   0.989   7.931 -0.3640 -1.1103 -0.0073
 1737SOL    HW216671   1.724   1.048   7.821  0.3434 -1.6992 -0.2615
 1738SOL     OW16672   2.888   0.546  16.226 -0.1111  0.6793 -0.1978
 1738SOL    HW116673   2.869   0.453  16.237  0.0936  0.8868  1.8872
 1738SOL    HW216674   2.850   0.560  16.139  0.3769 -0.8459 -0.6740
 1739SOL     OW16675   1.227   2.581   7.621 -0.3003  0.1344 -0.7847
 1739SOL    HW116676   1.240   2.493   7.586 -1.1868 -0.1373 -0.4249
 1739SOL    HW216677   1.317   2.613   7.633  0.1323 -0.5254 -2.1882
 1740SOL     OW16678   4.007   0.943   4.874  0.3795 -0.6954 -0.6553
 1740SOL    HW116679   4.064   1.000   4.926 -1.0573 -0.3067  0.4896
 1740SOL    HW216680   4.066   0.927   4.801  1.8951 -0.6279  0.5438
 1741SOL     OW16681   0.031   2.879   8.319 -0.0143  0.2156 -0.5347
 1741SOL    HW116682   0.103   2.847   8.373  0.2330 -1.3687 -1.7945
 1741SOL    HW216683   0.064   2.848   8.235 -1.1537  0.5597 -1.1179
 1742SOL     OW16684   2.713   3.225   5.148  0.0169 -0.3206  0.2677
 1742SOL    HW116685   2.772   3.235   5.223  0.6356 -1.2749 -0.0888
 1742SOL    HW216686   2.625   3.240   5.182 -0.0612  1.6759 -0.8471
 1743SOL     OW16687   3.357   3.472   6.724 -0.7104 -0.2863  0.1765
 1743SOL    HW116688   3.410   3.397   6.753  1.3444  1.6603  1.4430
 1743SOL    HW216689   3.327   3.436   6.640  0.9013  1.2159 -1.0286
 1744SOL     OW16690   4.184   0.890  11.542  0.4650  0.2018 -0.2500
 1744SOL    HW116691   4.109   0.888  11.482 -0.8589 -2.2186  1.4966
 1744SOL    HW216692   4.239   0.952  11.494  3.4207 -1.2231  1.3317
 1745SOL     OW16693   4.717   3.989   0.370  0.2770  0.2263 -0.0837
 1745SOL    HW116694   4.639   3.973   0.317 -0.5752  1.4618  0.7907
 1745SOL    HW216695   0.063   3.996   0.306  0.3737 -0.3160 -0.0298
 1746SOL     OW16696   4.094   4.571   7.514 -0.3525 -0.1447  0.3112
 1746SOL    HW116697   4.172   4.517   7.502  1.9041  3.0394  0.9665
 1746SOL    HW216698   4.048   4.519   7.581  0.5378  0.1444  1.1333
 1747SOL     OW16699   1.138   2.996   0.344  0.1023 -0.4125 -0.1149
 1747SOL    HW116700   1.152   3.051   0.421  1.3537 -2.9690  1.5181
 1747SOL    HW216701   1.190   2.917   0.361 -0.7665 -0.3556  2.9453
 1748SOL     OW16702   0.866   3.736   1.485 -0.1558  0.1976  0.5515
 1748SOL    HW116703   0.893   3.725   1.394 -2.4640  0.9994 -0.2186
 1748SOL    HW216704   0.909   3.818   1.510 -2.2813  1.5525 -0.2508
 1749SOL     OW16705   4.686   2.565   3.852  0.5195  0.4315  0.2757
 1749SOL    HW116706   4.720   2.548   3.940  0.4574 -1.9449 -0.1687
 1749SOL    HW216707   4.601   2.606   3.871  0.9195  1.6442 -0.6320
 1750SOL     OW16708   0.897   0.439   5.331  0.0605  0.0304  0.2605
 1750SOL    HW116709   0.820   0.494   5.316  0.7400  1.1065  0.8300
 1750SOL    HW216710   0.966   0.503   5.345  0.0168  0.1249  0.0415
 1751SOL     OW16711   1.330   4.689   0.905 -0.7025  0.1116  0.3976
 1751SOL    HW116712   1.253   4.674   0.851  0.8772 -1.9170 -1.3270
 1751SOL    HW216713   1.401   4.638   0.865 -0.7795  0.5650 -0.3190
 1752SOL     OW16714   2.736   0.507   4.128 -0.0474  0.1676  0.1977
 1752SOL    HW116715   2.818   0.538   4.090 -0.5164  1.3280  0.1315
 1752SOL    HW216716   2.754   0.525   4.220 -0.7928  2.0363 -0.0197
 1753SOL     OW16717   3.113   0.353   5.218 -0.1697 -0.2961 -0.0203
 1753SOL    HW116718   3.028   0.313   5.203 -0.0564 -0.2545 -0.7552
 1753SOL    HW216719   3.097   0.365   5.312 -1.6047  0.9548 -0.4304
 1754SOL     OW16720   3.670   2.934   6.434  0.1578  0.0699  0.2848
 1754SOL    HW116721   3.602   2.985   6.391 -0.6746 -0.3841  1.0487
 1754SOL    HW216722   3.695   2.978   6.515  0.3596  0.1072  0.2031
 1755SOL     OW16723   2.565   0.803   5.298  0.1817 -0.6112 -0.6775
 1755SOL    HW116724   2.541   0.891   5.326  1.7079  0.6801 -3.4506
 1755SOL    HW216725   2.497   0.798   5.231  0.7180 -2.1102 -1.1067
 1756SOL     OW16726   0.193   3.482  16.467  0.2568  0.3339 -0.3199
 1756SOL    HW116727   0.206   3.573  16.496 -1.5777  0.4340  0.2077
 1756SOL    HW216728   0.225   3.490  16.377  2.0952 -0.1646  0.2884
 1757SOL     OW16729   3.767   1.233  17.014 -0.5107  0.3089  0.0198
 1757SOL    HW116730   3.708   1.307  17.032  1.4748  2.0236 -0.4949
 1757SOL    HW216731   3.849   1.282  17.019 -1.3929  1.7289  0.6356
 1758SOL     OW16732   0.321   2.457  15.740 -0.2464  0.9091 -0.4105
 1758SOL    HW116733   0.413   2.462  15.714  0.0049 -0.2878  0.1953
 1758SOL    HW216734   0.289   2.543  15.714  1.1420  1.4133 -0.4909
 1759SOL     OW16735   1.911   2.788   2.490  0.5473 -0.1622 -0.3365
 1759SOL    HW116736   1.831   2.766   2.537 -0.7261  1.0998 -1.9192
 1759SOL    HW216737   1.905   2.716   2.428 -2.2576  0.4458 -0.7531
 1760SOL     OW16738   2.017   1.950   7.372  0.1209  0.4062  0.1269
 1760SOL    HW116739   2.109   1.975   7.369  0.2094  0.0429 -0.2204
 1760SOL    HW216740   2.015   1.916   7.462 -0.1729 -3.6970 -1.4034
 1761SOL     OW16741   1.289   3.344   4.963  0.0046 -0.0451  0.1993
 1761SOL    HW116742   1.347   3.273   4.936  0.2225  0.1144  0.2497
 1761SOL    HW216743   1.298   3.393   4.882 -0.3325  0.5903  0.5491
 1762SOL     OW16744   1.870   4.141  12.699 -0.1330  0.7975  0.7045
 1762SOL    HW116745   1.801   4.167  12.760  0.3086 -0.7935  1.8897
 1762SOL    HW216746   1.817   4.142  12.620 -0.2664  1.1182  0.8017
 1763SOL     OW16747   0.106   1.853   1.405  0.0736  0.4263 -0.5935
 1763SOL    HW116748   0.143   1.882   1.489 -1.7596 -1.1425  0.7314
 1763SOL    HW216749   0.028   1.807   1.435  0.2395  0.5657  0.0777
 1764SOL     OW16750   2.855   2.576   4.906 -0.0038 -0.3048 -0.3258
 1764SOL    HW116751   2.830   2.668   4.897 -0.1673 -0.4253 -1.0660
 1764SOL    HW216752   2.880   2.584   4.998  1.0222  2.1248 -0.8064
 1765SOL     OW16753   0.895   0.210   2.736 -0.8073  0.3186 -0.1765
 1765SOL    HW116754   0.933   0.290   2.774 -0.5261  0.0930  0.0176
 1765SOL    HW216755   0.813   0.206   2.784 -0.9550 -0.1212 -0.4684
 1766SOL     OW16756   1.665   4.018   6.819 -0.3201  0.0550 -0.7030
 1766SOL    HW116757   1.752   4.002   6.783 -0.2425 -2.6047  0.6927
 1766SOL    HW216758   1.647   4.102   6.776 -1.6883  0.9518  1.6264
 1767SOL     OW16759   1.502   3.082   5.274  0.0683 -0.1577  0.1867
 1767SOL    HW116760   1.506   3.153   5.338 -1.4001 -0.3002  0.4497
 1767SOL    HW216761   1.412   3.088   5.242 -0.4746 -2.2910  1.3327
 1768SOL     OW16762   2.898   0.321   3.171 -0.3214 -0.3900  0.0158
 1768SOL    HW116763   2.915   0.228   3.189 -1.9462 -1.0024 -1.6723
 1768SOL    HW216764   2.808   0.327   3.203 -0.7876 -1.1585 -1.1480
 1769SOL     OW16765   1.131   0.524   8.434  0.5367 -0.4311  0.0892
 1769SOL    HW116766   1.209   0.481   8.469  1.3983  1.5372  0.5442
 1769SOL    HW216767   1.088   0.561   8.510 -2.5181  0.7424 -2.2139
 1770SOL     OW16768   4.089   2.779   2.463 -0.0852 -0.0157  0.3000
 1770SOL    HW116769   4.122   2.838   2.395 -0.1180 -1.0984 -0.6711
 1770SOL    HW216770   4.167   2.770   2.518  0.7972 -0.2622 -0.9874
 1771SOL     OW16771   0.606   2.536  12.096 -0.0192 -0.3382 -0.3277
 1771SOL    HW116772   0.515   2.512  12.113  0.7482 -1.5742  2.1650
 1771SOL    HW216773   0.642   2.536  12.185  1.6487  0.2404 -1.0126
 1772SOL     OW16774   1.934   3.289   9.823  0.2534  0.1973  0.2874
 1772SOL    HW116775   1.926   3.195   9.841 -2.1527  0.7294  1.9533
 1772SOL    HW216776   1.968   3.318   9.907 -2.1650  1.1131  0.9521
 1773SOL     OW16777   3.468   2.572   0.585 -0.6607  0.0214  0.2567
 1773SOL    HW116778   3.484   2.660   0.551  3.5276 -0.1577  1.7487
 1773SOL    HW216779   3.374   2.562   0.572 -0.0586 -0.6583 -3.5420
 1774SOL     OW16780   0.448   0.004   3.503  0.0578 -0.2035 -0.6923
 1774SOL    HW116781   0.499   0.014   3.423 -0.2963 -1.1977 -1.0438
 1774SOL    HW216782   0.406   0.090   3.513 -1.1397 -0.8560 -0.1815
 1775SOL     OW16783   0.357   3.067   7.121 -0.0090  0.1362 -0.3132
 1775SOL    HW116784   0.327   3.021   7.042 -1.3027  0.2343  0.1237
 1775SOL    HW216785   0.448   3.084   7.097  0.0763 -0.4334 -0.3947
 1776SOL     OW16786   1.132   1.681   6.737 -0.3033 -0.7163  0.1394
 1776SOL    HW116787   1.200   1.744   6.760 -1.0102  0.1412 -0.1628
 1776SOL    HW216788   1.174   1.658   6.654 -0.7915  0.7272 -0.5004
 1777SOL     OW16789   0.818   3.876   7.238 -0.3748 -0.6920  0.1027
 1777SOL    HW116790   0.820   3.834   7.324 -1.8658  0.3069  0.6173
 1777SOL    HW216791   0.905   3.917   7.239 -0.8986  0.4296 -0.3644
 1778SOL     OW16792   1.768   3.071   5.349  0.2081 -0.2955 -0.3842
 1778SOL    HW116793   1.799   3.148   5.300 -0.8422  0.2544 -0.1801
 1778SOL    HW216794   1.676   3.067   5.322 -0.0989  0.1845  0.6127
 1779SOL     OW16795   4.426   3.128   2.714  0.3619 -0.5113 -0.1226
 1779SOL    HW116796   4.519   3.149   2.725 -0.1344  0.1814  2.7536
 1779SOL    HW216797   4.390   3.213   2.736  0.3877 -1.2412  2.7087
 1780SOL     OW16798   3.874   2.074   3.819  0.1096 -0.0732 -0.3495
 1780SOL    HW116799   3.852   2.135   3.889  0.7819  1.3645 -1.4022
 1780SOL    HW216800   3.962   2.048   3.849 -0.0742  0.4215  0.6293
 1781SOL     OW16801   1.582   4.050   2.119  0.0295 -0.2020  0.5731
 1781SOL    HW116802   1.526   3.973   2.105 -1.6005  1.0597  0.1103
 1781SOL    HW216803   1.582   4.093   2.034  1.8292 -2.5742 -0.5884
 1782SOL     OW16804   2.001   0.002   2.236 -0.3027 -0.0834 -0.7599
 1782SOL    HW116805   2.053   0.020   2.158 -0.5784 -2.8182 -1.5807
 1782SOL    HW216806   1.961   4.645   2.207  1.8607 -2.3640  2.7446
 1783SOL     OW16807   0.576   1.830   0.185  0.1465 -0.0905 -0.3746
 1783SOL    HW116808   0.661   1.825   0.141 -0.8025 -2.0719 -1.9894
 1783SOL    HW216809   0.530   1.891   0.128  1.1520 -0.5948 -1.7272
 1784SOL     OW16810   2.980   0.545   1.785  0.3009 -0.1907  0.4454
 1784SOL    HW116811   3.074   0.545   1.766 -0.4493  1.6395 -3.3508
 1784SOL    HW216812   2.946   0.599   1.714 -2.3826  0.2377  2.0982
 1785SOL     OW16813   2.129   2.727   3.104 -0.2409  0.1581 -0.1807
 1785SOL    HW116814   2.176   2.808   3.085  2.1775 -1.8195 -2.6094
 1785SOL    HW216815   2.205   2.669   3.112  0.8544  1.6736  0.2606
 1786SOL     OW16816   4.262   1.043   2.651 -0.2337 -0.4638  0.4220
 1786SOL    HW116817   4.184   1.093   2.626 -0.6392 -2.1891 -1.7820
 1786SOL    HW216818   4.229   0.954   2.639  3.7787 -1.9358  0.2903
 1787SOL     OW16819   3.217   4.136   3.147  0.6942 -0.1137  0.4596
 1787SOL    HW116820   3.291   4.100   3.098  2.1324  0.8673  1.9010
 1787SOL    HW216821   3.191   4.212   3.095 -0.5149 -0.4221  0.6024
 1788SOL     OW16822   2.690   0.243   7.841  0.0046  0.2828  0.2320
 1788SOL    HW116823   2.663   0.185   7.912  1.1216  1.4142  1.5694
 1788SOL    HW216824   2.764   0.202   7.796  0.2647 -0.8362  1.6609
 1789SOL     OW16825   2.486   2.674   5.977 -0.1481  0.2435 -0.5333
 1789SOL    HW116826   2.572   2.716   5.972 -0.7094  1.5073  0.4422
 1789SOL    HW216827   2.470   2.634   5.892 -0.0363  0.3212 -0.5919
 1790SOL     OW16828   1.778   2.475  17.672 -0.2629 -0.1952  0.4544
 1790SOL    HW116829   1.694   2.449  17.633 -1.2312  2.6300  0.6456
 1790SOL    HW216830   1.808   2.549  17.619 -1.9673  0.6443  0.6642
 1791SOL     OW16831   2.066   1.826   2.184  0.6074  0.5593 -0.4405
 1791SOL    HW116832   1.999   1.780   2.133 -0.2544  2.0532 -0.6681
 1791SOL    HW216833   2.025   1.833   2.270  0.3500 -0.3372 -0.4922
 1792SOL     OW16834   4.501   1.063   1.035 -0.0353 -0.2340  0.1429
 1792SOL    HW116835   4.469   0.995   0.975 -2.0699 -0.5236  1.5606
 1792SOL    HW216836   4.514   1.006   1.111  1.9568  2.5129  1.8406
 1793SOL     OW16837   1.271   2.976   5.956 -0.4802 -0.0348  0.4342
 1793SOL    HW116838   1.362   3.006   5.956 -0.5788  0.2513 -1.8648
 1793SOL    HW216839   1.287   2.882   5.957  0.9970  0.2169 -0.2285
 1794SOL     OW16840   0.531   1.690  17.272 -0.0428  0.2048 -0.6183
 1794SOL    HW116841   0.578   1.691  17.188  0.4535  0.5539 -0.3432
 1794SOL    HW216842   0.460   1.631  17.250 -0.6781  1.0131 -0.7203
 1795SOL     OW16843   1.671   2.820   4.380  0.3646  0.2374  0.1064
 1795SOL    HW116844   1.746   2.803   4.323 -0.2465  0.1916 -0.6777
 1795SOL    HW216845   1.681   2.915   4.386  1.9229  0.2246 -2.2650
 1796SOL     OW16846   0.848   0.058   2.328  0.2982  0.4205 -0.6293
 1796SOL    HW116847   0.767   0.079   2.375  0.6234 -0.5303  0.3374
 1796SOL    HW216848   0.889   0.144   2.327 -0.6588  0.8764 -0.6435
 1797SOL     OW16849   3.776   2.003   5.731  0.3414  0.0546  1.2445
 1797SOL    HW116850   3.681   1.990   5.732  0.4762 -0.8141  2.3234
 1797SOL    HW216851   3.798   1.961   5.648 -1.2081  2.2111 -0.2495
 1798SOL     OW16852   1.176   4.654   6.061  0.4832 -0.2407 -0.0910
 1798SOL    HW116853   1.201   0.016   6.090 -1.5687  0.1390  0.5601
 1798SOL    HW216854   1.083   4.676   6.069  1.2001  1.1328  3.9755
 1799SOL     OW16855   2.614   1.069   3.479  0.0878 -0.1267 -0.5150
 1799SOL    HW116856   2.616   1.082   3.574  0.6943 -0.1846 -0.5200
 1799SOL    HW216857   2.653   0.982   3.486 -0.1384  0.0742  3.0724
 1800SOL     OW16858   0.762   3.505   6.144 -0.3560  0.1849  0.0019
 1800SOL    HW116859   0.742   3.414   6.166  0.3699 -0.1107 -0.5766
 1800SOL    HW216860   0.801   3.491   6.058 -2.8911  0.8436 -1.2719
 1801SOL     OW16861   1.314   3.032   5.074  0.5132  0.0606 -0.1869
 1801SOL    HW116862   1.326   2.946   5.115 -1.3225  0.2144  0.7144
 1801SOL    HW216863   1.218   3.031   5.071  0.5061  1.5585 -0.1323
 1802SOL     OW16864   3.275   0.754   3.933  0.0812  0.2652 -0.1677
 1802SOL    HW116865   3.221   0.707   3.869 -0.2034  2.2912 -1.4320
 1802SOL    HW216866   3.282   0.842   3.894  2.1102 -0.0584 -0.5386
 1803SOL     OW16867   1.083   3.338   9.264  0.6196  0.4555 -0.5062
 1803SOL    HW116868   1.076   3.420   9.313  1.1933 -0.0193  0.3711
 1803SOL    HW216869   1.046   3.272   9.323 -1.7427  1.2470 -1.1425
 1804SOL     OW16870   3.812   3.086  10.224 -0.4987 -0.4292  0.3568
 1804SOL    HW116871   3.824   3.130  10.139 -1.2469 -0.5799  0.1724
 1804SOL    HW216872   3.864   3.006  10.216  1.6878  1.1056 -1.1094
 1805SOL     OW16873   4.527   1.298   5.288  0.3039  0.1649 -0.5614
 1805SOL    HW116874   4.495   1.240   5.357  0.0816  1.6841  0.6133
 1805SOL    HW216875   4.570   1.234   5.231  3.6146  2.7346 -0.9651
 1806SOL     OW16876   4.374   2.141   6.652 -0.1331 -0.0670  0.1404
 1806SOL    HW116877   4.360   2.195   6.730  1.7328  0.9243 -0.2060
 1806SOL    HW216878   4.301   2.167   6.597  0.1441  1.5770  0.5472
 1807SOL     OW16879   2.167   4.302  12.566 -0.2702 -0.0616  0.4348
 1807SOL    HW116880   2.256   4.328  12.592 -0.1993 -1.3382  1.4253
 1807SOL    HW216881   2.115   4.372  12.606 -0.0872 -0.9907  2.2761
 1808SOL     OW16882   2.246   4.057   2.448 -0.0292  0.1670 -0.0832
 1808SOL    HW116883   2.329   4.103   2.434  0.4528 -0.4588  0.7394
 1808SOL    HW216884   2.205   4.079   2.364 -0.6259 -1.2236 -0.1540
 1809SOL     OW16885   1.388   0.243   8.998 -0.4613 -0.6685  0.6185
 1809SOL    HW116886   1.387   0.298   9.077 -1.8150 -0.2080  0.2878
 1809SOL    HW216887   1.480   0.246   8.973 -1.2806  0.5419 -2.1819
 1810SOL     OW16888   1.937   4.420   0.199 -0.0906 -0.3284 -0.1168
 1810SOL    HW116889   1.856   4.368   0.196  0.3869 -1.1193  1.1717
 1810SOL    HW216890   1.992   4.351   0.164  2.4847  3.1776 -3.0401
 1811SOL     OW16891   0.561   3.050   6.052  0.0531 -0.4425  0.2089
 1811SOL    HW116892   0.524   3.041   6.139 -2.5971  1.5281 -0.7242
 1811SOL    HW216893   0.575   2.956   6.034 -1.7009 -0.8246  0.8470
 1812SOL     OW16894   3.249   0.789   1.597 -0.2105  0.2286 -0.4685
 1812SOL    HW116895   3.255   0.712   1.654 -0.9989  0.7775  0.3525
 1812SOL    HW216896   3.340   0.817   1.586  1.0429 -4.1316 -1.3639
 1813SOL     OW16897   2.620   1.059   0.193 -0.2352  0.2207 -0.0642
 1813SOL    HW116898   2.691   0.998   0.212 -0.6031 -0.5351 -1.1368
 1813SOL    HW216899   2.660   1.146   0.200  0.7503 -0.2688  0.2801
 1814SOL     OW16900   1.101   4.129   3.264  0.1523  0.5781  0.2425
 1814SOL    HW116901   1.106   4.069   3.189  0.6438  1.2050 -0.2341
 1814SOL    HW216902   1.172   4.101   3.322  1.7327  1.0330 -1.4685
 1815SOL     OW16903   4.337   0.287  11.996 -0.3303 -0.3022 -0.3446
 1815SOL    HW116904   4.432   0.298  11.983 -0.6119  1.2585 -1.0764
 1815SOL    HW216905   4.299   0.352  11.937 -0.2200  0.2103  0.1393
 1816SOL     OW16906   2.720   2.431   6.529 -0.0565 -0.2909  0.3825
 1816SOL    HW116907   2.753   2.368   6.465  0.2948 -0.3909  0.6638
 1816SOL    HW216908   2.624   2.428   6.525 -0.0581  1.6101 -1.2011
 1817SOL     OW16909   2.018   4.320   8.147  0.1397  0.0105 -0.3076
 1817SOL    HW116910   1.986   4.337   8.059 -1.8574 -3.6595 -0.3042
 1817SOL    HW216911   2.113   4.312   8.137 -0.1097 -2.5564 -0.7403
 1818SOL     OW16912   1.677   1.448  12.074 -0.4811 -0.0086  0.2963
 1818SOL    HW116913   1.691   1.354  12.077  0.1189  0.0725 -0.1762
 1818SOL    HW216914   1.612   1.464  12.143 -2.0356 -0.8716 -0.9708
 1819SOL     OW16915   0.778   3.588   7.395 -0.9788 -0.3576  0.6510
 1819SOL    HW116916   0.785   3.503   7.352  0.4966  0.1829 -0.1953
 1819SOL    HW216917   0.687   3.606   7.374 -0.6705 -1.5477 -1.7099
 1820SOL     OW16918   4.235   1.539  16.958 -0.2650 -0.1171 -0.4421
 1820SOL    HW116919   4.306   1.601  16.948 -1.1594  1.2324  1.6147
 1820SOL    HW216920   4.278   1.461  16.992  0.2477 -0.5133 -1.9776
 1821SOL     OW16921   4.218   3.080   6.048 -0.5339 -0.4808 -0.4931
 1821SOL    HW116922   4.222   3.141   6.122  1.4396 -1.3563  0.1399
 1821SOL    HW216923   4.180   3.003   6.090 -1.5055 -0.7925 -1.9589
 1822SOL     OW16924   2.097   1.450   3.382 -0.0443  0.3285  0.3913
 1822SOL    HW116925   2.071   1.396   3.307  1.6150 -1.8255  1.3739
 1822SOL    HW216926   2.183   1.417   3.408  0.0087 -0.3622 -0.6379
 1823SOL     OW16927   3.676   3.929   3.590  0.0071 -0.3548  0.0044
 1823SOL    HW116928   3.619   3.973   3.526  0.6430  0.8539  0.2603
 1823SOL    HW216929   3.705   3.854   3.538 -2.6955 -0.8413 -0.8040
 1824SOL     OW16930   2.410   2.474   0.598 -0.0069 -0.1272  1.2281
 1824SOL    HW116931   2.453   2.499   0.680  0.5416  0.9100  0.6145
 1824SOL    HW216932   2.316   2.479   0.617 -0.0094  1.0361  0.9458
 1825SOL     OW16933   3.029   3.310  15.741 -0.0956  0.1564 -0.3353
 1825SOL    HW116934   3.050   3.342  15.654  1.0726  3.5413  1.2108
 1825SOL    HW216935   2.947   3.265  15.719 -0.3537  0.9710 -1.0303
 1826SOL     OW16936   0.660   0.408  10.477 -0.6150 -0.0805 -0.6582
 1826SOL    HW116937   0.625   0.496  10.470 -0.7652 -0.2278 -1.7765
 1826SOL    HW216938   0.741   0.421  10.526  0.2498  0.3469 -2.2263
 1827SOL     OW16939   2.117   0.497   0.214  0.2164 -0.5544  0.2390
 1827SOL    HW116940   2.119   0.588   0.184  1.0452 -0.3914  0.7700
 1827SOL    HW216941   2.078   0.529   0.296  0.3908 -0.5479  0.3196
 1828SOL     OW16942   3.477   2.246  14.928  0.5215 -0.0654 -0.4780
 1828SOL    HW116943   3.429   2.291  14.997 -0.2579 -0.5658 -0.6911
 1828SOL    HW216944   3.402   2.225  14.871 -0.6467  2.7107  0.0630
 1829SOL     OW16945   3.714   0.471  17.345  0.1047 -0.5082 -0.1186
 1829SOL    HW116946   3.744   0.402  17.404 -0.5765 -0.3782  0.3746
 1829SOL    HW216947   3.801   0.509  17.330 -0.2868 -0.0322 -1.1514
 1830SOL     OW16948   4.511   3.954   8.914  0.4423  0.2626 -0.5980
 1830SOL    HW116949   4.576   3.893   8.949 -0.6002 -2.2812 -3.0613
 1830SOL    HW216950   4.540   4.036   8.953 -0.6200  0.3575 -0.0134
 1831SOL     OW16951   2.577   1.372  15.339  0.0171  0.2222 -0.0041
 1831SOL    HW116952   2.578   1.463  15.369  4.6101 -0.5387  2.0641
 1831SOL    HW216953   2.616   1.331  15.416  0.9011  0.3459 -0.3949
 1832SOL     OW16954   2.273   4.130   1.654 -0.2454 -0.1089 -0.2040
 1832SOL    HW116955   2.286   4.192   1.582 -2.4785 -1.2690 -1.6057
 1832SOL    HW216956   2.186   4.096   1.635 -0.5702 -0.0217  1.0981
 1833SOL     OW16957   4.623   3.373  14.830  0.4161  0.0629 -0.3200
 1833SOL    HW116958   4.628   3.468  14.833  2.3296 -0.0999  1.2222
 1833SOL    HW216959   4.640   3.355  14.737 -0.1770 -1.0586 -0.2088
 1834SOL     OW16960   4.508   3.637   5.246  0.3679  0.1132 -0.4237
 1834SOL    HW116961   4.436   3.674   5.297  0.9867  1.0504 -0.2409
 1834SOL    HW216962   4.575   3.702   5.266  0.5173 -0.2738  0.3309
 1835SOL     OW16963   2.188   3.534   3.759 -0.2669  0.3322  0.5902
 1835SOL    HW116964   2.170   3.447   3.795 -1.5364  0.7912  1.0641
 1835SOL    HW216965   2.152   3.587   3.830 -0.9009  1.7348 -0.7816
 1836SOL     OW16966   4.660   1.454   8.629  0.1014 -0.0065  0.3587
 1836SOL    HW116967   4.697   1.533   8.669 -0.6501  0.9113 -0.7286
 1836SOL    HW216968   4.629   1.413   8.709  0.1309  1.3018  1.0551
 1837SOL     OW16969   2.494   4.586   5.742  0.1020 -0.0979  0.3290
 1837SOL    HW116970   2.528   4.622   5.660  1.7545  1.1738  1.5885
 1837SOL    HW216971   2.416   4.641   5.731  0.2585  0.0873  0.1416
 1838SOL     OW16972   4.494   1.969   3.408 -0.3277 -0.1777  0.1254
 1838SOL    HW116973   4.531   1.965   3.320  3.0106  2.9167  1.4066
 1838SOL    HW216974   4.405   1.952   3.378 -0.3016 -0.1491  0.0323
 1839SOL     OW16975   0.222   1.092   8.700 -0.2205  0.1918 -0.1246
 1839SOL    HW116976   0.292   1.044   8.655 -2.1902 -0.8627 -2.0413
 1839SOL    HW216977   0.256   1.175   8.734 -0.6606  0.5091 -0.4619
 1840SOL     OW16978   0.287   0.793   0.667  0.2119 -0.6531 -0.2426
 1840SOL    HW116979   0.257   0.757   0.751  0.2305 -0.7214 -0.2658
 1840SOL    HW216980   0.309   0.714   0.618 -0.3425 -0.8663 -0.1478
 1841SOL     OW16981   0.800   0.627   9.077 -0.1855  0.6685 -0.0539
 1841SOL    HW116982   0.741   0.574   9.130  0.7077  0.8731  1.1417
 1841SOL    HW216983   0.858   0.652   9.149  1.7112  0.1414 -1.3928
 1842SOL     OW16984   0.922   4.253   8.790  0.6878  0.1301 -0.0113
 1842SOL    HW116985   0.905   4.195   8.716  0.1650 -2.4365  2.1026
 1842SOL    HW216986   0.922   4.338   8.746  1.2028 -0.2161 -0.6776
 1843SOL     OW16987   1.654   2.843   3.717  0.5259 -0.2611 -0.2257
 1843SOL    HW116988   1.626   2.766   3.668 -3.0068  0.7325  0.1704
 1843SOL    HW216989   1.707   2.805   3.787  0.8780 -1.5833 -1.2168
 1844SOL     OW16990   0.661   3.298   2.762  0.8243 -0.2103  0.4703
 1844SOL    HW116991   0.735   3.258   2.717  1.2006  1.2237 -0.1610
 1844SOL    HW216992   0.696   3.384   2.784  2.5835 -0.5824 -0.8577
 1845SOL     OW16993   1.790   4.679   0.273 -0.2551 -0.2883  0.0511
 1845SOL    HW116994   1.829   4.592   0.283  1.4708  0.5143  0.2651
 1845SOL    HW216995   1.835   0.010   0.336 -1.1204  0.8860 -0.3670
 1846SOL     OW16996   2.017   1.630  11.333  0.0338  0.4621  0.4906
 1846SOL    HW116997   2.071   1.561  11.295 -2.4020 -0.5631 -1.0743
 1846SOL    HW216998   2.041   1.621  11.425  2.5246 -0.9410 -0.3098
 1847SOL     OW16999   4.168   0.844   6.790  0.5679 -0.2904  0.5106
 1847SOL    HW117000   4.108   0.846   6.864 -0.3530  1.6484 -0.2807
 1847SOL    HW217001   4.237   0.901   6.823  0.2052  1.7651 -2.2402
 1848SOL     OW17002   3.333   2.124   8.774 -0.1051  0.5925  0.0400
 1848SOL    HW117003   3.395   2.097   8.707 -2.0974 -0.9060 -1.1999
 1848SOL    HW217004   3.379   2.206   8.793 -0.1589  0.5137  0.5071
 1849SOL     OW17005   0.956   3.293   2.758 -0.0340  0.0325 -0.3168
 1849SOL    HW117006   0.939   3.278   2.665 -1.1592  1.6770 -0.3751
 1849SOL    HW217007   1.047   3.266   2.769 -0.5139 -1.6565 -0.5135
 1850SOL     OW17008   4.700   0.156   7.488  0.7412  0.4121  0.3414
 1850SOL    HW117009   4.720   0.120   7.574  1.1761 -1.0902 -0.3825
 1850SOL    HW217010   4.694   0.251   7.498  2.5304  0.6761 -1.0200
 1851SOL     OW17011   3.120   0.336   6.855 -0.6671  0.0094 -0.4825
 1851SOL    HW117012   3.148   0.245   6.866  1.0738  0.4421 -1.4068
 1851SOL    HW217013   3.053   0.353   6.921  0.6385  1.4999  0.4539
 1852SOL     OW17014   2.062   2.970   3.350  0.2697 -0.8682  0.1155
 1852SOL    HW117015   2.143   2.978   3.299 -0.0683 -0.2584 -0.3271
 1852SOL    HW217016   2.006   2.935   3.281  1.1383  2.4318 -2.3133
 1853SOL     OW17017   1.436   0.097  12.428  0.5721 -0.0826 -0.0626
 1853SOL    HW117018   1.466   0.162  12.364  0.1899  2.2073  2.0563
 1853SOL    HW217019   1.501   0.122  12.494  1.6631 -2.5880 -0.2029
 1854SOL     OW17020   2.633   3.911   2.070 -0.5579 -0.1928  0.5651
 1854SOL    HW117021   2.694   3.977   2.037  0.2480 -1.2131  0.0135
 1854SOL    HW217022   2.561   3.965   2.104 -0.6907 -0.8716  1.3578
 1855SOL     OW17023   1.342   1.929   9.287  0.1393 -0.4557  0.3378
 1855SOL    HW117024   1.372   1.838   9.288  0.7692 -0.2587 -1.3025
 1855SOL    HW217025   1.411   1.983   9.327 -0.3189  1.0907 -0.9428
 1856SOL     OW17026   4.540   3.082   4.850  0.4538 -0.2141 -0.3815
 1856SOL    HW117027   4.454   3.081   4.808 -0.0057 -0.9085  0.5687
 1856SOL    HW217028   4.518   3.060   4.940  0.2033 -0.3704 -0.4798
 1857SOL     OW17029   0.464   1.605   0.268 -0.2578  0.2483 -0.4060
 1857SOL    HW117030   0.550   1.567   0.287 -0.5734 -0.7519 -0.9690
 1857SOL    HW217031   0.490   1.697   0.262 -1.4547  0.4398 -2.7744
 1858SOL     OW17032   4.032   3.959  17.621 -0.2893  0.5646 -0.1316
 1858SOL    HW117033   4.022   4.039  17.570  0.0920  1.3964  1.1308
 1858SOL    HW217034   4.114   3.924  17.587  0.5055  1.4380  0.9197
 1859SOL     OW17035   1.496   2.473  17.695  0.2622 -0.6882  0.2875
 1859SOL    HW117036   1.404   2.452  17.678  0.7518 -3.1291  0.7266
 1859SOL    HW217037   1.496   2.565  17.667 -1.4606 -0.4890  0.9433
 1860SOL     OW17038   1.651   0.879  17.007 -0.6609 -1.1031  0.2927
 1860SOL    HW117039   1.742   0.895  17.034 -0.3691 -0.6104 -0.9567
 1860SOL    HW217040   1.610   0.849  17.088  0.7326 -1.3917  0.8970
 1861SOL     OW17041   1.757   3.099   4.265  0.2822  0.9043 -0.1816
 1861SOL    HW117042   1.835   3.081   4.212 -0.5620 -0.6066 -0.8988
 1861SOL    HW217043   1.700   3.124   4.192 -0.4648  1.8306  0.7192
 1862SOL     OW17044   2.500   0.705   9.915 -0.3379 -0.3324 -0.2134
 1862SOL    HW117045   2.419   0.740   9.879  0.4968 -1.4767 -3.1363
 1862SOL    HW217046   2.483   0.744  10.001 -0.0970 -1.6958  0.4452
 1863SOL     OW17047   3.635   3.625   5.154  0.2546  0.0735  0.4697
 1863SOL    HW117048   3.669   3.711   5.128  0.5115  0.0272  0.6551
 1863SOL    HW217049   3.544   3.632   5.123 -0.6371 -2.4150  2.5186
 1864SOL     OW17050   2.945   4.716  10.677 -0.4608  0.3741  1.0675
 1864SOL    HW117051   3.011   4.720  10.746 -1.7674 -0.8314  2.3657
 1864SOL    HW217052   2.866   4.719  10.730 -1.3838  1.8217 -0.3836
 1865SOL     OW17053   3.981   0.336  17.111 -0.0359  0.7322 -0.0766
 1865SOL    HW117054   4.015   0.252  17.139 -0.3731  1.5097  2.6025
 1865SOL    HW217055   3.902   0.298  17.072 -1.6908  3.1603  0.8425
 1866SOL     OW17056   1.705   0.199   9.248 -0.8810  0.4818 -0.3362
 1866SOL    HW117057   1.734   0.287   9.269  0.9925  0.0773 -1.1923
 1866SOL    HW217058   1.705   0.151   9.331 -0.1796  0.1915 -0.5053
 1867SOL     OW17059   2.036   3.678   6.013  0.0656 -0.2357  0.5775
 1867SOL    HW117060   1.971   3.748   6.022  0.1530 -0.0388 -0.3353
 1867SOL    HW217061   1.995   3.607   6.062 -1.6042 -0.0429 -0.5567
 1868SOL     OW17062   1.691   0.045   8.883  0.0000 -0.1883  0.1279
 1868SOL    HW117063   1.631   4.703   8.850  0.8981  0.4746 -2.8751
 1868SOL    HW217064   1.750   0.051   8.808 -1.7301  1.0982 -1.1355
 1869SOL     OW17065   3.665   3.674   2.885 -0.7288  0.2226  0.4783
 1869SOL    HW117066   3.581   3.642   2.915 -0.8521  0.2059  0.1196
 1869SOL    HW217067   3.660   3.671   2.789  1.0737  0.4815  0.3623
 1870SOL     OW17068   3.278   1.175   6.770 -0.3651  0.3587  0.0270
 1870SOL    HW117069   3.190   1.164   6.805 -0.3746 -0.5798 -0.2980
 1870SOL    HW217070   3.290   1.268   6.751  0.7426  0.2184 -0.0090
 1871SOL     OW17071   3.027   3.016   2.230  0.3393  0.0482  0.2882
 1871SOL    HW117072   3.038   3.076   2.303 -0.9951  0.4083  0.1964
 1871SOL    HW217073   3.020   2.931   2.273 -1.5855  0.7323  1.3325
 1872SOL     OW17074   0.928   1.987   7.498  0.3445  0.1850 -0.0625
 1872SOL    HW117075   1.023   1.973   7.498 -0.2019 -3.3044  1.9577
 1872SOL    HW217076   0.896   1.897   7.505  2.3444 -0.3183  2.7760
 1873SOL     OW17077   0.124   4.576   5.097  0.1706  0.1817 -0.1688
 1873SOL    HW117078   0.046   4.554   5.046  0.4270  0.3706 -0.6365
 1873SOL    HW217079   0.140   4.659   5.052  4.4944  0.1563  1.3099
 1874SOL     OW17080   0.649   2.237   1.144  0.2404 -0.1931  0.4184
 1874SOL    HW117081   0.586   2.237   1.216  0.9595  2.2886  1.0421
 1874SOL    HW217082   0.590   2.254   1.071  0.6324  1.3780  0.4538
 1875SOL     OW17083   2.673   1.210   2.505 -0.1826  0.4829 -0.7700
 1875SOL    HW117084   2.713   1.140   2.454 -1.3693  0.3342 -1.4903
 1875SOL    HW217085   2.748   1.263   2.531  0.0763 -0.3490  0.2023
 1876SOL     OW17086   3.834   0.670   0.260  0.3459 -0.5992  0.5389
 1876SOL    HW117087   3.887   0.591   0.260  0.4182 -0.5537  1.3640
 1876SOL    HW217088   3.794   0.658   0.346 -1.0013 -0.9593 -0.1456
 1877SOL     OW17089   2.807   0.730   6.960  0.1042 -0.1399  0.1162
 1877SOL    HW117090   2.832   0.658   6.902 -0.3654  0.4742 -0.8427
 1877SOL    HW217091   2.872   0.796   6.935 -0.0159  0.5459  1.5855
 1878SOL     OW17092   2.839   4.681   9.599 -0.0375  0.2748  0.2848
 1878SOL    HW117093   2.780   0.031   9.612 -3.1138 -2.3798  1.6955
 1878SOL    HW217094   2.920   0.006   9.601 -1.9653  3.4793 -0.7658
 1879SOL     OW17095   2.161   3.661   3.997  0.8669  0.3201 -0.3281
 1879SOL    HW117096   2.154   3.673   4.091 -2.1843  2.0372 -0.7769
 1879SOL    HW217097   2.095   3.724   3.969  1.4428  2.0357  2.2016
 1880SOL     OW17098   2.937   0.331   7.050 -0.4278  0.1728  0.2279
 1880SOL    HW117099   2.919   0.260   7.111  1.9170  0.1012  0.8468
 1880SOL    HW217100   2.887   0.399   7.095 -0.2270 -0.5227  1.4992
 1881SOL     OW17101   0.041   0.342  16.714  0.4835  0.2061 -0.0790
 1881SOL    HW117102   0.067   0.288  16.639  0.3434 -0.9386  0.6868
 1881SOL    HW217103   0.072   0.290  16.789  1.3965 -1.4216 -1.5745
 1882SOL     OW17104   1.881   4.475   3.014  0.0922 -0.5027 -0.4650
 1882SOL    HW117105   1.918   4.531   2.946  2.1886  0.1434  1.2243
 1882SOL    HW217106   1.896   4.388   2.976 -1.3009 -0.3136 -1.4705
 1883SOL     OW17107   0.204   1.578   8.145 -0.4549 -0.1754 -0.2332
 1883SOL    HW117108   0.222   1.672   8.139 -1.3202 -0.1145 -1.8568
 1883SOL    HW217109   0.109   1.575   8.136 -0.6048 -1.0631  1.5899
 1884SOL     OW17110   0.115   2.619   3.203 -0.5485 -0.2162  0.6122
 1884SOL    HW117111   0.165   2.586   3.278  1.7157 -1.6674 -1.5064
 1884SOL    HW217112   0.046   2.670   3.244  1.0723  1.8379  0.7484
 1885SOL     OW17113   2.467   1.049   5.373  0.5076  0.0676  0.3006
 1885SOL    HW117114   2.495   1.126   5.423  2.0401 -0.7814  0.7475
 1885SOL    HW217115   2.375   1.044   5.401  0.7042  2.8656  1.4787
 1886SOL     OW17116   1.871   2.707   5.142 -0.4009  0.3392  0.1159
 1886SOL    HW117117   1.814   2.777   5.173 -0.9616 -0.3777  0.7090
 1886SOL    HW217118   1.821   2.628   5.161  1.2763 -0.4117  1.4116
 1887SOL     OW17119   0.084   4.490   8.517  0.8576  0.2548 -0.3972
 1887SOL    HW117120   0.108   4.447   8.435 -0.4654  1.0772 -1.1993
 1887SOL    HW217121   0.027   4.557   8.480  0.9257 -0.2210 -1.3663
 1888SOL     OW17122   3.353   4.083  14.067 -0.4946  0.2003 -0.6278
 1888SOL    HW117123   3.443   4.051  14.077  0.2014  2.0829 -0.9615
 1888SOL    HW217124   3.371   4.172  14.038 -1.6478  0.5880 -0.1509
 1889SOL     OW17125   1.402   0.438  15.891 -0.0274 -0.0955 -0.2663
 1889SOL    HW117126   1.336   0.495  15.852 -0.6854 -0.6843 -0.0197
 1889SOL    HW217127   1.461   0.495  15.941  0.9105 -0.0031 -1.4692
 1890SOL     OW17128   1.099   2.812  16.186  0.3391  0.0710  0.3750
 1890SOL    HW117129   1.090   2.765  16.269 -1.1688 -0.7571 -0.2526
 1890SOL    HW217130   1.113   2.905  16.205 -0.8699 -0.1223  2.1316
 1891SOL     OW17131   2.689   4.176   6.747 -0.4594 -0.2133  0.4390
 1891SOL    HW117132   2.731   4.121   6.680  0.0410  0.5324  0.1291
 1891SOL    HW217133   2.658   4.250   6.695 -1.3199 -1.5410 -0.9305
 1892SOL     OW17134   1.473   0.813  10.839 -0.3128  0.1128 -0.3974
 1892SOL    HW117135   1.384   0.846  10.853  0.0116  0.7994  0.0374
 1892SOL    HW217136   1.515   0.897  10.853 -2.1713  1.0109 -0.1969
 1893SOL     OW17137   1.786   1.165   3.370 -0.0530 -0.0544  0.4309
 1893SOL    HW117138   1.834   1.202   3.444 -0.8552  2.4151 -0.2918
 1893SOL    HW217139   1.699   1.203   3.378  0.5228  1.6018 -1.3430
 1894SOL     OW17140   2.325   4.253   9.245 -0.1053  0.1200 -0.4540
 1894SOL    HW117141   2.317   4.343   9.276  0.3036  0.0128 -0.0382
 1894SOL    HW217142   2.373   4.270   9.163 -0.8985 -0.9656 -1.1381
 1895SOL     OW17143   3.113   3.750  16.753 -0.6392 -0.5521  0.2755
 1895SOL    HW117144   3.061   3.820  16.792 -1.6755 -2.2919  2.0178
 1895SOL    HW217145   3.196   3.762  16.800 -0.5707 -0.8422  0.2304
 1896SOL     OW17146   1.221   3.419   2.995 -0.5148 -0.1239  0.9043
 1896SOL    HW117147   1.270   3.351   2.948  1.5012  2.3633 -0.6270
 1896SOL    HW217148   1.194   3.477   2.924  3.0299  0.1780 -0.2451
 1897SOL     OW17149   3.869   3.972  10.690 -0.4328  0.1609  0.0291
 1897SOL    HW117150   3.883   3.879  10.702 -1.1140  0.1528  0.8020
 1897SOL    HW217151   3.954   4.015  10.684 -0.0690 -0.2838  2.0886
 1898SOL     OW17152   0.057   3.239  11.651  0.1659  0.3495 -0.6271
 1898SOL    HW117153   0.063   3.150  11.687 -0.0630  0.1858 -0.9969
 1898SOL    HW217154   0.146   3.264  11.625 -0.0365  0.8458 -0.8363
 1899SOL     OW17155   4.592   4.718   3.294 -0.1326  0.0568  0.1697
 1899SOL    HW117156   4.568   4.674   3.212 -0.0499 -0.6768  0.5347
 1899SOL    HW217157   4.666   4.660   3.313  0.7990  0.6270 -1.7564
 1900SOL     OW17158   2.080   2.526   4.001  0.0165 -0.0064  0.0014
 1900SOL    HW117159   2.083   2.620   3.987 -0.9619 -0.0987 -0.8181
 1900SOL    HW217160   2.049   2.488   3.919 -1.7356 -2.1652  1.6712
 1901SOL     OW17161   2.994   3.581   8.330  0.4485 -0.3450 -0.3097
 1901SOL    HW117162   2.928   3.634   8.377 -0.1328 -0.6318 -0.8093
 1901SOL    HW217163   3.075   3.608   8.374 -0.1714  3.1774 -1.3323
 1902SOL     OW17164   2.245   0.633   5.404 -0.1158 -0.6666 -0.1660
 1902SOL    HW117165   2.237   0.556   5.460 -1.1584 -2.4256 -2.7012
 1902SOL    HW217166   2.190   0.692   5.456 -1.5259 -1.3333 -0.8896
 1903SOL     OW17167   4.188   2.852  13.126  0.0769 -0.3164 -0.1138
 1903SOL    HW117168   4.139   2.781  13.167  2.6556 -1.8610  0.3080
 1903SOL    HW217169   4.163   2.918  13.191  0.2139 -0.7857  0.4148
 1904SOL     OW17170   3.387   2.077   4.557  0.4518  0.0296  0.5156
 1904SOL    HW117171   3.450   2.140   4.520  0.7507  0.1018  1.1568
 1904SOL    HW217172   3.422   2.045   4.640 -0.6777  3.4388  2.3137
 1905SOL     OW17173   0.519   3.095   5.536 -0.0888  0.3459 -0.0613
 1905SOL    HW117174   0.472   3.075   5.616 -1.1537  1.1339 -0.4894
 1905SOL    HW217175   0.495   3.028   5.471  1.8272  0.6596 -1.0895
 1906SOL     OW17176   3.360   1.571   5.733 -0.3748 -0.1876 -0.2513
 1906SOL    HW117177   3.359   1.481   5.701 -0.5186 -0.2378 -0.1056
 1906SOL    HW217178   3.445   1.574   5.776 -0.4799  0.9687 -0.1260
 1907SOL     OW17179   2.974   1.103   4.662  0.2714  0.0712 -0.5083
 1907SOL    HW117180   2.972   1.012   4.631 -0.2966 -0.4725  1.1281
 1907SOL    HW217181   2.929   1.092   4.746  2.0780  2.0495  0.7068
 1908SOL     OW17182   1.717   2.718   9.689 -0.2219  0.0324  0.0876
 1908SOL    HW117183   1.767   2.636   9.698  2.3739  1.6687  0.6118
 1908SOL    HW217184   1.776   2.778   9.734  2.7465 -2.5334 -0.3459
 1909SOL     OW17185   1.351   3.778   5.845 -0.3660  0.2355  0.3604
 1909SOL    HW117186   1.329   3.792   5.752 -2.4645 -1.4928  0.5957
 1909SOL    HW217187   1.269   3.769   5.892  0.0474 -0.5244  0.9286
 1910SOL     OW17188   2.541   2.208   6.026  0.0656  0.0494 -0.0711
 1910SOL    HW117189   2.485   2.180   6.099 -0.8899  1.1964 -0.3656
 1910SOL    HW217190   2.480   2.252   5.967  0.0221  0.0217 -0.0458
 1911SOL     OW17191   0.254   2.150   0.047  0.0771  0.2635  0.5551
 1911SOL    HW117192   0.347   2.165   0.063 -0.3622  0.1494  3.2713
 1911SOL    HW217193   0.236   2.214  17.680  2.5574  1.7398  1.2978
 1912SOL     OW17194   2.451   0.327  17.381  0.3857 -0.2509  0.3368
 1912SOL    HW117195   2.538   0.365  17.369  0.8101 -1.6790 -1.1983
 1912SOL    HW217196   2.461   0.233  17.365  1.2351 -0.1174  0.1269
 1913SOL     OW17197   0.783   2.902   5.219 -0.3773  0.6066 -0.2833
 1913SOL    HW117198   0.824   2.983   5.249  3.6072 -1.6686  0.3729
 1913SOL    HW217199   0.719   2.881   5.287 -0.7615 -0.4801 -0.9737
 1914SOL     OW17200   0.389   1.546  13.256 -0.5418  0.5376  0.1417
 1914SOL    HW117201   0.349   1.461  13.276  1.3399 -0.1931  0.8162
 1914SOL    HW217202   0.308   1.594  13.240 -0.8674 -0.4115 -0.9893
 1915SOL     OW17203   0.209   0.223  15.976 -0.2284 -0.2228 -0.0274
 1915SOL    HW117204   0.237   0.311  15.952 -0.4184 -0.1413  0.0492
 1915SOL    HW217205   0.182   0.186  15.893 -2.3158 -1.0909  1.0392
 1916SOL     OW17206   0.136   1.079   5.292 -0.6969 -0.0586 -0.0255
 1916SOL    HW117207   0.108   1.139   5.223 -0.3735 -0.3408 -0.3962
 1916SOL    HW217208   0.115   0.991   5.262  0.4421 -1.2066  2.5877
 1917SOL     OW17209   2.869   2.672   4.359 -0.7443 -0.2725 -0.0028
 1917SOL    HW117210   2.887   2.615   4.434  2.2303  0.8767  0.1625
 1917SOL    HW217211   2.784   2.704   4.387 -1.3254 -1.5778 -0.2721
 1918SOL     OW17212   1.333   3.033  12.409  0.3002  0.3224  0.3435
 1918SOL    HW117213   1.394   3.107  12.410  0.8243 -0.1046  0.1847
 1918SOL    HW217214   1.249   3.074  12.392 -0.6821 -0.3487  3.4636
 1919SOL     OW17215   1.212   1.108   5.445 -0.4043 -0.2430 -0.4206
 1919SOL    HW117216   1.280   1.163   5.484  0.7876 -1.0111 -1.3865
 1919SOL    HW217217   1.248   1.019   5.441  0.2435  0.0456 -1.0780
 1920SOL     OW17218   3.369   0.355  11.869 -0.3514  0.4903 -0.0308
 1920SOL    HW117219   3.397   0.264  11.862 -1.7115  0.0507  0.2045
 1920SOL    HW217220   3.293   0.350  11.927 -0.3574 -1.4689 -0.2171
 1921SOL     OW17221   2.593   0.827   1.940  0.7137  0.0966  0.5338
 1921SOL    HW117222   2.680   0.854   1.911 -0.3349  0.8045 -1.9820
 1921SOL    HW217223   2.623   0.757   1.997  0.6423 -0.2433  0.1532
 1922SOL     OW17224   1.196   1.415   1.824  0.5227 -0.1184 -1.1145
 1922SOL    HW117225   1.177   1.345   1.886  2.1370 -0.7087 -1.2669
 1922SOL    HW217226   1.122   1.408   1.763 -1.7887 -3.3481  2.0508
 1923SOL     OW17227   1.284   2.333   5.034 -0.4809  0.1444  0.4126
 1923SOL    HW117228   1.365   2.289   5.012 -1.2107  0.2207 -2.4694
 1923SOL    HW217229   1.224   2.318   4.961  0.2032 -2.9431  0.5059
 1924SOL     OW17230   2.302   2.429   1.825  0.3337  0.1203 -0.4703
 1924SOL    HW117231   2.255   2.383   1.756  0.9085  0.1269 -0.8719
 1924SOL    HW217232   2.248   2.404   1.900 -0.4019 -0.4912 -1.2007
 1925SOL     OW17233   4.052   4.506   2.999 -0.3194 -0.2236  0.6417
 1925SOL    HW117234   4.098   4.476   2.921  0.3367  0.2576  0.8410
 1925SOL    HW217235   4.071   4.599   2.995 -0.5926 -0.2010 -0.0820
 1926SOL     OW17236   3.309   4.539  16.739 -0.7047 -0.0158 -0.5291
 1926SOL    HW117237   3.256   4.528  16.818 -2.1041 -0.1368 -1.4796
 1926SOL    HW217238   3.369   4.466  16.751 -0.6032  0.0313 -0.7513
 1927SOL     OW17239   0.987   2.763   3.523 -0.1800 -0.0876 -0.1436
 1927SOL    HW117240   0.957   2.774   3.613 -0.3162 -0.2879 -0.1647
 1927SOL    HW217241   1.014   2.852   3.501 -3.7493  1.2613  0.8732
 1928SOL     OW17242   1.578   2.620   9.307 -0.7102  0.4386  0.1240
 1928SOL    HW117243   1.652   2.590   9.360  0.5520  1.5888 -0.9877
 1928SOL    HW217244   1.500   2.579   9.345  1.3565 -0.5144  3.3582
 1929SOL     OW17245   2.313   0.412   8.596 -0.2075  0.0071 -0.0936
 1929SOL    HW117246   2.228   0.455   8.586 -0.4574 -0.6541 -0.8385
 1929SOL    HW217247   2.303   0.336   8.539 -0.2640 -0.4329  0.4995
 1930SOL     OW17248   0.883   0.729   4.145 -0.3510  0.4531  0.0455
 1930SOL    HW117249   0.935   0.799   4.105 -1.2940 -0.4860 -2.8689
 1930SOL    HW217250   0.899   0.728   4.239  1.6617  0.4198 -0.2929
 1931SOL     OW17251   2.226   0.796   2.909  0.0428 -0.2726  0.1748
 1931SOL    HW117252   2.143   0.825   2.871  0.1900  0.3033  0.2928
 1931SOL    HW217253   2.273   0.753   2.838  2.0908 -1.2673  2.1122
 1932SOL     OW17254   0.730   1.644   9.540 -0.2124  0.2548  0.5849
 1932SOL    HW117255   0.728   1.732   9.577  1.5474  1.5189 -2.3624
 1932SOL    HW217256   0.706   1.665   9.450  0.3244 -0.4966  0.2712
 1933SOL     OW17257   0.578   0.006   2.181 -0.6647 -0.0252  0.0968
 1933SOL    HW117258   0.554   0.068   2.250 -0.5757 -0.8304  0.8619
 1933SOL    HW217259   0.661   4.707   2.222 -2.4056 -1.5728  2.7611
 1934SOL     OW17260   4.506   2.627   2.114 -0.3931 -0.0468 -0.1700
 1934SOL    HW117261   4.423   2.613   2.160  0.6719 -1.4183  1.3295
 1934SOL    HW217262   4.494   2.577   2.034  2.0630 -2.3734  0.9134
 1935SOL     OW17263   3.068   4.544  15.993 -0.2618 -0.1410 -0.0254
 1935SOL    HW117264   3.138   4.609  16.003  0.3778 -0.8676  0.2517
 1935SOL    HW217265   3.028   4.578  15.913 -1.4728  0.4481  0.8366
 1936SOL     OW17266   2.184   0.164  10.783  0.2963  0.4278 -0.1853
 1936SOL    HW117267   2.215   0.237  10.837  0.9760  0.9735 -1.3023
 1936SOL    HW217268   2.133   0.105  10.838  0.0196 -0.6265 -1.5953
 1937SOL     OW17269   2.269   0.739  16.674 -0.4383 -0.6146  0.1919
 1937SOL    HW117270   2.266   0.740  16.769  1.4951 -1.6514  0.2571
 1937SOL    HW217271   2.202   0.805  16.655 -1.2769 -1.7029 -0.6146
 1938SOL     OW17272   4.697   0.055   4.487  0.3459 -0.2085  0.0415
 1938SOL    HW117273   4.693   0.124   4.554  2.7284 -0.8816  0.8624
 1938SOL    HW217274   4.614   0.008   4.493  0.5214 -0.3357  1.5367
 1939SOL     OW17275   1.098   3.370   5.541  0.8072  0.2710  0.1215
 1939SOL    HW117276   1.020   3.338   5.495  1.8710  0.3161 -1.7311
 1939SOL    HW217277   1.167   3.360   5.474 -0.1688 -1.2915 -0.6345
 1940SOL     OW17278   4.333   3.681   0.231  0.1574 -0.0699  0.2080
 1940SOL    HW117279   4.398   3.675   0.301  1.6178 -1.3137 -1.2799
 1940SOL    HW217280   4.259   3.639   0.275  0.7866 -1.9889 -0.5855
 1941SOL     OW17281   3.977   1.425  16.992  0.3013  0.2032  0.0062
 1941SOL    HW117282   3.922   1.501  17.009  1.1074  0.8047 -0.0659
 1941SOL    HW217283   4.062   1.468  16.983  0.4346  0.1685  1.0402
 1942SOL     OW17284   4.532   0.582   5.766  0.2673  0.4970  0.1508
 1942SOL    HW117285   4.583   0.502   5.777 -0.7898 -0.1659  0.2659
 1942SOL    HW217286   4.474   0.577   5.842  1.5365 -2.1837  0.9244
 1943SOL     OW17287   3.931   4.004   7.168  0.0584  0.3446 -0.0489
 1943SOL    HW117288   3.905   4.005   7.260 -3.0897  0.7507 -0.9302
 1943SOL    HW217289   3.862   4.061   7.132 -0.1568 -0.7300 -1.3191
 1944SOL     OW17290   0.905   2.705   1.038  0.8425 -0.1002 -0.3527
 1944SOL    HW117291   0.856   2.753   0.971 -3.9238 -0.7530  2.6189
 1944SOL    HW217292   0.969   2.771   1.065  3.2152 -3.0612  1.1997
 1945SOL     OW17293   4.628   4.527   2.104  0.1080  0.2288 -0.5835
 1945SOL    HW117294   4.553   4.571   2.066 -0.7751 -0.2412  0.6275
 1945SOL    HW217295   4.688   4.597   2.077  0.9986 -0.7741 -1.2068
 1946SOL     OW17296   2.391   2.473   5.083  0.6593  0.0365 -0.4678
 1946SOL    HW117297   2.479   2.477   5.121  1.1376 -0.9510 -1.4782
 1946SOL    HW217298   2.381   2.386   5.046 -4.2363  0.0145  0.8780
 1947SOL     OW17299   3.207   2.499   6.228 -0.0673 -0.4924 -0.2329
 1947SOL    HW117300   3.168   2.414   6.249 -0.7494 -0.5617 -1.8284
 1947SOL    HW217301   3.185   2.498   6.136 -0.3874  1.3227 -0.1737
 1948SOL     OW17302   2.092   0.951   6.135 -0.6763 -0.6216 -0.1565
 1948SOL    HW117303   2.112   1.035   6.177  0.8879  0.3694 -2.8638
 1948SOL    HW217304   2.072   0.886   6.203  0.5587  1.5085  2.2686
 1949SOL     OW17305   1.657   0.907  13.750  0.5092 -0.5661  0.3352
 1949SOL    HW117306   1.662   0.968  13.677  0.8518 -0.7395  0.2144
 1949SOL    HW217307   1.748   0.893  13.776 -0.0144 -1.4628  1.7380
 1950SOL     OW17308   0.798   1.349   5.877  0.1207 -0.0000  0.1823
 1950SOL    HW117309   0.843   1.433   5.865 -1.7780  0.9971 -0.0429
 1950SOL    HW217310   0.788   1.309   5.791  1.9947 -0.8573  0.3592
 1951SOL     OW17311   2.973   1.007   1.022 -0.4427 -0.2016  0.7626
 1951SOL    HW117312   3.008   0.928   0.981  0.7203  0.3484  0.7115
 1951SOL    HW217313   2.883   0.975   1.019 -0.5778  0.4023 -1.2877
 1952SOL     OW17314   0.387   2.517   7.843  0.0497  0.2836  0.5693
 1952SOL    HW117315   0.481   2.499   7.843  0.2110  1.0752  1.4837
 1952SOL    HW217316   0.353   2.473   7.765  2.0513  1.0323 -0.7298
 1953SOL     OW17317   4.504   2.080   9.459  0.1694 -0.3663 -0.5634
 1953SOL    HW117318   4.536   2.127   9.535 -1.3342  1.7106 -1.2168
 1953SOL    HW217319   4.442   2.025   9.506 -0.4744  0.2007 -0.7530
 1954SOL     OW17320   2.410   1.866   6.746  0.2112 -0.0811  0.1623
 1954SOL    HW117321   2.470   1.794   6.728  0.0002 -0.4471  0.9011
 1954SOL    HW217322   2.364   1.817   6.815  0.8594  0.6970  1.1323
 1955SOL     OW17323   1.394   3.542   5.181 -0.4260  0.0551 -0.2913
 1955SOL    HW117324   1.399   3.481   5.108 -1.3359 -1.7329  1.1658
 1955SOL    HW217325   1.413   3.622   5.132 -0.8459  0.5975  0.4351
 1956SOL     OW17326   4.223   1.763  16.182  0.0993  0.0699  0.3313
 1956SOL    HW117327   4.139   1.721  16.199 -0.4335  1.5763  1.3701
 1956SOL    HW217328   4.289   1.695  16.198 -1.4390 -0.9618  2.3325
 1957SOL     OW17329   2.815   0.145  10.881 -0.1678  0.0394 -0.4836
 1957SOL    HW117330   2.861   0.184  10.955 -0.1496  2.9510 -2.0206
 1957SOL    HW217331   2.745   0.211  10.871  0.5019  0.7415 -0.5592
 1958SOL     OW17332   4.544   0.140  15.435 -0.4096  0.4773 -0.0764
 1958SOL    HW117333   4.510   0.209  15.493 -2.9042 -1.4745  0.7489
 1958SOL    HW217334   4.489   0.158  15.359 -1.5672 -2.3126  0.1224
 1959SOL     OW17335   0.478   3.964   1.081 -0.2057  0.2352  0.4807
 1959SOL    HW117336   0.496   3.870   1.079 -0.5314  0.1564  1.4937
 1959SOL    HW217337   0.536   3.997   1.150 -0.7806  1.1571  0.5275
 1960SOL     OW17338   3.879   3.640   7.760  0.0279 -0.2240  0.7007
 1960SOL    HW117339   3.916   3.634   7.848 -2.2278  1.8125  1.8132
 1960SOL    HW217340   3.832   3.723   7.770  0.0239 -0.3404  1.7012
 1961SOL     OW17341   0.410   4.225  11.437 -0.6361  0.2380  0.4044
 1961SOL    HW117342   0.406   4.148  11.380 -0.9131  0.1976  0.4792
 1961SOL    HW217343   0.476   4.284  11.402 -0.5567 -1.4118 -2.2449
 1962SOL     OW17344   1.817   3.156   3.477  0.2609  0.0149  0.0389
 1962SOL    HW117345   1.908   3.186   3.473  0.0346  0.8506  1.2225
 1962SOL    HW217346   1.815   3.100   3.399  0.1013  1.1403 -0.7576
 1963SOL     OW17347   1.597   2.679  17.543  0.4351 -0.4241 -0.3526
 1963SOL    HW117348   1.680   2.720  17.518  0.1686  1.3400  1.6331
 1963SOL    HW217349   1.564   2.647  17.460 -0.7122 -0.5973  0.1655
 1964SOL     OW17350   2.130   3.114   7.670  0.0908 -0.3775  0.0966
 1964SOL    HW117351   2.226   3.119   7.669  0.1600 -1.6954  1.4338
 1964SOL    HW217352   2.126   3.058   7.747 -0.8075  0.2502  0.4963
 1965SOL     OW17353   1.118   2.172  14.129 -0.1773 -0.3191 -0.5635
 1965SOL    HW117354   1.058   2.245  14.112 -0.2822 -0.0062  1.1497
 1965SOL    HW217355   1.160   2.200  14.210 -2.1925 -0.0340  0.3971
 1966SOL     OW17356   0.975   0.129   5.821 -0.0934  0.0122  0.1379
 1966SOL    HW117357   0.934   0.118   5.907 -0.4526  0.3703  0.0090
 1966SOL    HW217358   0.899   0.142   5.765  1.9401 -0.3448 -2.6918
 1967SOL     OW17359   0.372   2.075  15.313 -0.4324 -0.4354  0.1605
 1967SOL    HW117360   0.392   2.079  15.220 -1.3487 -2.5064 -0.1416
 1967SOL    HW217361   0.414   1.994  15.342 -1.1157 -0.5252  0.9086
 1968SOL     OW17362   4.725   3.214   7.012 -0.2549 -0.0076 -0.6033
 1968SOL    HW117363   0.051   3.170   7.081  0.2587  0.4334 -0.7006
 1968SOL    HW217364   0.060   3.210   6.938 -0.1339  0.4755 -0.5343
 1969SOL     OW17365   4.535   0.391  16.046 -0.0881  0.5266  0.1962
 1969SOL    HW117366   4.464   0.439  16.005  0.3747  0.0053 -1.2176
 1969SOL    HW217367   4.605   0.444  16.007  1.5971 -1.7802  0.0580
 1970SOL     OW17368   0.620   0.528   3.021 -0.2775  0.0816  0.1868
 1970SOL    HW117369   0.635   0.483   2.938  1.2250 -1.8005  1.4654
 1970SOL    HW217370   0.533   0.564   3.006 -1.7072 -3.4093  0.0430
 1971SOL     OW17371   4.191   3.734   5.102  0.3468  0.3092  0.1083
 1971SOL    HW117372   4.257   3.702   5.041  0.6778  0.0068  0.6250
 1971SOL    HW217373   4.120   3.683   5.062 -1.4205  2.7627  0.1294
 1972SOL     OW17374   0.403   1.101   9.514 -0.2991 -0.2119  0.1456
 1972SOL    HW117375   0.337   1.169   9.530  0.3215 -0.0488  2.1007
 1972SOL    HW217376   0.484   1.152   9.512 -1.2545  1.2639 -1.0819
 1973SOL     OW17377   1.994   3.721   6.907 -0.3415  0.5132 -0.1537
 1973SOL    HW117378   2.068   3.663   6.888  0.2973  1.0743  0.6327
 1973SOL    HW217379   1.926   3.653   6.905 -1.0969  1.2492  0.5471
 1974SOL     OW17380   3.903   4.339   4.860 -0.2175  0.4544  0.1978
 1974SOL    HW117381   3.974   4.357   4.798  0.2839  1.1129  0.9659
 1974SOL    HW217382   3.826   4.321   4.806  0.5290  1.8359 -1.3317
 1975SOL     OW17383   3.778   3.695   4.810 -0.1922 -0.2368 -0.4352
 1975SOL    HW117384   3.704   3.643   4.780 -1.5217  0.7794  1.0670
 1975SOL    HW217385   3.839   3.625   4.832 -0.5964 -1.4077 -3.0548
 1976SOL     OW17386   0.452   3.805   0.486 -0.1132 -0.1968 -0.2178
 1976SOL    HW117387   0.464   3.815   0.581 -0.6675  1.4495 -0.3118
 1976SOL    HW217388   0.393   3.879   0.475  1.7947  1.3180 -0.3568
 1977SOL     OW17389   1.318   4.249   9.751  0.5933 -0.0197 -0.0408
 1977SOL    HW117390   1.386   4.309   9.720  1.0117 -1.0127 -1.0691
 1977SOL    HW217391   1.339   4.235   9.843 -0.9084 -0.1760  0.2826
 1978SOL     OW17392   2.077   0.879   5.886 -0.3508  0.5594  0.5339
 1978SOL    HW117393   2.073   0.913   5.975  1.4643  0.5490  0.6177
 1978SOL    HW217394   2.047   0.960   5.844 -1.4834 -0.3629 -0.4070
 1979SOL     OW17395   0.310   2.854   7.551  0.2362 -0.3499  0.0182
 1979SOL    HW117396   0.387   2.910   7.544 -0.5197  0.7907  0.8704
 1979SOL    HW217397   0.302   2.855   7.646  0.3216  0.7789  0.0158
 1980SOL     OW17398   4.541   3.331   5.996 -0.0338 -0.2829  0.1014
 1980SOL    HW117399   4.604   3.402   5.983  0.3258 -0.7779 -0.8806
 1980SOL    HW217400   4.503   3.330   5.908 -2.5666 -1.7455  1.2140
 1981SOL     OW17401   3.123   4.415   4.263  0.2013 -0.3999 -0.4343
 1981SOL    HW117402   3.062   4.350   4.298  0.2119  0.7964  1.8072
 1981SOL    HW217403   3.172   4.434   4.343  1.7418 -1.6999 -1.0709
 1982SOL     OW17404   3.593   1.049   3.351  0.2874 -0.0567  1.0481
 1982SOL    HW117405   3.633   1.125   3.307 -2.8792  0.8947 -0.2081
 1982SOL    HW217406   3.570   0.998   3.273 -2.2114  0.4515  1.4595
 1983SOL     OW17407   1.244   4.448   9.089  0.2681 -0.3556  0.5841
 1983SOL    HW117408   1.249   4.529   9.140  0.6625  1.6334 -2.6076
 1983SOL    HW217409   1.163   4.459   9.039  1.1017 -0.2986 -0.7599
 1984SOL     OW17410   0.640   4.309   1.807 -0.1395  0.0351 -0.0323
 1984SOL    HW117411   0.681   4.266   1.882 -2.0624 -0.7941  0.5572
 1984SOL    HW217412   0.583   4.376   1.843 -1.5779 -1.8076  1.1575
 1985SOL     OW17413   0.679   1.071   2.959  0.3746  0.1824  0.1138
 1985SOL    HW117414   0.763   1.058   2.915  0.6649 -0.6368  0.9091
 1985SOL    HW217415   0.631   1.038   2.884  2.0664  0.8666 -1.2776
 1986SOL     OW17416   3.862   0.452   3.471 -0.5726  0.0826  0.6202
 1986SOL    HW117417   3.790   0.390   3.459  0.8984 -1.8560  2.0453
 1986SOL    HW217418   3.851   0.500   3.389  1.7647 -3.5951 -1.8306
 1987SOL     OW17419   2.413   3.830   7.002 -0.0729  0.5616 -0.3414
 1987SOL    HW117420   2.448   3.746   6.972 -0.2100  0.1288  0.7041
 1987SOL    HW217421   2.477   3.891   6.965  1.6200  0.1433  1.8727
 1988SOL     OW17422   1.012   3.855  11.127  0.1207 -0.6161 -0.0544
 1988SOL    HW117423   0.919   3.852  11.103 -0.4551  0.9005  1.9876
 1988SOL    HW217424   1.021   3.944  11.160  0.7473 -0.5716 -0.3510
 1989SOL     OW17425   1.143   3.657  12.340 -0.1583  0.2635  0.2796
 1989SOL    HW117426   1.059   3.703  12.333  0.3248  0.9576 -0.9757
 1989SOL    HW217427   1.129   3.625  12.429 -1.6020 -0.3731 -0.1701
 1990SOL     OW17428   2.218   1.410   7.097 -0.3204 -0.3333 -0.5335
 1990SOL    HW117429   2.289   1.348   7.111  0.9372  1.8419  2.9443
 1990SOL    HW217430   2.232   1.468   7.173 -0.3607 -0.0652 -0.7295
 1991SOL     OW17431   2.929   4.186   2.114  0.3469 -0.1048  0.2465
 1991SOL    HW117432   2.886   4.148   2.038 -2.6478 -1.7729  2.7470
 1991SOL    HW217433   2.850   4.199   2.166 -0.3146 -2.4673 -0.1992
 1992SOL     OW17434   4.349   2.477   5.119 -0.4482 -0.6938  0.0142
 1992SOL    HW117435   4.266   2.430   5.110 -1.3458  0.8163  0.2381
 1992SOL    HW217436   4.347   2.517   5.032 -2.9435  0.7205  0.7244
 1993SOL     OW17437   3.928   3.562  11.567  0.1285 -0.3557  0.1191
 1993SOL    HW117438   4.022   3.580  11.572 -0.2835  2.2377 -1.4301
 1993SOL    HW217439   3.888   3.644  11.596 -2.4684 -1.3957 -0.5538
 1994SOL     OW17440   1.635   2.939   5.097  0.3105 -0.3422  0.2477
 1994SOL    HW117441   1.571   2.976   5.157 -0.4379 -0.3018 -0.5656
 1994SOL    HW217442   1.674   3.023   5.072 -0.0266 -0.7653 -1.7094
 1995SOL     OW17443   0.886   1.382   3.584 -0.6148 -0.1503  0.3892
 1995SOL    HW117444   0.807   1.435   3.568 -1.4654 -2.5053 -3.0728
 1995SOL    HW217445   0.908   1.350   3.497 -0.0743 -1.6844  1.0902
 1996SOL     OW17446   3.007   0.258   2.386 -0.1190 -0.2405 -0.3028
 1996SOL    HW117447   2.949   0.316   2.436 -0.7142  0.4028 -1.7262
 1996SOL    HW217448   2.970   0.170   2.393 -0.0114 -0.3650 -1.2971
 1997SOL     OW17449   3.789   0.566   5.986  0.3146 -0.6650 -0.2195
 1997SOL    HW117450   3.866   0.587   6.039  0.8842 -2.2873 -0.3955
 1997SOL    HW217451   3.826   0.483   5.955 -0.3713 -1.3670  0.8161
 1998SOL     OW17452   2.471   3.686   4.217  0.0173  0.1984 -0.2435
 1998SOL    HW117453   2.460   3.728   4.302  1.2725 -1.4789  0.7399
 1998SOL    HW217454   2.408   3.614   4.224  1.4728 -1.3057 -2.4489
 1999SOL     OW17455   1.887   3.097  13.463  0.5549  0.0907  0.3456
 1999SOL    HW117456   1.898   3.118  13.370  0.3844 -5.7625 -1.0512
 1999SOL    HW217457   1.837   3.173  13.492 -2.4755 -0.9158 -2.2578
 2000SOL     OW17458   4.715   2.107   4.264  0.4164 -0.2662  0.1022
 2000SOL    HW117459   4.627   2.131   4.234  0.3918  0.7955  0.9999
 2000SOL    HW217460   0.005   2.172   4.333 -0.8238 -0.2778  0.3749
 2001SOL     OW17461   3.587   4.175  17.141  0.0449 -0.1924  1.2302
 2001SOL    HW117462   3.496   4.166  17.172  0.3625 -0.3765  2.1090
 2001SOL    HW217463   3.586   4.122  17.062 -0.5537  1.4719  0.1048
 2002SOL     OW17464   1.724   0.814   5.403  0.3971 -0.5312 -0.1962
 2002SOL    HW117465   1.756   0.795   5.315  1.6243  0.8971 -0.0633
 2002SOL    HW217466   1.789   0.874   5.441 -0.1665 -0.0663  0.0341
 2003SOL     OW17467   3.749   0.321   9.019 -0.2250 -0.0434  0.0952
 2003SOL    HW117468   3.784   0.255   8.960  0.7088  0.4534  0.0892
 2003SOL    HW217469   3.746   0.270   9.100 -0.2760  0.6281  0.5216
 2004SOL     OW17470   1.480   1.295   8.596  0.1350  0.8173 -0.5327
 2004SOL    HW117471   1.385   1.288   8.606  0.2558 -0.0789 -0.0400
 2004SOL    HW217472   1.501   1.380   8.635  1.8001 -0.2832  0.9671
 2005SOL     OW17473   1.691   4.254   6.673 -0.2284 -0.2537  0.1540
 2005SOL    HW117474   1.613   4.308   6.681 -0.2153 -0.0105 -1.2644
 2005SOL    HW217475   1.731   4.277   6.589  3.7444  2.2309  2.7182
 2006SOL     OW17476   3.118   0.637  11.088  0.0040  0.1263 -0.4510
 2006SOL    HW117477   3.027   0.651  11.061 -0.3428 -0.6794  0.3127
 2006SOL    HW217478   3.103   0.565  11.149 -0.2934  1.0051  0.5094
 2007SOL     OW17479   3.402   4.343   2.781 -0.4315 -0.0330 -0.0790
 2007SOL    HW117480   3.433   4.376   2.697 -0.3377 -1.5780 -0.6576
 2007SOL    HW217481   3.455   4.266   2.800 -2.7173 -1.2551  1.4675
 2008SOL     OW17482   3.715   4.358  14.379  0.1560 -0.3505 -0.5842
 2008SOL    HW117483   3.668   4.417  14.319  0.4075  1.6204  1.1847
 2008SOL    HW217484   3.657   4.281  14.372 -1.5841  0.7999  1.1978
 2009SOL     OW17485   0.539   4.511   3.179  0.6564 -0.9157  0.5736
 2009SOL    HW117486   0.624   4.487   3.215  1.1672 -1.5006 -1.0336
 2009SOL    HW217487   0.531   4.603   3.205  2.1630 -1.0390  1.4611
 2010SOL     OW17488   3.230   2.620   6.530 -0.5923  0.2895  0.2803
 2010SOL    HW117489   3.230   2.532   6.493 -0.7244  0.6313 -0.5340
 2010SOL    HW217490   3.300   2.666   6.485 -0.5990  0.9045  0.8843
 2011SOL     OW17491   0.582   1.691   7.499 -0.0969  0.5428 -0.0384
 2011SOL    HW117492   0.603   1.599   7.479 -0.2735  0.0843  1.9274
 2011SOL    HW217493   0.487   1.679   7.499  0.0112 -0.3219  0.3432
 2012SOL     OW17494   3.368   2.671   1.859 -0.4862 -0.1457 -0.3603
 2012SOL    HW117495   3.344   2.761   1.834 -0.8887  0.0057  0.5902
 2012SOL    HW217496   3.453   2.674   1.903 -1.6968  0.5970  1.9415
 2013SOL     OW17497   0.018   0.172   3.596  0.0973  0.6637 -0.8200
 2013SOL    HW117498   4.704   0.196   3.681  4.4510  0.4753  1.2304
 2013SOL    HW217499   4.664   0.158   3.545 -1.0811  2.1221  0.5978
 2014SOL     OW17500   1.525   1.807   8.965 -0.3602  0.1695  0.4185
 2014SOL    HW117501   1.541   1.899   8.943  2.2829 -0.6747 -1.2066
 2014SOL    HW217502   1.574   1.811   9.047 -0.0943  1.2011  0.2141
 2015SOL     OW17503   3.277   4.458   6.168  0.0527 -0.4962 -0.5086
 2015SOL    HW117504   3.256   4.370   6.137  3.5150 -1.1787 -0.9253
 2015SOL    HW217505   3.371   4.466   6.152  0.1891 -0.6973  0.2011
 2016SOL     OW17506   2.338   1.655   7.614  0.1652 -0.0164  0.2640
 2016SOL    HW117507   2.350   1.595   7.688 -0.6579  0.7538  1.0186
 2016SOL    HW217508   2.401   1.617   7.553 -0.2727  0.9999 -0.8146
 2017SOL     OW17509   1.181   4.286   6.559 -0.0626 -0.2362  0.0716
 2017SOL    HW117510   1.180   4.193   6.582  3.4294  0.2242  1.9723
 2017SOL    HW217511   1.227   4.320   6.635 -0.7083  3.0827 -1.0188
 2018SOL     OW17512   4.120   4.080   3.953 -0.5875 -0.6833 -0.0514
 2018SOL    HW117513   4.193   4.020   3.936 -1.2473 -1.1492 -1.1885
 2018SOL    HW217514   4.161   4.152   4.001 -0.4955 -1.0135  0.3669
 2019SOL     OW17515   0.283   3.392  16.185  0.4959 -0.5053 -0.0714
 2019SOL    HW117516   0.363   3.417  16.138 -0.3411  0.3484 -1.0644
 2019SOL    HW217517   0.315   3.316  16.233 -0.1387 -0.3353  0.6161
 2020SOL     OW17518   1.146   1.560   6.232 -0.0931  0.0746 -0.5317
 2020SOL    HW117519   1.147   1.516   6.147 -2.5288  1.3768 -1.2340
 2020SOL    HW217520   1.051   1.556   6.243  0.1363 -1.6053  0.7164
 2021SOL     OW17521   1.898   0.132   5.513  0.3782 -0.0891 -0.8201
 2021SOL    HW117522   1.871   0.216   5.549  0.7321  0.1446 -1.1045
 2021SOL    HW217523   1.912   0.081   5.593 -0.4944  0.3929 -0.3662
 2022SOL     OW17524   4.413   1.689   8.925 -0.1974 -0.1324 -0.7116
 2022SOL    HW117525   4.366   1.694   9.008 -0.6896 -1.5058 -0.9047
 2022SOL    HW217526   4.433   1.782   8.913 -0.0235 -0.1099 -0.2189
 2023SOL     OW17527   3.465   4.070   6.495 -0.6084  0.1008 -0.0327
 2023SOL    HW117528   3.471   3.986   6.449  1.0744  0.3435 -0.2578
 2023SOL    HW217529   3.497   4.128   6.426 -2.5103  2.3463  1.0039
 2024SOL     OW17530   2.794   2.721   6.317  0.1522  0.3711  0.3067
 2024SOL    HW117531   2.876   2.751   6.355  1.6838 -2.7137 -0.5800
 2024SOL    HW217532   2.744   2.687   6.391 -0.8885  0.5550 -0.3031
 2025SOL     OW17533   4.573   4.148  11.741 -1.0098  0.4454  0.2256
 2025SOL    HW117534   4.526   4.201  11.806  1.0710  0.4352  1.7698
 2025SOL    HW217535   4.537   4.061  11.759 -0.3781  0.6411  2.5303
 2026SOL     OW17536   4.452   2.230   4.705  0.0339  0.6205 -0.0966
 2026SOL    HW117537   4.477   2.218   4.796  1.1239 -0.0004 -0.4898
 2026SOL    HW217538   4.471   2.145   4.667  0.1890  1.3224 -1.6069
 2027SOL     OW17539   3.381   1.038   2.694 -0.3544  0.3970 -0.2725
 2027SOL    HW117540   3.467   0.997   2.703 -0.2677  0.8572  1.0072
 2027SOL    HW217541   3.355   1.028   2.786 -0.6258 -0.3297 -0.4212
 2028SOL     OW17542   0.222   0.304   7.496  0.3081  0.6070  0.0747
 2028SOL    HW117543   0.139   0.351   7.493 -0.1785 -0.4231 -2.4839
 2028SOL    HW217544   0.201   0.213   7.473 -1.5240  0.6373  1.6684
 2029SOL     OW17545   3.092   1.726   8.429 -0.3989 -0.1033 -0.1618
 2029SOL    HW117546   3.081   1.698   8.520 -0.5351 -1.4426 -0.5905
 2029SOL    HW217547   3.020   1.675   8.392 -0.3379 -0.3293  0.0256
 2030SOL     OW17548   0.382   4.015   2.486  0.4247 -0.0813 -0.5836
 2030SOL    HW117549   0.400   3.965   2.406 -1.7712  0.1423 -1.2258
 2030SOL    HW217550   0.471   4.048   2.495  0.6983 -1.6539  2.6017
 2031SOL     OW17551   1.951   1.807   2.432  0.2890  0.1417 -0.2917
 2031SOL    HW117552   1.867   1.778   2.468  0.3306  0.2760 -0.0902
 2031SOL    HW217553   2.000   1.818   2.513  0.2417 -2.6413  0.0942
 2032SOL     OW17554   3.223   4.414   6.646 -0.1104  0.7435 -0.4296
 2032SOL    HW117555   3.184   4.452   6.567 -0.5867  1.8721  0.3532
 2032SOL    HW217556   3.145   4.367   6.674  0.5600 -0.1792 -0.0774
 2033SOL     OW17557   1.065   0.362  13.383  0.5131 -0.2003 -0.5113
 2033SOL    HW117558   0.994   0.345  13.321  1.3543 -1.0110 -1.2345
 2033SOL    HW217559   1.022   0.422  13.445  1.8866  0.4934 -0.2250
 2034SOL     OW17560   0.232   1.306   7.596 -0.1107 -0.1846  0.3061
 2034SOL    HW117561   0.320   1.287   7.565  1.1983 -0.4243  4.1319
 2034SOL    HW217562   0.245   1.359   7.675  1.2254 -1.7840  1.1482
 2035SOL     OW17563   3.062   3.528  16.929 -0.0135 -0.0310 -0.3812
 2035SOL    HW117564   3.122   3.501  16.859  0.1846 -1.3194  0.2921
 2035SOL    HW217565   2.990   3.561  16.876 -0.7359  0.8105  1.0921
 2036SOL     OW17566   2.414   0.079   9.301  0.2071 -0.2433  0.6325
 2036SOL    HW117567   2.411   0.053   9.393 -1.9065 -1.4084  0.2523
 2036SOL    HW217568   2.328   0.120   9.294  0.4473  0.6483  2.8094
 2037SOL     OW17569   4.614   3.076   5.757 -0.1913  0.1140  0.2886
 2037SOL    HW117570   4.591   3.141   5.690  1.5034 -2.0821 -2.3837
 2037SOL    HW217571   4.528   3.054   5.791  0.8227 -0.5212  2.4292
 2038SOL     OW17572   3.560   4.090   3.425  0.0063 -0.4738 -0.1542
 2038SOL    HW117573   3.465   4.078   3.436  0.1372 -0.3132  1.1684
 2038SOL    HW217574   3.570   4.184   3.406  1.9763 -0.1141  2.7274
 2039SOL     OW17575   2.900   0.690   2.027  0.7229  0.1714  0.5210
 2039SOL    HW117576   2.918   0.622   1.962 -1.1658 -0.1663  0.3529
 2039SOL    HW217577   2.968   0.750   1.998  0.8109  0.5194  1.4598
 2040SOL     OW17578   3.079   1.084   5.519 -0.5218  0.1477 -0.6756
 2040SOL    HW117579   3.107   0.999   5.485 -1.2232  0.0942 -1.1038
 2040SOL    HW217580   3.076   1.136   5.439 -1.3758  1.1390  0.0103
 2041SOL     OW17581   4.477   1.607   3.749  0.3512  0.2140  0.6036
 2041SOL    HW117582   4.520   1.675   3.696 -2.4184  1.1583 -0.4332
 2041SOL    HW217583   4.553   1.578   3.799 -0.4949 -1.5518  0.8545
 2042SOL     OW17584   3.970   1.083   5.400  0.1002 -0.4050 -0.0985
 2042SOL    HW117585   4.018   1.046   5.326  0.7060  0.3025 -0.0532
 2042SOL    HW217586   3.895   1.023   5.401  0.1221 -0.3985  1.3618
 2043SOL     OW17587   2.429   4.561   5.091 -0.2641  0.4867 -0.5742
 2043SOL    HW117588   2.525   4.569   5.098 -0.0595  0.6120 -3.3455
 2043SOL    HW217589   2.399   4.530   5.176 -0.0993  1.1082 -0.2909
 2044SOL     OW17590   2.355   0.138   6.652 -0.4700 -0.0341 -0.5331
 2044SOL    HW117591   2.288   0.111   6.713 -0.2676 -1.4629 -0.9362
 2044SOL    HW217592   2.402   0.212   6.690 -0.2244  0.4371 -1.7323
 2045SOL     OW17593   0.566   2.398   9.655  0.6531  0.0555 -0.4992
 2045SOL    HW117594   0.556   2.472   9.595  1.8114  0.0483 -0.6906
 2045SOL    HW217595   0.551   2.446   9.736 -0.6913 -0.4520 -0.4426
 2046SOL     OW17596   2.862   4.287   5.025 -0.2054  0.4730 -0.1855
 2046SOL    HW117597   2.936   4.298   5.085 -0.7176  1.5202  0.2510
 2046SOL    HW217598   2.893   4.211   4.974 -1.3236 -0.6364  0.7890
 2047SOL     OW17599   1.884   0.558   5.290 -0.1559  0.0064 -0.6934
 2047SOL    HW117600   1.821   0.555   5.362 -1.6514  0.7024 -1.9723
 2047SOL    HW217601   1.946   0.515   5.348 -0.3127  1.9069  0.8957
 2048SOL     OW17602   1.707   4.037   7.859  0.4194  0.0308 -0.4170
 2048SOL    HW117603   1.667   4.108   7.909 -1.3538 -0.5033 -1.0671
 2048SOL    HW217604   1.799   4.060   7.863  0.0781  1.5161 -1.1484
 2049SOL     OW17605   0.650   1.038   0.476  0.4464  0.1049  0.1231
 2049SOL    HW117606   0.674   1.112   0.532  1.4972 -0.1108 -0.0279
 2049SOL    HW217607   0.632   1.076   0.390 -0.7775 -1.7700 -0.4406
 2050SOL     OW17608   1.739   0.993   8.783  0.5097  0.3355 -0.4870
 2050SOL    HW117609   1.705   1.008   8.694 -1.7158  0.5353  0.3945
 2050SOL    HW217610   1.657   1.021   8.824  1.0078  1.1114 -0.0310
 2051SOL     OW17611   3.256   4.444   4.502  0.4374 -0.2240 -0.0490
 2051SOL    HW117612   3.339   4.446   4.550  0.0969  3.3776  0.3431
 2051SOL    HW217613   3.191   4.464   4.569 -0.3131 -1.8635 -0.2686
 2052SOL     OW17614   4.439   2.785   7.431 -0.5513  0.3581  0.3119
 2052SOL    HW117615   4.456   2.879   7.443  3.1604  0.0849 -2.9572
 2052SOL    HW217616   4.381   2.772   7.356 -0.5174  0.0197  0.3444
 2053SOL     OW17617   3.073   0.860   2.673  0.6625  0.2506 -0.3145
 2053SOL    HW117618   3.079   0.900   2.587  0.1900 -0.4106 -0.6598
 2053SOL    HW217619   2.988   0.897   2.698  1.7668  3.2842 -1.1296
 2054SOL     OW17620   3.188   4.270   6.959  0.3985  0.0521 -0.4765
 2054SOL    HW117621   3.114   4.285   6.901  0.8947  0.7193 -0.9331
 2054SOL    HW217622   3.153   4.209   7.025 -0.7921  0.5968 -0.6122
 2055SOL     OW17623   4.489   0.793   7.556 -0.0243  0.0730 -0.3103
 2055SOL    HW117624   4.438   0.851   7.611 -0.4858 -2.7717  2.2109
 2055SOL    HW217625   4.541   0.752   7.625 -0.0526 -0.8616 -0.8436
 2056SOL     OW17626   0.955   0.327   9.236  0.1505 -0.3749 -0.2148
 2056SOL    HW117627   0.892   0.339   9.165  0.2448 -1.0183 -0.4085
 2056SOL    HW217628   1.012   0.256   9.207  0.4747 -0.6933  1.2080
 2057SOL     OW17629   2.282   0.406   2.238  0.3101  0.2556 -0.0199
 2057SOL    HW117630   2.231   0.485   2.224  0.0425  0.3283  1.3348
 2057SOL    HW217631   2.317   0.386   2.151 -0.2056 -0.7398 -0.0069
 2058SOL     OW17632   1.698   3.388   8.270  0.5818 -0.1510 -0.2188
 2058SOL    HW117633   1.616   3.437   8.264  0.3744 -0.2011  2.1649
 2058SOL    HW217634   1.718   3.391   8.176  0.3997  0.2542 -0.2466
 2059SOL     OW17635   3.958   0.438  16.777  0.4451 -0.1355 -0.0836
 2059SOL    HW117636   3.903   0.447  16.699 -1.5373 -0.3813  1.2879
 2059SOL    HW217637   3.919   0.358  16.812  1.1525 -0.7129 -0.6151
 2060SOL     OW17638   2.037   1.123   4.730  0.0327  0.2569  0.2725
 2060SOL    HW117639   2.099   1.062   4.770 -0.6399 -0.2061  0.6011
 2060SOL    HW217640   2.079   1.181   4.667 -1.1705  0.2410 -0.5421
 2061SOL     OW17641   4.013   1.726   2.355 -0.2158 -0.2861  0.1892
 2061SOL    HW117642   3.940   1.669   2.378 -1.4426 -0.5104 -4.1274
 2061SOL    HW217643   4.014   1.714   2.260 -0.0823  0.1997  0.1279
 2062SOL     OW17644   1.035   1.704   3.640 -0.0774 -0.4081  0.0705
 2062SOL    HW117645   0.997   1.791   3.633  1.4070  0.0907 -1.8724
 2062SOL    HW217646   1.006   1.683   3.729  0.3883  0.3304  0.3979
 2063SOL     OW17647   0.703   1.104   4.547 -0.9730  0.3904  0.2500
 2063SOL    HW117648   0.779   1.136   4.595 -1.5222  1.9547  0.0954
 2063SOL    HW217649   0.646   1.052   4.604  0.3322 -0.7755  0.4595
 2064SOL     OW17650   1.588   3.777   5.469 -0.5995  0.0843  0.5328
 2064SOL    HW117651   1.545   3.862   5.462  1.3063  1.1096  1.4107
 2064SOL    HW217652   1.645   3.795   5.544 -1.7548 -0.0790  1.4614
 2065SOL     OW17653   0.259   4.301   4.752  0.0653 -0.0416 -0.5290
 2065SOL    HW117654   0.315   4.376   4.775 -0.6153  0.3154 -0.0431
 2065SOL    HW217655   0.284   4.238   4.819 -1.1862 -0.5177 -0.5229
 2066SOL     OW17656   0.773   1.936   4.684 -0.6744  0.2394  0.8313
 2066SOL    HW117657   0.698   1.995   4.684  0.5318  1.7799  0.9626
 2066SOL    HW217658   0.789   1.935   4.589 -0.1780 -0.2131  0.9186
 2067SOL     OW17659   1.490   4.540  15.801 -0.3656 -0.3589  0.0501
 2067SOL    HW117660   1.507   4.624  15.843 -2.3381  1.6929 -3.2451
 2067SOL    HW217661   1.468   4.489  15.879 -0.7803  1.8579  1.3707
 2068SOL     OW17662   1.756   1.343   5.402  0.0886  0.3686  0.3899
 2068SOL    HW117663   1.718   1.270   5.353  0.8015 -0.3013  0.8338
 2068SOL    HW217664   1.798   1.397   5.335  2.9923  1.5295  3.1322
 2069SOL     OW17665   1.240   0.950   4.093 -0.0790  0.0377 -0.1436
 2069SOL    HW117666   1.200   0.928   4.177  1.2539  2.3621  1.1043
 2069SOL    HW217667   1.208   0.879   4.037 -0.5162  0.9117 -1.0099
 2070SOL     OW17668   1.054   2.567  11.240 -0.6828  0.1190  0.3011
 2070SOL    HW117669   1.137   2.565  11.193 -1.2183  1.8941 -0.7358
 2070SOL    HW217670   1.067   2.623  11.317 -1.3150  0.1275  0.4028
 2071SOL     OW17671   0.372   0.263   4.761  0.1214  0.1271 -0.0577
 2071SOL    HW117672   0.455   0.310   4.752  0.5596 -0.4239  1.0530
 2071SOL    HW217673   0.403   0.173   4.761  2.2160  0.8227  3.3159
 2072SOL     OW17674   4.557   4.607   6.881 -0.3495  0.3120 -0.3443
 2072SOL    HW117675   4.485   4.615   6.818  0.7862  2.5875 -1.3475
 2072SOL    HW217676   4.536   4.532   6.938  0.6404 -1.1434 -1.8800
 2073SOL     OW17677   4.497   4.650   8.727 -0.1395  0.7487 -0.2694
 2073SOL    HW117678   4.580   4.697   8.726 -0.2090  0.8544 -0.9179
 2073SOL    HW217679   4.522   4.559   8.739 -1.3350  0.5594  0.8233
 2074SOL     OW17680   0.276   2.887   5.172 -0.3414 -0.3232 -0.1223
 2074SOL    HW117681   0.304   2.804   5.134 -0.1944 -0.2882 -0.0935
 2074SOL    HW217682   0.182   2.870   5.175 -0.1016 -1.5678  0.0411
 2075SOL     OW17683   1.762   0.551   4.204  0.1985 -0.3250  0.1269
 2075SOL    HW117684   1.804   0.544   4.119 -0.1278 -0.2612 -0.0371
 2075SOL    HW217685   1.831   0.596   4.253  1.3368  0.5464 -2.3026
 2076SOL     OW17686   4.489   2.742   2.511  0.2308 -0.6008 -0.2812
 2076SOL    HW117687   4.570   2.786   2.535  0.7593 -1.0652 -1.2300
 2076SOL    HW217688   4.458   2.798   2.439 -0.6460 -0.0058  0.5585
 2077SOL     OW17689   2.500   0.355   9.467  0.0532  0.1766  0.6660
 2077SOL    HW117690   2.436   0.363   9.538  0.7753  0.4539  1.2762
 2077SOL    HW217691   2.460   0.296   9.402  0.3770 -0.8317  1.3767
 2078SOL     OW17692   3.495   3.079   1.814 -0.1323 -0.2231 -0.3982
 2078SOL    HW117693   3.494   3.120   1.901 -2.7121 -0.2440 -0.4048
 2078SOL    HW217694   3.532   3.000   1.854 -1.3504 -0.7867 -0.3617
 2079SOL     OW17695   3.494   1.205   4.043  0.2422  0.0895 -0.4299
 2079SOL    HW117696   3.573   1.173   4.000  2.1496  1.0542  2.4345
 2079SOL    HW217697   3.527   1.262   4.112 -1.2241 -0.2755  0.5541
 2080SOL     OW17698   2.528   1.297   7.548  0.0594  0.0808 -0.1280
 2080SOL    HW117699   2.476   1.351   7.488 -3.0454 -0.4098  2.1536
 2080SOL    HW217700   2.613   1.340   7.557 -0.2651  1.5404 -3.7602
 2081SOL     OW17701   3.831   4.333   6.369 -0.5622  0.2687 -0.1673
 2081SOL    HW117702   3.914   4.333   6.320 -0.6148  0.2867 -0.2571
 2081SOL    HW217703   3.861   4.318   6.458 -1.3686 -0.4225 -0.0148
 2082SOL     OW17704   2.819   3.576   6.996 -0.5724 -0.2939 -0.4108
 2082SOL    HW117705   2.869   3.628   6.932 -0.1120  1.5245  1.4271
 2082SOL    HW217706   2.730   3.610   6.990 -0.3848 -0.1812 -2.7421
 2083SOL     OW17707   0.835   1.362   9.341 -0.0621 -0.0476 -0.3845
 2083SOL    HW117708   0.840   1.303   9.415  0.3623  2.1561  1.3538
 2083SOL    HW217709   0.846   1.450   9.377 -1.8042  1.0957 -2.6600
 2084SOL     OW17710   4.109   1.745  15.222  0.5919  0.2336 -0.4883
 2084SOL    HW117711   4.127   1.699  15.304  0.1424 -0.3020 -0.6927
 2084SOL    HW217712   4.189   1.797  15.221 -0.0660  1.2561  0.0392
 2085SOL     OW17713   0.361   3.426   4.290  0.1358 -0.0767 -0.1590
 2085SOL    HW117714   0.359   3.358   4.223 -0.5758  1.2436 -1.4753
 2085SOL    HW217715   0.340   3.502   4.236  0.6256  0.9025  1.0501
 2086SOL     OW17716   3.795   1.782   6.748  0.4250  0.1155 -0.1515
 2086SOL    HW117717   3.882   1.742   6.754  0.6660  0.5609 -0.6346
 2086SOL    HW217718   3.787   1.794   6.653  0.7756  0.0815 -0.1873
 2087SOL     OW17719   2.083   0.522  16.365 -0.3944  0.1951  0.3056
 2087SOL    HW117720   2.091   0.558  16.276 -0.2520  0.1803  0.3122
 2087SOL    HW217721   2.005   0.564  16.400 -0.5985 -0.6786  0.8875
 2088SOL     OW17722   3.982   0.724   4.203  0.4825  0.5493  0.4519
 2088SOL    HW117723   4.024   0.807   4.180 -0.0795  0.5111 -0.7158
 2088SOL    HW217724   3.995   0.720   4.298  0.1757 -2.7854  0.3349
 2089SOL     OW17725   3.939   2.479   5.812 -0.8761  0.3267  0.6627
 2089SOL    HW117726   3.855   2.434   5.813 -1.2742  1.0889  1.5994
 2089SOL    HW217727   3.982   2.432   5.741  1.9392  1.5853  1.5165
 2090SOL     OW17728   3.834   4.716   6.325  0.1590 -0.2972  0.3072
 2090SOL    HW117729   3.845   4.655   6.251 -1.2299 -0.6257  0.3795
 2090SOL    HW217730   3.867   0.064   6.273 -2.3981  0.6976  0.0969
 2091SOL     OW17731   1.416   0.135  14.742  0.5986 -0.6648  0.2054
 2091SOL    HW117732   1.426   0.227  14.768 -0.1996 -1.0301  1.7924
 2091SOL    HW217733   1.480   0.090  14.798 -2.6020 -3.8477  1.2580
 2092SOL     OW17734   1.835   1.910  17.696 -0.2253  0.2677  0.2134
 2092SOL    HW117735   1.869   1.864   0.071  0.7589  1.4290  0.4830
 2092SOL    HW217736   1.871   1.999   0.002  0.8757  0.0090 -2.0539
 2093SOL     OW17737   1.969   1.526   3.037 -0.3392  0.0121 -0.2899
 2093SOL    HW117738   1.922   1.470   3.099 -1.7350  1.2526 -0.2398
 2093SOL    HW217739   1.929   1.491   2.957 -0.9370  1.4026 -0.5983
 2094SOL     OW17740   4.229   2.866   9.179 -0.6521  0.0231 -0.0496
 2094SOL    HW117741   4.291   2.807   9.221 -1.3119 -0.7457 -0.1473
 2094SOL    HW217742   4.285   2.942   9.196  0.1700 -0.9136  1.4489
 2095SOL     OW17743   4.674   3.846   8.418 -0.0121  0.3494  0.1474
 2095SOL    HW117744   4.706   3.910   8.482  1.7434 -0.0127 -0.3711
 2095SOL    HW217745   4.671   3.906   8.343 -1.0796 -0.0712 -0.1479
 2096SOL     OW17746   1.612   3.113  14.283 -0.4907  0.1246  0.3043
 2096SOL    HW117747   1.522   3.113  14.316 -1.0768 -2.5765 -1.3227
 2096SOL    HW217748   1.632   3.207  14.288 -1.7411  0.2938  2.0791
 2097SOL     OW17749   4.375   1.895   9.659 -0.2239 -0.3509  0.0813
 2097SOL    HW117750   4.376   1.808   9.698 -0.4526 -0.5373 -0.3323
 2097SOL    HW217751   4.384   1.957   9.732  2.1447 -1.6367  0.8755
 2098SOL     OW17752   4.602   1.791   2.739 -0.1017 -0.0652  0.2059
 2098SOL    HW117753   4.624   1.760   2.651  0.5731 -0.2085  0.4153
 2098SOL    HW217754   4.692   1.798   2.773  0.5536  0.2653 -1.6011
 2099SOL     OW17755   4.336   2.109  13.434 -0.1252  0.1468  0.1545
 2099SOL    HW117756   4.272   2.059  13.485 -1.7161  0.7327 -1.2666
 2099SOL    HW217757   4.278   2.155  13.374 -3.5039 -1.5012  2.1661
 2100SOL     OW17758   4.252   3.227   8.361 -0.1420  0.2533 -0.2194
 2100SOL    HW117759   4.220   3.285   8.430  3.4138  2.7099 -0.6216
 2100SOL    HW217760   4.346   3.218   8.382 -0.2125 -0.2601 -0.1130
 2101SOL     OW17761   3.787   3.522   6.781  0.4653 -0.1274  0.0311
 2101SOL    HW117762   3.839   3.513   6.861  0.4633  0.9845  0.1516
 2101SOL    HW217763   3.817   3.609   6.756  0.6100 -0.0865  0.3439
 2102SOL     OW17764   3.469   4.488   6.559 -0.4630 -0.4188  0.2825
 2102SOL    HW117765   3.396   4.438   6.594 -1.0461 -1.0491 -1.7887
 2102SOL    HW217766   3.508   4.416   6.509 -0.0492  0.0672 -0.1151
 2103SOL     OW17767   0.467   0.092   8.742 -0.1863 -0.2895  0.2069
 2103SOL    HW117768   0.437   0.181   8.723  2.6726  0.6226 -0.1827
 2103SOL    HW217769   0.384   0.050   8.763  1.0734 -2.0362  1.6991
 2104SOL     OW17770   3.542   4.018   5.751 -0.3234  0.0566 -0.4157
 2104SOL    HW117771   3.616   3.974   5.794 -0.2963 -0.2171 -0.7502
 2104SOL    HW217772   3.588   4.095   5.717 -0.0778 -0.3277 -0.9599
 2105SOL     OW17773   2.189   0.498  15.775  0.2490 -0.0689  0.0061
 2105SOL    HW117774   2.195   0.576  15.720  1.4901 -1.5091 -1.8815
 2105SOL    HW217775   2.248   0.530  15.843  1.4359 -1.2630 -0.4756
 2106SOL     OW17776   3.053   3.127   3.086  0.3234 -0.3645  0.0259
 2106SOL    HW117777   3.107   3.146   3.163 -0.8567  0.6083  0.6104
 2106SOL    HW217778   3.110   3.071   3.033 -0.3625  1.1412 -2.2515
 2107SOL     OW17779   1.382   1.587   0.920  0.2026 -0.2830 -0.2190
 2107SOL    HW117780   1.453   1.633   0.965  0.1576 -1.1114  0.7221
 2107SOL    HW217781   1.305   1.633   0.953  0.1149  0.4140 -1.4165
 2108SOL     OW17782   0.211   3.431   3.641 -0.6078 -0.5995  0.4381
 2108SOL    HW117783   0.174   3.402   3.558 -0.4279  0.0223  0.1372
 2108SOL    HW217784   0.139   3.403   3.697 -1.7410  0.2683 -0.5911
 2109SOL     OW17785   1.220   1.254  12.451 -0.5191  0.2309 -0.4084
 2109SOL    HW117786   1.313   1.234  12.461 -0.2840  1.1227 -0.8104
 2109SOL    HW217787   1.171   1.180  12.487 -0.2183 -0.2340 -0.9437
 2110SOL     OW17788   3.239   1.355   1.276  0.4037 -0.2757  0.0005
 2110SOL    HW117789   3.165   1.323   1.327  1.2999  0.7779  1.9545
 2110SOL    HW217790   3.218   1.313   1.192 -0.2743 -0.0864  0.0727
 2111SOL     OW17791   3.224   3.414   9.306  0.2619 -0.4252  0.0239
 2111SOL    HW117792   3.166   3.438   9.378  2.8427 -0.4046  2.0858
 2111SOL    HW217793   3.303   3.448   9.349 -0.1441  2.2724 -1.3552
 2112SOL     OW17794   0.905   1.412   6.850  0.0178 -0.5794 -0.2770
 2112SOL    HW117795   0.889   1.420   6.944  0.6050 -0.5536 -0.1791
 2112SOL    HW217796   0.934   1.321   6.848  0.2763 -0.5077  0.1368
 2113SOL     OW17797   4.121   0.207   2.657  0.1120  0.3154 -0.2877
 2113SOL    HW117798   4.067   0.134   2.687 -0.6662  0.8410 -0.4182
 2113SOL    HW217799   4.132   0.200   2.562  1.6893  2.0276 -0.2369
 2114SOL     OW17800   4.577   0.528   0.272  0.3309  0.2438 -0.7168
 2114SOL    HW117801   4.649   0.532   0.336 -1.4124  0.2522  1.2320
 2114SOL    HW217802   4.570   0.433   0.266  0.6753  0.0768  1.4686
 2115SOL     OW17803   3.166   0.432   3.618 -0.5542  0.7242  0.0283
 2115SOL    HW117804   3.133   0.413   3.531 -0.2214 -0.1499  0.0949
 2115SOL    HW217805   3.209   0.351   3.646 -0.3637 -0.1018 -2.6970
 2116SOL     OW17806   2.496   4.169   2.039  0.1933  0.3069  0.7811
 2116SOL    HW117807   2.465   4.236   2.099  1.3778 -0.8711  2.7180
 2116SOL    HW217808   2.406   4.150   2.013  0.6008  0.4563 -0.7203
 2117SOL     OW17809   2.715   2.832   5.973  0.3928  0.1067  0.5203
 2117SOL    HW117810   2.741   2.862   5.886  1.9154 -1.1342  0.5426
 2117SOL    HW217811   2.804   2.812   6.001  1.8418  0.5508 -3.7556
 2118SOL     OW17812   1.804   3.804   3.203  0.0523 -0.0657 -0.6157
 2118SOL    HW117813   1.726   3.779   3.252  0.7570 -0.4971  0.2935
 2118SOL    HW217814   1.860   3.727   3.216  1.4630  1.1105  0.3186
 2119SOL     OW17815   4.713   4.375   8.759  0.0160 -0.2579  0.5675
 2119SOL    HW117816   0.027   4.385   8.673 -1.7530  0.2206 -0.1771
 2119SOL    HW217817   4.631   4.327   8.750 -0.7323  1.1187  0.0918
 2120SOL     OW17818   4.278   0.434  14.206  0.0318 -0.4328  0.5477
 2120SOL    HW117819   4.212   0.483  14.156  1.1581 -0.2953 -0.8037
 2120SOL    HW217820   4.337   0.409  14.135 -1.2737 -2.4832  0.1628
 2121SOL     OW17821   2.842   0.577   4.374  0.4149  0.2252 -0.7552
 2121SOL    HW117822   2.825   0.490   4.411  0.0459  0.2681 -0.8213
 2121SOL    HW217823   2.937   0.580   4.385  0.4221 -4.1650  0.3683
 2122SOL     OW17824   0.327   2.067  12.822 -0.3976  0.7703 -0.4246
 2122SOL    HW117825   0.389   2.016  12.875  0.7739  2.1100 -0.5383
 2122SOL    HW217826   0.378   2.139  12.786 -1.2901  0.8772 -1.4855
 2123SOL     OW17827   0.828   2.664   2.799  0.1831  0.1056 -0.5727
 2123SOL    HW117828   0.740   2.626   2.797  0.0164  0.4978 -0.6509
 2123SOL    HW217829   0.882   2.586   2.786 -1.1366 -1.0574  0.8843
 2124SOL     OW17830   0.695   4.381   2.839  0.2152 -0.5500  0.1987
 2124SOL    HW117831   0.605   4.391   2.807  0.6147  0.3080 -0.6871
 2124SOL    HW217832   0.713   4.465   2.882 -0.2318  0.2513 -1.1596
 2125SOL     OW17833   0.752   1.185   2.125 -0.4152  0.2275 -0.3017
 2125SOL    HW117834   0.789   1.256   2.177 -0.2659 -0.3055  0.3215
 2125SOL    HW217835   0.662   1.215   2.111 -1.3926 -1.8955  1.4138
 2126SOL     OW17836   4.104   2.835   8.590  0.3059 -0.7110  0.2445
 2126SOL    HW117837   4.122   2.888   8.668 -0.3530 -1.2779  0.7822
 2126SOL    HW217838   4.093   2.749   8.631 -0.0199 -1.2474 -0.9485
 2127SOL     OW17839   1.919   2.618   4.676  0.3591  0.0777 -0.4672
 2127SOL    HW117840   1.862   2.550   4.713 -0.7645  1.3553  0.1296
 2127SOL    HW217841   1.922   2.682   4.746  0.7130 -0.5741  0.1105
 2128SOL     OW17842   2.325   1.857   5.083  0.3003 -0.3880  0.7373
 2128SOL    HW117843   2.304   1.907   5.162 -0.8053  0.6714 -0.2033
 2128SOL    HW217844   2.416   1.883   5.073 -0.2287  1.6983  1.1643
 2129SOL     OW17845   1.438   1.629  13.052 -0.0487 -0.0162 -0.3290
 2129SOL    HW117846   1.434   1.571  13.127 -1.5258 -0.1847 -0.5483
 2129SOL    HW217847   1.534   1.634  13.051 -0.0328  0.1486  2.9732
 2130SOL     OW17848   3.467   2.447  14.425 -0.3104 -0.4328 -0.5865
 2130SOL    HW117849   3.561   2.461  14.441 -0.6110  1.2514 -0.3192
 2130SOL    HW217850   3.446   2.527  14.378 -0.0133  0.1693  0.2916
 2131SOL     OW17851   2.239   2.824   9.060 -0.0047  0.3523 -0.0008
 2131SOL    HW117852   2.204   2.799   9.145 -1.9183  1.7140 -0.4011
 2131SOL    HW217853   2.191   2.904   9.042  0.1834  0.5313  0.2955
 2132SOL     OW17854   1.444   4.610  11.173 -0.7114 -0.3478  0.2935
 2132SOL    HW117855   1.380   4.541  11.189 -0.6723 -0.2977  0.6684
 2132SOL    HW217856   1.470   4.644  11.259  1.5202  0.8417 -0.8419
 2133SOL     OW17857   1.421   4.401   9.527 -0.3190  0.1974 -0.0666
 2133SOL    HW117858   1.467   4.466   9.475  1.4373 -0.1497  1.0532
 2133SOL    HW217859   1.400   4.339   9.457  1.9844 -2.7603  1.8278
 2134SOL     OW17860   2.121   2.954   5.075 -0.1029  0.1209  0.0404
 2134SOL    HW117861   2.196   3.006   5.047  0.0368  0.0052  0.2005
 2134SOL    HW217862   2.096   3.016   5.143 -0.0305 -0.3574  0.5081
 2135SOL     OW17863   3.510   3.135  16.910 -0.5641 -0.4750  0.1086
 2135SOL    HW117864   3.475   3.208  16.963  1.1707  2.1004 -2.2943
 2135SOL    HW217865   3.558   3.079  16.970  1.0570 -0.4891 -1.2294
 2136SOL     OW17866   3.534   1.156  10.328 -0.8339 -0.1931 -0.1477
 2136SOL    HW117867   3.466   1.146  10.261 -1.3125 -1.0917  0.4792
 2136SOL    HW217868   3.584   1.077  10.308 -1.5851 -0.5187 -0.7528
 2137SOL     OW17869   0.540   4.178   2.179  0.4320 -0.6465  0.4184
 2137SOL    HW117870   0.498   4.092   2.175 -2.4041  0.7048  1.3405
 2137SOL    HW217871   0.602   4.167   2.107 -1.5049  0.3375 -1.3963
 2138SOL     OW17872   3.789   4.718  14.192  0.1638  1.0695 -0.3691
 2138SOL    HW117873   3.882   0.011  14.178  0.4949 -1.2873 -1.1248
 2138SOL    HW217874   3.764   0.079  14.226 -3.6818 -1.1410  2.2992
 2139SOL     OW17875   4.071   2.464   9.243  0.2187  0.7546  0.3283
 2139SOL    HW117876   3.987   2.438   9.206  1.4768  1.1049 -2.7569
 2139SOL    HW217877   4.099   2.527   9.177  2.2751  0.9172  1.3675
 2140SOL     OW17878   0.383   1.052  13.405  0.0437  0.1329 -0.2793
 2140SOL    HW117879   0.356   0.976  13.456  0.1232  0.5649  0.4105
 2140SOL    HW217880   0.400   1.011  13.320  1.2988  0.5913 -0.2378
 2141SOL     OW17881   3.124   1.907   6.837  0.2696  0.2079  0.5217
 2141SOL    HW117882   3.030   1.900   6.849 -0.0258 -0.3064 -2.1154
 2141SOL    HW217883   3.168   1.903   6.922  1.4561  2.4483  0.0221
 2142SOL     OW17884   3.868   2.297   7.973  0.3035  0.2113 -0.4958
 2142SOL    HW117885   3.776   2.308   7.949  0.0974  0.5730  0.4487
 2142SOL    HW217886   3.857   2.324   8.064  2.8816 -1.9547  0.4500
 2143SOL     OW17887   0.523   1.632   1.139 -0.3420 -0.0249  0.1693
 2143SOL    HW117888   0.537   1.606   1.048 -0.4139  0.6989 -0.0520
 2143SOL    HW217889   0.509   1.726   1.125 -0.8209  0.1813  1.9857
 2144SOL     OW17890   3.525   2.082   0.240 -0.0235 -0.2763 -0.2973
 2144SOL    HW117891   3.499   1.992   0.219  1.4820 -0.2374 -2.2763
 2144SOL    HW217892   3.466   2.135   0.186 -0.7104 -0.9623 -0.2266
 2145SOL     OW17893   3.909   2.484  14.948 -0.9653  0.0082 -0.5285
 2145SOL    HW117894   3.866   2.450  14.870  2.4531  0.9935 -2.8556
 2145SOL    HW217895   3.932   2.572  14.920  2.0129 -0.3104  0.8591
 2146SOL     OW17896   3.249   0.172   3.711 -0.0802  0.3293 -0.0232
 2146SOL    HW117897   3.277   0.107   3.646 -0.9439 -0.6347  0.5596
 2146SOL    HW217898   3.328   0.187   3.763 -0.0885 -0.6643  0.2825
 2147SOL     OW17899   4.092   0.320   5.500  0.4983 -0.7716  0.1185
 2147SOL    HW117900   4.078   0.314   5.406  0.9138 -1.3571  0.0905
 2147SOL    HW217901   4.068   0.229   5.520  1.9859 -1.2370 -0.1824
 2148SOL     OW17902   1.049   1.873   2.918  0.1303 -0.0568  0.8029
 2148SOL    HW117903   0.994   1.893   2.842 -0.1653 -0.6284  0.8615
 2148SOL    HW217904   1.060   1.961   2.951 -2.8039  0.4678  0.3795
 2149SOL     OW17905   3.511   3.246  13.990  0.0080  0.3194  0.0413
 2149SOL    HW117906   3.591   3.197  13.973 -0.2686 -0.5615  1.3081
 2149SOL    HW217907   3.443   3.184  14.017 -0.3491 -0.5717 -2.8396
 2150SOL     OW17908   2.570   4.294   8.366 -0.2221  0.2752 -0.4961
 2150SOL    HW117909   2.651   4.335   8.396 -0.8500  0.9455  0.2797
 2150SOL    HW217910   2.598   4.203   8.378 -0.3965  0.3246  0.2646
 2151SOL     OW17911   1.790   0.253   3.654 -0.1586 -1.0137  0.0256
 2151SOL    HW117912   1.798   0.249   3.559 -1.3094  1.5683 -0.2010
 2151SOL    HW217913   1.734   0.178   3.672 -1.7975  0.5893  1.6764
 2152SOL     OW17914   2.470   4.356   5.968  0.1508 -0.4952 -0.0849
 2152SOL    HW117915   2.535   4.387   6.031 -0.8908  2.0696 -0.2545
 2152SOL    HW217916   2.495   4.265   5.958 -3.0561 -1.3450 -0.4709
 2153SOL     OW17917   4.624   0.381   6.121  0.2067 -0.4416 -0.4212
 2153SOL    HW117918   4.648   0.390   6.029 -2.8134 -0.0778 -1.1493
 2153SOL    HW217919   4.618   0.286   6.123 -2.2396 -0.2500  0.8676
 2154SOL     OW17920   3.809   1.474   5.617 -0.1879  0.6472 -0.4811
 2154SOL    HW117921   3.879   1.439   5.562  0.6430  2.6308 -0.7162
 2154SOL    HW217922   3.774   1.398   5.663 -0.8714  0.6934 -0.9344
 2155SOL     OW17923   1.223   1.841   3.223  0.3638 -0.4363 -0.5115
 2155SOL    HW117924   1.212   1.869   3.314 -2.8746 -0.9737 -0.7446
 2155SOL    HW217925   1.235   1.930   3.188  0.0649 -1.1607 -2.4477
 2156SOL     OW17926   0.210   3.256   4.062  0.3317 -0.9573  0.4872
 2156SOL    HW117927   0.219   3.191   3.992  1.0013  0.5952 -0.8592
 2156SOL    HW217928   0.115   3.255   4.075  0.4583  1.8800  1.5775
 2157SOL     OW17929   4.322   2.969   0.963 -0.4887 -0.6217  1.0883
 2157SOL    HW117930   4.260   2.896   0.969  0.6482 -1.8258 -1.6688
 2157SOL    HW217931   4.350   2.964   0.871 -0.6842 -0.1538  1.0054
 2158SOL     OW17932   4.617   2.748   6.396  0.1748 -0.6109 -0.1324
 2158SOL    HW117933   4.608   2.737   6.491  1.3880  0.2615  0.0827
 2158SOL    HW217934   4.683   2.816   6.410 -1.1252  0.5412  0.3708
 2159SOL     OW17935   2.306   3.592   6.139  0.1233 -0.1075 -0.3784
 2159SOL    HW117936   2.312   3.583   6.235  0.0059 -0.8189 -0.4392
 2159SOL    HW217937   2.273   3.682   6.141  0.4404 -0.0589  2.9253
 2160SOL     OW17938   1.279   3.147  13.011  0.1696  0.0594  0.6199
 2160SOL    HW117939   1.265   3.066  12.962 -4.8149 -0.4969  2.9025
 2160SOL    HW217940   1.372   3.154  13.033 -0.1236 -2.6794  2.7134
 2161SOL     OW17941   0.259   2.780   8.454  0.6463 -0.2512 -0.0556
 2161SOL    HW117942   0.351   2.763   8.434  1.0076 -0.9139  2.1072
 2161SOL    HW217943   0.267   2.845   8.525  0.5217 -0.5772  0.2578
 2162SOL     OW17944   0.618   2.795   1.209 -0.0569 -0.0592 -0.5060
 2162SOL    HW117945   0.596   2.717   1.157  1.8452 -1.4699  0.8064
 2162SOL    HW217946   0.591   2.866   1.152  0.1031  1.4612  1.3064
 2163SOL     OW17947   2.365   0.869   0.900  0.1996 -0.1121 -0.0816
 2163SOL    HW117948   2.270   0.864   0.912  0.2041  0.7348  0.3223
 2163SOL    HW217949   2.383   0.786   0.856 -0.6240 -0.7379  0.7449
 2164SOL     OW17950   4.666   2.559   3.558 -0.1213 -0.0521  0.2525
 2164SOL    HW117951   0.020   2.529   3.513  0.7056  1.8443  0.4370
 2164SOL    HW217952   4.679   2.525   3.647 -1.7043  0.8769  0.8422
 2165SOL     OW17953   3.020   4.231  11.008  0.1681  0.0319  0.6627
 2165SOL    HW117954   3.020   4.318  11.048  1.8151  0.8528 -1.1583
 2165SOL    HW217955   3.110   4.204  11.026  1.1012  0.8077 -2.9821
 2166SOL     OW17956   4.077   3.301  15.566  0.2559 -0.0663  0.1507
 2166SOL    HW117957   3.991   3.260  15.575 -0.7092  2.2894  1.5721
 2166SOL    HW217958   4.137   3.243  15.519  0.4235 -0.0892  0.3904
 2167SOL     OW17959   4.613   4.382   3.418 -0.3487 -0.8053 -0.2656
 2167SOL    HW117960   4.524   4.415   3.418  0.3378  1.0592  0.7468
 2167SOL    HW217961   4.621   4.347   3.329  0.6108 -1.0937 -0.0699
 2168SOL     OW17962   0.048   1.668   2.527  0.9358  0.1040  0.4368
 2168SOL    HW117963   0.108   1.741   2.516 -0.4371  1.5018  2.2664
 2168SOL    HW217964   0.104   1.601   2.488 -0.6236 -0.3905 -0.9686
 2169SOL     OW17965   4.582   1.431   1.439 -1.0251  0.4041  0.4894
 2169SOL    HW117966   4.521   1.402   1.371 -1.6414 -1.5564  1.8792
 2169SOL    HW217967   4.664   1.446   1.393 -1.8332  0.8344 -0.8229
 2170SOL     OW17968   1.139   3.920   3.452 -0.3504  0.0439 -0.2267
 2170SOL    HW117969   1.126   3.875   3.369  2.0790 -1.7502  0.3511
 2170SOL    HW217970   1.234   3.913   3.463 -0.3710  0.3683  0.1528
 2171SOL     OW17971   1.428   3.703   2.701  0.1402  0.5468 -0.2878
 2171SOL    HW117972   1.505   3.732   2.750  2.3039 -0.5316 -3.1036
 2171SOL    HW217973   1.400   3.785   2.660  0.4445 -1.3475 -4.2812
 2172SOL     OW17974   4.244   4.669  16.951  0.4093  0.0920 -0.2559
 2172SOL    HW117975   4.317   4.649  16.892 -0.7263 -1.2863 -1.2104
 2172SOL    HW217976   4.182   4.717  16.896  1.3664  1.2174 -0.3346
 2173SOL     OW17977   3.198   1.055   3.146 -0.1927  0.3932  0.1299
 2173SOL    HW117978   3.136   1.071   3.075 -0.9741  1.9407  1.1344
 2173SOL    HW217979   3.267   1.108   3.107 -1.2711  2.2933  0.8029
 2174SOL     OW17980   0.355   2.532   3.746  0.7587  0.4825 -0.2949
 2174SOL    HW117981   0.366   2.467   3.816  1.7458  1.9448  0.9122
 2174SOL    HW217982   0.439   2.520   3.702  1.5900  0.9201  1.1512
 2175SOL     OW17983   2.172   0.019   8.965  0.3264  0.1352 -0.4975
 2175SOL    HW117984   2.134   0.106   8.978 -0.3292 -0.1788 -0.3069
 2175SOL    HW217985   2.159   4.710   9.054 -2.1639  0.7975 -0.5992
 2176SOL     OW17986   2.908   1.359   2.833 -0.3233  0.2821 -0.1305
 2176SOL    HW117987   2.905   1.454   2.822  0.0069  0.1003 -1.9128
 2176SOL    HW217988   2.937   1.337   2.744  2.6564 -1.5703  1.3203
 2177SOL     OW17989   1.658   0.059   9.490 -0.5077 -0.9606  0.0524
 2177SOL    HW117990   1.721   0.100   9.550  0.2684  0.3830 -1.6724
 2177SOL    HW217991   1.578   0.070   9.541 -0.9334 -1.3351 -0.5521
 2178SOL     OW17992   2.997   0.034   6.640 -0.7414  0.6143 -0.8294
 2178SOL    HW117993   2.921   4.703   6.626  1.0856 -2.0013 -0.1670
 2178SOL    HW217994   3.031   0.007   6.726  0.9081  0.4248 -1.5474
 2179SOL     OW17995   4.345   3.225   1.787 -0.3428  0.4727  0.7879
 2179SOL    HW117996   4.264   3.218   1.737  0.8854  0.5658 -1.2514
 2179SOL    HW217997   4.371   3.133   1.799  0.3383  0.7727  1.5614
 2180SOL     OW17998   0.557   2.504   9.907  0.1813 -0.3009 -0.0124
 2180SOL    HW117999   0.520   2.587   9.938  1.2169 -0.3700  1.3841
 2180SOL    HW218000   0.593   2.472   9.990  0.4785  1.5794  0.5969
 2181SOL     OW18001   0.813   3.208   8.190  0.0483 -0.1004  0.3745
 2181SOL    HW118002   0.729   3.166   8.169  1.1254 -1.1325 -1.7722
 2181SOL    HW218003   0.814   3.199   8.285  0.2770  0.0013  0.3821
 2182SOL     OW18004   3.255   0.526   7.645  0.3096  0.4364  0.6368
 2182SOL    HW118005   3.181   0.485   7.600  2.1489 -0.6174 -1.3949
 2182SOL    HW218006   3.216   0.538   7.732  0.3363  0.0892  0.6951
 2183SOL     OW18007   2.982   4.579   5.066  0.2038  0.1716  0.1996
 2183SOL    HW118008   3.027   4.511   5.116 -0.4415 -0.4088 -0.0106
 2183SOL    HW218009   3.043   4.652   5.070  0.2124  0.1282  0.8220
 2184SOL     OW18010   4.667   0.563   6.618  0.2264  0.5077  0.0358
 2184SOL    HW118011   4.579   0.596   6.602 -0.2667 -1.0976 -0.4733
 2184SOL    HW218012   4.653   0.555   6.713 -0.9915  0.3089 -0.1746
 2185SOL     OW18013   4.605   4.579  14.660  0.0810  0.4852 -0.1129
 2185SOL    HW118014   4.621   4.673  14.675  2.1304  0.1092  0.0194
 2185SOL    HW218015   4.668   4.569  14.588 -0.1008 -1.6292  0.0410
 2186SOL     OW18016   1.773   0.787   2.625 -0.1847 -0.3728 -0.2062
 2186SOL    HW118017   1.712   0.800   2.698  2.0163  0.7046  1.4443
 2186SOL    HW218018   1.747   0.862   2.572 -0.8001 -0.2255  0.2982
 2187SOL     OW18019   1.610   3.683   1.517 -0.0587 -0.4602  0.0438
 2187SOL    HW118020   1.646   3.605   1.559 -1.3875 -1.0344  0.1043
 2187SOL    HW218021   1.679   3.710   1.456 -0.5059  0.5998  0.0112
 2188SOL     OW18022   3.282   3.705   3.858  0.5587 -0.2106 -0.6150
 2188SOL    HW118023   3.282   3.614   3.888 -1.1147  0.3364  0.9920
 2188SOL    HW218024   3.374   3.724   3.841  0.9533 -1.1574  0.3991
 2189SOL     OW18025   3.461   1.632  17.614  0.0319  0.3200  0.1218
 2189SOL    HW118026   3.457   1.607  17.521 -1.6654  0.0171  0.2813
 2189SOL    HW218027   3.521   1.706  17.603 -0.8159  0.9777 -0.0329
 2190SOL     OW18028   0.800   2.200   2.070  0.0124 -0.3819  0.1870
 2190SOL    HW118029   0.741   2.224   1.998  0.2332 -0.6605 -0.0838
 2190SOL    HW218030   0.752   2.220   2.150 -1.4295  0.2971 -0.8378
 2191SOL     OW18031   0.576   0.194   7.124 -0.3301  0.7295 -0.4364
 2191SOL    HW118032   0.487   0.166   7.143  0.5502 -0.8193  1.3414
 2191SOL    HW218033   0.572   0.278   7.078  0.1978  1.2978  0.5480
 2192SOL     OW18034   2.964   1.162  16.448  0.0459 -0.4392  0.5327
 2192SOL    HW118035   2.923   1.149  16.534 -1.7433  0.9182 -0.1137
 2192SOL    HW218036   3.054   1.181  16.474  0.4310 -0.3990 -0.8507
 2193SOL     OW18037   0.039   3.388   7.428 -0.5294  0.4136  0.2891
 2193SOL    HW118038   4.717   3.397   7.511 -1.2049 -3.6506  0.3416
 2193SOL    HW218039   0.087   3.471   7.421  1.0367 -0.5650 -0.5216
 2194SOL     OW18040   1.635   3.448   2.024 -0.1880  0.3090  0.3682
 2194SOL    HW118041   1.619   3.405   2.108 -1.4372  0.8100  0.3896
 2194SOL    HW218042   1.726   3.424   2.010  0.2311  1.5456  0.9844
 2195SOL     OW18043   3.318   1.370   3.918 -0.6215 -0.0500  0.1851
 2195SOL    HW118044   3.246   1.371   3.982 -1.3055  2.2881 -0.6193
 2195SOL    HW218045   3.370   1.297   3.951 -0.6641 -0.2708 -0.2351
 2196SOL     OW18046   0.917   1.867   1.143 -0.2429 -0.5862 -0.3400
 2196SOL    HW118047   0.974   1.798   1.110 -0.3125 -0.3206 -1.0115
 2196SOL    HW218048   0.860   1.882   1.067  1.8167  0.4635 -1.6526
 2197SOL     OW18049   3.957   4.272   0.551 -0.0944 -0.4528  0.0170
 2197SOL    HW118050   3.943   4.280   0.457  1.0225  2.0995  0.0606
 2197SOL    HW218051   3.926   4.186   0.578  0.4324 -0.1932  1.4412
 2198SOL     OW18052   0.956   3.423   8.175 -0.2087 -0.5608  0.6980
 2198SOL    HW118053   0.912   3.339   8.188  0.4976 -0.9675  0.5201
 2198SOL    HW218054   0.893   3.469   8.120 -0.0341  0.6641  1.5200
 2199SOL     OW18055   1.687   3.015   6.175 -0.3295  0.3383  0.3093
 2199SOL    HW118056   1.660   3.085   6.235  1.5023  0.5981  0.8160
 2199SOL    HW218057   1.781   3.009   6.193 -0.8957 -1.0855  2.8543
 2200SOL     OW18058   0.470   1.304   1.729  0.2810 -0.2019 -0.1459
 2200SOL    HW118059   0.485   1.377   1.789 -1.7898  1.9437 -2.2227
 2200SOL    HW218060   0.387   1.334   1.691  0.6240  1.5925  0.5312
 2201SOL     OW18061   4.332   4.542  14.510 -0.3973 -0.2334 -0.1970
 2201SOL    HW118062   4.350   4.458  14.466 -2.1438  0.4411 -2.2290
 2201SOL    HW218063   4.236   4.536  14.509 -0.6116  3.1851  0.7028
 2202SOL     OW18064   1.921   4.314   9.964  0.1091  0.1891  0.2794
 2202SOL    HW118065   1.829   4.336   9.984  0.0880  1.1613 -0.9120
 2202SOL    HW218066   1.907   4.310   9.870 -0.9038  1.4898  0.3670
 2203SOL     OW18067   3.417   1.327   1.993 -0.0309 -0.0436  0.1501
 2203SOL    HW118068   3.463   1.242   1.997  0.2694  0.1351  0.4508
 2203SOL    HW218069   3.365   1.312   1.914  1.2951 -1.7769 -0.4111
 2204SOL     OW18070   1.801   1.222   3.659  0.3100  0.1717  0.6788
 2204SOL    HW118071   1.834   1.285   3.724  2.2585 -0.0978 -0.0608
 2204SOL    HW218072   1.877   1.164   3.662  0.7761  0.7508  0.0226
 2205SOL     OW18073   2.052   1.148   2.783 -0.1487 -0.1710 -0.1350
 2205SOL    HW118074   2.097   1.119   2.862 -0.4919 -0.3859 -0.0171
 2205SOL    HW218075   2.034   1.070   2.731 -1.4193 -1.3805  2.0939
 2206SOL     OW18076   1.808   2.161  12.862 -0.4591 -0.4074  0.2089
 2206SOL    HW118077   1.733   2.102  12.874 -0.0032 -0.5869  2.2275
 2206SOL    HW218078   1.836   2.142  12.773 -2.1957 -1.9673  0.0028
 2207SOL     OW18079   3.532   3.617  11.892 -0.1344 -0.0240 -0.4239
 2207SOL    HW118080   3.602   3.656  11.944 -1.1297 -0.3268  1.1353
 2207SOL    HW218081   3.462   3.598  11.954  0.9874 -3.5757 -0.2630
 2208SOL     OW18082   1.988   3.814  11.060 -0.0700 -0.2920  0.0364
 2208SOL    HW118083   2.002   3.868  10.982 -1.6747 -3.3539 -2.3838
 2208SOL    HW218084   2.040   3.738  11.034 -0.3186  0.0618 -1.5056
 2209SOL     OW18085   2.916   1.743   2.016 -0.6631  0.4358  0.3918
 2209SOL    HW118086   3.005   1.771   1.995  0.6447 -2.0065  2.6134
 2209SOL    HW218087   2.900   1.694   1.935  1.6913  0.5930 -0.1768
 2210SOL     OW18088   2.823   2.191   4.662 -0.0079  0.1455  0.1304
 2210SOL    HW118089   2.826   2.192   4.567  3.0830  1.8531  0.2623
 2210SOL    HW218090   2.810   2.282   4.688  1.6209  0.5017 -0.3011
 2211SOL     OW18091   3.520   3.626   1.308  0.1604  0.4064  0.4511
 2211SOL    HW118092   3.470   3.556   1.264  0.6693  0.1692  0.2468
 2211SOL    HW218093   3.524   3.699   1.246 -2.5776 -1.5482 -2.0439
 2212SOL     OW18094   4.165   4.321   4.763  0.1092  0.0086 -0.4349
 2212SOL    HW118095   4.238   4.333   4.703 -1.3508  0.5007 -2.1224
 2212SOL    HW218096   4.202   4.256   4.823  0.0642 -0.2635 -0.7010
 2213SOL     OW18097   0.064   3.603   9.388 -0.3229 -0.0133 -0.1386
 2213SOL    HW118098   0.021   3.614   9.473 -1.0460 -1.6035 -0.2959
 2213SOL    HW218099   0.156   3.627   9.402 -0.4339  0.3826 -0.0836
 2214SOL     OW18100   3.952   2.597   8.148  0.1593  0.4682  0.5412
 2214SOL    HW118101   3.957   2.672   8.207  2.5018  0.6063  0.1684
 2214SOL    HW218102   3.896   2.532   8.188  1.3361 -0.1600  1.1678
 2215SOL     OW18103   3.987   1.704   9.570  0.0034 -0.6690 -0.7075
 2215SOL    HW118104   4.002   1.687   9.477  1.7890  1.3484 -0.7758
 2215SOL    HW218105   3.898   1.737   9.558  0.0862 -0.1708  0.0853
 2216SOL     OW18106   0.264   0.900  17.333  0.1084  1.1506 -0.0510
 2216SOL    HW118107   0.272   0.969  17.268  0.4266  0.5114 -0.6982
 2216SOL    HW218108   0.230   0.951  17.406  1.2661  0.4030  1.0236
 2217SOL     OW18109   4.663   4.315  14.838  0.4029 -0.2545  0.0271
 2217SOL    HW118110   4.618   4.232  14.854  2.8985 -1.4036  1.1595
 2217SOL    HW218111   4.614   4.353  14.765  1.0835  2.1868  0.8531
 2218SOL     OW18112   1.705   3.071   3.214  0.4133  0.2906  0.1298
 2218SOL    HW118113   1.712   3.103   3.124 -1.0650 -0.7835 -0.3633
 2218SOL    HW218114   1.749   2.987   3.202 -0.7481 -0.1319 -1.0575
 2219SOL     OW18115   4.515   3.694   4.714  0.0143 -0.6128  0.3193
 2219SOL    HW118116   4.591   3.692   4.773  0.2186 -1.2532  0.0296
 2219SOL    HW218117   4.558   3.689   4.629 -0.9994  2.7280 -0.4103
 2220SOL     OW18118   0.108   3.116   2.650 -0.3305 -0.3592  0.2911
 2220SOL    HW118119   0.075   3.080   2.733 -1.0714 -1.1623 -0.3420
 2220SOL    HW218120   0.107   3.207   2.679 -0.7924 -0.8351  1.8020
 2221SOL     OW18121   3.228   4.013  15.505  0.2419  0.4498  0.0672
 2221SOL    HW118122   3.283   4.083  15.539  0.3702  0.4315 -0.1014
 2221SOL    HW218123   3.197   4.063  15.430 -0.3693 -0.6439 -0.4098
 2222SOL     OW18124   1.683   0.841   4.410  0.3339 -0.1690  0.0982
 2222SOL    HW118125   1.766   0.798   4.388 -1.1705 -2.2480 -1.5484
 2222SOL    HW218126   1.706   0.886   4.491  0.7771 -1.1997  0.5522
 2223SOL     OW18127   3.077   1.135   7.995  0.1269 -0.4204 -0.1438
 2223SOL    HW118128   3.050   1.046   8.017 -1.5640 -0.0497 -0.7155
 2223SOL    HW218129   3.153   1.159   8.048  0.1642 -0.5278 -0.1498
 2224SOL     OW18130   1.781   2.311   3.599  0.2492  0.1879 -0.4501
 2224SOL    HW118131   1.840   2.327   3.673  0.6572 -0.6460 -0.6021
 2224SOL    HW218132   1.832   2.251   3.545  0.1674 -0.0805 -0.2250
 2225SOL     OW18133   2.513   4.275   5.532 -0.2404  0.0359  0.4539
 2225SOL    HW118134   2.560   4.357   5.515  0.0728 -0.4076 -0.8669
 2225SOL    HW218135   2.588   4.217   5.539 -0.5786 -0.2530  1.6190
 2226SOL     OW18136   1.841   3.685   0.341 -0.1600 -0.4711 -0.0944
 2226SOL    HW118137   1.781   3.668   0.413  0.8853  0.3427  0.9615
 2226SOL    HW218138   1.864   3.775   0.365  0.6993 -0.9721  0.9353
 2227SOL     OW18139   1.388   4.195  11.399  0.0960 -0.1908 -0.0892
 2227SOL    HW118140   1.440   4.116  11.383 -0.3090 -0.4100 -0.3270
 2227SOL    HW218141   1.303   4.158  11.423  1.2754 -0.0826  4.2625
 2228SOL     OW18142   4.333   4.558   3.681 -0.4830  0.2162  0.5282
 2228SOL    HW118143   4.323   4.647   3.648  0.6407  0.3850  0.6265
 2228SOL    HW218144   4.429   4.550   3.689 -0.5541 -1.6447 -0.3761
 2229SOL     OW18145   4.474   3.300   6.288 -0.3031  0.0214 -0.2483
 2229SOL    HW118146   4.394   3.347   6.264 -1.4810 -2.4454 -1.2017
 2229SOL    HW218147   4.523   3.298   6.206 -0.3763  1.2686 -0.3212
 2230SOL     OW18148   3.323   1.307   0.533  0.5770 -0.1804 -0.2234
 2230SOL    HW118149   3.250   1.328   0.592  1.7292  2.9185  0.1104
 2230SOL    HW218150   3.327   1.387   0.481  1.7735  0.2585  0.5447
 2231SOL     OW18151   0.446   3.925   8.237 -0.2660 -0.2269 -0.0331
 2231SOL    HW118152   0.434   3.990   8.168 -0.9598  0.1169  0.4020
 2231SOL    HW218153   0.541   3.919   8.244 -0.6124 -1.9937  3.3043
 2232SOL     OW18154   2.503   4.288  12.563 -0.2894 -0.6522 -0.7312
 2232SOL    HW118155   2.510   4.384  12.560 -4.6816 -0.2832 -0.3130
 2232SOL    HW218156   2.548   4.260  12.484  0.7396  0.8408 -0.6756
 2233SOL     OW18157   2.931   0.911   5.136  0.3954 -0.5419 -0.4206
 2233SOL    HW118158   3.012   0.962   5.134  0.0817 -0.0474 -0.4302
 2233SOL    HW218159   2.957   0.825   5.102  2.2589  0.2429 -0.9606
 2234SOL     OW18160   0.322   1.928  10.951 -0.1597  0.0618  0.2393
 2234SOL    HW118161   0.310   2.006  11.005 -0.4164 -0.7343  1.3455
 2234SOL    HW218162   0.236   1.914  10.913  0.3696 -1.5323 -0.3829
 2235SOL     OW18163   2.900   0.463   1.005  0.7708 -0.1489 -0.2580
 2235SOL    HW118164   2.987   0.482   1.038  0.7509 -2.1681  0.9255
 2235SOL    HW218165   2.851   0.538   1.039  0.4184  0.1065 -1.3071
 2236SOL     OW18166   0.894   1.649   2.505  0.4144  0.3797  0.5063
 2236SOL    HW118167   0.865   1.600   2.582 -1.1115 -0.8466 -0.8430
 2236SOL    HW218168   0.811   1.689   2.479  0.7296  1.1937  0.7583
 2237SOL     OW18169   2.576   3.671   8.387  0.4696  0.3340 -0.2863
 2237SOL    HW118170   2.665   3.680   8.420 -0.5313 -1.7605  3.0417
 2237SOL    HW218171   2.548   3.596   8.440 -2.7591  1.8849  0.2127
 2238SOL     OW18172   1.744   3.744   2.124 -0.2579 -0.8359  0.0221
 2238SOL    HW118173   1.757   3.715   2.034 -1.5777  1.8288 -1.0288
 2238SOL    HW218174   1.658   3.785   2.121  0.2735  0.2509 -0.0117
 2239SOL     OW18175   3.568   0.473  14.067 -0.0313  0.8490 -0.3128
 2239SOL    HW118176   3.617   0.554  14.051  3.0332 -0.6943  1.1294
 2239SOL    HW218177   3.574   0.438  13.978  1.0919  2.5395 -0.9271
 2240SOL     OW18178   2.939   1.921   1.685  0.5799 -0.2497 -0.1844
 2240SOL    HW118179   2.933   1.892   1.594  0.6681  0.0880 -0.2962
 2240SOL    HW218180   2.879   1.860   1.729 -1.7428  1.5285 -0.8827
 2241SOL     OW18181   2.273   0.026   4.525 -0.4851 -0.1504 -0.3882
 2241SOL    HW118182   2.280   0.117   4.496 -1.9488 -0.4149 -1.5662
 2241SOL    HW218183   2.188   4.719   4.494 -0.4348 -2.0393  1.3663
 2242SOL     OW18184   4.320   3.061   3.281 -0.0710  0.2582  0.0213
 2242SOL    HW118185   4.233   3.100   3.283 -0.1221  0.1142  0.7786
 2242SOL    HW218186   4.332   3.049   3.187 -1.4685 -2.6636  0.2018
 2243SOL     OW18187   0.068   3.997   3.105 -0.1171 -0.0829 -0.0572
 2243SOL    HW118188   0.114   4.053   3.167  0.4453 -1.5169  0.8276
 2243SOL    HW218189   4.710   3.971   3.146  0.3641 -0.0440  0.9478
 2244SOL     OW18190   2.026   1.944   6.718  0.2319  0.4847 -0.2993
 2244SOL    HW118191   1.937   1.909   6.723  0.6649 -0.5754  0.1009
 2244SOL    HW218192   2.075   1.863   6.702  1.0527  1.5469 -3.0233
 2245SOL     OW18193   4.622   3.608   0.064  0.1888  0.0014 -0.4215
 2245SOL    HW118194   4.656   3.591   0.152 -1.0808 -1.7703 -0.2613
 2245SOL    HW218195   4.650   3.524   0.027  0.2063 -0.2106  0.0714
 2246SOL     OW18196   1.587   3.658   4.725 -0.2033  0.2246  0.7970
 2246SOL    HW118197   1.580   3.599   4.800  1.4562 -1.5203 -0.4171
 2246SOL    HW218198   1.654   3.719   4.756  0.7760 -0.3734 -0.1197
 2247SOL     OW18199   1.201   3.946   7.485 -0.2970 -0.0110  0.1963
 2247SOL    HW118200   1.151   4.026   7.500 -0.4399 -0.3272  1.4671
 2247SOL    HW218201   1.140   3.891   7.436 -0.8621  0.5193  0.3174
 2248SOL     OW18202   0.121   0.748   3.067  0.5322  0.0833  0.1556
 2248SOL    HW118203   0.027   0.764   3.073  0.8455  1.8841  0.4841
 2248SOL    HW218204   0.122   0.661   3.107 -2.4284 -0.1782 -0.3838
 2249SOL     OW18205   1.980   1.779   3.729 -0.4103 -0.0163 -0.2551
 2249SOL    HW118206   1.913   1.719   3.763  0.5080 -0.4628  0.7427
 2249SOL    HW218207   2.040   1.723   3.681 -0.9639 -0.1627 -0.7729
 2250SOL     OW18208   3.109   1.003  12.193  0.2305  0.0751 -0.2954
 2250SOL    HW118209   3.181   0.986  12.253  0.0556  0.5751  0.0590
 2250SOL    HW218210   3.144   1.085  12.156  0.7397  0.7855  1.8046
 2251SOL     OW18211   0.718   1.863  13.289  0.0746  0.4337 -0.2840
 2251SOL    HW118212   0.796   1.830  13.335  1.0557  0.7456 -1.7342
 2251SOL    HW218213   0.655   1.814  13.342 -0.0117 -0.8086 -1.5463
 2252SOL     OW18214   0.030   3.674   4.429 -0.2804  0.1408  0.2736
 2252SOL    HW118215   0.073   3.707   4.350 -1.1036 -1.3619 -0.8056
 2252SOL    HW218216   0.098   3.619   4.468 -0.8866 -0.7759  0.0370
 2253SOL     OW18217   0.691   4.508  10.702  0.4026 -0.1688 -0.1077
 2253SOL    HW118218   0.649   4.483  10.619 -0.1967 -0.2020  0.2069
 2253SOL    HW218219   0.781   4.512  10.669  0.5790  0.2775  0.4266
 2254SOL     OW18220   3.130   1.479   0.699 -0.7734  0.5712  0.7170
 2254SOL    HW118221   3.079   1.526   0.632  0.9227  0.6304 -0.5345
 2254SOL    HW218222   3.165   1.554   0.747 -0.2672  1.6727 -1.3428
 2255SOL     OW18223   3.272   4.597   6.833 -0.1201 -0.0207  0.6978
 2255SOL    HW118224   3.316   4.665   6.782 -0.2713 -2.0372 -2.1069
 2255SOL    HW218225   3.270   4.523   6.772  0.7228  1.4902 -1.1207
 2256SOL     OW18226   4.031   3.529   8.984  0.0916  0.6965  0.3867
 2256SOL    HW118227   4.116   3.565   9.009  0.5040 -0.4530  0.6429
 2256SOL    HW218228   3.975   3.569   9.051  0.7418  1.1638  0.6485
 2257SOL     OW18229   2.106   4.209  17.445  0.0173 -0.5404  0.1112
 2257SOL    HW118230   2.016   4.194  17.472  0.3929 -1.4448  0.8342
 2257SOL    HW218231   2.141   4.121  17.439 -0.8070 -0.7027 -2.2609
 2258SOL     OW18232   3.211   2.872   7.303 -0.2074  0.1119  0.1709
 2258SOL    HW118233   3.206   2.789   7.350  1.7137  0.3823  0.8463
 2258SOL    HW218234   3.122   2.906   7.312  0.4748  1.4041  1.8798
 2259SOL     OW18235   2.920   0.727   1.338  1.0999  0.2647  0.1559
 2259SOL    HW118236   2.873   0.696   1.260  0.7619 -2.3979  1.3958
 2259SOL    HW218237   2.999   0.673   1.335  0.6644 -0.2998 -0.9126
 2260SOL     OW18238   2.441   1.945   9.947 -0.1683 -0.3820  0.0106
 2260SOL    HW118239   2.351   1.915   9.938  0.4309 -2.4067  0.8214
 2260SOL    HW218240   2.496   1.866   9.944  0.9073  0.3359  0.8163
 2261SOL     OW18241   0.873   1.141   6.829 -0.4009  0.3848 -0.0274
 2261SOL    HW118242   0.778   1.141   6.844 -0.1868 -0.6575  1.2410
 2261SOL    HW218243   0.907   1.087   6.900  1.0198  1.3721  0.0298
 2262SOL     OW18244   4.110   0.673   2.807  0.4751  0.2345 -0.0726
 2262SOL    HW118245   4.109   0.732   2.732  1.2006  1.1284  0.6211
 2262SOL    HW218246   4.093   0.735   2.878 -1.8450 -0.1565 -0.2880
 2263SOL     OW18247   1.076   4.422   1.880 -0.2994  0.0675 -0.1173
 2263SOL    HW118248   1.028   4.396   1.958 -1.5195  1.7244 -0.3187
 2263SOL    HW218249   1.034   4.505   1.855  1.4768 -0.5029 -5.0257
 2264SOL     OW18250   4.619   2.867  15.475 -0.0424  0.0914  0.1429
 2264SOL    HW118251   4.699   2.903  15.514  0.4558 -1.8479  0.8965
 2264SOL    HW218252   4.659   2.797  15.423 -0.6205  0.0258 -0.2120
 2265SOL     OW18253   0.715   4.051   3.198 -0.2832  0.0790  0.5134
 2265SOL    HW118254   0.779   4.106   3.153 -0.3801 -0.2817 -0.0778
 2265SOL    HW218255   0.633   4.099   3.186  0.1152  0.2836 -1.4802
 2266SOL     OW18256   4.650   3.907   2.156  0.6224  0.2988  0.3333
 2266SOL    HW118257   4.615   3.974   2.214  1.8006 -1.0545  2.6078
 2266SOL    HW218258   4.604   3.933   2.076  2.9377 -0.9823 -1.4022
 2267SOL     OW18259   0.497   1.724   8.447 -0.1825  0.6122  0.4525
 2267SOL    HW118260   0.569   1.685   8.495 -0.8956 -0.9552  0.2318
 2267SOL    HW218261   0.493   1.809   8.491  1.1891  0.8920  0.0390
 2268SOL     OW18262   3.051   4.674  13.212  0.8637  0.1486 -0.1529
 2268SOL    HW118263   3.020   0.002  13.285  1.2110  0.8481 -0.5124
 2268SOL    HW218264   3.026   4.583  13.225  3.7412 -0.4501  1.2211
 2269SOL     OW18265   1.367   0.294   5.278 -0.2022  0.3913 -0.0320
 2269SOL    HW118266   1.458   0.322   5.266 -0.6768  1.6795 -0.5595
 2269SOL    HW218267   1.375   0.249   5.362 -1.7023  2.7684  1.3799
 2270SOL     OW18268   2.546   0.882   8.556 -0.2486  0.4263 -0.4483
 2270SOL    HW118269   2.513   0.802   8.515  1.6729 -0.6378  0.0933
 2270SOL    HW218270   2.546   0.935   8.477  0.1482  1.4185  0.2212
 2271SOL     OW18271   1.956   0.104  10.202  0.5664  0.1073 -0.2779
 2271SOL    HW118272   1.957   0.140  10.114  2.0174 -1.5700 -0.9285
 2271SOL    HW218273   2.048   0.077  10.195  0.5214  0.0180 -0.5040
 2272SOL     OW18274   2.744   0.989   4.204 -0.6489 -0.0330 -0.1843
 2272SOL    HW118275   2.667   0.988   4.261 -0.7547  0.3184 -0.3218
 2272SOL    HW218276   2.746   1.081   4.180 -0.5383  0.7654  2.8541
 2273SOL     OW18277   3.667   1.142  14.222  0.3123 -0.3800 -0.1739
 2273SOL    HW118278   3.737   1.078  14.210  0.6460  0.4322 -2.6405
 2273SOL    HW218279   3.680   1.207  14.152  1.0720  1.7671  1.9562
 2274SOL     OW18280   0.971   0.514   6.600  0.6181 -0.0681  0.0004
 2274SOL    HW118281   0.951   0.571   6.675 -3.0287  1.3676 -2.0745
 2274SOL    HW218282   0.960   0.427   6.638 -0.0489 -1.1539 -2.7194
 2275SOL     OW18283   2.883   4.363   8.966 -0.0120  0.2469  0.0927
 2275SOL    HW118284   2.814   4.393   9.026  1.3326  0.1730  1.6927
 2275SOL    HW218285   2.859   4.270   8.973  0.9666 -0.1146 -1.3519
 2276SOL     OW18286   2.520   2.335   1.197  0.3415  0.0424 -0.1727
 2276SOL    HW118287   2.526   2.418   1.243  0.4942  0.2841 -0.6357
 2276SOL    HW218288   2.457   2.357   1.128 -0.5712 -0.2982  0.5547
 2277SOL     OW18289   1.319   3.784   2.985  0.5459 -0.0065  0.1644
 2277SOL    HW118290   1.364   3.850   2.932 -1.0550  0.2046 -0.9173
 2277SOL    HW218291   1.390   3.764   3.046  0.1620  0.4597  0.7725
 2278SOL     OW18292   2.516   4.500  10.291 -0.2646 -0.0853  0.4068
 2278SOL    HW118293   2.440   4.451  10.322 -1.4002  1.0459 -0.6267
 2278SOL    HW218294   2.531   4.564  10.362 -2.1725 -0.5877  1.2632
 2279SOL     OW18295   3.972   2.005  14.626  0.1114 -0.0607 -0.0987
 2279SOL    HW118296   3.987   1.958  14.707  0.0973 -0.2283 -0.1947
 2279SOL    HW218297   4.061   2.038  14.614  0.0015  0.0913 -0.5005
 2280SOL     OW18298   2.357   3.068   4.900 -0.2605 -0.3747  0.1310
 2280SOL    HW118299   2.398   3.153   4.891 -1.8153  0.1881 -1.4623
 2280SOL    HW218300   2.427   3.016   4.942 -1.6038 -1.0627  1.5400
 2281SOL     OW18301   0.043   0.598   9.675 -0.1346 -0.2364 -0.3459
 2281SOL    HW118302   0.103   0.534   9.713 -0.3100  0.3836  0.9821
 2281SOL    HW218303   0.032   0.653   9.752 -1.4185 -1.4819  0.3650
 2282SOL     OW18304   1.066   0.820  15.687 -0.1119  0.1993  0.1181
 2282SOL    HW118305   1.053   0.837  15.594  3.0980 -0.7208 -0.4901
 2282SOL    HW218306   0.985   0.856  15.723  1.0215  2.9458 -0.0817
 2283SOL     OW18307   0.961   4.015   4.445  0.5244 -0.2543  0.2998
 2283SOL    HW118308   0.868   4.019   4.423  0.7933 -2.0388 -1.0862
 2283SOL    HW218309   1.005   4.023   4.360 -0.1499  1.1893  0.0852
 2284SOL     OW18310   1.513   2.677  14.831 -1.3293 -0.0708 -0.0653
 2284SOL    HW118311   1.539   2.768  14.815 -0.2224 -0.1686  1.1454
 2284SOL    HW218312   1.456   2.665  14.755 -0.7130  0.0931 -0.5484
 2285SOL     OW18313   0.649   4.636   4.234 -0.0956  0.6358  0.0819
 2285SOL    HW118314   0.727   4.589   4.205 -0.6184  1.1148 -2.0975
 2285SOL    HW218315   0.581   4.591   4.185  0.9781  0.2873 -1.0760
 2286SOL     OW18316   0.688   3.420   2.123  0.1415  0.5234  0.2147
 2286SOL    HW118317   0.613   3.374   2.085 -0.2665  1.2025  0.1939
 2286SOL    HW218318   0.720   3.464   2.044  1.4440  1.0605  1.0443
 2287SOL     OW18319   1.298   1.801   1.665  0.1721  0.2313  0.4362
 2287SOL    HW118320   1.390   1.774   1.667 -0.0624 -0.4133  2.0499
 2287SOL    HW218321   1.290   1.790   1.570 -1.1686 -1.1774  0.7000
 2288SOL     OW18322   1.100   4.067   5.732  0.3191  0.1010 -0.1777
 2288SOL    HW118323   1.059   4.032   5.653  0.2901  0.3827 -0.2871
 2288SOL    HW218324   1.174   4.006   5.726  2.3563  2.4520  1.2084
 2289SOL     OW18325   0.199   4.237  13.061 -0.0126  0.4648  0.2655
 2289SOL    HW118326   0.291   4.262  13.055 -0.0975  0.6497 -0.2643
 2289SOL    HW218327   0.167   4.301  12.998  1.9775 -0.1250 -1.3646
 2290SOL     OW18328   0.052   0.444   3.091  0.3602  0.1970 -0.3638
 2290SOL    HW118329   0.060   0.352   3.117  1.5361  0.0178 -1.3092
 2290SOL    HW218330   4.686   0.469   3.105  0.3871 -0.3985  0.8356
 2291SOL     OW18331   1.382   2.412   9.478 -0.0567  0.2329  0.6134
 2291SOL    HW118332   1.374   2.486   9.539  1.3465  0.6826  0.2432
 2291SOL    HW218333   1.412   2.340   9.533 -0.2912 -0.5219 -0.2633
 2292SOL     OW18334   1.052   0.707   7.803 -0.0853 -0.0925 -0.2997
 2292SOL    HW118335   1.032   0.795   7.772  1.6464  0.8415  1.2571
 2292SOL    HW218336   1.062   0.738   7.893  2.8793 -0.7228 -0.4238
 2293SOL     OW18337   2.791   0.680   6.566  0.0145  0.1083 -0.1331
 2293SOL    HW118338   2.791   0.661   6.659 -1.1025  0.0153 -0.1562
 2293SOL    HW218339   2.697   0.676   6.551 -0.0956  1.3880  0.3225
 2294SOL     OW18340   0.635   1.700   9.295  0.6227  0.3951 -0.3898
 2294SOL    HW118341   0.652   1.691   9.201  0.0311 -1.0903 -0.3526
 2294SOL    HW218342   0.600   1.788   9.297  1.4403  0.7566 -1.8662
 2295SOL     OW18343   4.614   1.838   5.126  0.1903  0.1653  0.6101
 2295SOL    HW118344   4.566   1.910   5.166  0.3348  0.4801  0.2169
 2295SOL    HW218345   4.679   1.825   5.196  0.7324  1.9290  0.4325
 2296SOL     OW18346   2.510   3.340   3.410 -0.1025  0.1067 -0.1532
 2296SOL    HW118347   2.531   3.391   3.488 -6.0600  2.3891 -0.0405
 2296SOL    HW218348   2.525   3.252   3.444 -1.4364 -1.1359 -2.8428
 2297SOL     OW18349   1.868   0.480   3.298 -0.5939 -0.1931 -0.6374
 2297SOL    HW118350   1.930   0.481   3.225  0.4655 -0.5716  0.2602
 2297SOL    HW218351   1.799   0.544   3.281 -0.5867 -0.1529 -0.5091
 2298SOL     OW18352   0.059   4.456   6.704 -0.2497 -0.3109 -0.1806
 2298SOL    HW118353   0.003   4.466   6.627  0.1359 -3.1550 -0.8382
 2298SOL    HW218354   4.720   4.489   6.766 -1.5649  0.1609 -1.7950
 2299SOL     OW18355   1.382   2.954   3.400  0.0443 -0.0400 -0.4137
 2299SOL    HW118356   1.371   3.015   3.328  2.6918 -0.9487 -1.5667
 2299SOL    HW218357   1.462   2.914   3.365 -0.5372 -1.4002 -0.1884
 2300SOL     OW18358   1.569   2.627   6.062 -0.0185  0.0599  0.3923
 2300SOL    HW118359   1.615   2.625   6.146 -0.2936  1.4533  0.5871
 2300SOL    HW218360   1.527   2.542   6.068 -0.4048  0.4371  2.7985
 2301SOL     OW18361   2.890   3.611  16.719  0.5296 -0.3744 -0.1702
 2301SOL    HW118362   2.885   3.605  16.623  3.5756  0.1120 -0.3738
 2301SOL    HW218363   2.984   3.625  16.732  0.3564 -0.8386  1.5497
 2302SOL     OW18364   3.989   4.384   7.679  1.0029 -0.1471 -0.2585
 2302SOL    HW118365   4.041   4.324   7.732 -0.5145 -0.7951  0.4819
 2302SOL    HW218366   3.899   4.358   7.699  0.5185  0.6653 -1.4244
 2303SOL     OW18367   0.628   4.244   4.851 -0.5729  0.3923 -0.5312
 2303SOL    HW118368   0.643   4.155   4.882  0.7770  0.4042 -1.1726
 2303SOL    HW218369   0.716   4.255   4.815  0.3757 -1.1992  1.3636
 2304SOL     OW18370   3.677   2.887   3.250  0.2372  0.8865 -0.3154
 2304SOL    HW118371   3.753   2.919   3.201 -0.1125 -0.6003 -1.8028
 2304SOL    HW218372   3.616   2.862   3.181 -1.4052 -0.5369  1.6387
 2305SOL     OW18373   2.853   1.988   5.264 -0.4255  0.3571  0.0715
 2305SOL    HW118374   2.890   2.023   5.346  1.4170 -0.1760 -0.5249
 2305SOL    HW218375   2.924   1.953   5.211 -0.7660 -0.4450  0.1480
 2306SOL     OW18376   2.844   1.439   3.589  0.3190 -0.6004  0.2649
 2306SOL    HW118377   2.865   1.376   3.520  0.7350 -1.4967  1.2045
 2306SOL    HW218378   2.909   1.406   3.651 -0.3918 -1.3443  0.6161
 2307SOL     OW18379   1.174   0.744   6.072 -0.3036 -0.2385 -0.2663
 2307SOL    HW118380   1.156   0.838   6.069 -1.5141 -0.6022 -3.6140
 2307SOL    HW218381   1.202   0.726   5.983  0.9508 -1.8860  0.4548
 2308SOL     OW18382   4.166   2.273   6.472 -0.4139  0.0096  0.1734
 2308SOL    HW118383   4.096   2.303   6.530  2.4981  1.3939  2.9687
 2308SOL    HW218384   4.158   2.350   6.416  0.5517 -0.0573 -0.0676
 2309SOL     OW18385   2.690   4.527   5.065  0.6458  0.0041 -0.0442
 2309SOL    HW118386   2.699   4.434   5.087 -0.2590 -0.1429 -0.2653
 2309SOL    HW218387   2.780   4.553   5.082  0.5219 -1.1144  2.3499
 2310SOL     OW18388   3.164   4.338   7.954  0.0348 -0.0455 -0.0640
 2310SOL    HW118389   3.258   4.332   7.970 -0.5494 -1.2532  3.0043
 2310SOL    HW218390   3.139   4.388   8.032 -1.5634 -0.4137 -0.3332
 2311SOL     OW18391   2.714   0.230   6.674  0.0780  0.3030 -0.1781
 2311SOL    HW118392   2.697   0.285   6.597  0.7541  0.5806 -0.1286
 2311SOL    HW218393   2.787   0.178   6.640  1.5626  1.1491  1.7434
 2312SOL     OW18394   1.416   2.989   4.557  0.1373 -0.2610  1.0455
 2312SOL    HW118395   1.403   3.060   4.620  0.5042 -1.5505  2.5793
 2312SOL    HW218396   1.503   2.958   4.582  0.8393 -0.2935 -1.5071
 2313SOL     OW18397   0.534   1.287   3.706  0.2735 -0.2372  0.3228
 2313SOL    HW118398   0.602   1.267   3.642 -0.9402 -1.8878 -0.4614
 2313SOL    HW218399   0.474   1.212   3.712 -2.0720  1.4600 -1.7100
 2314SOL     OW18400   0.997   3.199  11.189 -0.1696 -0.2627  0.0894
 2314SOL    HW118401   1.020   3.138  11.119  1.0769  1.2513 -0.8187
 2314SOL    HW218402   1.025   3.279  11.144 -0.3329 -0.5531 -0.5188
 2315SOL     OW18403   0.701   1.995   3.411  0.0840  0.7822  0.3737
 2315SOL    HW118404   0.792   2.023   3.421  1.5065 -3.1004 -1.4696
 2315SOL    HW218405   0.684   2.048   3.333 -0.8124 -1.6261 -1.0641
 2316SOL     OW18406   4.095   2.678   9.059 -0.0020  0.0907 -0.1504
 2316SOL    HW118407   4.132   2.754   9.105  2.0478 -1.5719  0.9346
 2316SOL    HW218408   4.004   2.697   9.079 -0.3515 -2.0890  0.2511
 2317SOL     OW18409   4.102   3.992   4.510  0.0611 -0.2038 -0.4128
 2317SOL    HW118410   4.035   3.973   4.577  1.9356 -0.4957  1.3788
 2317SOL    HW218411   4.070   4.070   4.464 -0.4584 -0.6888 -0.8780
 2318SOL     OW18412   4.016   0.409   2.819 -0.0807  0.4217 -0.5265
 2318SOL    HW118413   4.041   0.346   2.752 -2.4932 -0.0096 -1.0501
 2318SOL    HW218414   4.050   0.492   2.784  0.9781  0.3243  0.2800
 2319SOL     OW18415   1.218   1.201   3.894  0.2290 -0.1861  0.2985
 2319SOL    HW118416   1.301   1.238   3.864 -1.9716  3.2049 -1.6629
 2319SOL    HW218417   1.174   1.259   3.956  0.4416 -1.3139  1.4987
 2320SOL     OW18418   2.798   2.520   5.637 -0.1611 -0.6924  0.3641
 2320SOL    HW118419   2.798   2.431   5.602 -0.5317 -0.4216 -0.3347
 2320SOL    HW218420   2.725   2.566   5.595 -0.4042  0.1202  1.6849
 2321SOL     OW18421   0.174   4.485   5.396  0.6760 -0.0099 -0.4520
 2321SOL    HW118422   0.165   4.522   5.308 -3.4552  1.3757  0.5087
 2321SOL    HW218423   0.190   4.559   5.455 -2.8450 -0.2994  0.8852
 2322SOL     OW18424   2.446   2.955   7.385  0.4336 -1.1220  0.6551
 2322SOL    HW118425   2.460   2.930   7.477 -1.3526 -0.6540  1.0459
 2322SOL    HW218426   2.481   2.882   7.334  0.6191 -1.2643  0.9832
 2323SOL     OW18427   4.283   3.979   9.931  0.3682  0.2151  0.5849
 2323SOL    HW118428   4.194   4.002   9.957 -0.1645 -1.4675  0.2755
 2323SOL    HW218429   4.323   4.059   9.896  1.0984 -1.7418 -3.0842
 2324SOL     OW18430   2.447   0.679  17.162 -0.2127  0.0160  0.4539
 2324SOL    HW118431   2.375   0.639  17.114  0.5073 -0.3901 -0.2952
 2324SOL    HW218432   2.428   0.773  17.167  2.7492  0.7037 -0.4897
 2325SOL     OW18433   2.297   3.937   4.295 -0.0006  0.2305  0.1217
 2325SOL    HW118434   2.308   3.983   4.379  3.8193  0.4099 -0.4818
 2325SOL    HW218435   2.374   3.940   4.239  0.1335 -2.7785  0.1167
 2326SOL     OW18436   4.629   1.080   4.391 -0.3052 -0.2506  0.0770
 2326SOL    HW118437   4.537   1.097   4.374 -0.5888 -0.9592  0.9193
 2326SOL    HW218438   4.652   1.036   4.309  2.0258  0.8812  0.0921
 2327SOL     OW18439   3.750   4.273   1.514 -0.0673  0.3749 -0.1909
 2327SOL    HW118440   3.790   4.268   1.600 -0.3930  0.5220 -0.0312
 2327SOL    HW218441   3.687   4.343   1.533  0.6859  0.6940  1.0868
 2328SOL     OW18442   4.689   2.118   6.819  0.3502  0.8304 -0.1692
 2328SOL    HW118443   4.647   2.036   6.792  1.5970 -0.2735  1.2580
 2328SOL    HW218444   4.677   2.173   6.741 -1.0572  2.8425  1.4666
 2329SOL     OW18445   3.276   0.741  17.479  0.2599 -0.0119 -0.1906
 2329SOL    HW118446   3.291   0.802  17.406 -0.7276  1.4633  0.8215
 2329SOL    HW218447   3.294   0.653  17.447  3.6199  0.5477  0.0954
 2330SOL     OW18448   1.117   3.610  16.043  0.1691 -0.0247 -0.9333
 2330SOL    HW118449   1.180   3.661  15.992 -0.1963 -0.1919 -1.5506
 2330SOL    HW218450   1.113   3.674  16.114  0.8219 -0.3098 -0.6459
 2331SOL     OW18451   2.468   2.993  13.493  0.1802 -0.0286 -0.7811
 2331SOL    HW118452   2.507   2.916  13.452  0.6990 -0.8516  1.2633
 2331SOL    HW218453   2.395   3.006  13.433 -0.8623  0.3371  0.5873
 2332SOL     OW18454   4.546   3.777   7.273  0.5249 -0.0255  0.3765
 2332SOL    HW118455   4.474   3.840   7.267  1.5282  1.0067 -0.9151
 2332SOL    HW218456   4.503   3.700   7.311 -0.4395  1.1108  1.5924
 2333SOL     OW18457   4.585   3.351   5.234 -0.4092 -0.0728  0.5004
 2333SOL    HW118458   4.556   3.439   5.256  2.4814  0.8281  0.7246
 2333SOL    HW218459   4.656   3.328   5.294 -0.7986 -1.1697  0.5435
 2334SOL     OW18460   2.472   1.246  12.207  0.0947 -0.1407 -0.5490
 2334SOL    HW118461   2.486   1.323  12.153  0.5299  0.6307  0.6790
 2334SOL    HW218462   2.400   1.195  12.167 -0.1475 -1.1247  1.1496
 2335SOL     OW18463   4.012   0.756  13.864 -0.2928 -0.1852 -0.3681
 2335SOL    HW118464   4.016   0.790  13.775  0.0544 -0.8798 -0.6195
 2335SOL    HW218465   3.955   0.682  13.844  0.2107 -1.7104  3.8089
 2336SOL     OW18466   3.725   4.676   8.471  0.8365 -0.2137  0.1070
 2336SOL    HW118467   3.738   4.589   8.509 -0.0880 -0.5213 -0.2701
 2336SOL    HW218468   3.788   0.004   8.520  1.6413 -2.0083  1.0077
 2337SOL     OW18469   3.716   4.601   4.877  0.7366 -0.1541  0.0540
 2337SOL    HW118470   3.769   4.591   4.799 -1.7134  0.1669 -1.6510
 2337SOL    HW218471   3.714   4.509   4.903 -3.4559 -0.3932 -1.1014
 2338SOL     OW18472   0.894   2.068   0.660  0.6974 -0.4377 -0.0908
 2338SOL    HW118473   0.984   2.083   0.633  1.1289 -1.0190  1.0189
 2338SOL    HW218474   0.837   2.137   0.624  0.6361 -0.1356  0.5768
 2339SOL     OW18475   2.204   0.018   5.097  0.7413 -0.0889  0.5030
 2339SOL    HW118476   2.285   4.692   5.099  0.9174  0.1838  0.2975
 2339SOL    HW218477   2.143   4.669   5.095 -1.0600  1.4937 -2.6784
 2340SOL     OW18478   0.771   0.975   6.629 -0.5220  0.1189  0.6449
 2340SOL    HW118479   0.780   1.059   6.673  0.3367  0.6401 -0.5381
 2340SOL    HW218480   0.728   0.991   6.545  1.8390  1.7414 -0.2298
 2341SOL     OW18481   4.151   3.936   6.393 -0.5753  0.3770  0.4911
 2341SOL    HW118482   4.116   3.857   6.351  0.7296  0.1464 -0.1596
 2341SOL    HW218483   4.219   3.966   6.333  0.2471 -0.0875  1.1795
 2342SOL     OW18484   0.604   2.447   4.365  0.3027  0.3997 -0.2268
 2342SOL    HW118485   0.510   2.453   4.380 -0.0259 -0.4711 -1.9414
 2342SOL    HW218486   0.611   2.354   4.344 -1.1475  0.3167 -0.3541
 2343SOL     OW18487   0.703   2.514   5.297  0.3684  0.5644  0.1939
 2343SOL    HW118488   0.789   2.528   5.256  0.7026 -0.0988  0.6756
 2343SOL    HW218489   0.734   2.541   5.384  0.2262  2.2931 -0.2936
 2344SOL     OW18490   2.515   2.897   6.197  0.4656 -0.1036 -0.2040
 2344SOL    HW118491   2.479   2.809   6.186 -1.9294  0.7676  0.6211
 2344SOL    HW218492   2.610   2.886   6.194  0.7276  1.1901  2.9309
 2345SOL     OW18493   1.186   0.628   5.822 -0.1197 -0.5555  0.0919
 2345SOL    HW118494   1.148   0.544   5.848 -0.3571 -0.3088  0.5441
 2345SOL    HW218495   1.108   0.672   5.789 -0.0685 -0.5098  0.0317
 2346SOL     OW18496   0.194   0.495   0.280  0.3079 -0.2090 -0.0960
 2346SOL    HW118497   0.259   0.537   0.224 -0.8452  0.3781 -0.9967
 2346SOL    HW218498   0.244   0.486   0.361 -0.5435  1.6261  0.6342
 2347SOL     OW18499   0.267   4.127  12.727  0.4581  0.5161 -0.2271
 2347SOL    HW118500   0.341   4.175  12.690  1.0690 -0.1346  0.1653
 2347SOL    HW218501   0.301   4.079  12.802  1.5794  0.2618 -0.8979
 2348SOL     OW18502   2.181   4.400   0.446 -0.4802 -0.4108 -0.5002
 2348SOL    HW118503   2.188   4.353   0.363 -2.1294 -1.2366 -0.1792
 2348SOL    HW218504   2.210   4.330   0.504  0.3316 -0.2003 -0.6507
 2349SOL     OW18505   3.566   2.472   3.928  0.6805 -0.6485 -0.7037
 2349SOL    HW118506   3.614   2.547   3.963  0.4336 -1.3124  1.0415
 2349SOL    HW218507   3.481   2.512   3.910  0.7446 -0.1843  0.0364
 2350SOL     OW18508   2.642   0.024   6.785  0.4191 -0.1136  0.0941
 2350SOL    HW118509   2.716   0.006   6.843  1.7392  0.1355 -1.5025
 2350SOL    HW218510   2.667   0.112   6.759  0.4096  0.1552  1.0022
 2351SOL     OW18511   2.946   0.798  14.470 -0.3621 -0.1591  0.4860
 2351SOL    HW118512   2.989   0.794  14.385 -0.8419 -0.6376  0.2690
 2351SOL    HW218513   2.994   0.877  14.498  0.0032 -0.4674  0.7319
 2352SOL     OW18514   0.052   2.630  12.364  0.5800  0.8070 -0.5575
 2352SOL    HW118515   0.114   2.704  12.368  2.3682 -0.5837 -2.5869
 2352SOL    HW218516   0.026   2.616  12.455  1.7757 -0.4006 -0.4112
 2353SOL     OW18517   2.049   0.310   8.358  0.8834  0.1027 -1.0527
 2353SOL    HW118518   2.052   0.369   8.283 -2.5446  0.4931 -0.8904
 2353SOL    HW218519   2.021   0.231   8.311 -2.0876 -1.5052  3.3294
 2354SOL     OW18520   2.852   2.036  16.220  0.1254 -0.2986 -0.0787
 2354SOL    HW118521   2.899   2.042  16.304  2.5702  1.8776 -1.5860
 2354SOL    HW218522   2.762   2.056  16.244  0.9089 -0.0728  2.6656
 2355SOL     OW18523   0.481   0.867  13.184  0.5299  0.3309 -0.0536
 2355SOL    HW118524   0.428   0.860  13.105 -0.9722 -1.8907  1.1456
 2355SOL    HW218525   0.511   0.777  13.194 -0.1985  0.0246 -0.6219
 2356SOL     OW18526   2.233   3.865   4.695 -1.0737  0.1438  0.1388
 2356SOL    HW118527   2.267   3.775   4.689 -1.1508  0.2114 -1.2350
 2356SOL    HW218528   2.317   3.896   4.731 -0.9068  1.0010 -1.0116
 2357SOL     OW18529   0.700   3.890   8.313 -0.3650 -0.1851  0.3096
 2357SOL    HW118530   0.740   3.823   8.258  1.4973  1.6112 -0.5235
 2357SOL    HW218531   0.739   3.964   8.267  0.3771 -1.6947 -1.5019
 2358SOL     OW18532   1.341   2.491  11.458  0.5277 -0.0108 -0.8928
 2358SOL    HW118533   1.391   2.561  11.501  1.2846 -0.2907 -1.3164
 2358SOL    HW218534   1.337   2.519  11.366 -0.1515 -1.0471 -1.1757
 2359SOL     OW18535   1.837   2.211   9.842 -0.4052 -0.2265  0.5188
 2359SOL    HW118536   1.846   2.273   9.914  2.2797 -0.0493  0.0272
 2359SOL    HW218537   1.922   2.218   9.799 -0.2568  1.0879  1.0218
 2360SOL     OW18538   2.466   1.758   3.600 -0.2912 -0.4567  0.0689
 2360SOL    HW118539   2.500   1.669   3.604 -3.2306 -1.6406 -1.1339
 2360SOL    HW218540   2.371   1.751   3.594 -0.1473 -0.6860 -2.1861
 2361SOL     OW18541   1.147   4.088   3.893 -0.3109  0.1157 -0.1752
 2361SOL    HW118542   1.206   4.025   3.852  0.3292  0.8402 -0.3516
 2361SOL    HW218543   1.079   4.103   3.827 -1.8162  2.5044  1.9092
 2362SOL     OW18544   2.023   0.276   6.054  0.1796  0.3183  0.3261
 2362SOL    HW118545   1.978   0.358   6.075 -0.9479 -0.7874  2.1733
 2362SOL    HW218546   1.950   0.219   6.030 -0.0412  0.1515  1.3980
 2363SOL     OW18547   3.693   0.744  14.040  0.5473  0.0685  0.0621
 2363SOL    HW118548   3.648   0.786  13.966  0.5470 -0.6988 -0.3798
 2363SOL    HW218549   3.758   0.811  14.061  0.3986  0.1301  0.3227
 2364SOL     OW18550   0.796   3.330   7.306  0.7251  0.1654 -0.1571
 2364SOL    HW118551   0.733   3.271   7.348  0.5280  0.9425  0.6252
 2364SOL    HW218552   0.859   3.268   7.269 -1.3843 -1.5068 -0.9983
 2365SOL     OW18553   3.212   4.258   8.532  0.0441 -0.2456 -0.0877
 2365SOL    HW118554   3.170   4.259   8.618 -1.6161  1.3962 -0.9204
 2365SOL    HW218555   3.135   4.252   8.475  0.3624  2.0702 -0.7906
 2366SOL     OW18556   1.495   2.122  15.714 -0.4396  0.6461  0.7814
 2366SOL    HW118557   1.565   2.091  15.657 -0.6785  1.4967  0.0192
 2366SOL    HW218558   1.425   2.060  15.695  1.4824 -1.0565 -0.7545
 2367SOL     OW18559   2.992   0.047   3.272  0.0066 -0.5387 -0.5216
 2367SOL    HW118560   2.994   0.077   3.362  0.0933 -2.3537  0.0806
 2367SOL    HW218561   2.960   4.682   3.272 -0.6452 -0.3167 -0.9283
 2368SOL     OW18562   4.363   0.736   3.044  0.3323 -0.0285 -0.1914
 2368SOL    HW118563   4.324   0.777   3.120  1.6665 -1.0298  1.0407
 2368SOL    HW218564   4.284   0.726   2.991  0.6674  0.5741 -0.8030
 2369SOL     OW18565   0.541   2.930  14.964  0.0075  0.0343  0.6845
 2369SOL    HW118566   0.607   2.897  14.903  1.2407  2.2319  0.8259
 2369SOL    HW218567   0.566   3.021  14.978 -3.5879  1.2546 -0.9862
 2370SOL     OW18568   3.973   2.340   6.674  0.0032  0.1644 -0.6494
 2370SOL    HW118569   3.932   2.425   6.687  0.1343 -0.0278  1.0728
 2370SOL    HW218570   3.908   2.288   6.627  1.3164 -1.6371 -0.4804
 2371SOL     OW18571   0.602   1.928   7.669  0.7649 -0.5273 -0.2958
 2371SOL    HW118572   0.688   1.962   7.692  1.2831 -2.0355 -0.0112
 2371SOL    HW218573   0.620   1.871   7.594  0.1344  0.2231 -1.0322
 2372SOL     OW18574   2.017   0.264  14.378 -0.1614 -0.4126  0.6580
 2372SOL    HW118575   1.935   0.221  14.403 -0.6842  0.7227  0.8789
 2372SOL    HW218576   1.995   0.292  14.289  1.1085  1.6396  0.9903
 2373SOL     OW18577   0.010   2.872   0.661 -0.1865  0.2133  0.3532
 2373SOL    HW118578   4.690   2.944   0.706 -0.2184 -0.2598  1.0722
 2373SOL    HW218579   4.657   2.821   0.641  0.4599 -0.2094 -1.0985
 2374SOL     OW18580   0.422   0.255   0.778  0.0428  0.2996 -0.1331
 2374SOL    HW118581   0.333   0.241   0.809  1.2260  0.0724  3.2169
 2374SOL    HW218582   0.453   0.325   0.835  0.0371 -2.1547  2.8813
 2375SOL     OW18583   1.288   4.187  15.033  0.0537 -0.1322 -0.1464
 2375SOL    HW118584   1.269   4.238  14.954  1.6248  1.8188  0.7730
 2375SOL    HW218585   1.204   4.197  15.079 -0.2282 -0.0260 -0.6850
 2376SOL     OW18586   3.195   4.202   6.129  0.0314 -0.0545 -0.3127
 2376SOL    HW118587   3.155   4.137   6.187 -1.6826  1.0643 -0.2138
 2376SOL    HW218588   3.247   4.150   6.069  0.1789  0.0745 -0.2965
 2377SOL     OW18589   2.359   1.890   2.968 -0.7079  0.2406 -0.4908
 2377SOL    HW118590   2.397   1.959   3.022 -1.1834 -0.0769  0.2586
 2377SOL    HW218591   2.407   1.888   2.886  0.5864 -1.7552  0.3171
 2378SOL     OW18592   3.080   4.063   7.917 -0.0281 -0.3457  0.0531
 2378SOL    HW118593   3.091   4.158   7.917 -0.6847 -0.2644  1.2045
 2378SOL    HW218594   2.985   4.050   7.923 -0.1352  0.8885  1.0653
 2379SOL     OW18595   2.163   3.738  10.363  0.0509 -0.4959  0.3194
 2379SOL    HW118596   2.210   3.753  10.281 -1.2615 -1.1645 -0.5621
 2379SOL    HW218597   2.121   3.659  10.328  1.7687 -1.2972  0.0687
 2380SOL     OW18598   1.012   4.271  10.401  0.0072  0.1265  0.3395
 2380SOL    HW118599   1.011   4.355  10.355 -2.2814  0.5299  1.1523
 2380SOL    HW218600   1.034   4.303  10.488 -1.7186 -1.8088  1.4749
 2381SOL     OW18601   3.773   0.224  13.544  0.0938  0.7252  0.3920
 2381SOL    HW118602   3.702   0.264  13.494  1.2426  2.3107  0.0359
 2381SOL    HW218603   3.726   0.224  13.627  1.4603  2.1791  1.1683
 2382SOL     OW18604   0.351   1.797   0.439  0.6967  0.4027 -0.0952
 2382SOL    HW118605   0.333   1.832   0.352  1.5256 -1.9765 -1.2339
 2382SOL    HW218606   0.355   1.706   0.410 -1.7938 -0.1184  1.1842
 2383SOL     OW18607   0.071   3.589   7.810  0.7893  0.6038 -0.0237
 2383SOL    HW118608   0.156   3.560   7.842  0.8510  1.2553  0.4123
 2383SOL    HW218609   0.069   3.678   7.845  0.2280 -0.4722  2.6667
 2384SOL     OW18610   3.485   3.960  10.858 -0.3284  0.4227 -0.0901
 2384SOL    HW118611   3.412   3.903  10.881  0.4716 -0.4406  0.2670
 2384SOL    HW218612   3.557   3.908  10.893 -0.3661 -0.2826 -1.0471
 2385SOL     OW18613   0.394   3.058   6.683  0.1998  0.6736 -0.0144
 2385SOL    HW118614   0.367   3.118   6.612 -2.6060 -2.0929 -1.2720
 2385SOL    HW218615   0.486   3.059   6.656  0.1135 -0.0637 -0.3264
 2386SOL     OW18616   3.928   1.456  15.143 -0.1381  0.5129 -0.2698
 2386SOL    HW118617   3.979   1.390  15.189 -0.6474  0.0927 -0.3105
 2386SOL    HW218618   3.980   1.536  15.149 -0.6452  0.9741 -2.0118
 2387SOL     OW18619   4.188   1.822   1.705 -0.2035  0.0829  0.8563
 2387SOL    HW118620   4.236   1.748   1.666 -1.9065 -0.0993 -0.9159
 2387SOL    HW218621   4.099   1.795   1.681 -0.5861  0.3911  1.9377
 2388SOL     OW18622   0.447   2.588   5.296 -0.0526  0.2919  0.1442
 2388SOL    HW118623   0.462   2.618   5.207  2.6167  0.0674  0.5279
 2388SOL    HW218624   0.532   2.548   5.314  0.0226  0.7588  0.8561
 2389SOL     OW18625   3.621   1.532   7.623 -0.2959 -0.0128  0.4316
 2389SOL    HW118626   3.553   1.490   7.676 -1.1920  1.0986  0.1723
 2389SOL    HW218627   3.644   1.606   7.678 -0.1430  0.0634  0.2643
 2390SOL     OW18628   1.018   0.214   4.222  0.5904  0.1143 -0.3918
 2390SOL    HW118629   1.061   0.295   4.193  1.8566 -0.4867 -0.1853
 2390SOL    HW218630   0.997   0.180   4.135  1.0655 -0.7797 -0.1531
 2391SOL     OW18631   2.171   1.714   9.350  0.3384  0.9640 -0.0995
 2391SOL    HW118632   2.162   1.792   9.404 -1.0065  0.0305  1.0091
 2391SOL    HW218633   2.218   1.753   9.277  0.8313  2.7690  1.1810
 2392SOL     OW18634   3.040   4.387  10.777 -0.1785 -0.6002 -0.2864
 2392SOL    HW118635   3.043   4.477  10.811 -3.4665  0.2674 -2.2878
 2392SOL    HW218636   3.037   4.323  10.848  1.3240 -1.4815 -1.0066
 2393SOL     OW18637   0.179   3.192   0.700  0.9644 -0.0781 -0.1930
 2393SOL    HW118638   0.114   3.233   0.758  0.2810 -2.3651  0.6310
 2393SOL    HW218639   0.235   3.145   0.762 -0.0902 -0.6946  0.3024
 2394SOL     OW18640   1.546   1.542   8.655 -0.5393  0.6207  0.2331
 2394SOL    HW118641   1.635   1.527   8.686 -1.6833 -2.1247  2.2515
 2394SOL    HW218642   1.538   1.634   8.679  1.4402  0.3175  2.0961
 2395SOL     OW18643   1.329   4.290  15.318 -0.1725 -0.3371  0.0261
 2395SOL    HW118644   1.384   4.333  15.384  0.1245 -0.2493 -0.2805
 2395SOL    HW218645   1.352   4.198  15.333  1.7277  0.0875 -0.2766
 2396SOL     OW18646   4.318   2.689   2.794 -0.3817  0.0667  0.2613
 2396SOL    HW118647   4.308   2.762   2.733 -2.5303  1.4197  2.1864
 2396SOL    HW218648   4.410   2.665   2.787 -0.4613  0.2974 -1.5406
 2397SOL     OW18649   0.325   3.567   9.120  0.2404 -0.1280  0.0935
 2397SOL    HW118650   0.388   3.636   9.097 -1.4851  1.1612 -0.7454
 2397SOL    HW218651   0.249   3.601   9.074 -0.3773 -0.4193  0.8979
 2398SOL     OW18652   0.014   3.474  11.126  0.0471 -0.1251  0.2119
 2398SOL    HW118653   0.040   3.565  11.123  1.6656 -0.5955  0.0965
 2398SOL    HW218654   0.097   3.448  11.166 -1.0573 -1.0417  1.8936
 2399SOL     OW18655   4.471   2.833   5.033 -0.2414 -0.0043 -0.4512
 2399SOL    HW118656   4.541   2.775   5.003 -0.7663 -0.4907 -0.7180
 2399SOL    HW218657   4.452   2.789   5.116 -0.8997  1.0987 -0.0273
 2400SOL     OW18658   1.995   3.026   4.163 -0.3095 -0.2800  1.1492
 2400SOL    HW118659   2.051   3.032   4.086  0.7313  0.6552  1.9764
 2400SOL    HW218660   2.062   3.036   4.231  1.3045  0.3454 -0.5201
 2401SOL     OW18661   0.172   1.235   3.532  0.0114  0.2802 -0.1590
 2401SOL    HW118662   0.133   1.271   3.452 -1.8562 -0.1058  0.5767
 2401SOL    HW218663   0.229   1.302   3.567 -0.3512  0.1222  0.7332
 2402SOL     OW18664   0.628   3.615  11.520 -0.6100  0.3443  0.0121
 2402SOL    HW118665   0.597   3.626  11.431 -1.4265  3.7176  0.7074
 2402SOL    HW218666   0.596   3.694  11.565  0.0794  0.4328  0.3472
 2403SOL     OW18667   2.004   3.827   9.588 -0.6896 -0.0621  0.2969
 2403SOL    HW118668   2.100   3.822   9.589 -0.5569  2.4614  1.1178
 2403SOL    HW218669   1.976   3.824   9.497 -2.4394  0.7145  0.8102
 2404SOL     OW18670   1.840   0.268   3.009 -0.7002 -0.5012  0.1188
 2404SOL    HW118671   1.852   0.246   2.917 -0.1368  1.9389 -0.3814
 2404SOL    HW218672   1.921   0.317   3.023 -1.2003 -0.0414  1.4034
 2405SOL     OW18673   2.092   2.059   0.682  0.5325 -0.8045  0.1465
 2405SOL    HW118674   2.144   1.979   0.679  2.3272  0.5058 -2.7266
 2405SOL    HW218675   2.001   2.035   0.701 -0.3644  1.6490 -1.1679
 2406SOL     OW18676   1.132   2.871   4.806  0.1661 -0.0632 -0.6066
 2406SOL    HW118677   1.052   2.878   4.754  0.7952 -0.5188 -1.6384
 2406SOL    HW218678   1.191   2.842   4.736  0.8721 -1.7098  0.6810
 2407SOL     OW18679   3.589   4.465   1.583  0.0462 -0.0231 -0.3267
 2407SOL    HW118680   3.637   4.546   1.597 -0.5105  0.1424  0.6709
 2407SOL    HW218681   3.519   4.474   1.648 -1.0871  1.0530 -1.6974
 2408SOL     OW18682   2.284   3.624  16.324 -0.2467 -0.2873 -0.1906
 2408SOL    HW118683   2.201   3.604  16.367 -1.7241 -0.7338 -3.2483
 2408SOL    HW218684   2.334   3.651  16.402 -2.2494 -3.0310  2.0354
 2409SOL     OW18685   0.724   2.192  11.231 -0.0110  0.5411 -0.1292
 2409SOL    HW118686   0.671   2.271  11.238  2.3071  2.2189 -1.2323
 2409SOL    HW218687   0.811   2.232  11.233 -0.1667  0.8892 -0.4807
 2410SOL     OW18688   3.063   1.191   3.962 -0.1911  0.2009 -0.0264
 2410SOL    HW118689   3.064   1.228   4.051 -0.2644 -0.1312  0.1126
 2410SOL    HW218690   3.009   1.113   3.976 -0.2370  0.5643  1.9367
 2411SOL     OW18691   0.827   2.796   6.196  0.2871  0.1531  0.1236
 2411SOL    HW118692   0.841   2.882   6.237  1.4371 -0.3573  0.7953
 2411SOL    HW218693   0.748   2.756   6.233  0.1047  1.0206  0.6804
 2412SOL     OW18694   1.425   0.016   6.301 -0.6653  0.0303  0.0734
 2412SOL    HW118695   1.331   0.034   6.313 -1.0426  0.2926 -3.1700
 2412SOL    HW218696   1.446   4.672   6.363 -2.7361 -0.6412  0.0471
 2413SOL     OW18697   1.413   1.492   3.660 -0.0414 -0.5895 -0.0928
 2413SOL    HW118698   1.375   1.570   3.701  0.9069 -1.2488  2.0127
 2413SOL    HW218699   1.351   1.472   3.589  0.2718 -1.2283 -0.1818
 2414SOL     OW18700   0.847   1.269  12.538  0.8242 -0.0710 -0.0466
 2414SOL    HW118701   0.914   1.322  12.581 -0.0294  0.2951  0.8452
 2414SOL    HW218702   0.773   1.326  12.562  0.4338 -1.0433  1.0309
 2415SOL     OW18703   0.477   3.881   1.436 -0.1146  0.1357 -0.0812
 2415SOL    HW118704   0.419   3.913   1.505  1.8996 -0.2070  1.7946
 2415SOL    HW218705   0.513   3.803   1.480  2.0676  1.5135  0.5909
 2416SOL     OW18706   3.834   0.594  13.733 -0.1992  0.3737  0.1782
 2416SOL    HW118707   3.739   0.596  13.725 -0.3406 -1.3675  1.3884
 2416SOL    HW218708   3.855   0.555  13.648  0.7693 -0.0198  0.5929
 2417SOL     OW18709   3.976   3.403   8.401 -0.0527  0.1124  0.6345
 2417SOL    HW118710   3.896   3.369   8.362  0.2531 -1.2928  1.2165
 2417SOL    HW218711   4.011   3.331   8.454  0.0181 -1.4556 -1.5610
 2418SOL     OW18712   4.563   3.900  10.150 -0.3406  0.6346 -0.5812
 2418SOL    HW118713   4.482   3.940  10.184 -0.8691  0.0442 -1.1539
 2418SOL    HW218714   4.608   3.976  10.113  0.7272  0.6590  0.7518
 2419SOL     OW18715   2.982   2.195   2.678 -0.2258 -0.2681  0.3372
 2419SOL    HW118716   2.905   2.145   2.705 -1.1160 -0.3647 -2.3840
 2419SOL    HW218717   3.051   2.131   2.695  0.3552 -0.0577 -1.1862
 2420SOL     OW18718   0.430   3.835   9.150  0.5041  0.2173 -0.0349
 2420SOL    HW118719   0.432   3.838   9.054  0.8349 -1.3237 -0.0778
 2420SOL    HW218720   0.520   3.863   9.169  1.1531 -0.4219 -2.0861
 2421SOL     OW18721   4.200   0.011   6.143 -0.0810  0.1219  0.6083
 2421SOL    HW118722   4.253   0.084   6.111 -0.6659  0.3886  0.2469
 2421SOL    HW218723   4.113   0.028   6.105  0.5858  0.5924 -0.7084
 2422SOL     OW18724   1.888   2.880  12.518 -0.0859 -0.6043 -0.1697
 2422SOL    HW118725   1.884   2.914  12.429 -2.9096  1.9491  0.9458
 2422SOL    HW218726   1.816   2.926  12.560 -0.0779 -0.7132 -0.0376
 2423SOL     OW18727   1.043   4.149  15.927  0.6140 -0.3092 -0.5114
 2423SOL    HW118728   1.127   4.114  15.897  0.5840 -0.1207 -0.8183
 2423SOL    HW218729   1.048   4.152  16.022 -1.6373  3.1219 -0.5018
 2424SOL     OW18730   2.604   3.366   6.773  0.0431  0.4410  0.0616
 2424SOL    HW118731   2.657   3.292   6.800 -2.4721 -2.0166 -1.8186
 2424SOL    HW218732   2.674   3.431   6.761  1.9846 -1.5277  0.7593
 2425SOL     OW18733   3.903   4.554   6.109  0.2570  0.0110  0.0135
 2425SOL    HW118734   3.851   4.480   6.080 -1.0798  0.9105  0.1050
 2425SOL    HW218735   3.979   4.511   6.148  0.8667 -0.6292 -1.8677
 2426SOL     OW18736   2.210   2.968   8.493 -0.0060  0.0908  0.1663
 2426SOL    HW118737   2.192   2.972   8.587  1.4310 -0.9457  0.4866
 2426SOL    HW218738   2.231   2.875   8.485  2.0046  0.2942  2.8457
 2427SOL     OW18739   2.023   1.542  12.047  0.2358 -0.7109 -0.1878
 2427SOL    HW118740   2.070   1.470  12.090  0.4476 -0.0149  0.7277
 2427SOL    HW218741   1.944   1.547  12.099 -1.0780 -2.4497 -1.9892
 2428SOL     OW18742   4.341   4.336   9.463 -0.0460 -0.7995  0.7522
 2428SOL    HW118743   4.394   4.332   9.543  1.5123 -1.6699 -0.3312
 2428SOL    HW218744   4.269   4.397   9.474  0.0445 -0.7974  1.3487
 2429SOL     OW18745   1.822   2.257  14.923 -0.6609  0.1035 -0.4410
 2429SOL    HW118746   1.778   2.306  14.993  2.0335 -1.1128  2.1236
 2429SOL    HW218747   1.802   2.314  14.849  2.9436 -0.6752 -1.9961
 2430SOL     OW18748   3.837   4.539   5.527  0.1643 -0.3322  0.2361
 2430SOL    HW118749   3.836   4.468   5.463 -3.4214  1.1812 -1.4008
 2430SOL    HW218750   3.771   4.600   5.496 -0.5732 -0.8771  0.7418
 2431SOL     OW18751   1.961   3.966   6.765 -0.0661  0.6186  0.2276
 2431SOL    HW118752   1.967   3.915   6.846 -1.5035 -0.3614 -0.2861
 2431SOL    HW218753   1.934   3.903   6.699 -0.8508  2.7602 -1.4952
 2432SOL     OW18754   3.981   1.849   5.963  0.7756 -0.4066 -0.0730
 2432SOL    HW118755   3.992   1.811   5.876 -0.9523  1.0510 -0.9216
 2432SOL    HW218756   3.984   1.941   5.938 -2.2085 -0.6387 -1.3525
 2433SOL     OW18757   3.048   0.458   0.620  0.5299 -0.7119  0.8733
 2433SOL    HW118758   2.989   0.435   0.548  1.4939 -0.2246 -0.0778
 2433SOL    HW218759   3.057   0.373   0.664 -0.2193 -0.2463  1.9131
 2434SOL     OW18760   2.355   3.939   9.035  0.0537  0.0194  0.4077
 2434SOL    HW118761   2.267   3.972   9.052 -1.1944 -2.4344 -1.3298
 2434SOL    HW218762   2.356   3.887   8.954  0.9227 -0.4455  0.7201
 2435SOL     OW18763   0.153   0.450  12.069 -0.0623 -0.0477 -0.0108
 2435SOL    HW118764   0.141   0.508  12.144 -1.4685  0.5166 -0.6691
 2435SOL    HW218765   0.131   0.374  12.123 -1.0420 -0.4498 -0.9766
 2436SOL     OW18766   2.070   4.019   0.812 -0.0685 -0.2641 -0.3183
 2436SOL    HW118767   2.161   4.024   0.841 -0.2195  0.4218  0.0630
 2436SOL    HW218768   2.094   4.031   0.721  1.9392 -0.7276  0.1626
 2437SOL     OW18769   2.943   4.509   1.148  0.1323 -0.0535  0.2167
 2437SOL    HW118770   3.015   4.463   1.104 -0.8408 -0.5206 -0.9111
 2437SOL    HW218771   2.873   4.443   1.145  0.4071 -0.3212 -0.2646
 2438SOL     OW18772   3.065   0.520   8.409  0.3307  0.6610  0.2264
 2438SOL    HW118773   3.148   0.564   8.395  1.4522 -0.7164  2.6102
 2438SOL    HW218774   3.088   0.450   8.469  0.2902  0.0749 -0.4398
 2439SOL     OW18775   1.250   1.383   8.942 -0.2344 -0.2039 -0.0222
 2439SOL    HW118776   1.196   1.392   9.020  0.7875  1.1566  0.5216
 2439SOL    HW218777   1.336   1.418   8.962 -1.9062  3.1595  1.1375
 2440SOL     OW18778   0.130   2.035   6.525  0.3760  0.4030  0.7491
 2440SOL    HW118779   0.044   1.996   6.517  0.5931 -0.3494  2.1266
 2440SOL    HW218780   0.186   1.961   6.501 -1.8966 -1.4488  1.1658
 2441SOL     OW18781   1.211   1.864   2.022  0.4523  0.2264 -0.5265
 2441SOL    HW118782   1.279   1.797   2.017 -1.1619 -1.4273 -0.0005
 2441SOL    HW218783   1.142   1.813   2.064  0.8252 -1.5818 -2.1148
 2442SOL     OW18784   2.311   2.928   9.534 -0.0225 -0.1340 -0.1990
 2442SOL    HW118785   2.249   2.978   9.482 -0.3637 -1.3112 -0.9368
 2442SOL    HW218786   2.265   2.909   9.616 -0.0750  1.5928  0.1566
 2443SOL     OW18787   0.969   3.480  15.539 -0.0690 -0.4416 -0.7998
 2443SOL    HW118788   0.893   3.506  15.590  1.7542 -0.5517  1.9381
 2443SOL    HW218789   0.927   3.408  15.492 -0.9162 -0.6660  0.3285
 2444SOL     OW18790   0.318   1.451   3.655  0.2349  0.4066 -0.1003
 2444SOL    HW118791   0.335   1.529   3.708  0.4442  0.7978 -0.7273
 2444SOL    HW218792   0.379   1.388   3.693  0.2334 -1.2523 -2.8523
 2445SOL     OW18793   4.529   3.975   9.504 -0.0100 -0.7800  0.5940
 2445SOL    HW118794   4.478   4.023   9.438  3.6484  1.7051 -0.4036
 2445SOL    HW218795   4.462   3.916   9.540  1.0078 -1.1905  1.8306
 2446SOL     OW18796   1.189   2.250   0.236  0.9966 -0.4014  1.0275
 2446SOL    HW118797   1.101   2.263   0.270  0.5026 -1.2242  0.0721
 2446SOL    HW218798   1.205   2.341   0.211  0.2058 -1.0191 -1.7267
 2447SOL     OW18799   3.843   2.340  15.229  0.1355  0.1904  0.1896
 2447SOL    HW118800   3.918   2.303  15.183 -0.0801 -0.1202  0.0864
 2447SOL    HW218801   3.815   2.406  15.166  0.8848 -0.1088 -0.4521
 2448SOL     OW18802   2.713   0.457   3.624 -0.2020 -0.3774  0.4292
 2448SOL    HW118803   2.806   0.464   3.603 -0.8260 -1.2297 -2.6189
 2448SOL    HW218804   2.699   0.362   3.628  0.0686 -0.5160 -1.6006
 2449SOL     OW18805   2.359   4.078  10.816  0.5241 -0.1157 -0.4616
 2449SOL    HW118806   2.431   4.141  10.826  1.0885 -0.8063 -0.1183
 2449SOL    HW218807   2.374   4.044  10.728 -1.2396 -0.3242 -0.6760
 2450SOL     OW18808   4.699   0.533  13.263 -0.4205  0.4507 -0.0695
 2450SOL    HW118809   4.626   0.579  13.222  0.4668  2.6189  0.7948
 2450SOL    HW218810   4.721   0.468  13.195 -0.1856 -0.9862  1.3732
 2451SOL     OW18811   0.773   3.964   0.004 -0.8520 -0.2227 -0.1377
 2451SOL    HW118812   0.735   4.028  17.645  0.0198 -0.9804 -1.4952
 2451SOL    HW218813   0.824   3.914  17.642 -1.0122 -0.8713  0.2422
 2452SOL     OW18814   0.456   3.075   7.855 -0.0284 -0.5963 -0.3807
 2452SOL    HW118815   0.387   3.036   7.909  0.8997 -0.7726  0.6800
 2452SOL    HW218816   0.403   3.135   7.803 -1.7360 -1.4252  0.3633
 2453SOL     OW18817   4.640   0.711   4.769  0.0835  0.6103 -0.1589
 2453SOL    HW118818   4.579   0.743   4.702  0.1777 -0.2574 -0.6527
 2453SOL    HW218819   4.628   0.774   4.840 -1.0261 -0.3505  0.4919
 2454SOL     OW18820   2.842   2.482   8.204  0.4157  0.3765  0.3504
 2454SOL    HW118821   2.781   2.551   8.230  1.0129  1.4046 -0.9147
 2454SOL    HW218822   2.831   2.425   8.280  0.0856 -0.1760 -0.1099
 2455SOL     OW18823   2.540   3.471   9.214 -0.3418  0.3661 -0.5299
 2455SOL    HW118824   2.488   3.541   9.254  2.4296  0.8607  2.1671
 2455SOL    HW218825   2.523   3.414   9.288  0.4669 -0.0664 -0.6772
 2456SOL     OW18826   1.150   0.606   6.381 -0.0617 -0.3663 -0.3912
 2456SOL    HW118827   1.061   0.636   6.403  0.2208  0.3256 -0.1872
 2456SOL    HW218828   1.167   0.681   6.323  0.4851 -1.2038 -1.3094
 2457SOL     OW18829   2.033   1.457   5.531 -0.2349  0.4597  0.1723
 2457SOL    HW118830   2.018   1.438   5.439 -0.6485 -2.4148  0.8437
 2457SOL    HW218831   2.000   1.547   5.524  0.0700  0.8497  3.6737
 2458SOL     OW18832   1.011   3.822   6.267  0.1551  0.0530  0.4746
 2458SOL    HW118833   1.082   3.859   6.215  0.3978 -1.2605 -0.1144
 2458SOL    HW218834   0.935   3.842   6.213  2.2833  0.5470 -2.3195
 2459SOL     OW18835   4.207   3.825   3.626  0.3615 -0.0397  0.1694
 2459SOL    HW118836   4.129   3.812   3.572  0.7081 -1.0376 -0.0867
 2459SOL    HW218837   4.181   3.761   3.692  2.6332  0.8886  1.9406
 2460SOL     OW18838   0.065   3.085   9.200  0.4607 -0.5835  0.1134
 2460SOL    HW118839   0.070   3.180   9.193 -0.5510 -0.6388 -1.4721
 2460SOL    HW218840   0.059   3.055   9.109  3.6687 -2.0304  0.3847
 2461SOL     OW18841   3.466   0.406   5.723 -0.3478  0.2563  0.0568
 2461SOL    HW118842   3.481   0.476   5.786  3.1213  0.1312 -0.6589
 2461SOL    HW218843   3.379   0.423   5.686 -0.1018  0.7743 -0.2869
 2462SOL     OW18844   0.163   0.714  11.767  0.0642 -0.6727  0.5805
 2462SOL    HW118845   0.231   0.745  11.827  0.2827  0.1165 -0.0806
 2462SOL    HW218846   0.092   0.777  11.755 -0.1346 -1.1599 -0.7765
 2463SOL     OW18847   2.613   1.599  15.444  0.8180  0.1352 -0.0521
 2463SOL    HW118848   2.642   1.592  15.535 -0.9632 -1.2023  0.3954
 2463SOL    HW218849   2.702   1.612  15.411  1.7863  0.1391  2.5800
 2464SOL     OW18850   0.113   3.199   1.480  0.2241 -0.5619  0.2216
 2464SOL    HW118851   0.075   3.283   1.454  0.6085  0.2674  2.3828
 2464SOL    HW218852   0.042   3.148   1.441 -2.5783  3.3356  0.2028
 2465SOL     OW18853   2.470   2.777  12.538  0.2483 -0.4007  0.6850
 2465SOL    HW118854   2.433   2.786  12.450  2.4093 -0.1659 -0.2007
 2465SOL    HW218855   2.395   2.749  12.590  0.1132 -2.2321 -0.4880
 2466SOL     OW18856   3.878   3.860   8.795  0.3105 -0.0625 -0.2373
 2466SOL    HW118857   3.971   3.873   8.774 -0.4600  4.0226 -1.1275
 2466SOL    HW218858   3.883   3.909   8.878 -0.9986 -1.9176  0.9494
 2467SOL     OW18859   0.244   1.059   2.861 -0.2000  0.6548  0.0186
 2467SOL    HW118860   0.315   1.014   2.815 -1.8005  0.5259 -2.3135
 2467SOL    HW218861   0.254   1.054   2.956  0.4962 -0.4521 -0.1139
 2468SOL     OW18862   3.078   0.048  12.413 -0.9517 -0.1785 -0.2840
 2468SOL    HW118863   2.993   0.083  12.389 -0.4257  2.0942  1.1385
 2468SOL    HW218864   3.073   4.684  12.377  0.7395 -0.0846 -0.7411
 2469SOL     OW18865   0.520   1.886  12.970 -0.6848 -0.2168 -0.3021
 2469SOL    HW118866   0.577   1.933  13.032 -2.2026 -0.7927  1.5198
 2469SOL    HW218867   0.584   1.828  12.930 -1.1225 -1.3408  0.6471
 2470SOL     OW18868   2.759   3.316   7.575 -0.0141 -0.3604  0.2945
 2470SOL    HW118869   2.688   3.368   7.613  0.6620  1.5743 -1.0641
 2470SOL    HW218870   2.772   3.247   7.640 -1.3562 -1.1078 -0.2311
 2471SOL     OW18871   1.892   0.435   1.180  0.3078  0.4514 -0.1588
 2471SOL    HW118872   1.925   0.482   1.104  0.0036  1.2767  0.2256
 2471SOL    HW218873   1.885   0.507   1.242 -0.9164  0.5896 -0.4379
 2472SOL     OW18874   0.953   4.067   2.599  0.0124 -0.4589 -0.5233
 2472SOL    HW118875   1.030   4.053   2.654 -1.4955 -0.1849  1.6291
 2472SOL    HW218876   0.984   4.144   2.551  1.1762  1.1753  2.9122
 2473SOL     OW18877   4.142   0.513   7.500  0.1959  0.6614 -0.0778
 2473SOL    HW118878   4.079   0.440   7.499  1.5111 -0.5233  2.2002
 2473SOL    HW218879   4.132   0.552   7.587 -0.1803 -0.5008  0.4028
 2474SOL     OW18880   2.340   1.344   3.479 -0.2589  0.3694  0.3038
 2474SOL    HW118881   2.399   1.300   3.418 -1.0800  2.2635 -1.8896
 2474SOL    HW218882   2.409   1.396   3.521 -0.2644  0.2051  0.5139
 2475SOL     OW18883   4.290   3.177  14.855  0.6449 -0.1575  0.6201
 2475SOL    HW118884   4.295   3.260  14.809 -2.4656  0.5701  1.5292
 2475SOL    HW218885   4.280   3.112  14.786 -0.3565  0.1841  0.4346
 2476SOL     OW18886   1.126   3.075   4.091  0.6672  0.2564  0.0159
 2476SOL    HW118887   1.203   3.033   4.130 -0.8098 -1.5484  1.0279
 2476SOL    HW218888   1.085   3.104   4.172 -1.0515  3.2847 -1.9224
 2477SOL     OW18889   3.630   1.218   5.177 -0.2739 -0.0684 -0.0778
 2477SOL    HW118890   3.592   1.153   5.236  2.9259 -0.4369  1.5394
 2477SOL    HW218891   3.665   1.160   5.109 -0.1816 -0.1148  0.0088
 2478SOL     OW18892   2.418   2.985   5.529  0.3663 -0.3134  0.4203
 2478SOL    HW118893   2.364   3.062   5.546 -0.7155 -0.7991 -0.8666
 2478SOL    HW218894   2.503   3.027   5.517  0.0552  0.0335 -0.5388
 2479SOL     OW18895   2.516   1.490   4.941  0.0723 -0.2102  0.3484
 2479SOL    HW118896   2.582   1.432   4.903 -0.9219 -1.7399  0.9178
 2479SOL    HW218897   2.568   1.528   5.012 -0.7183  0.3547  0.6217
 2480SOL     OW18898   4.126   2.452   2.443 -0.8288  0.5887  0.3928
 2480SOL    HW118899   4.108   2.418   2.531  0.2897 -0.1086  0.3552
 2480SOL    HW218900   4.110   2.370   2.396 -2.3340  0.2755  1.4724
 2481SOL     OW18901   2.184   2.219   3.253  0.5577  0.5695  0.1053
 2481SOL    HW118902   2.099   2.198   3.215  0.6805 -1.2431  0.7826
 2481SOL    HW218903   2.169   2.296   3.308 -0.1210 -0.3223  1.1882
 2482SOL     OW18904   2.531   1.919   7.839  0.3854 -0.5231  0.0854
 2482SOL    HW118905   2.462   1.894   7.777  0.9647  2.3649 -1.7581
 2482SOL    HW218906   2.601   1.865   7.802 -0.6971 -1.6199 -0.3809
 2483SOL     OW18907   1.026   3.496   3.186 -0.3549 -0.7045  0.7462
 2483SOL    HW118908   1.084   3.442   3.133  1.8486 -0.0945  2.5230
 2483SOL    HW218909   1.050   3.450   3.267  0.2652  0.8460  1.4564
 2484SOL     OW18910   1.454   1.143   6.312  0.3104 -0.2189 -0.6558
 2484SOL    HW118911   1.466   1.194   6.392  1.7607  0.9900 -1.6232
 2484SOL    HW218912   1.394   1.072   6.332  0.7911 -0.4665 -0.1120
 2485SOL     OW18913   0.192   4.018   7.089 -0.1474 -0.1182  0.1811
 2485SOL    HW118914   0.272   3.995   7.041  0.1262 -0.0931  0.6246
 2485SOL    HW218915   0.137   4.053   7.020 -0.5551  0.0455  0.5880
 2486SOL     OW18916   0.380   1.287   6.283  0.2285 -0.2487 -0.2417
 2486SOL    HW118917   0.314   1.291   6.352 -0.2158  0.7770 -0.7242
 2486SOL    HW218918   0.374   1.196   6.256  1.9130 -1.0247  1.9567
 2487SOL     OW18919   4.549   2.986   0.419  0.3824  0.8235 -0.4892
 2487SOL    HW118920   4.461   2.975   0.383 -1.1273 -1.2764  3.7870
 2487SOL    HW218921   4.550   2.929   0.496 -0.3184  1.3403 -0.0980
 2488SOL     OW18922   0.647   0.430   8.588  0.7309  0.1545  0.4881
 2488SOL    HW118923   0.553   0.442   8.575  0.8838  1.3047  0.4509
 2488SOL    HW218924   0.653   0.344   8.548 -1.8026  1.0258 -1.7578
 2489SOL     OW18925   3.760   2.713  17.526 -0.2783 -0.2336  0.2401
 2489SOL    HW118926   3.691   2.678  17.583 -1.9244  0.9589 -1.0276
 2489SOL    HW218927   3.840   2.677  17.563  1.0225  2.3048 -0.1105
 2490SOL     OW18928   0.030   0.269   1.621 -0.2524  0.1625 -0.0856
 2490SOL    HW118929   0.058   0.280   1.531  0.0796  0.3902  0.0452
 2490SOL    HW218930   0.022   0.174   1.629 -1.4304  0.3352  0.9238
 2491SOL     OW18931   3.703   0.027   1.646  0.4435  0.1337  0.3005
 2491SOL    HW118932   3.737   0.005   1.733 -1.7785 -1.0355  0.8597
 2491SOL    HW218933   3.759   0.100   1.620  1.3963 -1.5919 -2.5746
 2492SOL     OW18934   3.488   0.650   6.670  0.1785  0.4652  0.5416
 2492SOL    HW118935   3.403   0.642   6.713 -0.5888  2.7954 -0.5280
 2492SOL    HW218936   3.493   0.567   6.622  0.1211  1.8050 -1.8109
 2493SOL     OW18937   1.928   0.370  14.126 -0.0273 -0.0201 -0.3310
 2493SOL    HW118938   1.945   0.357  14.033  0.5070 -0.4851 -0.1709
 2493SOL    HW218939   1.956   0.462  14.130  0.8366 -0.2050 -1.9942
 2494SOL     OW18940   1.185   0.777   3.875  0.2424  0.7139 -0.5003
 2494SOL    HW118941   1.214   0.695   3.834  1.2492 -0.0474  1.7034
 2494SOL    HW218942   1.097   0.784   3.839  0.2029  0.5650 -0.4322
 2495SOL     OW18943   3.134   3.926  10.253 -0.1578 -0.5006  0.1881
 2495SOL    HW118944   3.187   3.998  10.287 -1.6104  0.8092 -0.2964
 2495SOL    HW218945   3.126   3.953  10.161  0.2359 -1.1055 -0.0262
 2496SOL     OW18946   0.343   0.011  16.064  0.3613 -0.0908 -0.2434
 2496SOL    HW118947   0.286   0.087  16.050  0.6240  0.3391  1.0316
 2496SOL    HW218948   0.281   4.670  16.094 -0.4612  1.1762  0.8680
 2497SOL     OW18949   0.461   1.055   7.892 -0.4526 -0.1433  0.5660
 2497SOL    HW118950   0.520   1.097   7.829 -1.8662 -0.3766 -0.9230
 2497SOL    HW218951   0.485   1.105   7.971 -1.8326 -0.3670  1.1305
 2498SOL     OW18952   2.719   2.735   5.250 -0.4665  0.0172 -0.3113
 2498SOL    HW118953   2.699   2.641   5.244  0.4233 -0.0576 -2.0095
 2498SOL    HW218954   2.637   2.763   5.291 -0.5337 -2.3489  1.2176
 2499SOL     OW18955   0.462   2.420   7.275 -0.4167 -0.2049  0.1318
 2499SOL    HW118956   0.445   2.457   7.362 -0.6932 -2.3473  1.0014
 2499SOL    HW218957   0.451   2.497   7.220 -1.6226 -0.4169  0.0653
 2500SOL     OW18958   3.717   3.911   1.531 -0.2961  0.2799 -0.1729
 2500SOL    HW118959   3.644   3.853   1.507 -0.7235 -0.3431  2.6779
 2500SOL    HW218960   3.672   3.961   1.599 -1.0841 -1.5200  0.6449
 2501SOL     OW18961   0.672   4.528   3.551 -0.2939  0.5585 -0.6838
 2501SOL    HW118962   0.588   4.486   3.528 -0.5491 -0.8060  2.7553
 2501SOL    HW218963   0.653   4.619   3.530 -0.3528  0.4275 -1.1885
 2502SOL     OW18964   1.590   1.025   1.364 -0.1258  0.7316  0.5773
 2502SOL    HW118965   1.512   1.021   1.421  0.0766 -0.4078  0.7749
 2502SOL    HW218966   1.665   1.000   1.418  2.7042  1.8252 -2.8717
 2503SOL     OW18967   3.778   0.867   8.193  0.2285 -0.0866  0.0014
 2503SOL    HW118968   3.712   0.844   8.258 -0.4041  0.2847 -0.5160
 2503SOL    HW218969   3.861   0.869   8.242  2.3518 -0.2201 -3.6349
 2504SOL     OW18970   2.206   3.034   4.333  0.1884 -0.5067  0.0782
 2504SOL    HW118971   2.194   2.969   4.402  1.0993 -3.0401 -2.1294
 2504SOL    HW218972   2.301   3.031   4.323  0.0712 -0.0195 -1.2736
 2505SOL     OW18973   0.018   1.903   1.891 -0.3127 -0.9249  0.7926
 2505SOL    HW118974   4.698   1.919   1.809 -0.4898  1.8406  1.4313
 2505SOL    HW218975   0.067   1.822   1.876 -0.6096 -0.5848 -1.8895
 2506SOL     OW18976   4.537   0.997   4.736 -0.4887 -0.4299  0.4102
 2506SOL    HW118977   4.533   0.948   4.654  2.6293 -1.4027  0.8187
 2506SOL    HW218978   4.560   1.083   4.701 -1.1114  0.1622  1.4695
 2507SOL     OW18979   0.449   0.672   7.199  0.6268 -0.1172  0.2924
 2507SOL    HW118980   0.387   0.599   7.200  1.9510 -1.2271  0.5832
 2507SOL    HW218981   0.496   0.648   7.279  3.9937  0.6979 -1.4615
 2508SOL     OW18982   3.827   2.986   6.159 -0.4604 -0.5219  0.0389
 2508SOL    HW118983   3.775   2.923   6.209 -0.9645 -0.4629 -0.4149
 2508SOL    HW218984   3.910   2.945   6.135 -0.1816  0.1687 -0.1759
 2509SOL     OW18985   2.934   0.890   1.859 -0.3183  0.3060  0.3123
 2509SOL    HW118986   2.869   0.923   1.797 -0.2216  1.2735  0.7247
 2509SOL    HW218987   3.007   0.899   1.798  0.9618 -1.0375  1.6386
 2510SOL     OW18988   0.857   3.367   5.929  0.2570 -0.3807  0.3566
 2510SOL    HW118989   0.947   3.389   5.905  0.3021 -1.2047 -0.2637
 2510SOL    HW218990   0.861   3.271   5.938 -0.6251 -0.5231 -0.8273
 2511SOL     OW18991   4.403   1.900   2.204  0.4543 -0.2238  0.0169
 2511SOL    HW118992   4.462   1.975   2.193  0.0360 -0.0998 -1.4774
 2511SOL    HW218993   4.338   1.936   2.264 -0.6631  1.5049 -2.2087
 2512SOL     OW18994   2.376   0.740   9.466 -0.6519 -0.2701  0.1412
 2512SOL    HW118995   2.322   0.777   9.396  0.6008 -0.9726 -1.2197
 2512SOL    HW218996   2.362   0.807   9.533  0.7732 -2.6409  2.8076
 2513SOL     OW18997   4.678   0.832   6.396 -0.0897  0.1077  0.0113
 2513SOL    HW118998   4.636   0.754   6.432  3.0440 -1.5481  0.0422
 2513SOL    HW218999   4.667   0.825   6.301 -0.4904 -3.0713  0.2963
 2514SOL     OW19000   0.413   2.008   8.863 -0.7164  0.9064 -0.0970
 2514SOL    HW119001   0.460   2.003   8.780 -0.4877  1.2665  0.0113
 2514SOL    HW219002   0.459   2.068   8.922  0.0333 -1.4835  1.7287
 2515SOL     OW19003   1.045   0.116   3.746  0.2383 -0.0443  0.7618
 2515SOL    HW119004   1.012   0.128   3.657 -0.7936  0.3553  1.1976
 2515SOL    HW219005   1.114   0.053   3.727  0.6213 -0.1487  2.5225
 2516SOL     OW19006   3.506   1.742  13.080  0.1595  0.2563 -0.7797
 2516SOL    HW119007   3.468   1.727  12.994  3.1146 -0.1871 -1.9815
 2516SOL    HW219008   3.583   1.685  13.077 -0.0307 -0.0046 -0.7589
 2517SOL     OW19009   3.594   4.346  15.722  0.4648  0.2991 -0.4326
 2517SOL    HW119010   3.607   4.305  15.637  1.0269 -0.1092 -0.1509
 2517SOL    HW219011   3.592   4.438  15.699 -2.1897  0.7136  1.4537
 2518SOL     OW19012   2.638   3.051  10.911  0.1652  0.5318 -0.2591
 2518SOL    HW119013   2.669   3.071  10.822  2.0773 -0.5913  0.1595
 2518SOL    HW219014   2.645   2.955  10.911  1.7936  0.6452  0.7437
 2519SOL     OW19015   4.484   4.561  16.846  0.6232 -0.8424 -0.0437
 2519SOL    HW119016   4.534   4.555  16.765 -1.8840  0.3506 -1.6709
 2519SOL    HW219017   4.547   4.530  16.911 -1.9110 -2.2652  1.7287
 2520SOL     OW19018   1.835   2.785   7.217 -0.4556 -0.6137  0.2349
 2520SOL    HW119019   1.747   2.810   7.246 -0.0649  0.9069  0.1172
 2520SOL    HW219020   1.833   2.699   7.177 -1.9533 -0.2590 -0.4431
 2521SOL     OW19021   2.401   4.500   6.414  0.3973 -0.3306  0.4644
 2521SOL    HW119022   2.419   4.593   6.405 -0.8831 -0.2711 -1.6292
 2521SOL    HW219023   2.483   4.484   6.461 -0.5051 -1.7462  1.5714
 2522SOL     OW19024   3.895   1.920   8.138  0.4666  0.1506 -0.2379
 2522SOL    HW119025   3.892   1.994   8.200 -2.1098  1.0670 -1.4638
 2522SOL    HW219026   3.841   1.856   8.184  1.2447 -1.7370 -2.0124
 2523SOL     OW19027   0.209   3.445   4.863 -0.4482  0.1223  0.4265
 2523SOL    HW119028   0.148   3.513   4.893  2.0048  1.7958  1.6043
 2523SOL    HW219029   0.167   3.370   4.905 -1.2705 -0.9968 -2.3849
 2524SOL     OW19030   1.907   1.906   6.391  0.1378 -0.2516 -0.3616
 2524SOL    HW119031   1.988   1.956   6.389  0.2599 -0.3979  1.0134
 2524SOL    HW219032   1.845   1.958   6.442  1.8177  0.6498  0.7432
 2525SOL     OW19033   4.194   1.156   4.944  0.4458  0.0452 -0.0230
 2525SOL    HW119034   4.192   1.241   4.989  0.9350 -0.3374  0.7199
 2525SOL    HW219035   4.177   1.188   4.855 -2.3597 -2.3357 -0.3409
 2526SOL     OW19036   0.121   1.025  13.135 -0.4273  0.0802 -0.1144
 2526SOL    HW119037   0.099   0.968  13.210 -0.3748  0.6955  0.3696
 2526SOL    HW219038   0.033   1.047  13.103 -0.0529  1.1278 -0.4130
 2527SOL     OW19039   3.721   4.135  15.879 -0.4738 -0.0246 -0.4504
 2527SOL    HW119040   3.719   4.200  15.949 -0.3413  0.8658 -1.2728
 2527SOL    HW219041   3.716   4.202  15.810 -1.6778  0.6644  0.3145
 2528SOL     OW19042   0.909   1.569  12.858  0.1658  0.0475 -0.0266
 2528SOL    HW119043   0.993   1.573  12.904 -0.3357 -0.2537  0.9075
 2528SOL    HW219044   0.933   1.503  12.792 -0.3314 -0.2610  0.0969
 2529SOL     OW19045   3.467   0.993   8.219 -0.1918 -0.7361 -0.1787
 2529SOL    HW119046   3.544   1.048   8.232 -0.3642  0.0847 -2.7877
 2529SOL    HW219047   3.477   0.938   8.297  2.0479  0.3981  0.3263
 2530SOL     OW19048   4.039   3.086   7.804 -0.1927  0.1896 -0.3503
 2530SOL    HW119049   4.095   3.131   7.867  0.4555 -0.7521 -0.2409
 2530SOL    HW219050   3.972   3.041   7.856  0.0276 -3.7671 -3.4313
 2531SOL     OW19051   1.708   0.182   7.506  0.3802 -0.0053 -0.2986
 2531SOL    HW119052   1.799   0.202   7.484  0.1722  2.2732  0.9142
 2531SOL    HW219053   1.660   0.237   7.444 -1.2044 -1.3343 -0.2774
 2532SOL     OW19054   3.862   3.880   5.232  0.2795  0.1714  0.0653
 2532SOL    HW119055   3.933   3.941   5.211 -1.5337  0.9929 -3.5970
 2532SOL    HW219056   3.792   3.906   5.172 -0.7513 -0.9251  0.8039
 2533SOL     OW19057   0.912   4.194   8.482 -0.2826  0.8632 -0.0998
 2533SOL    HW119058   0.949   4.113   8.447 -1.2893  1.2202 -2.0081
 2533SOL    HW219059   0.835   4.203   8.425 -0.2456 -0.8879 -0.4241
 2534SOL     OW19060   0.854   0.469   6.362  0.1456  0.6708 -0.5441
 2534SOL    HW119061   0.918   0.417   6.312 -0.2276 -1.2627  0.9940
 2534SOL    HW219062   0.907   0.495   6.438  0.8293  1.7064 -1.3662
 2535SOL     OW19063   1.503   1.675   8.157  0.0020 -0.4002 -0.7392
 2535SOL    HW119064   1.412   1.685   8.128 -0.0095  0.1394 -0.5010
 2535SOL    HW219065   1.492   1.606   8.222 -1.0552  1.5580  1.1537
 2536SOL     OW19066   2.800   0.817   0.766 -0.0484  0.0063 -0.1249
 2536SOL    HW119067   2.794   0.831   0.860  0.2614 -0.0555 -0.0951
 2536SOL    HW219068   2.707   0.835   0.751  0.4931  1.5728 -1.6982
 2537SOL     OW19069   2.451   1.152   5.076 -0.0301 -0.0143 -0.1302
 2537SOL    HW119070   2.498   1.186   5.001 -0.6089  1.6187  0.2582
 2537SOL    HW219071   2.487   1.200   5.150 -0.0866 -1.2703  0.7180
 2538SOL     OW19072   3.258   0.123   7.790 -0.7048  0.0818 -0.0154
 2538SOL    HW119073   3.349   0.138   7.765 -1.1037 -0.3202 -1.7228
 2538SOL    HW219074   3.267   0.072   7.871 -2.1871  0.4868  0.3919
 2539SOL     OW19075   3.492   2.137   7.754 -0.1923 -0.5188 -0.2936
 2539SOL    HW119076   3.490   2.054   7.802  2.4633 -0.8973 -0.8031
 2539SOL    HW219077   3.424   2.125   7.688  1.0623  0.4817 -1.7506
 2540SOL     OW19078   2.349   4.483   5.342 -0.0726 -0.1561 -0.0053
 2540SOL    HW119079   2.368   4.393   5.369  1.0120  0.1115  0.1032
 2540SOL    HW219080   2.282   4.497   5.409  1.3105  1.1431  1.1003
 2541SOL     OW19081   4.495   1.646   5.637  0.1354 -0.2236  0.1682
 2541SOL    HW119082   4.590   1.653   5.647  0.4287 -1.9608 -1.6007
 2541SOL    HW219083   4.479   1.709   5.567 -0.1300 -2.0128 -1.3451
 2542SOL     OW19084   4.649   3.881   1.381  0.0944  0.2600  0.5433
 2542SOL    HW119085   0.008   3.887   1.427 -0.1294  0.0264  0.9888
 2542SOL    HW219086   4.600   3.851   1.458 -0.7487 -0.6687 -0.3585
 2543SOL     OW19087   2.324   2.874  15.748  0.4056 -0.0001 -0.1833
 2543SOL    HW119088   2.252   2.937  15.753  0.1268 -0.3664  0.3647
 2543SOL    HW219089   2.304   2.819  15.823 -2.5001  1.2167 -0.0706
 2544SOL     OW19090   1.508   0.180   8.567 -0.3420 -0.4312 -0.0938
 2544SOL    HW119091   1.471   0.160   8.652  0.7756 -0.0825  0.4746
 2544SOL    HW219092   1.445   0.146   8.503  0.3692 -1.0777 -0.4534
 2545SOL     OW19093   2.775   4.705   2.982 -0.6244 -0.0530  0.2028
 2545SOL    HW119094   2.809   0.069   2.977  0.1717 -0.2997  1.1527
 2545SOL    HW219095   2.853   4.651   2.975 -0.1953  0.3275  2.0013
 2546SOL     OW19096   3.226   1.275   1.641 -0.6201 -0.5121  0.1039
 2546SOL    HW119097   3.273   1.237   1.567  0.6439 -0.5459  0.9374
 2546SOL    HW219098   3.158   1.214   1.669  0.7256 -2.1763 -0.2847
 2547SOL     OW19099   4.641   4.473   4.939 -0.2785 -0.5714 -0.6777
 2547SOL    HW119100   4.678   4.404   4.884 -0.4430  0.0518 -1.5735
 2547SOL    HW219101   4.562   4.430   4.971  0.2748 -2.0960 -1.3962
 2548SOL     OW19102   0.576   1.894  16.431 -0.5544 -0.5021  0.0247
 2548SOL    HW119103   0.665   1.866  16.412 -1.0733 -1.4690 -0.9804
 2548SOL    HW219104   0.535   1.809  16.444 -1.4848  0.2605  2.1000
 2549SOL     OW19105   3.076   3.884   8.529 -0.6430  0.2317 -0.6409
 2549SOL    HW119106   3.108   3.887   8.438 -0.7395  1.6444 -0.6280
 2549SOL    HW219107   3.005   3.945   8.511 -0.4955  1.4363  2.8947
 2550SOL     OW19108   1.498   0.569   7.236 -0.6825 -0.1269 -0.0989
 2550SOL    HW119109   1.519   0.537   7.148  1.2617 -0.3392  0.4509
 2550SOL    HW219110   1.402   0.577   7.231 -0.5614 -0.0262 -2.3754
 2551SOL     OW19111   1.827   1.982   1.923  0.2691 -0.4544 -0.1799
 2551SOL    HW119112   1.780   2.065   1.922 -1.0419 -1.1336  2.9616
 2551SOL    HW219113   1.820   1.948   2.012  0.6621  1.0841  0.4544
 2552SOL     OW19114   4.245   2.545  12.754 -0.2106  0.2650  0.2875
 2552SOL    HW119115   4.293   2.605  12.811 -1.3993  2.5771 -1.1594
 2552SOL    HW219116   4.239   2.610  12.684 -0.0619 -1.3574 -1.2365
 2553SOL     OW19117   1.621   3.811   7.722 -0.3388  0.3786  0.6057
 2553SOL    HW119118   1.662   3.871   7.784 -0.0866 -0.1304  0.9263
 2553SOL    HW219119   1.541   3.862   7.707  0.0336  1.0685  0.9917
 2554SOL     OW19120   0.402   0.610   4.724 -0.2120  0.2199  0.0906
 2554SOL    HW119121   0.463   0.645   4.658 -0.4476  2.2480  0.9532
 2554SOL    HW219122   0.463   0.567   4.784 -1.5675  0.1003  1.3545
 2555SOL     OW19123   1.761   2.887  16.497  0.2054  0.4230 -0.3603
 2555SOL    HW119124   1.703   2.963  16.494 -0.3671 -0.0246 -0.7597
 2555SOL    HW219125   1.808   2.913  16.575 -1.6213  2.0871  0.1816
 2556SOL     OW19126   4.249   4.714   3.178 -0.2995  0.1418  0.1057
 2556SOL    HW119127   4.223   0.025   3.263 -1.6987 -0.8738  0.1150
 2556SOL    HW219128   4.270   4.625   3.206 -0.4753 -0.0117 -0.2498
 2557SOL     OW19129   0.235   1.538  10.843  0.1557  0.2316 -0.6835
 2557SOL    HW119130   0.225   1.485  10.764 -0.0142 -1.4271  0.4308
 2557SOL    HW219131   0.313   1.496  10.880 -1.1897 -1.4967  0.1926
 2558SOL     OW19132   4.672   3.120   1.180  0.1353 -0.3103  0.2315
 2558SOL    HW119133   0.020   3.061   1.161  1.4308  1.4461 -0.2241
 2558SOL    HW219134   4.597   3.063   1.163  1.6767 -2.3759  0.2922
 2559SOL     OW19135   3.173   2.669   8.006 -0.2849  0.4343  0.0749
 2559SOL    HW119136   3.097   2.725   8.020  0.1903  0.7677  1.3084
 2559SOL    HW219137   3.191   2.628   8.091  1.3432 -1.4024 -1.1532
 2560SOL     OW19138   0.037   1.874   5.354 -0.0018  0.0877 -0.7957
 2560SOL    HW119139   0.100   1.867   5.426  0.3236 -0.6839 -1.1564
 2560SOL    HW219140   0.036   1.969   5.344  2.9127  0.2158 -0.0479
 2561SOL     OW19141   3.792   1.266  13.986 -0.5292 -0.1693  0.5456
 2561SOL    HW119142   3.797   1.356  14.017  1.1837 -0.3277  0.7434
 2561SOL    HW219143   3.847   1.263  13.908  1.3572 -1.3098  1.9098
 2562SOL     OW19144   4.636   1.960   0.346  0.3953  0.1200 -0.0836
 2562SOL    HW119145   4.658   1.885   0.290  4.2968  1.5504 -0.5042
 2562SOL    HW219146   4.551   1.935   0.382  0.0375  1.2425 -0.1732
 2563SOL     OW19147   0.870   1.840   6.624  0.4487  0.0655 -0.2516
 2563SOL    HW119148   0.798   1.903   6.629 -1.3197 -2.0713  1.3120
 2563SOL    HW219149   0.942   1.899   6.599  1.4143 -0.0996  2.1667
 2564SOL     OW19150   2.616   1.089   8.930 -0.0773 -0.1649  0.4264
 2564SOL    HW119151   2.559   1.081   8.853  0.8180  1.1873 -0.3680
 2564SOL    HW219152   2.643   0.997   8.934  1.0790  0.1684  0.2568
 2565SOL     OW19153   0.625   1.011   4.284 -0.3505 -0.1459  0.3950
 2565SOL    HW119154   0.538   1.041   4.259 -0.8069 -0.5266  1.5177
 2565SOL    HW219155   0.644   1.071   4.357  0.0118  0.6789 -0.3790
 2566SOL     OW19156   3.488   3.618  10.810  0.6048  0.1183 -0.2115
 2566SOL    HW119157   3.434   3.668  10.872  0.5562  0.1344 -0.2669
 2566SOL    HW219158   3.445   3.600  10.727 -0.4536 -0.6352  0.4867
 2567SOL     OW19159   4.452   0.200   5.355 -0.0543 -0.2553  0.2404
 2567SOL    HW119160   4.541   0.234   5.367 -0.0115 -0.1590 -0.3548
 2567SOL    HW219161   4.461   0.120   5.408 -0.6693 -1.1522 -0.9992
 2568SOL     OW19162   0.584   0.835   9.142  0.0421  0.1603 -0.3525
 2568SOL    HW119163   0.616   0.923   9.122 -0.0057  0.3612  0.4756
 2568SOL    HW219164   0.660   0.799   9.188  0.3665  2.0153  0.5672
 2569SOL     OW19165   1.832   0.199   9.676  0.0416  0.3066 -0.6716
 2569SOL    HW119166   1.800   0.227   9.761 -0.0800 -0.9008 -0.3248
 2569SOL    HW219167   1.822   0.277   9.620 -0.8359  0.6748 -0.0033
 2570SOL     OW19168   4.352   1.792   6.336  0.1546  0.2333  0.5368
 2570SOL    HW119169   4.280   1.855   6.339  1.1079  1.3211  0.5586
 2570SOL    HW219170   4.340   1.774   6.243 -2.9669  1.6599  0.6704
 2571SOL     OW19171   3.084   4.201   9.238  0.5720 -0.7472 -0.5747
 2571SOL    HW119172   3.103   4.125   9.183 -0.3779 -1.0271 -0.5175
 2571SOL    HW219173   3.171   4.240   9.245 -0.2850  0.8213  1.2277
 2572SOL     OW19174   0.910   2.021   3.759  0.1592 -0.1755  0.3009
 2572SOL    HW119175   0.914   2.100   3.813  1.2669 -1.7443  2.5412
 2572SOL    HW219176   0.856   1.973   3.822  0.8447 -0.3537  0.7528
 2573SOL     OW19177   1.039   1.898   1.473 -0.3600 -0.0512  0.3015
 2573SOL    HW119178   0.985   1.971   1.440 -1.2944 -0.5120  0.8084
 2573SOL    HW219179   1.118   1.941   1.507  0.3450 -2.5142  1.7085
 2574SOL     OW19180   4.070   0.724   6.392  0.3354  0.4435 -0.4663
 2574SOL    HW119181   4.118   0.706   6.473 -1.0676 -1.0771  0.0213
 2574SOL    HW219182   3.990   0.673   6.404  0.6450  0.0222 -0.1822
 2575SOL     OW19183   0.216   3.039   4.524 -0.0879 -0.0807 -0.3702
 2575SOL    HW119184   0.167   3.034   4.442  0.8534  1.3239 -1.0146
 2575SOL    HW219185   0.155   3.080   4.585 -1.4368 -4.2802  1.1200
 2576SOL     OW19186   2.614   4.530  12.545  0.2104 -0.4199 -0.2452
 2576SOL    HW119187   2.628   4.605  12.487 -1.7842 -0.3255 -0.6206
 2576SOL    HW219188   2.702   4.495  12.530  1.0607  0.8311  1.8405
 2577SOL     OW19189   3.821   3.250   9.049  0.2427  0.2543  0.3788
 2577SOL    HW119190   3.764   3.271   9.123 -0.8139 -0.2398 -0.2914
 2577SOL    HW219191   3.772   3.290   8.977 -0.0459 -0.3065  0.2637
 2578SOL     OW19192   4.054   1.321  15.357 -0.0074  0.2947  0.2883
 2578SOL    HW119193   3.980   1.329  15.417 -0.8425 -0.2759 -0.6750
 2578SOL    HW219194   4.122   1.340  15.422 -0.1351  1.0161  0.2102
 2579SOL     OW19195   1.414   1.648   4.223 -0.6033  0.4524  0.6168
 2579SOL    HW119196   1.426   1.713   4.154 -1.3631 -1.7284 -1.5184
 2579SOL    HW219197   1.504   1.614   4.225 -0.6623  0.2608 -0.3942
 2580SOL     OW19198   0.672   2.407   1.617 -0.2871 -0.1390  0.5051
 2580SOL    HW119199   0.641   2.322   1.649  0.7335 -1.0688 -0.9924
 2580SOL    HW219200   0.610   2.421   1.546  1.3661  0.9354 -0.7255
 2581SOL     OW19201   2.232   1.551   8.807  0.4744  0.0368 -0.6527
 2581SOL    HW119202   2.314   1.598   8.794  0.4246 -0.4249 -2.6113
 2581SOL    HW219203   2.218   1.508   8.723  2.2082 -0.7568 -0.5229
 2582SOL     OW19204   4.105   0.688   4.674  0.2566 -0.7098  0.1343
 2582SOL    HW119205   4.067   0.643   4.750 -0.0764  0.7732  0.8517
 2582SOL    HW219206   4.162   0.750   4.719  0.5505 -0.1362 -1.0391
 2583SOL     OW19207   2.763   3.225  15.595  0.0491 -0.2284 -0.9699
 2583SOL    HW119208   2.711   3.301  15.567 -2.8723 -2.0049 -0.3349
 2583SOL    HW219209   2.779   3.178  15.513 -1.5453  1.2953 -2.1505
 2584SOL     OW19210   3.693   0.640  11.335  0.6752  0.0257  0.2568
 2584SOL    HW119211   3.625   0.706  11.346 -0.1544 -1.0600  1.5915
 2584SOL    HW219212   3.776   0.687  11.346  0.6455  0.5240 -1.5989
 2585SOL     OW19213   4.486   4.227  12.253 -0.2385  0.0096 -0.0550
 2585SOL    HW119214   4.397   4.259  12.238  0.1912  0.8808 -0.7118
 2585SOL    HW219215   4.479   4.164  12.182  1.8088 -1.8358  1.3700
 2586SOL     OW19216   3.116   2.893   5.529 -0.3364  0.4902  0.1159
 2586SOL    HW119217   3.205   2.864   5.547 -0.9266 -1.2579  0.2343
 2586SOL    HW219218   3.105   2.954   5.602  0.0196  0.8596 -0.1417
 2587SOL     OW19219   1.490   1.693   6.854  0.2118  0.0454 -0.1214
 2587SOL    HW119220   1.563   1.749   6.878 -0.8080  1.5844 -0.6471
 2587SOL    HW219221   1.423   1.759   6.837  0.2142 -0.5771 -2.5185
 2588SOL     OW19222   2.345   2.666   1.644 -0.2693  0.4574  0.4703
 2588SOL    HW119223   2.433   2.699   1.626  1.4809 -2.2040  3.9356
 2588SOL    HW219224   2.380   2.582   1.674 -1.9849 -0.4263 -0.0021
 2589SOL     OW19225   4.456   1.339   1.101  0.0421 -0.0510  0.2286
 2589SOL    HW119226   4.547   1.363   1.115  0.3304 -1.5535  0.9732
 2589SOL    HW219227   4.459   1.243   1.094  0.9782 -0.0075  0.0966
 2590SOL     OW19228   3.336   4.543  12.250 -0.2192 -0.0657 -0.2838
 2590SOL    HW119229   3.355   4.552  12.157  0.2367  0.0568 -0.1789
 2590SOL    HW219230   3.427   4.569  12.268 -0.3963  1.5578 -1.7168
 2591SOL     OW19231   1.153   0.520  15.006  0.8516  0.7994 -0.0588
 2591SOL    HW119232   1.175   0.573  15.083  0.7228  0.7515  0.0113
 2591SOL    HW219233   1.240   0.488  14.983  0.7079  0.9247 -0.7618
 2592SOL     OW19234   1.087   2.716  11.480 -0.1705 -0.0627  0.0248
 2592SOL    HW119235   1.059   2.687  11.567  1.8117 -1.8907  0.0553
 2592SOL    HW219236   1.174   2.751  11.501  0.0911 -0.5528 -0.2547
 2593SOL     OW19237   2.667   1.175   6.111  0.4040 -0.5083  0.2123
 2593SOL    HW119238   2.741   1.156   6.053 -0.5059 -0.9556 -0.8021
 2593SOL    HW219239   2.664   1.097   6.166  1.4879  0.1530  1.2096
 2594SOL     OW19240   0.497   2.118   6.226 -0.4736  0.0426  0.1587
 2594SOL    HW119241   0.484   2.121   6.132  0.3595  0.1810  0.0498
 2594SOL    HW219242   0.437   2.184   6.261  0.1393  1.0613 -0.7168
 2595SOL     OW19243   2.424   0.909  12.702  0.2187  0.3362 -0.1341
 2595SOL    HW119244   2.404   0.927  12.794 -0.8536 -1.0089 -0.0953
 2595SOL    HW219245   2.376   0.976  12.652 -1.1299 -0.3145  0.2803
 2596SOL     OW19246   3.181   1.254   4.549  0.3782 -0.0557 -0.5126
 2596SOL    HW119247   3.112   1.196   4.582  0.2472  0.2348 -0.2794
 2596SOL    HW219248   3.135   1.330   4.514 -2.4843 -1.2836  0.5640
 2597SOL     OW19249   0.623   1.833   7.054  0.5213 -0.1673  0.0297
 2597SOL    HW119250   0.574   1.868   6.980  1.3126  0.1556 -0.3485
 2597SOL    HW219251   0.612   1.908   7.112  1.4302  1.2304 -1.5999
 2598SOL     OW19252   1.278   0.856   2.412 -0.3968 -0.1322  0.3248
 2598SOL    HW119253   1.208   0.869   2.348 -1.0991 -4.7031  0.1633
 2598SOL    HW219254   1.353   0.904   2.376  1.4068 -2.0701  1.4794
 2599SOL     OW19255   1.597   3.263   6.920  0.3023  0.7446  0.1804
 2599SOL    HW119256   1.629   3.174   6.931 -2.8865 -0.6224 -1.5617
 2599SOL    HW219257   1.530   3.270   6.988 -1.5439 -0.6169 -1.5074
 2600SOL     OW19258   0.876   1.225   6.518 -0.6547  0.2516  0.4481
 2600SOL    HW119259   0.794   1.249   6.475  0.3436  1.0501 -1.0408
 2600SOL    HW219260   0.853   1.255   6.606  1.9337  3.2195  0.1343
 2601SOL     OW19261   4.196   4.144  11.993  0.2794 -0.0596  0.2655
 2601SOL    HW119262   4.280   4.184  11.976  0.0318  0.4807  0.3275
 2601SOL    HW219263   4.229   4.069  12.043  1.4411 -0.0039 -0.4131
 2602SOL     OW19264   3.084   3.402  11.896 -0.4405 -0.2996 -0.5913
 2602SOL    HW119265   3.145   3.339  11.859  0.6889 -0.3248  1.3482
 2602SOL    HW219266   3.063   3.347  11.971 -0.1560 -0.6899 -0.7965
 2603SOL     OW19267   1.716   2.520   7.564  0.0395  0.1559 -0.0140
 2603SOL    HW119268   1.791   2.542   7.620  2.1865  0.1029 -2.8896
 2603SOL    HW219269   1.746   2.455   7.501  0.6827  0.0431  0.4017
 2604SOL     OW19270   0.023   2.169   1.961  0.3001 -0.2269 -0.2863
 2604SOL    HW119271   4.677   2.224   1.929 -0.8147 -2.2080 -1.1896
 2604SOL    HW219272   4.717   2.086   1.925 -0.2111 -0.1830  0.0593
 2605SOL     OW19273   3.684   3.347   8.856 -0.5234 -0.0445  0.2247
 2605SOL    HW119274   3.666   3.312   8.769 -2.2514  0.4905  0.3738
 2605SOL    HW219275   3.626   3.422   8.874  1.1249  1.2018  0.3919
 2606SOL     OW19276   2.802   3.390   2.920  0.7999  0.0327  0.0936
 2606SOL    HW119277   2.887   3.379   2.879  0.1174 -0.1051 -1.2840
 2606SOL    HW219278   2.814   3.421   3.010 -0.2210 -3.6170  1.4965
 2607SOL     OW19279   4.463   2.725  17.316 -0.3815 -0.4009 -0.4291
 2607SOL    HW119280   4.510   2.790  17.369 -1.0498  0.9981 -1.5489
 2607SOL    HW219281   4.396   2.781  17.276 -0.1297 -0.2618 -0.6534
 2608SOL     OW19282   3.456   0.600   2.350 -0.1734 -0.1903 -0.0981
 2608SOL    HW119283   3.482   0.658   2.279 -1.1347 -0.7769 -0.9321
 2608SOL    HW219284   3.459   0.663   2.422 -1.1873  0.9172 -1.0332
 2609SOL     OW19285   3.148   3.026  12.630 -0.5422  0.6169  0.2160
 2609SOL    HW119286   3.081   3.057  12.691  0.2663  0.1122  1.3609
 2609SOL    HW219287   3.212   3.097  12.635  0.4850 -0.3159  0.3252
 2610SOL     OW19288   1.456   3.874  14.635 -0.1647  0.2084  0.0003
 2610SOL    HW119289   1.490   3.821  14.707  0.0765 -0.6351 -0.7228
 2610SOL    HW219290   1.434   3.959  14.673 -1.3581 -0.0017 -0.2068
 2611SOL     OW19291   4.375   0.345   7.588  0.3585  0.1514  0.1305
 2611SOL    HW119292   4.306   0.354   7.654  0.7215 -0.3640  0.5845
 2611SOL    HW219293   4.330   0.381   7.512 -0.3762  1.1988  1.0499
 2612SOL     OW19294   2.235   0.729  10.387 -0.5639  0.1264  0.0607
 2612SOL    HW119295   2.319   0.698  10.420 -0.9160 -0.7073  0.1850
 2612SOL    HW219296   2.179   0.670  10.438 -0.3087 -0.0173  0.1732
 2613SOL     OW19297   2.463   3.083   7.048 -0.1720 -0.2371  0.2607
 2613SOL    HW119298   2.443   2.991   7.066  0.3852 -0.3229  0.4297
 2613SOL    HW219299   2.454   3.135   7.128  0.2863 -0.7468  0.6428
 2614SOL     OW19300   2.005   3.151  11.568  0.0271 -0.2798 -0.1509
 2614SOL    HW119301   2.055   3.186  11.642  1.2674 -0.7308 -0.7803
 2614SOL    HW219302   2.078   3.147  11.506 -0.2202  0.4847 -0.4893
 2615SOL     OW19303   2.329   1.187   2.325  0.3802  0.0296  0.3986
 2615SOL    HW119304   2.287   1.105   2.302 -0.2727  0.1315  1.2253
 2615SOL    HW219305   2.419   1.161   2.346 -0.4238 -1.4492  2.0182
 2616SOL     OW19306   1.919   0.317   7.963 -0.4524 -0.4417 -0.1887
 2616SOL    HW119307   1.866   0.240   7.944 -1.6823  0.1833  0.6358
 2616SOL    HW219308   2.008   0.298   7.990 -0.7793 -2.5103 -0.6302
 2617SOL     OW19309   1.971   2.278  10.737 -0.1130  0.1401 -0.5637
 2617SOL    HW119310   1.908   2.206  10.737 -1.9905  1.7665 -1.3620
 2617SOL    HW219311   1.907   2.346  10.715 -1.8183 -1.7793 -1.6227
 2618SOL     OW19312   0.106   0.261   7.779  0.0494  0.1184 -0.2211
 2618SOL    HW119313   0.026   0.211   7.794  1.0693 -1.6190 -0.5876
 2618SOL    HW219314   0.064   0.347   7.779  1.0340  0.5972 -0.9651
 2619SOL     OW19315   2.673   4.707  10.473 -0.2241 -0.1362  0.1012
 2619SOL    HW119316   2.675   0.012  10.564  0.8181 -2.5579  0.8813
 2619SOL    HW219317   2.750   4.651  10.473  0.1618  0.3945 -1.2826
 2620SOL     OW19318   1.014   2.787   6.615 -0.8501 -0.5119  0.0533
 2620SOL    HW119319   1.058   2.868   6.587  0.8547 -2.1646 -2.0428
 2620SOL    HW219320   0.934   2.837   6.633 -0.0765  0.5642  0.5464
 2621SOL     OW19321   0.008   1.545   7.403  0.3295  0.1990 -0.3653
 2621SOL    HW119322   4.693   1.597   7.334 -3.0264  0.9730  2.1376
 2621SOL    HW219323   4.675   1.572   7.475  0.7776  2.2653 -0.7867
 2622SOL     OW19324   4.725   3.811   5.811  0.1581 -0.3361  0.7009
 2622SOL    HW119325   0.087   3.773   5.805  0.0732 -0.4061 -0.0938
 2622SOL    HW219326   0.016   3.874   5.882  0.3224  1.2331 -0.7491
 2623SOL     OW19327   0.713   0.139  15.140 -0.1480  0.0948  0.7768
 2623SOL    HW119328   0.685   0.053  15.107 -0.6724  1.4872 -2.4707
 2623SOL    HW219329   0.626   0.180  15.138  0.1742  0.8698  3.3035
 2624SOL     OW19330   3.464   2.886   2.861 -0.1587  0.5347  0.0539
 2624SOL    HW119331   3.508   2.962   2.900 -2.6028  2.3398 -0.7150
 2624SOL    HW219332   3.478   2.895   2.767  0.6081 -0.5685  0.0684
 2625SOL     OW19333   3.013   1.369  15.502  0.2781 -0.6501 -0.2741
 2625SOL    HW119334   3.023   1.354  15.596 -2.9451 -0.9545  0.0185
 2625SOL    HW219335   2.938   1.310  15.491  0.5215 -1.0710  0.3772
 2626SOL     OW19336   4.222   4.389   8.819 -0.3936  0.8578 -0.0012
 2626SOL    HW119337   4.141   4.370   8.773 -1.0111 -1.0467  1.8880
 2626SOL    HW219338   4.195   4.365   8.908 -0.3614 -1.2623 -0.5549
 2627SOL     OW19339   0.581   0.745   6.138 -0.2202  0.1955  0.2349
 2627SOL    HW119340   0.555   0.675   6.198  1.0697 -0.0465  0.5113
 2627SOL    HW219341   0.673   0.763   6.158  0.3031 -0.7757 -1.2308
 2628SOL     OW19342   1.178   0.659  13.380  0.8306 -0.0732 -0.3078
 2628SOL    HW119343   1.145   0.697  13.461  0.9509  0.0069 -0.2973
 2628SOL    HW219344   1.100   0.649  13.324 -0.2777 -0.5091  1.3125
 2629SOL     OW19345   1.121   1.008   6.036 -0.2421 -0.0504  0.5552
 2629SOL    HW119346   1.185   1.021   5.966  0.5424 -1.3835  1.0327
 2629SOL    HW219347   1.035   1.036   6.004 -0.5606 -1.5125  0.1577
 2630SOL     OW19348   2.148   2.037   6.382 -0.0379 -0.4200  0.1291
 2630SOL    HW119349   2.202   1.966   6.348  1.7165  0.6230  0.6749
 2630SOL    HW219350   2.164   2.047   6.476  1.8664  1.1249 -0.3541
 2631SOL     OW19351   2.557   2.430   7.725  0.1125  0.3131 -0.2489
 2631SOL    HW119352   2.625   2.367   7.752 -0.3694  0.7501  1.9878
 2631SOL    HW219353   2.616   2.483   7.671 -1.3372  0.0148 -2.1055
 2632SOL     OW19354   1.867   1.988   6.068  1.0914  0.2649 -0.3659
 2632SOL    HW119355   1.836   1.918   6.126 -2.2684  2.1042  0.0738
 2632SOL    HW219356   1.791   2.026   6.024 -0.0243 -0.1534  1.2097
 2633SOL     OW19357   4.024   2.514  17.391 -0.5237  0.3416  0.2223
 2633SOL    HW119358   4.102   2.459  17.396 -0.2867  0.5191 -1.3838
 2633SOL    HW219359   4.014   2.533  17.298  0.3083  1.7944  0.4186
 2634SOL     OW19360   0.269   0.806   7.961 -0.0132  0.1094 -0.1992
 2634SOL    HW119361   0.263   0.887   7.910  0.9987 -0.0277 -0.5422
 2634SOL    HW219362   0.347   0.809   8.016  1.1205  0.4750 -1.8242
 2635SOL     OW19363   4.555   1.257   2.452 -0.8856  0.2795  0.5079
 2635SOL    HW119364   4.562   1.171   2.493  0.0531  1.0610  1.9869
 2635SOL    HW219365   4.567   1.320   2.523 -1.5049  1.5284 -0.4999
 2636SOL     OW19366   0.614   0.938  15.550 -0.2045 -0.5642  0.4547
 2636SOL    HW119367   0.574   0.858  15.516 -0.7053 -0.5106  0.9098
 2636SOL    HW219368   0.540   0.964  15.606  0.9591  1.1041  1.2164
 2637SOL     OW19369   1.124   0.636  12.144 -0.1783  0.4886 -0.0514
 2637SOL    HW119370   1.165   0.555  12.175 -3.0482 -0.4507  1.3309
 2637SOL    HW219371   1.171   0.706  12.190  0.9360 -0.1922 -0.1594
 2638SOL     OW19372   4.554   2.673   1.708 -0.5644 -0.0339 -0.1192
 2638SOL    HW119373   4.638   2.651   1.669 -0.3647  0.6462 -0.0777
 2638SOL    HW219374   4.528   2.583   1.689 -0.7424 -0.0226  0.0696
 2639SOL     OW19375   0.333   3.537   1.374 -0.4244 -0.0136  0.3448
 2639SOL    HW119376   0.290   3.453   1.390  0.8304 -0.6923  0.1215
 2639SOL    HW219377   0.424   3.511   1.364 -0.2269 -0.1017  2.3778
 2640SOL     OW19378   2.466   1.878   2.713  0.0057 -0.0323 -0.2047
 2640SOL    HW119379   2.468   1.950   2.650  2.1738  2.3792  2.5924
 2640SOL    HW219380   2.451   1.803   2.656  2.3809  0.9469 -2.1405
 2641SOL     OW19381   2.649   0.697   5.580 -0.2253  0.0787 -0.3283
 2641SOL    HW119382   2.638   0.692   5.485 -0.0438 -0.7637 -0.3042
 2641SOL    HW219383   2.678   0.788   5.593  1.0787 -0.5478  1.1384
 2642SOL     OW19384   1.307   1.876   8.473 -0.1593 -0.1590 -0.2563
 2642SOL    HW119385   1.243   1.936   8.511 -1.6863 -1.5314 -0.6466
 2642SOL    HW219386   1.374   1.937   8.442 -0.3605 -1.3248 -2.9445
 2643SOL     OW19387   1.114   1.903  12.975 -0.4031 -0.0369  0.1885
 2643SOL    HW119388   1.072   1.908  13.061 -1.2355 -0.4092 -0.1890
 2643SOL    HW219389   1.112   1.989  12.933 -1.0309 -0.0436  0.1955
 2644SOL     OW19390   2.788   1.973   7.434 -0.5099 -0.1246  0.1749
 2644SOL    HW119391   2.815   1.896   7.384  1.2238  0.0138  0.8840
 2644SOL    HW219392   2.854   1.983   7.502  0.5739  0.1072 -0.8911
 2645SOL     OW19393   4.475   4.379   7.019  0.6109 -0.0806 -0.1578
 2645SOL    HW119394   4.383   4.353   7.025  0.8909 -0.6320  2.0377
 2645SOL    HW219395   4.522   4.304   6.982  0.4962  0.2444 -0.9633
 2646SOL     OW19396   2.051   1.310   1.973 -0.2667 -0.2959 -0.3835
 2646SOL    HW119397   2.009   1.359   2.044 -0.0458  0.4101 -0.7418
 2646SOL    HW219398   2.006   1.226   1.975  0.2669 -0.5652  0.4989
 2647SOL     OW19399   1.417   1.854   5.114  0.3557  0.1333 -0.1750
 2647SOL    HW119400   1.325   1.878   5.129  0.1329 -1.3624  0.8397
 2647SOL    HW219401   1.425   1.879   5.022 -2.3821 -1.4892 -0.8678
 2648SOL     OW19402   3.243   0.513   1.684 -0.0849 -0.0136  0.0021
 2648SOL    HW119403   3.308   0.470   1.629 -0.4561  1.5813 -1.6846
 2648SOL    HW219404   3.263   0.479   1.771 -2.4996  0.4079  0.7202
 2649SOL     OW19405   2.144   0.444  14.897  0.3916  0.0642 -0.2882
 2649SOL    HW119406   2.094   0.396  14.963  0.6880  0.1228 -0.0250
 2649SOL    HW219407   2.233   0.445  14.931  0.1825  1.9647  0.1792
 2650SOL     OW19408   0.606   0.487   2.198  0.0053 -0.4459  0.3737
 2650SOL    HW119409   0.653   0.407   2.177  3.2379  0.6264  3.3498
 2650SOL    HW219410   0.521   0.458   2.166 -0.7275  1.6668  0.3969
 2651SOL     OW19411   4.482   2.585   3.112 -0.0770 -0.3833  0.1637
 2651SOL    HW119412   4.529   2.643   3.172 -0.1190  0.5814 -0.7346
 2651SOL    HW219413   4.535   2.594   3.033 -0.9035  1.5114 -0.1822
 2652SOL     OW19414   0.587   3.056   8.129 -0.6771  0.2689 -0.2877
 2652SOL    HW119415   0.577   2.961   8.134  1.0366 -0.0177 -2.2027
 2652SOL    HW219416   0.542   3.070   8.045 -0.6299 -0.0549 -0.3687
 2653SOL     OW19417   4.189   3.371  17.656  0.2992 -0.2739 -0.4384
 2653SOL    HW119418   4.149   3.430  17.592  0.6594  0.1378 -0.2805
 2653SOL    HW219419   4.128   3.376   0.028  0.2869 -1.2065 -0.3928
 2654SOL     OW19420   1.859   0.695   5.678  0.4289 -0.3924 -0.2167
 2654SOL    HW119421   1.918   0.709   5.753  0.3914  1.2734 -0.4889
 2654SOL    HW219422   1.794   0.764   5.691  1.1379 -0.3168  3.0493
 2655SOL     OW19423   2.817   2.246   5.996  0.3232 -0.9233  0.5489
 2655SOL    HW119424   2.815   2.342   5.998  2.9508 -0.8689 -0.4168
 2655SOL    HW219425   2.729   2.230   6.031  0.1817 -0.9828  0.1687
 2656SOL     OW19426   1.743   1.607   3.797 -0.6401 -0.6232  0.8751
 2656SOL    HW119427   1.805   1.536   3.778 -1.5150 -1.4029  0.9297
 2656SOL    HW219428   1.744   1.601   3.893  0.3888  2.6416  1.0738
 2657SOL     OW19429   1.641   2.639   8.206  0.3501 -0.5030 -0.4199
 2657SOL    HW119430   1.593   2.577   8.152  0.8126  0.5950 -2.1121
 2657SOL    HW219431   1.711   2.582   8.238 -0.3617 -1.7784 -1.1693
 2658SOL     OW19432   2.360   0.637   4.218  0.2162  0.3055 -0.1301
 2658SOL    HW119433   2.369   0.565   4.157 -0.6247  0.6405 -0.6506
 2658SOL    HW219434   2.443   0.632   4.265  0.2939 -0.1324 -0.3184
 2659SOL     OW19435   4.693   3.387  15.454 -0.2520 -0.2390 -0.1303
 2659SOL    HW119436   4.665   3.397  15.545  1.6127 -0.4449  0.4578
 2659SOL    HW219437   0.046   3.332  15.455 -1.7070 -2.3186 -1.8624
 2660SOL     OW19438   2.505   1.486   4.469 -0.3019  0.4299  0.1314
 2660SOL    HW119439   2.461   1.566   4.495 -0.6788  0.1897  0.2268
 2660SOL    HW219440   2.593   1.525   4.476  0.0780 -0.2547 -0.7777
 2661SOL     OW19441   1.028   1.859   0.781  0.4137  0.2598 -0.4069
 2661SOL    HW119442   0.950   1.896   0.739 -0.6605 -1.8926 -0.3326
 2661SOL    HW219443   1.078   1.936   0.806  0.8771 -0.2829  0.3471
 2662SOL     OW19444   2.329   2.014  11.393  0.2453 -0.9635  0.1080
 2662SOL    HW119445   2.380   2.073  11.339 -0.5565  0.2386  0.6749
 2662SOL    HW219446   2.258   1.993  11.331 -1.8834 -0.5345  2.3712
 2663SOL     OW19447   4.443   3.383   2.363 -0.3277 -0.3953 -0.1682
 2663SOL    HW119448   4.497   3.405   2.439 -2.5920 -0.3334  1.4276
 2663SOL    HW219449   4.468   3.291   2.357  1.2896 -0.0912  1.8587
 2664SOL     OW19450   0.526   3.497   5.287  0.2391  0.3175 -0.5929
 2664SOL    HW119451   0.592   3.430   5.303 -0.5600  0.0657  1.5966
 2664SOL    HW219452   0.490   3.463   5.205  0.6584 -3.4287  0.7707
 2665SOL     OW19453   3.821   3.498  13.149  0.1223  0.0394  0.3794
 2665SOL    HW119454   3.739   3.451  13.134  0.0584  0.4375 -0.5260
 2665SOL    HW219455   3.791   3.547  13.226  1.8410  1.3464  0.2133
 2666SOL     OW19456   3.821   0.802   3.021  0.0712 -0.3294 -0.0052
 2666SOL    HW119457   3.806   0.876   2.962 -1.1931 -1.2722 -0.8795
 2666SOL    HW219458   3.754   0.748   2.979 -0.5176 -0.9904  1.7976
 2667SOL     OW19459   0.869   1.480   8.873  0.7437 -0.2403  0.2189
 2667SOL    HW119460   0.898   1.571   8.884 -0.0868 -0.2437  2.4506
 2667SOL    HW219461   0.776   1.495   8.860  0.7557 -0.2231  0.1523
 2668SOL     OW19462   1.403   4.018   6.884  0.0261 -0.0777 -0.0974
 2668SOL    HW119463   1.420   4.072   6.961  0.3357 -0.3495  0.0234
 2668SOL    HW219464   1.493   3.995   6.859  0.4558  0.8953  0.5431
 2669SOL     OW19465   2.214   0.462   5.631  0.1402  0.0063  0.1628
 2669SOL    HW119466   2.267   0.395   5.675  2.7333  1.8003 -0.2776
 2669SOL    HW219467   2.194   0.515   5.708 -0.7762  3.5365 -2.5127
 2670SOL     OW19468   4.675   1.858   4.345  0.6727 -0.1287 -0.0527
 2670SOL    HW119469   0.013   1.807   4.294  1.0924 -0.6899  1.0329
 2670SOL    HW219470   4.693   1.947   4.315 -0.7348  0.3381  0.4855
 2671SOL     OW19471   2.161   1.994  17.460 -0.2015 -0.4957  0.5955
 2671SOL    HW119472   2.180   1.904  17.483 -2.1722 -1.6475 -2.2427
 2671SOL    HW219473   2.067   1.977  17.450 -0.4750  0.7969  0.9471
 2672SOL     OW19474   3.261   2.495  14.176 -0.0055  0.2968 -0.3278
 2672SOL    HW119475   3.186   2.492  14.117  0.0318  0.6587 -0.3941
 2672SOL    HW219476   3.238   2.556  14.246 -0.8477 -0.3169 -0.0836
 2673SOL     OW19477   0.168   3.925   6.009 -0.3756  0.1050 -0.1093
 2673SOL    HW119478   0.157   3.883   6.094 -3.4944 -0.7200 -0.9127
 2673SOL    HW219479   0.229   3.992   6.039  0.8767 -2.2995  2.6867
 2674SOL     OW19480   2.104   1.603   7.495 -0.2383 -0.0603 -0.7414
 2674SOL    HW119481   2.121   1.646   7.412 -3.2152  2.0817 -0.2639
 2674SOL    HW219482   2.177   1.637   7.546 -0.2003  0.7046 -1.3161
 2675SOL     OW19483   1.055   2.867   9.817  0.2119 -0.2518 -0.1172
 2675SOL    HW119484   1.112   2.859   9.893 -0.4474  1.6829  0.5730
 2675SOL    HW219485   1.092   2.801   9.759  0.5081  1.4591 -1.8700
 2676SOL     OW19486   0.995   0.753  16.053 -0.3405 -0.5752  0.0656
 2676SOL    HW119487   0.916   0.736  16.002 -0.3139  1.5973 -0.6931
 2676SOL    HW219488   1.017   0.845  16.036  0.9435 -0.8539  0.1657
 2677SOL     OW19489   2.971   2.308   6.397 -0.3943  0.1911 -0.0818
 2677SOL    HW119490   2.891   2.309   6.345 -1.8163  0.9316  2.1319
 2677SOL    HW219491   2.947   2.268   6.480  3.3447 -1.9489 -0.0273
 2678SOL     OW19492   3.602   4.229   4.113 -0.6907 -0.2288 -0.6746
 2678SOL    HW119493   3.672   4.213   4.177 -0.5876  0.4037 -0.6238
 2678SOL    HW219494   3.529   4.236   4.175 -1.0627 -1.8209 -0.9320
 2679SOL     OW19495   4.473   2.163   4.149  0.0848  0.0720  0.0207
 2679SOL    HW119496   4.436   2.242   4.111 -1.1044 -0.7229 -0.4914
 2679SOL    HW219497   4.483   2.113   4.068  1.9959 -0.9516  0.8920
 2680SOL     OW19498   2.197   0.937  15.106 -0.1804  0.4250 -0.1333
 2680SOL    HW119499   2.118   0.982  15.138 -0.7848  2.0444 -3.8064
 2680SOL    HW219500   2.166   0.893  15.027  0.7766  0.8298 -0.7314
 2681SOL     OW19501   4.556   0.624   4.277  0.1294  0.4511 -0.4277
 2681SOL    HW119502   4.562   0.568   4.355  0.3414  1.2578  0.1405
 2681SOL    HW219503   4.490   0.575   4.228  0.5812  0.9274 -1.5060
 2682SOL     OW19504   2.499   2.444   1.564 -0.1514 -0.3037 -0.9185
 2682SOL    HW119505   2.433   2.376   1.550  0.7083 -1.3578  0.1407
 2682SOL    HW219506   2.579   2.401   1.594  0.5893  1.0068 -1.0281
 2683SOL     OW19507   1.304   0.241   6.924  0.0097  0.5113 -0.0895
 2683SOL    HW119508   1.387   0.268   6.886  0.4812  0.3044  0.7803
 2683SOL    HW219509   1.254   0.204   6.852  1.1382 -1.0047 -0.1046
 2684SOL     OW19510   1.409   1.396   7.415  0.1889  0.1073 -0.0826
 2684SOL    HW119511   1.429   1.413   7.323 -1.4051  0.8783 -0.2748
 2684SOL    HW219512   1.493   1.355   7.436  0.1861  0.1019 -0.0821
 2685SOL     OW19513   1.324   4.539   8.513 -0.4331  0.1304 -0.5986
 2685SOL    HW119514   1.243   4.509   8.553 -0.5489  2.3334  0.8580
 2685SOL    HW219515   1.382   4.470   8.545  1.9026  3.1452  1.7599
 2686SOL     OW19516   3.293   4.430   0.149 -0.1064 -0.3888 -0.0690
 2686SOL    HW119517   3.248   4.380   0.217  1.0196  0.2503  1.1430
 2686SOL    HW219518   3.300   4.366   0.078  2.1498  1.9797 -1.9910
 2687SOL     OW19519   0.888   4.334   6.912 -0.2418  0.0967 -0.2146
 2687SOL    HW119520   0.849   4.318   6.826  1.0542 -1.0364 -0.5939
 2687SOL    HW219521   0.835   4.268   6.957 -1.1449 -0.8709 -2.6759
 2688SOL     OW19522   0.431   1.521  11.110  0.2601 -0.0045 -0.2619
 2688SOL    HW119523   0.461   1.600  11.154 -1.0708  0.2535  0.1919
 2688SOL    HW219524   0.358   1.490  11.164  0.1949  1.3143  0.4073
 2689SOL     OW19525   0.971   0.739   6.769  0.6477 -0.7933  0.4052
 2689SOL    HW119526   0.941   0.721   6.859  0.1865 -0.1709  0.3777
 2689SOL    HW219527   0.899   0.800   6.752 -0.1932 -1.7853  0.3560
 2690SOL     OW19528   1.918   1.691   1.415 -0.2987  0.7334 -0.4630
 2690SOL    HW119529   1.863   1.753   1.464  0.3724  0.6663  0.3707
 2690SOL    HW219530   1.894   1.709   1.324  0.2716  1.9460 -0.3697
 2691SOL     OW19531   4.016   0.059   5.572  0.1458 -0.5045  0.0583
 2691SOL    HW119532   4.015   4.696   5.534 -0.9120 -0.0918 -0.8649
 2691SOL    HW219533   3.989   0.039   5.662 -0.1012 -0.0396  0.0858
 2692SOL     OW19534   4.094   3.683   3.854  0.1658 -0.3590 -1.1792
 2692SOL    HW119535   4.058   3.756   3.905  1.1507 -1.7609  1.5492
 2692SOL    HW219536   4.137   3.627   3.919  0.6447 -0.7331 -1.8265
 2693SOL     OW19537   3.027   3.877   3.520  0.4660  0.5494  0.5641
 2693SOL    HW119538   2.995   3.965   3.544  1.1949  0.5422  1.5320
 2693SOL    HW219539   3.087   3.896   3.448  1.3879 -1.4189  0.8177
 2694SOL     OW19540   4.120   1.020  17.567  0.2084 -0.0931  0.1554
 2694SOL    HW119541   4.086   0.934  17.544 -0.8131  0.0086  1.3278
 2694SOL    HW219542   4.045   1.049  17.618  1.7334  2.1169  1.1375
 2695SOL     OW19543   0.264   0.846   3.845 -0.4391  0.2209 -0.7233
 2695SOL    HW119544   0.312   0.773   3.805 -2.1613 -1.4700  0.2917
 2695SOL    HW219545   0.177   0.837   3.806 -1.2148 -0.5248  1.1677
 2696SOL     OW19546   1.799   0.099  14.478  0.2038  0.8454  0.0059
 2696SOL    HW119547   1.710   0.065  14.481  1.1311 -1.3937  2.5476
 2696SOL    HW219548   1.832   0.022  14.430  0.2186 -0.3089  1.8750
 2697SOL     OW19549   0.134   3.993  14.889  0.5824  0.8877 -0.3033
 2697SOL    HW119550   0.162   3.940  14.815 -2.3649 -2.6407  1.1181
 2697SOL    HW219551   0.199   3.971  14.956 -0.7150  1.3473  1.1247
 2698SOL     OW19552   1.193   3.536   8.157 -0.0393  0.0669  0.6896
 2698SOL    HW119553   1.121   3.473   8.166  2.3610 -2.7440  0.2817
 2698SOL    HW219554   1.145   3.618   8.150  0.4064  0.2586 -0.1851
 2699SOL     OW19555   4.286   0.145   4.748 -0.2267 -0.3151 -0.4572
 2699SOL    HW119556   4.379   0.141   4.768 -0.0505  1.1575 -0.9956
 2699SOL    HW219557   4.262   0.064   4.703  1.0470 -0.4044 -0.9904
 2700SOL     OW19558   0.806   0.587   5.011 -0.0760 -0.1356 -0.0708
 2700SOL    HW119559   0.841   0.513   5.059 -0.0874  1.1181  1.8703
 2700SOL    HW219560   0.763   0.531   4.946 -1.0828  1.8255 -1.0940
 2701SOL     OW19561   2.799   3.067  13.884 -0.2151  0.3917  0.6539
 2701SOL    HW119562   2.781   3.142  13.940 -1.0941 -0.2290  1.1998
 2701SOL    HW219563   2.778   3.106  13.800  1.0608 -1.5341 -0.5717
 2702SOL     OW19564   3.023   1.337   8.719 -0.5811  0.5038  0.0832
 2702SOL    HW119565   2.952   1.353   8.657 -1.4252 -0.9267  0.6990
 2702SOL    HW219566   2.975   1.345   8.802  0.2134 -2.1693  0.7878
 2703SOL     OW19567   1.081   2.677  12.993  0.3025  0.1675  1.1632
 2703SOL    HW119568   1.113   2.634  13.072 -0.2154 -2.8853 -0.2814
 2703SOL    HW219569   1.142   2.651  12.924 -0.9748  0.9637 -0.2748
 2704SOL     OW19570   3.743   0.876   0.105 -0.0593  0.1211 -0.2534
 2704SOL    HW119571   3.651   0.856   0.120 -0.1773  0.3544 -0.6748
 2704SOL    HW219572   3.777   0.799   0.150  0.2893  0.3929 -0.0549
 2705SOL     OW19573   0.968   4.407   1.316 -0.4000  0.5221  0.1034
 2705SOL    HW119574   0.880   4.417   1.351 -1.3896 -0.9783 -1.9007
 2705SOL    HW219575   0.953   4.455   1.235  2.0910 -1.1390 -1.3505
 2706SOL     OW19576   3.463   4.627   2.023  0.2429  0.4021 -0.5910
 2706SOL    HW119577   3.541   4.592   1.981  1.1600  0.3849  1.1109
 2706SOL    HW219578   3.465   4.721   2.003  3.2035 -0.0251 -2.2813
 2707SOL     OW19579   0.218   3.554   3.038  0.1151  0.2396  0.0929
 2707SOL    HW119580   0.302   3.579   3.001 -0.6834 -0.4085 -2.2276
 2707SOL    HW219581   0.236   3.567   3.131 -1.6826 -0.3970  0.5390
 2708SOL     OW19582   3.430   1.121  14.362  0.1801 -0.1256  0.0646
 2708SOL    HW119583   3.518   1.113  14.327  1.0108  0.5466  2.0331
 2708SOL    HW219584   3.375   1.112  14.284  0.3933  0.6087 -0.1721
 2709SOL     OW19585   2.196   2.074   5.946 -0.1501 -0.1192  0.3506
 2709SOL    HW119586   2.259   2.003   5.934 -1.0889 -0.9598  0.3555
 2709SOL    HW219587   2.144   2.056   5.868  2.6652 -0.1671 -1.5251
 2710SOL     OW19588   3.199   3.795   5.505 -0.6762 -0.1619  0.0342
 2710SOL    HW119589   3.236   3.736   5.572  0.8061 -1.5786 -2.0451
 2710SOL    HW219590   3.222   3.880   5.542  1.0490  0.0067 -1.4086
 2711SOL     OW19591   0.026   0.335  11.550  0.3055 -0.4891 -0.1476
 2711SOL    HW119592   0.090   0.334  11.622 -0.5524  0.4833  0.6313
 2711SOL    HW219593   0.097   0.345  11.487  1.0686  1.2807  0.9836
 2712SOL     OW19594   4.514   2.478   2.506 -0.2691 -0.0993 -0.1857
 2712SOL    HW119595   4.532   2.484   2.600  1.2656 -1.2309 -0.3960
 2712SOL    HW219596   4.470   2.562   2.495  1.0597  0.8865  1.9208
 2713SOL     OW19597   2.383   3.659  14.603  0.7064 -0.6337 -0.0582
 2713SOL    HW119598   2.442   3.732  14.585 -1.7296  0.8088 -2.2280
 2713SOL    HW219599   2.395   3.653  14.698 -2.3987  1.7954  0.5112
 2714SOL     OW19600   1.878   1.010   5.558 -0.2134 -0.0232 -0.3147
 2714SOL    HW119601   1.879   1.060   5.640 -0.7638  0.9786 -0.9141
 2714SOL    HW219602   1.873   1.088   5.503 -2.0658 -0.4710 -0.7904
 2715SOL     OW19603   2.566   0.901   4.466 -0.1386  0.8770 -0.1860
 2715SOL    HW119604   2.482   0.921   4.507 -0.2876 -1.8435  0.8140
 2715SOL    HW219605   2.574   0.807   4.480 -1.9501  0.5166 -1.6350
 2716SOL     OW19606   1.959   2.273   2.416 -0.0928  0.0954 -0.0798
 2716SOL    HW119607   1.901   2.198   2.430 -0.1573  0.4642  1.5757
 2716SOL    HW219608   1.978   2.273   2.322 -1.5512  0.5831 -0.3706
 2717SOL     OW19609   3.613   3.593   7.512  0.9374 -0.4914 -0.9487
 2717SOL    HW119610   3.530   3.582   7.466  0.6336  1.1582 -0.8189
 2717SOL    HW219611   3.588   3.660   7.576 -0.9308  0.7953 -3.0299
 2718SOL     OW19612   1.658   4.393   2.324 -0.5822  0.2308  0.6699
 2718SOL    HW119613   1.691   4.459   2.385  0.6509 -0.1703  0.4202
 2718SOL    HW219614   1.660   4.318   2.384 -0.0168  0.1624  0.5618
 2719SOL     OW19615   0.950   1.863   5.819  0.1329  0.0482  0.5634
 2719SOL    HW119616   1.009   1.924   5.776  0.8603  0.3120  1.9334
 2719SOL    HW219617   0.928   1.897   5.906  2.3157  1.7863  0.4044
 2720SOL     OW19618   3.444   2.855   4.068 -0.3737  0.3175 -0.2719
 2720SOL    HW119619   3.395   2.782   4.032 -2.3749  0.6868  1.6857
 2720SOL    HW219620   3.472   2.808   4.147  1.8516  2.4674  0.2240
 2721SOL     OW19621   3.335   1.841   5.628 -0.4310  0.1115  0.4766
 2721SOL    HW119622   3.359   1.749   5.640 -2.1333 -0.6534 -1.9409
 2721SOL    HW219623   3.251   1.838   5.582  0.8551  0.1443 -1.8468
 2722SOL     OW19624   3.235   3.387  16.517 -0.5088 -0.0945 -0.2933
 2722SOL    HW119625   3.227   3.314  16.455 -1.8126  0.7817 -1.1574
 2722SOL    HW219626   3.201   3.353  16.600 -1.4136 -0.9045 -0.9894
 2723SOL     OW19627   0.660   2.880   8.472 -1.2732 -0.0817 -0.3286
 2723SOL    HW119628   0.734   2.831   8.508 -1.6196  0.4936  1.1662
 2723SOL    HW219629   0.609   2.802   8.448  1.2023 -1.6507 -0.4348
 2724SOL     OW19630   3.521   1.147   1.587 -0.4159 -1.2991  0.1664
 2724SOL    HW119631   3.551   1.204   1.516  2.7488 -1.5892  1.2757
 2724SOL    HW219632   3.461   1.198   1.643  0.2136 -1.6461  1.1604
 2725SOL     OW19633   1.480   4.405  14.909 -0.0459 -0.4348 -0.1972
 2725SOL    HW119634   1.474   4.366  14.997 -2.7107 -0.4666 -0.3832
 2725SOL    HW219635   1.561   4.451  14.928 -1.1643  1.7179 -0.6424
 2726SOL     OW19636   2.253   2.957   3.109 -0.7410 -0.2853 -0.4720
 2726SOL    HW119637   2.290   3.009   3.181 -0.1208 -2.0363  0.4685
 2726SOL    HW219638   2.309   2.981   3.035  0.3741 -1.0817  0.1198
 2727SOL     OW19639   2.689   1.845   3.427 -0.2283 -0.8499  0.3498
 2727SOL    HW119640   2.636   1.823   3.503  1.0764  0.9461  1.7558
 2727SOL    HW219641   2.765   1.789   3.442 -0.6742 -0.4153  4.1600
 2728SOL     OW19642   2.548   3.474   3.869 -0.0082 -0.1137 -0.0504
 2728SOL    HW119643   2.480   3.436   3.813 -0.3177  1.3045 -0.6384
 2728SOL    HW219644   2.517   3.561   3.894  0.1007 -0.2857  0.6813
 2729SOL     OW19645   3.425   1.270   7.824  0.3792 -0.4735 -0.2098
 2729SOL    HW119646   3.373   1.337   7.779 -1.1292  0.4733  2.9270
 2729SOL    HW219647   3.421   1.189   7.774  0.1371 -0.4425 -0.2436
 2730SOL     OW19648   4.165   2.883   5.711  0.0709 -0.1198 -0.4306
 2730SOL    HW119649   4.111   2.856   5.786 -0.2527 -0.6192 -0.8397
 2730SOL    HW219650   4.145   2.976   5.716  0.1320 -0.1642  0.8236
 2731SOL     OW19651   0.555   1.535   0.871 -0.5975  0.4587 -0.0030
 2731SOL    HW119652   0.516   1.591   0.805 -3.1655  0.2523  1.3176
 2731SOL    HW219653   0.551   1.448   0.831  1.1656 -0.0111  0.8226
 2732SOL     OW19654   3.245   2.460  12.567  0.2854 -0.1624  0.1550
 2732SOL    HW119655   3.221   2.507  12.647 -1.5531 -2.0282  0.7038
 2732SOL    HW219656   3.217   2.372  12.589 -1.9340  0.9908  1.8817
 2733SOL     OW19657   3.061   1.406   1.979 -0.0523 -0.0890  0.2249
 2733SOL    HW119658   2.977   1.430   1.938  0.4684 -1.6415 -1.7689
 2733SOL    HW219659   3.105   1.358   1.909  1.5347 -0.7078  1.6647
 2734SOL     OW19660   2.409   1.485   1.790  0.4266 -0.2037  0.2296
 2734SOL    HW119661   2.429   1.560   1.734 -1.0730  0.5110  0.6472
 2734SOL    HW219662   2.356   1.523   1.860 -0.7391 -0.0436 -0.7386
 2735SOL     OW19663   2.694   4.596   7.276  0.1189 -0.0773  0.3200
 2735SOL    HW119664   2.752   4.559   7.210 -1.6620 -1.1543 -0.6393
 2735SOL    HW219665   2.687   4.531   7.346 -1.7180 -1.5320 -1.2137
 2736SOL     OW19666   3.864   4.047   1.349 -0.0493 -0.3269 -0.2702
 2736SOL    HW119667   3.866   4.121   1.410 -1.5266  1.7972 -2.7848
 2736SOL    HW219668   3.817   3.987   1.407 -1.3599  0.8563 -0.1021
 2737SOL     OW19669   3.577   1.264   7.280 -0.3865  0.4808  0.0974
 2737SOL    HW119670   3.661   1.228   7.306  1.0507  2.0248 -2.4270
 2737SOL    HW219671   3.588   1.356   7.302 -1.1455  1.0393 -1.8118
 2738SOL     OW19672   1.137   3.177   0.664 -0.2293 -0.1465 -0.9063
 2738SOL    HW119673   1.213   3.125   0.692  0.2505  0.9295 -0.2256
 2738SOL    HW219674   1.080   3.100   0.651  0.5840 -0.7755 -0.7290
 2739SOL     OW19675   2.552   2.287   8.211 -0.3555 -0.3583  0.2709
 2739SOL    HW119676   2.512   2.283   8.298 -3.1194  0.9502 -0.9397
 2739SOL    HW219677   2.577   2.197   8.191  2.0938  0.4162 -0.2352
 2740SOL     OW19678   1.668   0.962   3.732 -0.1029 -0.3154  0.7074
 2740SOL    HW119679   1.725   1.037   3.716 -0.1955 -0.8568 -2.2219
 2740SOL    HW219680   1.648   0.961   3.826 -1.6522  1.4527  0.3851
 2741SOL     OW19681   0.353   0.372   6.273 -0.1890  0.0666  0.1402
 2741SOL    HW119682   0.419   0.438   6.294 -1.8092  1.4980  0.6916
 2741SOL    HW219683   0.280   0.432   6.260  2.4463  3.5217  1.2346
 2742SOL     OW19684   4.121   0.965   1.940  0.1159 -0.5987 -0.1867
 2742SOL    HW119685   4.064   1.004   1.874  0.4971 -0.6742 -0.5644
 2742SOL    HW219686   4.148   1.035   1.999 -1.6757  0.5066 -0.6883
 2743SOL     OW19687   3.347   1.024   1.869  0.1737 -0.0347 -0.1168
 2743SOL    HW119688   3.431   1.046   1.908  1.0013 -1.2433 -1.2105
 2743SOL    HW219689   3.307   0.974   1.940 -0.0709 -2.7949 -2.1830
 2744SOL     OW19690   0.403   1.379   6.018 -0.1310  0.0452 -0.2095
 2744SOL    HW119691   0.412   1.365   6.113 -0.8092  1.0417 -0.0044
 2744SOL    HW219692   0.368   1.468   6.012 -1.4236 -0.4428  0.1559
 2745SOL     OW19693   4.141   3.875   2.145  0.4681 -0.2882 -0.4491
 2745SOL    HW119694   4.080   3.862   2.073 -0.5598 -0.8278  0.5148
 2745SOL    HW219695   4.082   3.906   2.213 -2.6817 -0.4982 -3.1097
 2746SOL     OW19696   3.060   3.796   2.055  0.1791  0.2324 -0.3805
 2746SOL    HW119697   2.983   3.743   2.077  1.7342 -0.7901  2.6104
 2746SOL    HW219698   3.072   3.774   1.963 -1.0776  2.7553 -1.1593
 2747SOL     OW19699   3.657   4.213   4.705 -0.6831  0.3131  0.2435
 2747SOL    HW119700   3.569   4.181   4.681  0.2544  0.1856 -3.0832
 2747SOL    HW219701   3.656   4.296   4.657  1.8657  0.1326 -0.0819
 2748SOL     OW19702   2.961   1.930   0.010 -0.3057  0.0431 -0.3711
 2748SOL    HW119703   2.906   1.852   0.016  3.2830 -2.5810 -1.5277
 2748SOL    HW219704   2.943   1.971   0.094  0.8101 -0.7105  0.2352
 2749SOL     OW19705   3.567   2.621  17.685  0.2318 -0.0076 -0.1924
 2749SOL    HW119706   3.551   2.632   0.077 -0.4722 -1.2496 -0.1701
 2749SOL    HW219707   3.483   2.586  17.655  1.1734 -0.1339 -2.7339
 2750SOL     OW19708   3.902   2.240   2.621 -0.1325  0.4826 -0.2259
 2750SOL    HW119709   3.888   2.163   2.566 -1.8019  0.0323  0.8370
 2750SOL    HW219710   3.978   2.210   2.670 -0.3856  2.0702  1.1117
 2751SOL     OW19711   2.557   0.071   4.364 -0.1574  0.2173 -0.2029
 2751SOL    HW119712   2.633   0.035   4.318  0.4142  1.0360  0.0998
 2751SOL    HW219713   2.547   0.152   4.315  0.2770  0.3714 -0.0438
 2752SOL     OW19714   0.360   3.110   5.026  0.4349  0.1344  0.0097
 2752SOL    HW119715   0.269   3.103   4.999 -0.2122 -1.5405  2.6136
 2752SOL    HW219716   0.361   3.022   5.064  0.2598  0.5081  0.8807
 2753SOL     OW19717   3.845   3.260   2.885 -0.2183  0.4058 -0.2785
 2753SOL    HW119718   3.889   3.272   2.801  1.3037 -0.0897  0.4507
 2753SOL    HW219719   3.884   3.336   2.928 -1.0317 -0.0911  1.3562
 2754SOL     OW19720   4.606   3.667   2.291  0.0000 -0.1279  0.0580
 2754SOL    HW119721   4.598   3.711   2.376  0.1953 -2.3326  1.2456
 2754SOL    HW219722   4.637   3.735   2.232 -0.9353 -0.4722 -0.8185
 2755SOL     OW19723   0.743   1.920   8.920 -0.3211  0.5491  0.5002
 2755SOL    HW119724   0.803   1.858   8.880 -0.2269  1.6662 -1.1019
 2755SOL    HW219725   0.793   1.966   8.987 -0.3333 -0.1392  0.9737
 2756SOL     OW19726   0.810   0.133   5.191  0.2213  0.1740 -0.0911
 2756SOL    HW119727   0.871   0.103   5.124 -0.1120 -1.0381  0.1621
 2756SOL    HW219728   0.765   0.198   5.137  0.5936  0.1211 -0.4682
 2757SOL     OW19729   2.142   1.556   1.523  0.0568  0.6690 -0.5287
 2757SOL    HW119730   2.069   1.588   1.470  0.5239  0.8229 -1.0793
 2757SOL    HW219731   2.132   1.603   1.606  0.5465 -0.6845  0.2988
 2758SOL     OW19732   3.348   3.588   7.754 -0.1727  0.0976 -0.2462
 2758SOL    HW119733   3.276   3.652   7.749  2.1356  2.6643 -0.9093
 2758SOL    HW219734   3.341   3.560   7.663  0.5782  1.1227 -0.6268
 2759SOL     OW19735   4.165   3.192   4.312 -0.4258 -0.5461  0.1045
 2759SOL    HW119736   4.107   3.259   4.349 -1.3782 -1.0441 -0.4718
 2759SOL    HW219737   4.157   3.117   4.372 -0.8005 -1.1356 -0.6861
 2760SOL     OW19738   2.452   2.404  15.910  0.4389 -0.0601  0.3138
 2760SOL    HW119739   2.546   2.383  15.912  0.3027 -0.7546 -0.6439
 2760SOL    HW219740   2.454   2.473  15.844 -5.3236  1.7473  2.0546
 2761SOL     OW19741   0.305   2.102  13.179 -0.3703  0.3160 -0.3088
 2761SOL    HW119742   0.386   2.150  13.161  0.7433 -1.1200  0.8760
 2761SOL    HW219743   0.280   2.144  13.262  1.1776 -1.0363  0.8448
 2762SOL     OW19744   4.632   1.523  11.321  0.7067 -0.1273  0.6954
 2762SOL    HW119745   4.619   1.502  11.414 -0.9269 -0.2080  0.4591
 2762SOL    HW219746   4.719   1.561  11.324  0.3264  0.8714 -0.8578
 2763SOL     OW19747   3.692   4.309   6.853  0.8470 -0.9351 -0.7540
 2763SOL    HW119748   3.611   4.258   6.859  0.1747  0.4006  1.3587
 2763SOL    HW219749   3.690   4.364   6.931  0.1304 -0.0645 -1.3811
 2764SOL     OW19750   4.015   2.222  11.761  0.7885 -0.4571 -0.5618
 2764SOL    HW119751   3.993   2.204  11.670 -0.0279 -0.2952 -0.4008
 2764SOL    HW219752   4.106   2.248  11.753  1.0378 -0.8926  0.8215
 2765SOL     OW19753   0.967   2.011   6.344 -0.4032  0.1391 -0.4704
 2765SOL    HW119754   1.016   2.093   6.339 -0.0944 -0.0576 -0.6807
 2765SOL    HW219755   0.882   2.046   6.371 -2.0592 -2.0261 -2.8465
 2766SOL     OW19756   2.188   2.729   1.912  0.3164  0.7040  0.3385
 2766SOL    HW119757   2.234   2.708   1.831  0.0873  0.1546  0.3498
 2766SOL    HW219758   2.257   2.782   1.952 -0.3676  1.0560  1.0549
 2767SOL     OW19759   0.549   4.458  16.296  0.3175  0.2486  0.6703
 2767SOL    HW119760   0.454   4.447  16.294  0.3414  0.0100  0.8423
 2767SOL    HW219761   0.551   4.553  16.304 -0.5160  0.3388 -0.1371
 2768SOL     OW19762   1.080   2.541  10.814  0.0631  0.3053 -0.6773
 2768SOL    HW119763   1.168   2.509  10.835 -0.2552 -0.1861 -0.0976
 2768SOL    HW219764   1.027   2.471  10.852  0.4834  0.7947  0.8254
 2769SOL     OW19765   4.209   1.642   5.462  0.1655 -0.4224 -0.6403
 2769SOL    HW119766   4.212   1.577   5.532 -1.5266 -0.6259 -0.7530
 2769SOL    HW219767   4.301   1.629   5.437  0.7437 -0.2301  1.3694
 2770SOL     OW19768   1.585   2.915  12.596 -0.0564 -0.1183 -0.4642
 2770SOL    HW119769   1.586   2.980  12.666  2.0389 -1.1703  0.4612
 2770SOL    HW219770   1.629   2.971  12.532  0.2233 -1.3712 -1.3781
 2771SOL     OW19771   4.439   0.987  12.603 -0.4808 -0.4621  0.1732
 2771SOL    HW119772   4.463   0.896  12.622 -0.3453 -0.3759  0.4124
 2771SOL    HW219773   4.359   0.989  12.655  0.4222  0.3391  1.5313
 2772SOL     OW19774   3.491   0.052   2.833  0.1543  0.1035 -0.0182
 2772SOL    HW119775   3.484   4.717   2.758 -0.8201  0.9706 -0.6287
 2772SOL    HW219776   3.541   4.720   2.891  1.1520  1.8218  0.7966
 2773SOL     OW19777   4.624   1.519  15.991  0.1334  0.5287  0.9032
 2773SOL    HW119778   4.615   1.563  15.906  0.8531 -2.8602 -0.9086
 2773SOL    HW219779   4.720   1.520  15.990  0.1427  1.1234  2.2743
 2774SOL     OW19780   1.543   0.499   2.991  0.5911 -0.1631 -0.5896
 2774SOL    HW119781   1.611   0.466   2.934  1.3129  1.1082 -0.4651
 2774SOL    HW219782   1.473   0.521   2.929  1.1170 -2.1857 -1.8736
 2775SOL     OW19783   3.762   0.354  16.543  0.4029  0.0849  0.0936
 2775SOL    HW119784   3.674   0.315  16.545 -0.0366  1.1463  2.6788
 2775SOL    HW219785   3.809   0.309  16.473  0.2778 -0.4395  0.3475
 2776SOL     OW19786   2.315   1.578   2.026 -0.6894  0.4285 -0.1646
 2776SOL    HW119787   2.332   1.635   2.102  0.1247 -1.8958  1.3819
 2776SOL    HW219788   2.249   1.519   2.061  1.3924 -1.9856 -0.3005
 2777SOL     OW19789   0.502   3.658   6.104  0.1718  0.2551  0.1990
 2777SOL    HW119790   0.575   3.605   6.135 -0.0202  1.2847  2.4026
 2777SOL    HW219791   0.492   3.715   6.180 -0.8322  1.3795 -0.7619
 2778SOL     OW19792   2.132   1.603   4.696 -0.7044  0.0858 -0.2554
 2778SOL    HW119793   2.150   1.509   4.708 -0.5834  0.1107 -0.2436
 2778SOL    HW219794   2.218   1.631   4.725  0.4467 -0.7247 -2.8992
 2779SOL     OW19795   2.571   0.007   4.039 -0.1533 -0.2715 -0.1132
 2779SOL    HW119796   2.650   0.013   4.093 -1.8000  1.3156  2.0996
 2779SOL    HW219797   2.604   0.063   3.968 -1.2024 -0.3637 -0.6701
 2780SOL     OW19798   1.850   2.928   9.345  0.1414  0.4302 -0.0293
 2780SOL    HW119799   1.771   2.882   9.371  1.3950 -1.8686 -0.2547
 2780SOL    HW219800   1.859   2.969   9.430 -0.5716 -1.0387  0.7486
 2781SOL     OW19801   0.979   4.390   6.140  0.0299 -0.2465 -0.0090
 2781SOL    HW119802   0.980   4.466   6.082  2.2785 -0.7094 -0.5735
 2781SOL    HW219803   1.001   4.313   6.088  0.0176 -1.2943  1.5496
 2782SOL     OW19804   1.715   0.727   0.924  0.0334 -0.5803  0.4121
 2782SOL    HW119805   1.762   0.745   1.005  0.2829 -0.4225  0.2334
 2782SOL    HW219806   1.650   0.795   0.937 -0.3123 -0.7448 -0.4253
 2783SOL     OW19807   4.277   0.122  16.075  0.4275 -0.0281  0.2115
 2783SOL    HW119808   4.301   0.184  16.006  0.6896  0.8338  1.0788
 2783SOL    HW219809   4.330   0.148  16.150 -1.7489  1.2287  1.3422
 2784SOL     OW19810   1.786   2.295   4.000 -1.0487  0.0104 -0.4888
 2784SOL    HW119811   1.789   2.373   4.056 -1.1711  1.6843 -2.8278
 2784SOL    HW219812   1.862   2.310   3.944  1.5364 -1.4972  2.5939
 2785SOL     OW19813   3.339   0.854  15.670  0.4095 -0.3612  0.1877
 2785SOL    HW119814   3.394   0.908  15.727 -0.7912 -0.8313  1.7942
 2785SOL    HW219815   3.387   0.851  15.587 -2.0288 -0.7696 -1.2040
 2786SOL     OW19816   4.583   1.966   1.685 -0.7098 -0.0821 -0.2684
 2786SOL    HW119817   4.574   2.038   1.622  1.4857 -1.3878 -2.0570
 2786SOL    HW219818   4.597   1.886   1.635 -0.0306 -1.3896  2.0279
 2787SOL     OW19819   2.922   3.359  11.381 -0.4453 -0.8012 -0.1157
 2787SOL    HW119820   2.970   3.397  11.454  0.0794 -0.2016 -0.7718
 2787SOL    HW219821   2.957   3.270  11.388  1.2672 -0.0798  0.5192
 2788SOL     OW19822   4.594   2.271   7.379  0.2292  0.0018  0.2376
 2788SOL    HW119823   4.632   2.286   7.293  0.3750  3.2892  0.8796
 2788SOL    HW219824   4.662   2.219   7.421 -0.9902 -1.4748  0.3797
 2789SOL     OW19825   0.404   0.623   1.202 -0.3413  0.2365 -0.0993
 2789SOL    HW119826   0.491   0.655   1.223  0.5480 -1.8753 -0.5590
 2789SOL    HW219827   0.382   0.578   1.283  0.0135 -0.8049 -0.5816
 2790SOL     OW19828   1.303   3.197   8.705  0.5681  0.2883 -0.1824
 2790SOL    HW119829   1.238   3.149   8.654  0.0020 -0.7415  1.5220
 2790SOL    HW219830   1.281   3.166   8.792 -1.3331  0.5292 -0.5865
 2791SOL     OW19831   1.660   3.683   7.042 -0.4362  0.3152 -0.0806
 2791SOL    HW119832   1.608   3.620   7.093  1.1026 -1.8229 -1.1157
 2791SOL    HW219833   1.680   3.757   7.098 -0.1181 -0.4889  0.8638
 2792SOL     OW19834   1.100   0.203   7.134  0.4823  0.4544 -0.8037
 2792SOL    HW119835   1.083   0.116   7.169 -0.3307  1.0370  0.2333
 2792SOL    HW219836   1.124   0.187   7.043 -0.4814  1.2792 -1.2103
 2793SOL     OW19837   0.721   4.512   1.608 -0.7899  0.6598 -0.2255
 2793SOL    HW119838   0.786   4.580   1.627  0.6105 -0.7167 -0.0016
 2793SOL    HW219839   0.727   4.466   1.692 -0.9098 -0.7101 -0.9552
 2794SOL     OW19840   0.447   0.637   5.920 -0.2528  0.1253  0.1130
 2794SOL    HW119841   0.470   0.690   5.997 -0.5474 -1.4033  1.2644
 2794SOL    HW219842   0.522   0.578   5.913 -0.4938  0.0472 -1.7181
 2795SOL     OW19843   2.462   2.561   6.595  0.3076 -0.6825 -0.0854
 2795SOL    HW119844   2.380   2.548   6.548 -1.4059  2.4928  2.0641
 2795SOL    HW219845   2.485   2.649   6.564 -0.1796 -0.5589 -0.0978
 2796SOL     OW19846   0.567   3.001   7.513 -0.4421 -0.2746 -0.2625
 2796SOL    HW119847   0.546   3.094   7.504 -0.7211 -0.4633 -1.6517
 2796SOL    HW219848   0.590   2.968   7.426 -0.4942 -1.1073  0.0329
 2797SOL     OW19849   0.139   0.567   5.334  0.2256  0.6397 -0.0846
 2797SOL    HW119850   0.228   0.546   5.307 -0.2393  0.5219 -1.5178
 2797SOL    HW219851   0.114   0.613   5.255 -0.2530  0.7147  0.1084
 2798SOL     OW19852   2.856   0.658  11.019  0.1814 -0.4128 -0.1876
 2798SOL    HW119853   2.775   0.612  11.040 -0.2300 -0.1075 -1.1169
 2798SOL    HW219854   2.819   0.746  11.025 -0.9932 -0.9556  0.6394
 2799SOL     OW19855   4.163   1.198   7.293 -0.3604  0.4004 -0.1957
 2799SOL    HW119856   4.117   1.225   7.214 -2.1399  1.4710  1.2006
 2799SOL    HW219857   4.106   1.126   7.318 -0.2447  0.5736  0.5602
 2800SOL     OW19858   0.039   2.647   8.528 -0.1906  0.9641 -0.0878
 2800SOL    HW119859   0.069   2.565   8.567 -0.2575  0.3910 -1.2721
 2800SOL    HW219860   0.124   2.684   8.506 -0.1072  1.1165  0.4703
 2801SOL     OW19861   2.572   3.830  12.934  0.5292 -0.5311 -0.2993
 2801SOL    HW119862   2.480   3.804  12.922  0.0930 -0.2532  2.3880
 2801SOL    HW219863   2.583   3.888  12.859 -1.3322 -0.7254 -0.7351
 2802SOL     OW19864   1.970   3.905   8.207 -0.1522  0.0951 -0.5636
 2802SOL    HW119865   1.967   3.814   8.235  0.8437  0.8603  1.9822
 2802SOL    HW219866   1.881   3.937   8.217  0.0198 -0.0678  1.3442
 2803SOL     OW19867   1.271   2.967   7.407 -0.5038  0.0642  0.1835
 2803SOL    HW119868   1.294   3.060   7.413  0.7177 -0.0693 -2.4212
 2803SOL    HW219869   1.261   2.949   7.313 -2.9690 -2.6563  0.9685
 2804SOL     OW19870   3.593   1.739   2.438 -0.3923 -0.6297  0.7028
 2804SOL    HW119871   3.508   1.764   2.403 -0.0505  0.9448  0.9595
 2804SOL    HW219872   3.589   1.778   2.525 -2.5033  0.6714  0.0123
 2805SOL     OW19873   3.530   2.266   6.011 -0.5291 -0.3409  0.4427
 2805SOL    HW119874   3.565   2.178   5.995  1.6775  0.4220  1.1998
 2805SOL    HW219875   3.435   2.253   6.005 -0.2227 -2.5605  0.1457
 2806SOL     OW19876   1.160   1.992   1.798  0.1878  0.2214  0.4262
 2806SOL    HW119877   1.173   1.968   1.889  0.3631  1.5160  0.7451
 2806SOL    HW219878   1.203   1.920   1.752  1.9103  1.3583  0.2574
 2807SOL     OW19879   1.687   3.211   8.702 -0.3175 -0.0468 -0.2398
 2807SOL    HW119880   1.621   3.214   8.634  1.0336  0.3056 -1.5353
 2807SOL    HW219881   1.636   3.181   8.777  0.5680  5.9645  2.8442
 2808SOL     OW19882   2.101   0.290   9.009 -0.0932 -0.0955  0.6305
 2808SOL    HW119883   2.065   0.273   8.922  0.1416 -0.4367  0.5997
 2808SOL    HW219884   2.094   0.386   9.013 -0.8331 -0.0540 -1.5260
 2809SOL     OW19885   0.920   3.662   4.494  0.6337  0.0700  0.8657
 2809SOL    HW119886   1.007   3.691   4.468 -0.4443  2.0223 -0.6164
 2809SOL    HW219887   0.885   3.742   4.534  0.0017  0.4661 -0.4697
 2810SOL     OW19888   2.659   3.731  17.146 -0.5044  0.0777  0.0118
 2810SOL    HW119889   2.734   3.752  17.091 -0.8320 -0.9740 -0.8319
 2810SOL    HW219890   2.697   3.687  17.222  3.7220  0.0666 -2.1499
 2811SOL     OW19891   2.657   2.367   0.552  0.3182  0.1001 -0.0509
 2811SOL    HW119892   2.639   2.280   0.585  0.4344 -0.6466 -1.9350
 2811SOL    HW219893   2.567   2.401   0.550  0.4163  0.2652 -1.9167
 2812SOL     OW19894   1.697   4.141   9.053 -0.2663  0.2893 -0.2933
 2812SOL    HW119895   1.637   4.216   9.050 -2.1347 -1.1359  1.4860
 2812SOL    HW219896   1.749   4.145   9.132 -0.2614  0.1233 -0.2895
 2813SOL     OW19897   1.744   1.167  12.076 -0.3441 -0.0738 -0.1874
 2813SOL    HW119898   1.777   1.082  12.105  1.4288  0.9906  0.8938
 2813SOL    HW219899   1.800   1.172  11.999 -1.7006  0.0060 -1.1761
 2814SOL     OW19900   4.344   2.444   4.541 -0.0076  0.2817  0.2490
 2814SOL    HW119901   4.324   2.412   4.453 -2.0855  0.6413  0.5924
 2814SOL    HW219902   4.370   2.358   4.575  1.3272  0.5164 -0.2040
 2815SOL     OW19903   0.376   1.020   6.246 -0.1072 -0.3321  0.5028
 2815SOL    HW119904   0.355   0.953   6.311 -1.1766 -0.4461  0.0498
 2815SOL    HW219905   0.312   1.001   6.177  2.6279 -1.6176 -1.7103
 2816SOL     OW19906   2.946   2.111   5.493 -0.3427 -0.4423  0.6935
 2816SOL    HW119907   2.880   2.178   5.515  0.7960  0.4429  1.3970
 2816SOL    HW219908   3.025   2.164   5.483  0.8618 -2.5625 -0.8222
 2817SOL     OW19909   3.064   4.059  15.858  0.4584 -0.3359 -0.5421
 2817SOL    HW119910   3.049   4.153  15.844  0.4930 -0.1298  0.8701
 2817SOL    HW219911   3.154   4.071  15.887  0.8909  0.3384 -2.1229
 2818SOL     OW19912   4.370   3.331  10.772 -0.0292  0.5009  0.3997
 2818SOL    HW119913   4.416   3.397  10.823 -1.8568  1.6591  0.5320
 2818SOL    HW219914   4.317   3.281  10.834 -0.4538 -0.8056 -1.0218
 2819SOL     OW19915   1.208   0.769   4.873 -0.1800 -0.3195 -0.3273
 2819SOL    HW119916   1.272   0.811   4.817  1.4567 -0.9730  1.0435
 2819SOL    HW219917   1.129   0.783   4.822 -0.1386  1.4251  0.1112
 2820SOL     OW19918   1.696   4.447   8.297  0.1529  0.0904 -0.1963
 2820SOL    HW119919   1.739   4.511   8.241 -1.1425  1.3877  0.3050
 2820SOL    HW219920   1.620   4.500   8.321  0.7955  0.8473  0.1851
 2821SOL     OW19921   0.757   3.186   4.123 -0.4902  0.0156  0.1280
 2821SOL    HW119922   0.744   3.214   4.033 -1.6172 -0.5531  0.1160
 2821SOL    HW219923   0.819   3.117   4.098 -0.7567 -0.4471  0.7364
 2822SOL     OW19924   3.029   0.648   7.299  0.4125 -0.3133 -0.3196
 2822SOL    HW119925   3.025   0.744   7.292  3.4093 -0.0673  1.4693
 2822SOL    HW219926   3.105   0.630   7.245  0.8248 -0.9514  0.4742
 2823SOL     OW19927   1.305   3.556   8.894 -0.7725 -0.3333  0.0609
 2823SOL    HW119928   1.357   3.636   8.908  0.0505 -1.1803  1.7616
 2823SOL    HW219929   1.323   3.504   8.972  0.0444  1.0812  0.8214
 2824SOL     OW19930   2.541   1.273   8.476  0.0701  0.4690  0.2905
 2824SOL    HW119931   2.526   1.238   8.564  2.1536 -3.4759 -0.9419
 2824SOL    HW219932   2.480   1.225   8.420 -1.1661 -0.3653  2.3334
 2825SOL     OW19933   4.050   4.066  11.446 -0.4803 -0.2674 -0.4817
 2825SOL    HW119934   4.126   4.048  11.502  0.0911 -3.2268 -2.1771
 2825SOL    HW219935   4.088   4.102  11.366  0.7563  0.7229  0.5538
 2826SOL     OW19936   2.922   2.107   7.034  0.3937  0.2122  0.8711
 2826SOL    HW119937   2.968   2.171   6.980 -1.1869  1.3133  0.8094
 2826SOL    HW219938   2.994   2.066   7.081  0.5907  1.4529  1.6745
 2827SOL     OW19939   2.748   3.473  15.898 -0.0906 -0.7631  0.1586
 2827SOL    HW119940   2.664   3.477  15.943 -0.0123  0.8330  0.1497
 2827SOL    HW219941   2.726   3.490  15.806  2.8683  0.7038 -0.2647
 2828SOL     OW19942   0.654   4.139   3.668 -0.0134 -0.0840 -0.2787
 2828SOL    HW119943   0.677   4.046   3.667  1.1437  0.1863  1.0989
 2828SOL    HW219944   0.710   4.176   3.600  1.1934 -1.1372  0.1373
 2829SOL     OW19945   1.454   1.156   4.110  0.4846  0.7294  0.2358
 2829SOL    HW119946   1.410   1.237   4.134  3.1647  2.2732 -0.0566
 2829SOL    HW219947   1.382   1.117   4.060  1.6059 -1.2122  0.1341
 2830SOL     OW19948   3.931   4.189  17.513 -0.5605 -0.5764  0.4903
 2830SOL    HW119949   3.873   4.225  17.445  1.5869  1.1967 -0.4287
 2830SOL    HW219950   3.965   4.272  17.547 -0.8491  0.2262 -1.1504
 2831SOL     OW19951   1.034   1.185   4.704  0.5620 -1.1839 -0.1097
 2831SOL    HW119952   1.129   1.189   4.690  0.5200  0.7448  0.0838
 2831SOL    HW219953   1.013   1.271   4.740  2.9239 -0.9117  0.6238
 2832SOL     OW19954   2.259   4.052   9.569  0.4822 -0.0223 -0.1793
 2832SOL    HW119955   2.275   3.958   9.572  0.4774 -0.0347 -0.5375
 2832SOL    HW219956   2.298   4.066   9.655  0.4916  2.2532 -0.5587
 2833SOL     OW19957   1.157   0.898   4.331 -0.1902 -0.2828  0.0779
 2833SOL    HW119958   1.239   0.875   4.376 -0.1259  1.7785  1.0085
 2833SOL    HW219959   1.095   0.835   4.368 -0.5770  0.1625  0.1880
 2834SOL     OW19960   3.150   1.968  12.769 -0.6029  0.4444  0.2393
 2834SOL    HW119961   3.163   2.062  12.753  0.3312  0.2449 -0.1270
 2834SOL    HW219962   3.196   1.940  12.691 -1.3717 -0.1615  0.0072
 2835SOL     OW19963   0.574   3.836   6.821  0.2239 -0.1812  0.2855
 2835SOL    HW119964   0.522   3.794   6.890  1.1317 -1.1017  0.4135
 2835SOL    HW219965   0.653   3.783   6.827  2.4724  3.2584  0.8580
 2836SOL     OW19966   0.578   1.013   6.066  0.2298 -0.3364  0.5582
 2836SOL    HW119967   0.573   0.918   6.058  0.1335 -0.3606  0.9089
 2836SOL    HW219968   0.518   1.035   6.137  1.0627 -0.0576  1.1794
 2837SOL     OW19969   4.451   3.484  15.301  0.3841  0.4792  0.2043
 2837SOL    HW119970   4.436   3.416  15.235 -2.2690 -0.8008  2.1042
 2837SOL    HW219971   4.531   3.457  15.346  0.8308 -0.9888 -1.4573
 2838SOL     OW19972   4.705   4.013   8.205  0.0723 -0.3163  0.2918
 2838SOL    HW119973   4.716   4.095   8.156  1.9436  0.2177  1.6059
 2838SOL    HW219974   4.641   3.963   8.155  0.2416  0.0256 -0.2667
 2839SOL     OW19975   0.131   2.014   4.043 -0.0842  0.1027  0.2757
 2839SOL    HW119976   0.086   2.069   3.979  0.9999  3.0709  2.0856
 2839SOL    HW219977   0.103   2.061   4.121 -4.0503 -0.7002 -0.6671
 2840SOL     OW19978   0.529   3.046   9.865  0.6804 -0.4875 -0.0154
 2840SOL    HW119979   0.552   3.138   9.859  0.4428 -0.3623  0.9828
 2840SOL    HW219980   0.440   3.066   9.892  0.2347 -0.0694 -1.8405
 2841SOL     OW19981   3.821   3.915  11.383  1.0130  0.5063  0.3348
 2841SOL    HW119982   3.913   3.939  11.386  0.8831  0.9225  0.9612
 2841SOL    HW219983   3.780   4.001  11.389  2.3756  1.0673  1.4199
 2842SOL     OW19984   0.430   3.761   0.791  0.4309 -0.9225 -0.2730
 2842SOL    HW119985   0.480   3.682   0.772 -0.6458 -1.2645 -1.6183
 2842SOL    HW219986   0.498   3.820   0.825 -0.5781 -0.5000  1.0054
 2843SOL     OW19987   3.366   3.672  17.449 -0.9528  0.0458  0.2318
 2843SOL    HW119988   3.289   3.614  17.444 -1.1839  0.7207 -3.6387
 2843SOL    HW219989   3.397   3.639  17.534 -0.7025  0.5383  0.3317
 2844SOL     OW19990   1.532   3.244  12.296 -0.0869  0.2481 -0.3488
 2844SOL    HW119991   1.545   3.339  12.293  0.6819  0.1482 -0.1420
 2844SOL    HW219992   1.456   3.221  12.243 -0.8044 -1.0384  1.2180
 2845SOL     OW19993   0.019   2.151   5.448 -0.0985  0.4641  0.2799
 2845SOL    HW119994   4.693   2.218   5.493 -0.2688  1.0138 -0.7280
 2845SOL    HW219995   0.109   2.182   5.454 -0.3867  1.2797  0.2733
 2846SOL     OW19996   2.868   0.059   0.400  0.4073  0.2920  0.1339
 2846SOL    HW119997   2.954   0.057   0.358  0.6055  3.3136  0.4176
 2846SOL    HW219998   2.824   0.106   0.329  1.1292  2.9138  1.4360
 2847SOL     OW19999   0.712   0.589   1.315 -0.3537  0.7330  0.1209
 2847SOL    HW120000   0.807   0.576   1.311 -0.7751 -0.1961 -6.6061
 2847SOL    HW220001   0.676   0.500   1.319  1.6160 -0.0348  1.3208
 2848SOL     OW20002   4.399   4.318  11.983 -0.6184  0.4192  0.0176
 2848SOL    HW120003   4.479   4.357  12.017  0.7876 -0.9631 -1.7035
 2848SOL    HW220004   4.392   4.349  11.892  4.5435  0.7751 -0.2446
 2849SOL     OW20005   4.557   3.735   6.962 -0.5219 -0.2209  0.0815
 2849SOL    HW120006   4.595   3.784   7.034 -0.8471 -2.4587  1.7521
 2849SOL    HW220007   4.627   3.687   6.918 -2.4280 -1.0395 -2.1108
 2850SOL     OW20008   0.977   4.414   2.781 -0.2339 -0.5326 -0.1571
 2850SOL    HW120009   0.901   4.355   2.784 -3.8013  3.9545 -1.3950
 2850SOL    HW220010   0.960   4.476   2.710  0.0082  0.7847  0.9389
 2851SOL     OW20011   2.197   0.345  17.308 -0.0210 -0.5750 -0.1578
 2851SOL    HW120012   2.289   0.327  17.328  0.2741  0.6878 -0.3423
 2851SOL    HW220013   2.143   0.306  17.376  0.1904  0.1150  0.4022
 2852SOL     OW20014   1.441   2.867   8.109  0.4251 -0.1031 -0.2420
 2852SOL    HW120015   1.397   2.834   8.031  0.2547 -1.8333  0.5650
 2852SOL    HW220016   1.451   2.956   8.075 -0.7456 -0.2997 -1.0948
 2853SOL     OW20017   4.084   3.533  13.078 -0.6781  0.0103  0.1257
 2853SOL    HW120018   3.993   3.508  13.098 -0.3784 -0.0985  1.3228
 2853SOL    HW220019   4.093   3.618  13.121  2.5373 -0.5143  0.4902
 2854SOL     OW20020   0.233   2.881   4.816 -0.0255 -0.3327  0.3446
 2854SOL    HW120021   0.149   2.863   4.775 -1.0124  1.4794  1.5718
 2854SOL    HW220022   0.215   2.961   4.865  0.3561 -1.3842  2.2206
 2855SOL     OW20023   2.386   3.595   8.003  0.3791 -0.3080  0.1400
 2855SOL    HW120024   2.344   3.666   8.051 -1.6452 -2.2585  1.2799
 2855SOL    HW220025   2.435   3.643   7.937  3.0940  0.2233  2.5752
 2856SOL     OW20026   1.298   1.883   1.214  0.0182 -0.1111  0.4192
 2856SOL    HW120027   1.293   1.954   1.277 -0.8692  0.1582  0.0478
 2856SOL    HW220028   1.287   1.806   1.271 -0.3444 -1.0038 -0.8469
 2857SOL     OW20029   3.630   3.299  11.359 -0.0261 -0.3764  0.3464
 2857SOL    HW120030   3.595   3.296  11.270  0.1170  1.0685  0.2421
 2857SOL    HW220031   3.650   3.205  11.358 -0.0852 -0.4026  2.5891
 2858SOL     OW20032   4.018   3.600   2.683 -0.0211 -0.5598  0.0544
 2858SOL    HW120033   4.068   3.676   2.655  2.1612 -1.8042  0.5978
 2858SOL    HW220034   3.981   3.561   2.604 -2.8680  0.5368  0.8342
 2859SOL     OW20035   3.577   0.264   4.919 -0.4790 -0.0229 -0.0763
 2859SOL    HW120036   3.493   0.277   4.962 -1.2724 -0.2557 -1.5222
 2859SOL    HW220037   3.555   0.224   4.834  2.2291 -0.0270 -0.7870
 2860SOL     OW20038   3.083   2.126   3.037 -0.1208  0.3000 -0.2015
 2860SOL    HW120039   3.023   2.161   2.971 -2.0385 -0.2772  1.2224
 2860SOL    HW220040   3.170   2.133   2.998 -0.6859 -0.9086 -1.6805
 2861SOL     OW20041   4.427   0.386  14.721 -0.2474 -0.3179  0.3651
 2861SOL    HW120042   4.443   0.437  14.641 -1.0573  0.0645  0.4482
 2861SOL    HW220043   4.432   0.455  14.788 -0.5706  1.9919 -1.9647
 2862SOL     OW20044   3.417   4.671   7.292  0.2459  0.5196 -1.1266
 2862SOL    HW120045   3.358   4.673   7.367  0.0497 -0.0395 -1.2649
 2862SOL    HW220046   3.376   4.601   7.240  2.0318 -0.5114 -1.1304
 2863SOL     OW20047   0.142   3.297   3.397 -0.2808 -0.2479  0.0548
 2863SOL    HW120048   0.144   3.210   3.357 -0.7681  0.0529 -0.6162
 2863SOL    HW220049   0.051   3.323   3.389 -0.4860 -1.0193 -0.0636
 2864SOL     OW20050   2.008   3.504   7.130 -0.3139 -0.3408  0.4689
 2864SOL    HW120051   1.934   3.563   7.145 -1.8956 -2.5463  1.2739
 2864SOL    HW220052   2.084   3.562   7.123  0.0171 -0.9368 -0.7691
 2865SOL     OW20053   3.033   3.050   8.290 -0.0673  0.3109 -0.3415
 2865SOL    HW120054   3.012   3.144   8.294 -0.6093  0.1869 -0.3100
 2865SOL    HW220055   3.084   3.048   8.208 -0.7359 -0.6954 -0.7363
 2866SOL     OW20056   1.045   2.695   3.206  0.0201 -0.6702 -0.1936
 2866SOL    HW120057   0.957   2.663   3.188 -0.0756 -0.6559  0.2301
 2866SOL    HW220058   1.066   2.634   3.277 -2.3612 -0.4716  0.7031
 2867SOL     OW20059   0.045   0.831  13.305  0.0637  0.5687  0.0973
 2867SOL    HW120060   0.028   0.848  13.398 -0.1506 -0.3552  0.2257
 2867SOL    HW220061   0.116   0.767  13.309  0.5987  1.2317  1.5390
 2868SOL     OW20062   0.882   3.102  17.514 -0.2305  0.2958  0.7806
 2868SOL    HW120063   0.901   3.172  17.451  1.6536 -1.4835 -0.6713
 2868SOL    HW220064   0.895   3.150  17.596  1.5309  0.1025  0.6180
 2869SOL     OW20065   0.043   1.690   8.699 -0.0197 -0.1943  0.2185
 2869SOL    HW120066   0.134   1.721   8.701 -1.4233  3.8755  1.1823
 2869SOL    HW220067   0.016   1.694   8.790  3.1700 -3.3430  1.2976
 2870SOL     OW20068   3.802   4.328   1.796 -0.0729 -0.6904 -0.3704
 2870SOL    HW120069   3.829   4.399   1.738  1.4715  0.4476  1.7284
 2870SOL    HW220070   3.773   4.371   1.877  2.6367  0.1128  0.1953
 2871SOL     OW20071   4.525   4.044   4.592 -0.2182 -0.0247 -0.6396
 2871SOL    HW120072   4.600   4.103   4.578  0.4861 -1.4743 -2.9418
 2871SOL    HW220073   4.480   4.025   4.509 -1.0951 -3.7112  0.7075
 2872SOL     OW20074   3.785   3.200   8.164  0.4896  0.0290 -0.1073
 2872SOL    HW120075   3.707   3.253   8.179 -0.6878 -1.9448  0.8319
 2872SOL    HW220076   3.792   3.201   8.069 -3.3412  2.3038 -0.3750
 2873SOL     OW20077   3.388   2.648   7.247  0.2881 -0.0033  0.3367
 2873SOL    HW120078   3.338   2.577   7.287 -1.7022  2.4278  2.1717
 2873SOL    HW220079   3.333   2.724   7.266 -0.0685  0.2490 -1.7232
 2874SOL     OW20080   0.280   3.757  16.407  0.2570 -0.1585  0.0557
 2874SOL    HW120081   0.347   3.794  16.349 -0.6257  0.2784 -0.6827
 2874SOL    HW220082   0.216   3.826  16.423  1.0973  0.1357  2.2393
 2875SOL     OW20083   0.855   3.297   0.437 -0.4272  0.5649 -0.5720
 2875SOL    HW120084   0.856   3.359   0.365 -0.4593  0.8053 -0.3672
 2875SOL    HW220085   0.772   3.251   0.423  0.1718 -1.3788  2.0969
 2876SOL     OW20086   1.759   4.349   1.941  0.3377  0.2356  0.2157
 2876SOL    HW120087   1.704   4.284   1.899  1.8324 -0.4327 -0.7009
 2876SOL    HW220088   1.719   4.432   1.916 -0.2457 -0.3950 -0.8967
 2877SOL     OW20089   0.865   3.170   3.484  0.3945  0.0642 -0.1837
 2877SOL    HW120090   0.863   3.159   3.389 -2.0651  0.5373 -0.1949
 2877SOL    HW220091   0.775   3.144   3.504  0.9274 -0.9946  0.8220
 2878SOL     OW20092   1.264   1.993   6.585 -0.4937  0.6391 -0.0360
 2878SOL    HW120093   1.254   1.899   6.570  0.7788  0.5788 -0.4546
 2878SOL    HW220094   1.178   2.018   6.619 -0.9462 -0.7635 -0.1540
 2879SOL     OW20095   4.168   3.066   5.186 -0.6691  0.6695  0.0305
 2879SOL    HW120096   4.183   3.039   5.277  1.9051  0.4016 -0.4897
 2879SOL    HW220097   4.194   3.157   5.198 -1.1720  0.6279  1.5396
 2880SOL     OW20098   2.285   1.086  12.904 -0.1113 -0.4172  0.2875
 2880SOL    HW120099   2.278   1.123  12.816 -3.4836 -0.9248  0.3533
 2880SOL    HW220100   2.201   1.102  12.947  0.0767 -0.1891  0.5759
 2881SOL     OW20101   3.137   2.425  14.746 -0.0933 -0.4904  0.5880
 2881SOL    HW120102   3.215   2.464  14.705 -0.4816 -2.4020 -1.9774
 2881SOL    HW220103   3.154   2.424  14.840  0.2428  2.0746  0.5631
 2882SOL     OW20104   4.356   3.397   2.010 -0.3495  0.0501 -0.5600
 2882SOL    HW120105   4.351   3.339   1.934 -2.9606  2.4314 -2.2317
 2882SOL    HW220106   4.262   3.395   2.031 -0.4838 -1.2586 -1.2765
 2883SOL     OW20107   3.895   3.348   5.963 -1.0695  0.1057  0.0890
 2883SOL    HW120108   3.851   3.289   5.902 -1.3626 -1.3736  1.7230
 2883SOL    HW220109   3.851   3.431   5.942  0.2673  1.1227  1.2789
 2884SOL     OW20110   0.981   1.494   8.539  0.2306  0.8138 -0.1421
 2884SOL    HW120111   0.960   1.412   8.585  1.1256 -0.1394 -1.4297
 2884SOL    HW220112   1.049   1.520   8.602 -0.3515  2.2291 -0.0972
 2885SOL     OW20113   4.522   0.822   4.506 -0.4152  0.0875  0.1405
 2885SOL    HW120114   4.484   0.781   4.429 -3.2895 -0.1397  1.6719
 2885SOL    HW220115   4.614   0.799   4.496  0.3753  2.5860  1.5497
 2886SOL     OW20116   0.225   2.134   6.908  0.1321  0.2367  0.0216
 2886SOL    HW120117   0.131   2.117   6.908  0.0836  0.5047 -0.7058
 2886SOL    HW220118   0.233   2.197   6.979 -0.4426 -0.1018  0.3860
 2887SOL     OW20119   1.573   3.925   3.047  0.1091  0.5706  1.1523
 2887SOL    HW120120   1.638   3.911   3.116  0.5217 -1.5816  0.3463
 2887SOL    HW220121   1.621   3.891   2.971 -2.8030 -0.0754 -0.3669
 2888SOL     OW20122   0.660   4.324   5.520 -0.0941 -0.3845 -0.9654
 2888SOL    HW120123   0.716   4.290   5.451 -1.2960 -1.3281 -1.4740
 2888SOL    HW220124   0.573   4.286   5.510 -1.0461  1.4176  0.4599
 2889SOL     OW20125   0.090   0.849   3.378 -0.0908  0.7418  0.3013
 2889SOL    HW120126   0.091   0.765   3.424 -0.0080  0.8915  0.5712
 2889SOL    HW220127   0.025   0.820   3.314  3.1250 -3.2766 -1.1159
 2890SOL     OW20128   0.370   0.995   4.382 -0.3456 -0.1462  0.5240
 2890SOL    HW120129   0.362   0.972   4.289  1.6857  1.4103 -0.0453
 2890SOL    HW220130   0.432   0.927   4.408  0.4804  0.5132  0.2742
 2891SOL     OW20131   0.061   1.514   8.984 -0.3209  0.6491  0.3421
 2891SOL    HW120132   0.062   1.564   9.066 -0.4347  0.2166  0.6096
 2891SOL    HW220133   0.144   1.550   8.953 -0.4428  1.3461  0.8306
 2892SOL     OW20134   2.732   0.893  11.022  0.4310 -0.1226  0.1404
 2892SOL    HW120135   2.670   0.878  10.951  2.6008 -0.1006 -1.7565
 2892SOL    HW220136   2.692   0.972  11.059 -0.7665  0.3777 -2.2515
 2893SOL     OW20137   1.352   0.676   1.516 -0.5625  0.1188 -0.1520
 2893SOL    HW120138   1.439   0.638   1.501 -0.6427 -0.7585  1.5536
 2893SOL    HW220139   1.387   0.760   1.546 -2.5471  0.4869  1.1448
 2894SOL     OW20140   2.869   4.595   7.754 -0.5312 -0.1898  0.3603
 2894SOL    HW120141   2.790   4.642   7.727  0.1468 -0.2351 -1.6564
 2894SOL    HW220142   2.894   4.639   7.835  3.5947  1.7472 -1.9645
 2895SOL     OW20143   3.100   4.709   0.986 -0.3441 -0.0015 -0.1219
 2895SOL    HW120144   3.087   0.079   0.993 -0.2064  0.0879 -0.9963
 2895SOL    HW220145   3.010   4.677   0.993 -0.0476 -0.5176  1.1384
 2896SOL     OW20146   0.944   4.285   9.126 -0.1236 -0.2106  0.1311
 2896SOL    HW120147   1.001   4.355   9.157  2.7014 -3.5035  2.4038
 2896SOL    HW220148   0.933   4.312   9.035 -0.6155  0.1448  0.2964
 2897SOL     OW20149   1.592   0.047   2.385  0.1134  0.5948  0.3209
 2897SOL    HW120150   1.623   0.010   2.302  1.4589 -1.0011  1.5147
 2897SOL    HW220151   1.678   0.049   2.427  0.2158  0.1328  0.1397
 2898SOL     OW20152   2.223   1.471   9.490  0.2464 -0.3444  0.0030
 2898SOL    HW120153   2.208   1.551   9.439 -1.8005  0.0603  1.2269
 2898SOL    HW220154   2.241   1.404   9.424 -0.2307 -1.0332  0.5614
 2899SOL     OW20155   3.865   3.145   8.411  0.2150 -0.7342 -0.6051
 2899SOL    HW120156   3.822   3.145   8.325 -0.9063  0.8608 -0.0308
 2899SOL    HW220157   3.907   3.059   8.410  1.6508 -0.0297 -1.0469
 2900SOL     OW20158   3.979   2.431   8.540  0.7696  0.1005 -0.0814
 2900SOL    HW120159   3.980   2.424   8.444 -0.5486  1.0809 -0.1779
 2900SOL    HW220160   4.069   2.459   8.558  1.2249 -1.0844 -0.5145
 2901SOL     OW20161   4.225   1.008   1.218  0.1362  0.3614  0.5379
 2901SOL    HW120162   4.130   1.007   1.209  0.2953  0.6468 -1.0727
 2901SOL    HW220163   4.246   1.100   1.232  0.0487  0.4238  0.2599
 2902SOL     OW20164   0.741   0.762   2.821  0.0729  0.0217  0.1440
 2902SOL    HW120165   0.746   0.720   2.907 -1.1964 -2.9284 -1.2121
 2902SOL    HW220166   0.829   0.738   2.791 -0.1737 -1.1998  0.3969
 2903SOL     OW20167   0.591   0.657   6.605 -0.8689  0.6290  0.0155
 2903SOL    HW120168   0.527   0.653   6.676  1.1940  0.7947  1.9014
 2903SOL    HW220169   0.632   0.744   6.607 -0.9175  0.6966 -3.0334
 2904SOL     OW20170   3.315   0.547   6.866 -0.3374 -0.6708 -0.0645
 2904SOL    HW120171   3.366   0.466   6.863  2.2832  1.0026 -0.5526
 2904SOL    HW220172   3.227   0.520   6.838 -1.5162 -0.0261  3.0270
 2905SOL     OW20173   2.437   2.367   2.454  0.1156 -0.5729 -0.0265
 2905SOL    HW120174   2.454   2.316   2.374 -0.9089  0.2501 -0.7593
 2905SOL    HW220175   2.361   2.331   2.498 -1.2477 -0.0292 -1.9359
 2906SOL     OW20176   3.161   0.633   5.270  0.1373 -0.6354  0.4287
 2906SOL    HW120177   3.164   0.538   5.258  0.7694 -0.5274 -0.2703
 2906SOL    HW220178   3.235   0.666   5.219  0.4723 -1.2858  0.4909
 2907SOL     OW20179   4.362   0.405   6.756  0.5152  0.2112  0.1593
 2907SOL    HW120180   4.305   0.384   6.830  0.1467 -0.7238 -0.3850
 2907SOL    HW220181   4.342   0.494   6.725  1.1689  0.2073 -0.2711
 2908SOL     OW20182   4.328   3.760   5.402 -0.2450  0.0484 -0.4686
 2908SOL    HW120183   4.347   3.844   5.442 -0.6829  0.1625 -0.5055
 2908SOL    HW220184   4.239   3.745   5.434  0.7766 -0.0896  2.2637
 2909SOL     OW20185   2.745   1.673   4.532  0.8906 -0.2499  0.3553
 2909SOL    HW120186   2.828   1.698   4.573  1.1835  0.9259 -0.9699
 2909SOL    HW220187   2.676   1.735   4.554  0.9627  0.1028 -0.4462
 2910SOL     OW20188   0.083   2.334   8.440 -0.2654  0.5973 -0.0034
 2910SOL    HW120189   0.099   2.368   8.528  1.4798 -2.6013  0.9128
 2910SOL    HW220190   0.128   2.251   8.454  0.1063  0.2204 -3.4302
 2911SOL     OW20191   0.770   2.710   6.988  0.1671 -0.2863  0.3206
 2911SOL    HW120192   0.791   2.631   7.037 -1.3617 -0.9845 -0.1443
 2911SOL    HW220193   0.806   2.785   7.036 -0.1086  0.6813 -0.9761
 2912SOL     OW20194   0.632   1.525   9.872 -0.3244 -0.2825 -0.3812
 2912SOL    HW120195   0.686   1.518   9.793  2.1671 -1.0939  1.3846
 2912SOL    HW220196   0.543   1.512   9.839 -1.4039  2.0263  1.5650
 2913SOL     OW20197   3.021   0.370  10.793  0.0289  0.5038  0.1132
 2913SOL    HW120198   3.093   0.376  10.856 -0.8039 -1.5530  1.2611
 2913SOL    HW220199   2.959   0.309  10.832 -1.5848  0.5171 -2.4852
 2914SOL     OW20200   1.203   4.666  12.331  0.3103 -0.1976 -0.7010
 2914SOL    HW120201   1.231   4.645  12.242 -2.4736  0.3062 -1.6874
 2914SOL    HW220202   1.287   4.694  12.367  0.1462  1.1003 -1.3077
 2915SOL     OW20203   2.541   0.831  10.841  0.1484 -0.3217  0.1772
 2915SOL    HW120204   2.467   0.838  10.780 -0.5398  0.3762  1.0839
 2915SOL    HW220205   2.523   0.743  10.873  0.5175 -1.1669 -1.9659
 2916SOL     OW20206   2.235   0.866   2.250  0.5399  0.1772  0.8518
 2916SOL    HW120207   2.308   0.827   2.203 -1.3445 -0.4006 -1.6014
 2916SOL    HW220208   2.177   0.879   2.175  2.5927 -2.3497 -1.1342
 2917SOL     OW20209   2.228   0.518   9.231 -0.0113 -0.9176 -0.2113
 2917SOL    HW120210   2.284   0.583   9.189  1.0602 -1.3041  0.6452
 2917SOL    HW220211   2.157   0.506   9.168  1.6699  1.0015 -2.4519
 2918SOL     OW20212   3.208   3.763   1.005  0.4486  0.1146 -0.0427
 2918SOL    HW120213   3.269   3.781   0.934 -1.1132 -2.3566 -1.9869
 2918SOL    HW220214   3.123   3.763   0.962  1.0253  0.6638 -1.1792
 2919SOL     OW20215   2.928   0.620   8.001 -0.4258 -0.1414  0.1388
 2919SOL    HW120216   2.842   0.662   7.995 -0.5560 -0.0597  2.4888
 2919SOL    HW220217   2.948   0.635   7.909 -1.0152  1.0257  0.2099
 2920SOL     OW20218   0.381   1.633   5.631  0.1046  0.7203 -0.2367
 2920SOL    HW120219   0.467   1.606   5.600 -0.2987 -1.3616  0.4858
 2920SOL    HW220220   0.317   1.575   5.589  0.5373  0.5131 -0.6002
 2921SOL     OW20221   2.045   3.241   7.120 -0.4265 -0.3591  0.4884
 2921SOL    HW120222   2.041   3.246   7.024 -0.6736  1.6363  0.6065
 2921SOL    HW220223   2.046   3.335   7.135 -1.1584 -0.1441 -0.7779
 2922SOL     OW20224   4.244   1.526   5.894  0.4108 -0.1396 -0.3029
 2922SOL    HW120225   4.237   1.524   5.798  1.2580  1.3455 -0.3858
 2922SOL    HW220226   4.162   1.477   5.905 -0.8018  1.7305 -1.0160
 2923SOL     OW20227   1.333   2.256  13.490  0.1886  0.3530 -0.1492
 2923SOL    HW120228   1.385   2.336  13.502  0.5623 -0.0114  0.6668
 2923SOL    HW220229   1.275   2.268  13.565  0.1620 -1.3706  0.1089
 2924SOL     OW20230   4.442   3.660  10.339 -0.5315 -0.0539  0.3549
 2924SOL    HW120231   4.428   3.737  10.394 -2.4449  0.7397 -1.2372
 2924SOL    HW220232   4.397   3.682  10.257 -0.2613 -0.2937  0.1441
 2925SOL     OW20233   1.087   4.517   6.966 -0.5415 -0.1754 -0.5128
 2925SOL    HW120234   1.160   4.462   6.936  0.0151  0.8405 -1.0172
 2925SOL    HW220235   1.017   4.454   6.948 -0.1409 -0.7365 -0.1107
 2926SOL     OW20236   0.028   0.804   1.356 -0.5745  0.3290  0.1218
 2926SOL    HW120237   0.091   0.867   1.392  0.8481 -0.8370 -0.2992
 2926SOL    HW220238   0.008   0.745   1.429 -0.9216  0.1654 -0.1051
 2927SOL     OW20239   2.512   4.386   7.369 -0.0459 -0.1305  1.1316
 2927SOL    HW120240   2.489   4.408   7.279  1.1094 -0.1801  0.8237
 2927SOL    HW220241   2.585   4.326   7.353 -0.9996 -1.1821  0.6407
 2928SOL     OW20242   3.525   1.331   6.046 -0.2731 -0.0030  0.1712
 2928SOL    HW120243   3.521   1.408   6.102  2.5863 -0.8675  1.5992
 2928SOL    HW220244   3.547   1.372   5.962 -0.1119  2.1719  1.2781
 2929SOL     OW20245   4.622   1.379   6.532 -0.3720 -0.3639  0.7221
 2929SOL    HW120246   4.623   1.291   6.495  1.7823 -0.2537  0.4903
 2929SOL    HW220247   4.536   1.400   6.497 -0.2790  1.5148  1.6103
 2930SOL     OW20248   2.635   2.575  12.460 -0.1793 -0.6241  0.0560
 2930SOL    HW120249   2.599   2.653  12.502 -1.0061 -1.1561  0.3366
 2930SOL    HW220250   2.612   2.521  12.536 -1.4096 -1.3787 -0.8358
 2931SOL     OW20251   3.573   0.167   5.619 -0.1580 -0.4907  0.3806
 2931SOL    HW120252   3.570   0.256   5.653 -2.0452  0.4057 -2.0823
 2931SOL    HW220253   3.586   0.112   5.696 -0.4740 -2.0484 -0.6714
 2932SOL     OW20254   0.283   1.222   8.315  0.4128 -0.0333  0.4934
 2932SOL    HW120255   0.214   1.270   8.362 -0.8630 -0.1643 -1.2523
 2932SOL    HW220256   0.343   1.296   8.303 -0.9068  0.8251 -0.9202
 2933SOL     OW20257   3.390   1.591   7.793  0.6092  0.6469  0.2515
 2933SOL    HW120258   3.317   1.529   7.792  2.8266 -1.9533  1.6643
 2933SOL    HW220259   3.340   1.673   7.789 -2.9654 -1.5092  0.7060
 2934SOL     OW20260   1.673   1.755  13.396  0.3908  0.2441  0.3615
 2934SOL    HW120261   1.615   1.679  13.383  1.1341 -0.6747  2.3470
 2934SOL    HW220262   1.706   1.733  13.484  3.9645 -0.5899 -1.1913
 2935SOL     OW20263   3.353   3.600   7.465 -0.0190  0.2575  0.3834
 2935SOL    HW120264   3.279   3.553   7.428 -0.3044  0.1219  1.1232
 2935SOL    HW220265   3.340   3.688   7.429 -2.0384 -0.5579 -0.9152
 2936SOL     OW20266   2.844   2.213   3.476 -0.2872 -0.6274  0.6920
 2936SOL    HW120267   2.801   2.275   3.416 -0.9627  0.0308  1.8551
 2936SOL    HW220268   2.909   2.170   3.421 -0.9505  0.4023 -0.9197
 2937SOL     OW20269   0.298   3.505   8.106  0.6454  0.1189  0.5795
 2937SOL    HW120270   0.206   3.488   8.086  0.7708 -0.0215  0.1044
 2937SOL    HW220271   0.292   3.522   8.200 -0.5581  0.4408  0.4361
 2938SOL     OW20272   3.890   0.547   6.833 -1.1517  0.0155 -0.2513
 2938SOL    HW120273   3.827   0.555   6.903 -2.5087 -0.2080 -1.4480
 2938SOL    HW220274   3.950   0.481   6.870  0.4264  1.1913 -0.6958
 2939SOL     OW20275   0.837   4.645  16.272 -0.1093 -0.3989 -0.1823
 2939SOL    HW120276   0.808   4.695  16.348 -0.3687  0.7156 -1.0116
 2939SOL    HW220277   0.761   4.642  16.215  1.7792  1.0525 -2.7988
 2940SOL     OW20278   2.233   0.084  14.406 -0.2509 -0.4604  0.3118
 2940SOL    HW120279   2.184   0.165  14.418  1.5485  0.3210  2.2966
 2940SOL    HW220280   2.187   0.027  14.469 -1.1045 -0.5723 -0.4017
 2941SOL     OW20281   0.387   1.182   4.585  0.2436 -0.6774 -0.5842
 2941SOL    HW120282   0.387   1.127   4.506  5.4009 -2.1980  0.4886
 2941SOL    HW220283   0.438   1.124   4.642 -0.2226 -1.2817 -0.7712
 2942SOL     OW20284   1.385   2.457   0.423 -0.1017  0.1859  0.7655
 2942SOL    HW120285   1.335   2.380   0.449  2.5322 -1.0526  2.1573
 2942SOL    HW220286   1.388   2.496   0.510 -0.7008  1.0646  0.3899
 2943SOL     OW20287   0.042   1.556   5.039 -0.6942 -0.2829  0.2337
 2943SOL    HW120288   4.697   1.599   4.991  1.3348  2.5354 -0.2078
 2943SOL    HW220289   0.017   1.559   5.132  2.6972  0.6031  1.1058
 2944SOL     OW20290   3.624   1.576   6.195  0.5211  0.4563  0.4413
 2944SOL    HW120291   3.554   1.628   6.235  1.1082  0.3740  1.5872
 2944SOL    HW220292   3.684   1.643   6.160  1.0065  1.5894  3.4355
 2945SOL     OW20293   1.173   1.408   9.234  0.0658 -0.5791  0.3984
 2945SOL    HW120294   1.084   1.379   9.212  0.0244 -1.6834  2.0536
 2945SOL    HW220295   1.171   1.494   9.191 -0.3476 -1.2221 -0.8796
 2946SOL     OW20296   1.530   3.083  12.795 -0.0721  0.1498  0.1064
 2946SOL    HW120297   1.448   3.037  12.777 -0.0914  0.2396 -0.0359
 2946SOL    HW220298   1.506   3.176  12.788 -0.7198  0.0261  0.7227
 2947SOL     OW20299   4.463   2.272   8.897  0.4907 -0.1303 -0.3381
 2947SOL    HW120300   4.404   2.272   8.821  0.3052  3.0359 -0.2152
 2947SOL    HW220301   4.415   2.332   8.955 -0.2765 -1.1489  0.0833
 2948SOL     OW20302   2.998   1.668   4.687 -0.2254  0.1981 -0.0137
 2948SOL    HW120303   3.083   1.658   4.730  0.2025  0.4758 -0.7978
 2948SOL    HW220304   2.933   1.643   4.753  0.2383 -1.9255 -0.3492
 2949SOL     OW20305   2.115   0.160   0.384 -0.3633  0.7313  0.0847
 2949SOL    HW120306   2.102   0.174   0.290  0.3718 -3.3340 -0.5934
 2949SOL    HW220307   2.189   0.102   0.401 -0.8173 -0.4311 -1.8814
 2950SOL     OW20308   3.092   1.691   8.714 -0.1508  0.0018  0.0881
 2950SOL    HW120309   3.064   1.660   8.800  3.0571  0.5510  1.3278
 2950SOL    HW220310   3.138   1.769   8.746 -0.4854  0.2644 -0.0588
 2951SOL     OW20311   4.455   0.234   1.466  0.5383 -0.5956  0.2937
 2951SOL    HW120312   4.472   0.310   1.523  1.1618  0.4645 -1.3125
 2951SOL    HW220313   4.432   0.281   1.386 -0.6875 -1.4488  0.1509
 2952SOL     OW20314   3.142   0.071   6.962  0.2867  0.3403 -0.9532
 2952SOL    HW120315   3.191   4.724   6.921  0.7341  1.7586 -2.8966
 2952SOL    HW220316   3.180   0.076   7.050  0.1334  0.9044 -0.9208
 2953SOL     OW20317   1.160   1.533   8.738 -0.0766 -0.0762 -0.1043
 2953SOL    HW120318   1.171   1.458   8.797  1.5895  1.8191  2.0100
 2953SOL    HW220319   1.236   1.583   8.768  0.3926 -1.1767  0.5383
 2954SOL     OW20320   0.838   2.729   2.393 -0.0246  0.1691 -0.5159
 2954SOL    HW120321   0.749   2.725   2.358  0.4130 -1.8897 -1.3818
 2954SOL    HW220322   0.837   2.825   2.393 -0.7651  0.1548  1.5133
 2955SOL     OW20323   1.070   1.153   5.226  1.0043 -0.1995  0.3664
 2955SOL    HW120324   1.120   1.085   5.182  0.4698  0.7861 -1.7531
 2955SOL    HW220325   1.109   1.159   5.313 -0.2109  1.1081  0.8261
 2956SOL     OW20326   3.175   2.624   7.406 -0.0549  0.4450 -0.2995
 2956SOL    HW120327   3.236   2.591   7.471  0.6725 -0.3491 -1.3770
 2956SOL    HW220328   3.102   2.660   7.456  1.4091  0.4190  1.8439
 2957SOL     OW20329   1.413   0.682   9.275  0.3709 -0.6084  0.4791
 2957SOL    HW120330   1.324   0.695   9.243  1.3514 -1.6875 -2.6615
 2957SOL    HW220331   1.460   0.701   9.194  1.3941 -0.0291  1.2127
 2958SOL     OW20332   0.082   1.258   7.885  0.2312 -0.8488  0.0765
 2958SOL    HW120333   0.080   1.263   7.980  0.7614  0.9596 -0.0016
 2958SOL    HW220334   0.117   1.344   7.860 -0.0948 -1.4684 -2.5626
 2959SOL     OW20335   3.600   3.230   5.401  0.4709  0.3021 -0.1850
 2959SOL    HW120336   3.648   3.188   5.330 -1.5289 -0.1304 -1.2653
 2959SOL    HW220337   3.624   3.161   5.463  2.2107  0.9773 -0.1201
 2960SOL     OW20338   2.029   4.629   0.483  0.5361  0.0505  0.0084
 2960SOL    HW120339   2.096   4.690   0.452  3.3094 -2.6049  0.7455
 2960SOL    HW220340   2.076   4.546   0.481  1.5130  0.6140 -0.2457
 2961SOL     OW20341   0.225   0.365   2.455 -0.3005 -0.0092  0.2261
 2961SOL    HW120342   0.235   0.371   2.360 -1.7346 -0.1069  0.0659
 2961SOL    HW220343   0.251   0.452   2.483 -2.9896  0.6244  0.7956
 2962SOL     OW20344   1.409   0.397   0.687  0.0214 -0.0458  0.1713
 2962SOL    HW120345   1.388   0.335   0.757  0.7338 -1.1828 -0.6193
 2962SOL    HW220346   1.343   0.367   0.624  0.7563  2.6134 -1.8961
 2963SOL     OW20347   0.625   3.176   2.446  0.1457 -0.2690 -0.7924
 2963SOL    HW120348   0.544   3.174   2.497  1.2664 -0.2343  0.9669
 2963SOL    HW220349   0.664   3.260   2.470 -1.6766 -0.0828  1.5063
 2964SOL     OW20350   1.359   1.904  10.584 -0.2556 -0.1676 -0.2493
 2964SOL    HW120351   1.357   1.812  10.611  0.6081 -0.1967 -0.2604
 2964SOL    HW220352   1.293   1.908  10.515 -1.9778 -1.9917  1.3028
 2965SOL     OW20353   1.585   0.949   3.990  0.3365 -0.6208 -0.6987
 2965SOL    HW120354   1.536   1.008   4.047 -0.0318 -1.3246 -0.2989
 2965SOL    HW220355   1.545   0.864   4.008 -1.5163  0.6635  1.2613
 2966SOL     OW20356   2.489   1.697   8.156  0.2833  0.4866  0.1963
 2966SOL    HW120357   2.404   1.739   8.172  0.8029  1.1024  1.3137
 2966SOL    HW220358   2.464   1.604   8.159  1.5321  0.1617  0.3803
 2967SOL     OW20359   2.689   3.098  10.064 -0.9755  0.0954  0.0946
 2967SOL    HW120360   2.783   3.112  10.057 -1.0201  0.5973  0.5149
 2967SOL    HW220361   2.659   3.175  10.112 -3.9346 -0.8970 -0.1528
 2968SOL     OW20362   1.462   0.836   5.729 -0.0544 -0.0568 -0.6740
 2968SOL    HW120363   1.548   0.846   5.771  1.0740 -2.0082 -2.4842
 2968SOL    HW220364   1.451   0.741   5.721 -1.0424  0.1691 -1.8731
 2969SOL     OW20365   2.182   3.674   2.910  0.4581 -0.0127 -0.8840
 2969SOL    HW120366   2.111   3.632   2.863 -0.8580 -1.3909  2.3169
 2969SOL    HW220367   2.245   3.603   2.919  0.5802  0.0245 -1.4873
 2970SOL     OW20368   1.371   2.841   7.605 -0.8986  0.3042  0.3270
 2970SOL    HW120369   1.346   2.889   7.527  0.3429  0.9920  0.3455
 2970SOL    HW220370   1.301   2.869   7.664 -0.0930  2.0570  0.4398
 2971SOL     OW20371   2.442   1.943   8.702 -0.3278  0.3654  0.3615
 2971SOL    HW120372   2.368   1.940   8.642 -1.6280 -1.3318  2.0416
 2971SOL    HW220373   2.456   1.849   8.713 -0.6511  0.3558  0.6854
 2972SOL     OW20374   1.742   2.724   6.887 -0.2495  0.2070 -0.2155
 2972SOL    HW120375   1.774   2.662   6.953  2.9731  0.4118 -1.6025
 2972SOL    HW220376   1.655   2.686   6.877 -0.7457  0.6743  2.2908
 2973SOL     OW20377   0.326   4.504  14.776 -0.1774  0.3787  0.1407
 2973SOL    HW120378   0.361   4.579  14.824 -0.4625  1.8791 -2.0028
 2973SOL    HW220379   0.297   4.551  14.698  0.5698 -0.0906 -0.4152
 2974SOL     OW20380   4.248   1.814   9.428 -0.0175  0.0889  0.0245
 2974SOL    HW120381   4.316   1.844   9.489 -0.0718  0.9622 -0.3510
 2974SOL    HW220382   4.176   1.797   9.490 -0.3969  1.2301 -0.0986
 2975SOL     OW20383   2.642   3.105   5.441  0.3598  0.7208 -0.0123
 2975SOL    HW120384   2.714   3.148   5.395  2.4511 -2.9062 -0.1431
 2975SOL    HW220385   2.684   3.020   5.451  0.2637  0.7858  0.9163
 2976SOL     OW20386   0.111   2.962  15.599  0.1802  0.2252 -0.3611
 2976SOL    HW120387   0.122   3.019  15.523 -0.8207  1.2690  0.2928
 2976SOL    HW220388   0.123   3.015  15.677  1.4694  1.3308 -1.3245
 2977SOL     OW20389   0.976   2.896  16.892 -0.1282 -0.2954  0.0505
 2977SOL    HW120390   0.918   2.939  16.955  1.8150  2.5771 -0.1146
 2977SOL    HW220391   0.942   2.938  16.813  3.0144  1.3096 -0.4423
 2978SOL     OW20392   2.029   4.329   1.874  0.0526  0.0640 -0.1499
 2978SOL    HW120393   1.936   4.329   1.893  0.1154  1.4665  0.1052
 2978SOL    HW220394   2.037   4.381   1.795 -0.1905 -0.7910 -0.7331
 2979SOL     OW20395   4.578   1.346  16.532 -0.2825 -0.5832 -0.4352
 2979SOL    HW120396   4.611   1.429  16.499  2.1413 -0.8200  1.3416
 2979SOL    HW220397   4.491   1.354  16.493  0.3588 -0.5357 -1.8795
 2980SOL     OW20398   1.652   0.994   7.046  0.7521 -0.0913 -0.1011
 2980SOL    HW120399   1.675   0.904   7.069 -4.5163 -1.5568 -0.5430
 2980SOL    HW220400   1.718   1.045   7.093  0.3165  0.3362  0.0508
 2981SOL     OW20401   2.352   3.678   3.575 -0.2713 -0.7509 -0.0113
 2981SOL    HW120402   2.306   3.638   3.649  0.7627 -0.1270  0.9659
 2981SOL    HW220403   2.428   3.622   3.558 -0.5740 -0.6347 -1.7711
 2982SOL     OW20404   0.295   3.432   5.693 -0.0861 -0.3086  0.3705
 2982SOL    HW120405   0.245   3.360   5.654  0.1400  0.6449 -1.6598
 2982SOL    HW220406   0.282   3.401   5.783 -1.2463 -2.4224 -0.5257
 2983SOL     OW20407   3.455   4.491  14.268 -0.0127 -0.5734 -0.2062
 2983SOL    HW120408   3.400   4.526  14.338  0.9070  1.2700 -0.4058
 2983SOL    HW220409   3.395   4.472  14.196  0.6979  1.2080 -1.2735
 2984SOL     OW20410   3.018   4.543  16.276 -0.2636 -0.4316 -0.0849
 2984SOL    HW120411   3.001   4.563  16.184 -2.3850 -0.4289  0.3199
 2984SOL    HW220412   2.936   4.536  16.325 -1.3082  3.6153 -1.3030
 2985SOL     OW20413   3.388   4.209  15.604 -0.2451  0.4655  0.2850
 2985SOL    HW120414   3.344   4.293  15.595 -0.7830  0.2289  0.7544
 2985SOL    HW220415   3.463   4.240  15.655 -0.3655  0.1000  0.6776
 2986SOL     OW20416   1.079   3.630   4.995 -0.2091  0.2507 -0.7143
 2986SOL    HW120417   1.094   3.710   4.944 -1.0744  0.1903 -1.0642
 2986SOL    HW220418   1.138   3.569   4.953  0.2244  0.2033 -0.0424
 2987SOL     OW20419   2.096   0.168  16.473 -0.0022  0.2961 -0.0437
 2987SOL    HW120420   2.157   0.106  16.432  1.6453  0.8409  1.5839
 2987SOL    HW220421   2.030   0.181  16.405  0.9678 -0.5942 -1.1671
 2988SOL     OW20422   0.721   1.807   0.507  0.2752 -0.6226 -0.4357
 2988SOL    HW120423   0.711   1.862   0.429 -1.1864 -1.2069 -0.6655
 2988SOL    HW220424   0.697   1.872   0.572 -2.1701 -1.3979 -0.5659
 2989SOL     OW20425   0.683   1.747   3.298  0.2128  0.2754  0.3959
 2989SOL    HW120426   0.770   1.770   3.265  0.3682  1.4354  1.6251
 2989SOL    HW220427   0.677   1.835   3.335  0.4858 -0.7903  2.9638
 2990SOL     OW20428   3.573   0.366  13.119 -0.0984  0.5082  0.1339
 2990SOL    HW120429   3.629   0.401  13.050 -1.5562 -1.2761 -1.9484
 2990SOL    HW220430   3.585   0.271  13.110 -0.8247  0.4238  0.0788
 2991SOL     OW20431   0.178   2.511  15.440  0.0745 -0.6490  0.5808
 2991SOL    HW120432   0.249   2.481  15.384 -0.7958  0.4779 -1.1322
 2991SOL    HW220433   0.163   2.434  15.494 -2.0563  0.6615  1.8486
 2992SOL     OW20434   3.684   3.197   8.603 -0.5442 -0.5250 -0.3469
 2992SOL    HW120435   3.641   3.112   8.599 -1.9131  0.0909  1.4770
 2992SOL    HW220436   3.739   3.176   8.527  1.7189  0.5282  0.9945
 2993SOL     OW20437   0.944   2.804   0.192  0.5128  0.3427  0.0450
 2993SOL    HW120438   1.000   2.866   0.238 -0.0110  1.3542 -0.6741
 2993SOL    HW220439   0.919   2.743   0.261  0.0693 -0.0152 -0.4364
 2994SOL     OW20440   4.353   4.183   6.409  0.0274 -0.0639 -0.5225
 2994SOL    HW120441   4.420   4.186   6.478  0.2206  1.5296 -0.7779
 2994SOL    HW220442   4.276   4.227   6.445  0.0639 -0.0702 -0.4371
 2995SOL     OW20443   3.732   2.323   5.735  0.5512 -0.0146  0.0229
 2995SOL    HW120444   3.673   2.294   5.804 -2.6633  2.7255 -1.5367
 2995SOL    HW220445   3.673   2.350   5.665  0.9697 -0.4487 -0.4948
 2996SOL     OW20446   2.109   4.215  10.683 -0.4891  0.7665  0.5567
 2996SOL    HW120447   2.195   4.257  10.674 -0.9526  1.9676  1.7940
 2996SOL    HW220448   2.053   4.287  10.654 -0.1484  1.5065  1.7380
 2997SOL     OW20449   1.281   0.850   6.501 -0.5378 -0.2955  0.6043
 2997SOL    HW120450   1.258   0.943   6.504  0.1460 -0.1158  0.4653
 2997SOL    HW220451   1.193   0.814   6.492 -0.0773 -0.8357 -1.8300
 2998SOL     OW20452   2.229   1.640   3.081 -0.5017 -0.0023 -0.0666
 2998SOL    HW120453   2.202   1.730   3.066 -0.3382  0.1206  0.3691
 2998SOL    HW220454   2.154   1.587   3.052  0.0540 -0.8637  0.0969
 2999SOL     OW20455   2.269   4.165  11.060  0.0675  0.2611 -0.0238
 2999SOL    HW120456   2.341   4.125  11.012 -1.9935 -2.3018 -0.9907
 2999SOL    HW220457   2.199   4.153  10.996  1.4632  0.1335 -1.5324
 3000SOL     OW20458   1.012   2.523   9.461  0.2500  0.0845 -0.6904
 3000SOL    HW120459   1.013   2.467   9.383  3.2200 -0.4818 -0.2520
 3000SOL    HW220460   0.961   2.480   9.530  1.8858 -0.5602  0.1235
 3001SOL     OW20461   4.555   0.297   8.083  0.0247  0.2007  0.4412
 3001SOL    HW120462   4.634   0.351   8.074  1.3094 -1.6308  0.7496
 3001SOL    HW220463   4.543   0.285   7.989  1.3671  1.1845  0.1319
 3002SOL     OW20464   2.572   3.020  11.239 -0.2343 -0.0199  0.1848
 3002SOL    HW120465   2.514   3.014  11.315 -2.2288 -2.3184 -1.5302
 3002SOL    HW220466   2.632   2.947  11.254 -2.4428 -1.9420 -0.3914
 3003SOL     OW20467   4.431   3.828  10.838 -0.4844  0.5948  0.2400
 3003SOL    HW120468   4.416   3.824  10.933 -0.9447 -1.2330  0.0936
 3003SOL    HW220469   4.346   3.792  10.813 -0.2499  0.1336  0.1042
 3004SOL     OW20470   1.816   2.441   9.662  0.0727  0.5829  0.3691
 3004SOL    HW120471   1.882   2.471   9.725  0.1609  0.5817  0.2777
 3004SOL    HW220472   1.817   2.351   9.696  3.1410  0.8151  0.9011
 3005SOL     OW20473   1.888   0.516   9.805 -0.0139 -0.3112 -0.4164
 3005SOL    HW120474   1.824   0.572   9.851 -0.6865 -1.7480  0.3887
 3005SOL    HW220475   1.894   0.567   9.724 -0.0367  1.3830  0.6387
 3006SOL     OW20476   4.251   1.578   7.761 -0.8404  0.0439 -0.0706
 3006SOL    HW120477   4.333   1.598   7.716 -0.7620 -2.5023 -1.0508
 3006SOL    HW220478   4.191   1.553   7.691 -1.6313  0.7620  0.3438
 3007SOL     OW20479   4.243   2.907  17.303 -0.1390 -0.0226 -0.2895
 3007SOL    HW120480   4.265   2.911  17.396  0.2217 -0.5046 -0.3512
 3007SOL    HW220481   4.156   2.868  17.310  0.2020 -0.4756  1.4809
 3008SOL     OW20482   1.499   1.785  14.112  0.3773  0.4824 -0.2244
 3008SOL    HW120483   1.550   1.718  14.158 -0.7242  0.0613  0.3858
 3008SOL    HW220484   1.456   1.747  14.035  0.9714  1.0911 -0.8604
 3009SOL     OW20485   2.520   2.186   8.589  0.2772  0.1779 -0.6734
 3009SOL    HW120486   2.430   2.210   8.611  0.0895 -1.0045 -0.1421
 3009SOL    HW220487   2.520   2.101   8.633  0.3129  0.6260  0.1915
 3010SOL     OW20488   4.274   3.034  10.062 -0.1756 -0.1903  0.0322
 3010SOL    HW120489   4.291   3.074   9.977  0.2411  2.0336  1.1605
 3010SOL    HW220490   4.197   2.985  10.034  0.9202 -0.1259 -3.1028
 3011SOL     OW20491   1.727   3.932   1.770  0.2457  0.3721 -0.2808
 3011SOL    HW120492   1.802   3.987   1.749  0.5615  0.4392  0.9797
 3011SOL    HW220493   1.773   3.851   1.794 -0.3287  0.1612  0.0990
 3012SOL     OW20494   0.144   0.816   0.258 -0.3217  0.0735 -0.0419
 3012SOL    HW120495   0.189   0.733   0.241 -0.6398 -0.5557  2.1811
 3012SOL    HW220496   0.074   0.815   0.193  0.1184  1.6904 -0.5499
 3013SOL     OW20497   3.181   0.259   4.304  0.0265  0.0382 -0.2259
 3013SOL    HW120498   3.124   0.294   4.236 -2.5562 -1.4351  1.1576
 3013SOL    HW220499   3.250   0.229   4.245  1.2999  0.0715  1.2525
 3014SOL     OW20500   1.090   3.333   8.989  0.1123 -0.8122  0.5770
 3014SOL    HW120501   1.023   3.377   8.937 -0.6365  0.1239  2.3647
 3014SOL    HW220502   1.066   3.353   9.079  1.8864  0.9013  0.6788
 3015SOL     OW20503   4.500   0.962   2.953  0.3530  0.3135 -0.3699
 3015SOL    HW120504   4.470   0.871   2.959 -2.3327  1.3051  1.0579
 3015SOL    HW220505   4.425   1.007   2.990  0.3662  0.6367 -0.7327
 3016SOL     OW20506   4.089   3.110   1.219  0.2560 -0.2452 -0.1789
 3016SOL    HW120507   4.028   3.074   1.154 -0.0164  1.0673 -0.6627
 3016SOL    HW220508   4.123   3.028   1.254  0.8332 -0.5691 -1.4844
 3017SOL     OW20509   2.984   0.305   1.913 -0.4320 -0.0344  0.7424
 3017SOL    HW120510   2.985   0.388   1.866 -0.0243 -1.0436 -1.0167
 3017SOL    HW220511   3.026   0.332   1.995 -0.1066  0.3275  0.4533
 3018SOL     OW20512   0.972   4.273   4.243  0.1681  0.0168 -0.4740
 3018SOL    HW120513   0.878   4.281   4.225  0.2866  0.5849 -0.8589
 3018SOL    HW220514   0.980   4.362   4.279 -1.1904  0.1982 -0.6311
 3019SOL     OW20515   0.022   1.294   0.602  0.1821  0.3392 -0.0343
 3019SOL    HW120516   0.089   1.338   0.548 -0.1342  1.3116  0.3612
 3019SOL    HW220517   0.084   1.229   0.635 -0.3902  0.0851  0.5299
 3020SOL     OW20518   3.218   1.521   4.888  0.5724  0.4138  0.1309
 3020SOL    HW120519   3.167   1.513   4.969  3.9560  0.9685  2.3190
 3020SOL    HW220520   3.226   1.430   4.861  0.4687  0.5396 -0.3145
 3021SOL     OW20521   4.297   4.422   7.807  0.1534  0.1559  0.1613
 3021SOL    HW120522   4.346   4.362   7.863 -1.5417  0.0185  1.4907
 3021SOL    HW220523   4.213   4.417   7.853 -0.2391  1.7102 -0.3784
 3022SOL     OW20524   0.042   3.987  12.762 -0.3225  0.3706 -0.4514
 3022SOL    HW120525   0.066   3.906  12.717  0.7786  0.2143  0.4219
 3022SOL    HW220526   0.099   4.061  12.740  0.0308  0.2767  0.1394
 3023SOL     OW20527   3.705   3.030  11.354 -0.1045  0.2494 -0.1060
 3023SOL    HW120528   3.800   3.030  11.367  0.4965 -2.1331 -4.3478
 3023SOL    HW220529   3.702   3.027  11.258  0.3787 -0.3488 -0.1088
 3024SOL     OW20530   2.860   0.772   2.305 -0.1503  0.6465 -0.2751
 3024SOL    HW120531   2.911   0.735   2.234 -2.6911 -0.6720 -1.4212
 3024SOL    HW220532   2.783   0.801   2.255 -0.4376  0.0764 -0.1617
 3025SOL     OW20533   0.406   0.667   5.225 -0.8282  0.3713 -0.1623
 3025SOL    HW120534   0.396   0.759   5.249 -0.3968  0.5160 -0.5286
 3025SOL    HW220535   0.458   0.678   5.145  0.5385  0.0636  0.6644
 3026SOL     OW20536   1.089   4.052   9.018 -0.4747  0.3563 -1.0208
 3026SOL    HW120537   1.058   4.139   9.045 -1.3613 -0.2491 -0.0687
 3026SOL    HW220538   1.144   4.089   8.949  0.9052 -1.1337 -0.7037
 3027SOL     OW20539   2.463   3.301   2.497 -0.5739 -0.3250 -0.3553
 3027SOL    HW120540   2.547   3.267   2.465  0.2453 -0.1005  1.5225
 3027SOL    HW220541   2.414   3.333   2.421  1.6834  1.9682 -0.8613
 3028SOL     OW20542   2.689   1.798   1.783 -0.2712  0.3564  0.4333
 3028SOL    HW120543   2.732   1.728   1.834  2.2116 -1.3945 -4.0997
 3028SOL    HW220544   2.675   1.866   1.850 -0.8226  2.4809 -1.8620
 3029SOL     OW20545   3.202   3.764  15.697  0.0020 -0.2865 -0.1541
 3029SOL    HW120546   3.283   3.715  15.682  0.7187  0.8997 -0.2286
 3029SOL    HW220547   3.199   3.808  15.612  1.6371  1.7981  0.8637
 3030SOL     OW20548   4.349   3.964  10.607 -0.4881 -0.2397  0.0669
 3030SOL    HW120549   4.387   3.944  10.692  0.7340  1.3258 -0.1157
 3030SOL    HW220550   4.265   3.917  10.605 -1.1797  1.0048 -0.0687
 3031SOL     OW20551   0.689   0.614   5.341 -0.9515 -0.2763 -0.1570
 3031SOL    HW120552   0.599   0.635   5.318 -0.2399  1.2334 -1.5979
 3031SOL    HW220553   0.690   0.634   5.435 -0.9878  0.4666 -0.3104
 3032SOL     OW20554   3.357   3.124   7.520 -0.7066 -0.4166  0.4652
 3032SOL    HW120555   3.326   3.048   7.568 -2.1715 -0.2346 -0.2013
 3032SOL    HW220556   3.271   3.166   7.524 -0.9755 -0.8412 -0.8862
 3033SOL     OW20557   1.113   1.646   3.953 -0.6585  0.0077 -0.1639
 3033SOL    HW120558   1.092   1.736   3.979  0.0929  0.1524 -0.0586
 3033SOL    HW220559   1.186   1.648   3.890  1.3101  0.4617  2.1536
 3034SOL     OW20560   0.983   0.010   4.770  0.4606 -0.2224 -0.4576
 3034SOL    HW120561   0.972   0.036   4.678 -2.6432  1.9891  0.5302
 3034SOL    HW220562   1.069   0.050   4.785 -0.3079  1.5675 -0.7348
 3035SOL     OW20563   4.379   1.579  11.492  0.5595  0.8758 -0.7926
 3035SOL    HW120564   4.455   1.568  11.550  0.6317 -0.9475 -1.2514
 3035SOL    HW220565   4.424   1.620  11.418 -0.6575  1.6747 -1.0822
 3036SOL     OW20566   0.344   2.456   8.484 -0.1288 -0.0580 -0.2810
 3036SOL    HW120567   0.318   2.410   8.564  1.1238  1.0794  0.7834
 3036SOL    HW220568   0.347   2.388   8.418  1.3134  0.9522 -1.2433
 3037SOL     OW20569   2.145   3.431   8.363  0.1454  0.5803  0.4878
 3037SOL    HW120570   2.092   3.351   8.366  0.8699  0.0689 -0.3284
 3037SOL    HW220571   2.166   3.447   8.455 -0.4024  3.6364  0.0877
 3038SOL     OW20572   2.992   4.287   6.778 -0.1471 -0.0576  0.2554
 3038SOL    HW120573   2.917   4.345   6.777  1.1397  1.6047  0.2281
 3038SOL    HW220574   2.954   4.201   6.761 -0.7427  0.0658  0.9814
 3039SOL     OW20575   0.329   0.829   7.586  0.3629  0.3294  0.1925
 3039SOL    HW120576   0.270   0.876   7.645  1.0527  1.7375 -0.2168
 3039SOL    HW220577   0.292   0.867   7.506  2.6197  3.1382  0.4503
 3040SOL     OW20578   1.449   0.627   1.996  0.2900  0.2057  0.6079
 3040SOL    HW120579   1.429   0.721   1.994  0.4551  0.1999 -1.1786
 3040SOL    HW220580   1.505   0.634   2.073 -0.8343 -0.6124  1.4948
 3041SOL     OW20581   1.574   3.341   6.126 -0.2197  0.3854  0.3098
 3041SOL    HW120582   1.570   3.428   6.087 -2.4605  0.4149  0.6073
 3041SOL    HW220583   1.659   3.346   6.170 -0.2988  0.5710  0.4430
 3042SOL     OW20584   2.325   4.278   8.146 -0.3686 -0.1942  0.3057
 3042SOL    HW120585   2.390   4.224   8.100  1.0935  0.5667  1.5000
 3042SOL    HW220586   2.354   4.289   8.237 -1.3661  0.2015  0.5751
 3043SOL     OW20587   3.625   3.243   4.519 -0.5674 -0.0368 -0.4061
 3043SOL    HW120588   3.703   3.210   4.563 -1.5725 -0.8357  0.7626
 3043SOL    HW220589   3.648   3.335   4.502  0.5956 -0.3177 -0.3190
 3044SOL     OW20590   0.889   1.500  13.324  0.0718  0.2113 -0.2343
 3044SOL    HW120591   0.810   1.539  13.286 -0.4265 -1.1479 -0.5844
 3044SOL    HW220592   0.928   1.575  13.369 -2.7296  0.9217  0.9737
 3045SOL     OW20593   2.830   0.505   9.576 -0.1036  0.4778  0.5036
 3045SOL    HW120594   2.771   0.550   9.515  0.7089  1.3429  0.3503
 3045SOL    HW220595   2.907   0.499   9.520 -0.0736  2.8961  0.2946
 3046SOL     OW20596   3.418   3.417   5.430 -0.3950  0.3637  0.1162
 3046SOL    HW120597   3.472   3.343   5.403 -0.9199 -0.3543  1.0040
 3046SOL    HW220598   3.480   3.461   5.488 -2.7540 -0.4358  3.2524
 3047SOL     OW20599   2.079   4.572   3.556  0.0718  0.2481 -0.1451
 3047SOL    HW120600   2.095   4.505   3.489 -0.2788  0.2201 -0.1974
 3047SOL    HW220601   2.007   4.621   3.517 -2.0798 -2.5964  0.2263
 3048SOL     OW20602   3.315   3.814  16.956 -0.6504  0.5834  0.3242
 3048SOL    HW120603   3.313   3.735  17.010  0.2194  0.8015  0.6782
 3048SOL    HW220604   3.406   3.841  16.967 -0.8223  0.7277  1.4234
 3049SOL     OW20605   0.196   1.026   7.775 -0.5153 -0.0720 -0.1110
 3049SOL    HW120606   0.286   1.054   7.791 -0.0253 -0.0306 -2.8625
 3049SOL    HW220607   0.146   1.096   7.817 -0.6380  0.0727 -0.4944
 3050SOL     OW20608   2.401   4.676   9.543 -0.7270  0.2413 -0.0657
 3050SOL    HW120609   2.395   4.582   9.526  2.0930  0.0079  0.3314
 3050SOL    HW220610   2.378   4.679   9.636 -2.0858  1.2739 -0.4203
 3051SOL     OW20611   3.532   4.016  16.885  0.3779  0.1351  0.1887
 3051SOL    HW120612   3.605   4.029  16.824 -0.6583 -1.0150 -1.2991
 3051SOL    HW220613   3.462   4.071  16.849  0.6885 -0.3063 -1.1212
 3052SOL     OW20614   4.005   4.288   3.148 -0.0132  0.1900 -0.0219
 3052SOL    HW120615   4.025   4.361   3.089 -0.1064  0.8475  0.7426
 3052SOL    HW220616   3.960   4.343   3.213 -0.4861  1.4375 -1.4100
 3053SOL     OW20617   3.954   0.180   0.586  0.3407  0.5563 -0.2874
 3053SOL    HW120618   3.989   0.175   0.498  0.1625  1.2681 -0.4017
 3053SOL    HW220619   3.866   0.216   0.571  0.3606  0.5048 -0.5240
 3054SOL     OW20620   2.724   0.369  17.376 -0.0934 -0.0312 -0.3658
 3054SOL    HW120621   2.773   0.331  17.303 -0.6112 -1.3125 -0.0415
 3054SOL    HW220622   2.748   0.460  17.359 -2.9531  0.9023  0.5475
 3055SOL     OW20623   2.093   1.534   4.278 -0.2494  0.2695  0.3321
 3055SOL    HW120624   2.050   1.612   4.311 -0.2271  0.2550  0.3967
 3055SOL    HW220625   2.052   1.471   4.337  0.0696  1.6639  2.0343
 3056SOL     OW20626   0.817   4.089   7.052  0.0709 -0.0919 -0.6495
 3056SOL    HW120627   0.913   4.088   7.064 -0.0990  0.3532  0.8701
 3056SOL    HW220628   0.797   3.996   7.053  0.4917 -0.1803  0.4844
 3057SOL     OW20629   3.584   0.622  17.175 -0.3234 -0.1562  0.0820
 3057SOL    HW120630   3.640   0.582  17.242 -1.3048 -2.5025 -0.4932
 3057SOL    HW220631   3.497   0.594  17.204 -0.3704 -0.0512  0.0418
 3058SOL     OW20632   3.959   3.944  12.117  0.4877  0.1173  0.2739
 3058SOL    HW120633   3.923   3.971  12.201  1.1347  1.2532  0.1849
 3058SOL    HW220634   3.980   4.029  12.077 -0.3730  0.6591  0.9897
 3059SOL     OW20635   1.384   0.126   7.873  0.5384 -0.2375 -0.0425
 3059SOL    HW120636   1.330   0.116   7.951 -1.2450  1.5564 -1.0652
 3059SOL    HW220637   1.454   0.184   7.903 -0.8064  0.5923  1.4643
 3060SOL     OW20638   2.361   3.864   8.091 -0.0304 -0.0411 -0.5065
 3060SOL    HW120639   2.423   3.935   8.073 -0.3396  0.9370  2.3329
 3060SOL    HW220640   2.379   3.861   8.185 -2.6030 -2.1552 -0.0858
 3061SOL     OW20641   3.524   3.578  12.640 -0.1790  0.3051  0.3202
 3061SOL    HW120642   3.579   3.593  12.563 -0.4276 -0.1641  0.0459
 3061SOL    HW220643   3.556   3.631  12.712 -1.4409  0.6292  0.6525
 3062SOL     OW20644   1.235   1.787   8.191 -0.4109 -0.4772 -0.0531
 3062SOL    HW120645   1.217   1.881   8.181  3.1256  0.0084 -1.8195
 3062SOL    HW220646   1.254   1.788   8.284 -0.5293  1.2435 -0.0396
 3063SOL     OW20647   4.271   3.244   1.056  0.3155 -0.3251  0.7142
 3063SOL    HW120648   4.285   3.168   1.000 -1.2720  1.0959 -1.5828
 3063SOL    HW220649   4.205   3.205   1.114 -0.2404  0.2020  0.4243
 3064SOL     OW20650   3.033   3.114  11.378 -0.0013 -0.2881 -0.3582
 3064SOL    HW120651   2.956   3.057  11.382 -1.2968  1.3621 -1.6587
 3064SOL    HW220652   3.102   3.052  11.355  0.1453  0.8066 -2.8038
 3065SOL     OW20653   3.018   3.693  14.491 -0.3297 -0.2194 -0.4482
 3065SOL    HW120654   3.050   3.782  14.506 -1.0491 -0.1807  0.8078
 3065SOL    HW220655   3.100   3.644  14.500 -0.0627  0.6329  1.7608
 3066SOL     OW20656   3.954   4.569  17.205 -0.1446  0.0953 -0.0979
 3066SOL    HW120657   3.869   4.541  17.170 -0.6267  1.1779  0.2186
 3066SOL    HW220658   3.931   4.593  17.295  0.9329 -2.0920  0.7474
 3067SOL     OW20659   1.112   1.132   3.474  0.0088  0.2909 -0.5857
 3067SOL    HW120660   1.067   1.115   3.557 -0.1879  2.7444 -0.1825
 3067SOL    HW220661   1.053   1.191   3.426 -1.3215 -0.0333  0.6389
 3068SOL     OW20662   1.971   2.762   4.909 -0.0040 -0.0765 -0.5596
 3068SOL    HW120663   1.928   2.736   4.991 -0.2577  1.8361 -0.0827
 3068SOL    HW220664   2.009   2.845   4.940  2.1784 -1.5019  0.5971
 3069SOL     OW20665   3.321   2.334   9.044 -0.4372  0.6394  0.0433
 3069SOL    HW120666   3.285   2.356   8.958  1.6815 -0.3245 -1.0681
 3069SOL    HW220667   3.414   2.332   9.023 -0.3958  2.0092  0.0581
 3070SOL     OW20668   0.990   4.316   2.451  0.0545  0.8318 -0.2512
 3070SOL    HW120669   0.901   4.349   2.436 -0.1251 -0.2893 -1.6392
 3070SOL    HW220670   1.036   4.394   2.419 -0.2409  0.3722 -1.7893
 3071SOL     OW20671   2.454   2.173   5.435 -0.0305 -0.1925  0.0498
 3071SOL    HW120672   2.417   2.236   5.497 -2.1165 -0.1170 -1.2654
 3071SOL    HW220673   2.371   2.144   5.398 -1.5412  3.1590  0.8310
 3072SOL     OW20674   3.892   0.981  12.888 -0.0652  0.0521 -0.0280
 3072SOL    HW120675   3.836   0.905  12.907  1.0249 -0.7048  0.1675
 3072SOL    HW220676   3.970   0.927  12.900  0.5848  1.3158  1.2976
 3073SOL     OW20677   1.914   3.086  12.833  0.2807  0.4154 -0.5302
 3073SOL    HW120678   1.880   3.167  12.796  0.8486  0.2850 -1.3421
 3073SOL    HW220679   1.829   3.063  12.872 -0.1129 -1.1129 -2.3061
 3074SOL     OW20680   2.990   0.671   4.085  0.2778  0.0395  0.0791
 3074SOL    HW120681   2.996   0.739   4.152 -0.5238 -0.6583  0.8610
 3074SOL    HW220682   2.974   0.732   4.013 -0.6855 -0.3315 -0.0198
 3075SOL     OW20683   0.815   1.665  17.411  0.2876 -0.0662  0.4578
 3075SOL    HW120684   0.720   1.658  17.405  0.3526  0.3558 -1.2084
 3075SOL    HW220685   0.824   1.750  17.454  1.5408 -0.3348  0.7377
 3076SOL     OW20686   0.781   2.455   3.757 -0.3210 -0.2142 -0.1867
 3076SOL    HW120687   0.795   2.415   3.671  2.1332 -0.1785  0.1984
 3076SOL    HW220688   0.709   2.508   3.724  0.8845  1.3773 -0.2236
 3077SOL     OW20689   0.251   3.421   6.886 -0.2620 -1.0495 -0.2636
 3077SOL    HW120690   0.224   3.334   6.857  2.2735 -1.4220 -1.6137
 3077SOL    HW220691   0.305   3.408   6.964  1.7524 -1.0835 -1.6308
 3078SOL     OW20692   0.481   2.204   0.343 -0.2833  0.1155  0.6015
 3078SOL    HW120693   0.434   2.138   0.394 -0.2744  1.9967  3.0632
 3078SOL    HW220694   0.441   2.219   0.258  2.8132 -0.0806 -0.8961
 3079SOL     OW20695   3.579   1.602   5.479 -0.5425 -0.5705 -0.2977
 3079SOL    HW120696   3.664   1.579   5.516 -1.8915 -1.6763  2.1173
 3079SOL    HW220697   3.536   1.520   5.503 -1.0842 -0.0580  0.5079
 3080SOL     OW20698   0.712   1.079   3.983  0.0772 -0.3564  0.2481
 3080SOL    HW120699   0.699   1.094   4.077  3.3866 -0.2495  0.6849
 3080SOL    HW220700   0.801   1.045   3.977  0.3957  0.4942  0.1368
 3081SOL     OW20701   4.303   0.365   9.615  0.0532  0.2889  0.2715
 3081SOL    HW120702   4.248   0.443   9.605 -0.2977  0.0076 -0.0108
 3081SOL    HW220703   4.381   0.371   9.560 -0.7145  2.1973 -0.6203
 3082SOL     OW20704   0.335   0.640   9.395 -0.1119 -0.3132 -0.3899
 3082SOL    HW120705   0.375   0.722   9.424  0.2631 -1.0950  1.2991
 3082SOL    HW220706   0.361   0.577   9.462 -1.9584 -0.5867  0.0694
 3083SOL     OW20707   3.477   1.901   7.898 -0.0661 -0.0783 -0.1389
 3083SOL    HW120708   3.441   1.814   7.885 -0.5928  0.0349  0.5826
 3083SOL    HW220709   3.483   1.906   7.994 -2.0348  2.1796 -0.1366
 3084SOL     OW20710   0.579   3.704   4.912  0.2794 -0.2519 -0.3413
 3084SOL    HW120711   0.660   3.668   4.948 -1.4140 -2.7050  1.0205
 3084SOL    HW220712   0.565   3.651   4.833 -0.5692 -2.4263  1.2745
 3085SOL     OW20713   2.392   4.245  10.070  0.4219  0.5015  0.2297
 3085SOL    HW120714   2.396   4.158  10.110 -2.5231  0.6652  0.8260
 3085SOL    HW220715   2.299   4.266  10.073  0.1123 -0.8018 -0.4061
 3086SOL     OW20716   2.378   3.776   5.432 -0.1124 -0.4218 -0.2305
 3086SOL    HW120717   2.287   3.747   5.430 -0.2558  0.0600 -0.6906
 3086SOL    HW220718   2.366   3.869   5.450 -1.1019 -0.6809  0.4385
 3087SOL     OW20719   0.708   3.695   3.455  0.4872 -0.0798  0.4431
 3087SOL    HW120720   0.645   3.699   3.383 -0.3176 -0.5774  1.1322
 3087SOL    HW220721   0.754   3.618   3.420  3.0692  1.3208  0.7631
 3088SOL     OW20722   2.700   2.191   9.248  0.3193 -0.0677 -0.3791
 3088SOL    HW120723   2.758   2.126   9.288 -0.4694  1.0140  2.5257
 3088SOL    HW220724   2.633   2.127   9.225  0.1749 -0.2457  0.5270
 3089SOL     OW20725   3.115   4.313   1.982  0.1266 -0.6533 -0.5655
 3089SOL    HW120726   3.069   4.397   1.992  0.7441 -0.2021 -1.5005
 3089SOL    HW220727   3.052   4.266   2.036 -0.4426  1.6702  0.8285
 3090SOL     OW20728   3.399   0.503   4.876  0.1128 -0.5622  0.3751
 3090SOL    HW120729   3.311   0.511   4.913 -0.4809  0.5486 -1.2571
 3090SOL    HW220730   3.427   0.594   4.885 -0.6621 -0.0706 -2.1747
 3091SOL     OW20731   2.915   4.240   4.684 -0.1983  0.0508 -0.1710
 3091SOL    HW120732   2.966   4.319   4.704 -1.6031  0.9041  0.0629
 3091SOL    HW220733   2.939   4.181   4.756  0.2341  1.0528  0.5126
 3092SOL     OW20734   0.517   2.287   1.947 -0.1893  0.1063  0.3976
 3092SOL    HW120735   0.444   2.264   2.004 -0.3094  0.2878  0.3194
 3092SOL    HW220736   0.561   2.361   1.988 -1.9266  1.9910 -1.0644
 3093SOL     OW20737   1.106   3.547  10.726 -0.2909  0.6549 -0.0181
 3093SOL    HW120738   1.044   3.605  10.682 -1.8215 -0.8907  0.0772
 3093SOL    HW220739   1.105   3.573  10.818  0.7139 -0.4105  0.2904
 3094SOL     OW20740   0.643   0.132   8.506  0.4077 -0.2807 -0.1765
 3094SOL    HW120741   0.587   0.142   8.430  0.3498 -2.5450 -0.4283
 3094SOL    HW220742   0.588   0.093   8.574 -1.3703 -0.2200 -1.5967
 3095SOL     OW20743   0.328   4.550   6.604  0.1220  0.1697  0.2447
 3095SOL    HW120744   0.235   4.534   6.622  0.6196 -2.3337  0.6613
 3095SOL    HW220745   0.332   4.643   6.582 -1.2854  0.6068  1.8697
 3096SOL     OW20746   0.543   2.458   1.386  0.2911  0.7322  0.5055
 3096SOL    HW120747   0.517   2.367   1.370  0.2873  0.7218  0.5693
 3096SOL    HW220748   0.558   2.495   1.299  0.4709  3.5054  1.7078
 3097SOL     OW20749   0.271   0.593  17.371 -0.2209  0.0425  0.4645
 3097SOL    HW120750   0.311   0.613  17.455  1.3284  3.3176 -1.0761
 3097SOL    HW220751   0.235   0.507  17.392  0.2985  0.0139  1.2094
 3098SOL     OW20752   4.576   2.924  11.705 -0.0708  0.1356 -0.7081
 3098SOL    HW120753   4.597   2.846  11.758  2.0419  0.0545 -1.6612
 3098SOL    HW220754   4.642   2.989  11.729  0.1992  0.0926 -1.3269
 3099SOL     OW20755   1.598   1.299  12.364 -0.3841  0.3470 -1.1789
 3099SOL    HW120756   1.555   1.221  12.398  0.3270  0.6135  0.3430
 3099SOL    HW220757   1.666   1.261  12.308 -0.5400 -0.9294 -0.5013
 3100SOL     OW20758   4.118   3.299   1.627 -0.4123  0.6875 -1.0736
 3100SOL    HW120759   4.107   3.303   1.532  0.1240 -1.1340 -1.2104
 3100SOL    HW220760   4.026   3.288   1.652  0.8333 -0.8395  2.7225
 3101SOL     OW20761   3.840   3.990  14.871  0.1369 -0.2396  0.1547
 3101SOL    HW120762   3.863   4.080  14.895  0.3223 -0.0102 -0.8518
 3101SOL    HW220763   3.833   3.949  14.957  1.2539 -0.4283  0.1627
 3102SOL     OW20764   1.778   3.789   4.873  0.3333 -0.2971 -0.2240
 3102SOL    HW120765   1.844   3.857   4.863  0.2586 -0.0463  0.9136
 3102SOL    HW220766   1.823   3.725   4.929 -0.4840 -1.6888 -1.1595
 3103SOL     OW20767   2.473   3.012   4.174  0.4497 -0.4181  0.0907
 3103SOL    HW120768   2.569   3.016   4.171  0.2584  1.7016 -2.5855
 3103SOL    HW220769   2.454   3.096   4.135 -0.0988 -0.6782 -0.1971
 3104SOL     OW20770   1.683   0.479   5.042 -0.3774  0.1726 -0.3426
 3104SOL    HW120771   1.678   0.503   4.949 -0.1408 -0.2029 -0.4532
 3104SOL    HW220772   1.752   0.536   5.077  0.3427 -0.0047 -1.4594
 3105SOL     OW20773   2.758   3.311   1.653  0.3240  0.0024 -0.1949
 3105SOL    HW120774   2.682   3.275   1.608 -0.6834  1.1466  0.6033
 3105SOL    HW220775   2.825   3.299   1.585  0.3566 -2.4683  0.2796
 3106SOL     OW20776   0.730   3.905   2.345  0.1047  0.3380  0.2959
 3106SOL    HW120777   0.640   3.903   2.311  0.4771  1.3828 -0.7209
 3106SOL    HW220778   0.718   3.985   2.397 -1.7624 -0.6543  1.4022
 3107SOL     OW20779   0.522   1.012   4.725 -0.5489 -0.3288 -0.2400
 3107SOL    HW120780   0.491   0.921   4.724  1.1915 -0.8870 -2.2377
 3107SOL    HW220781   0.584   1.020   4.798  0.3546 -0.1616 -1.0287
 3108SOL     OW20782   3.054   4.121   5.747 -0.5674 -0.4058  0.2020
 3108SOL    HW120783   3.013   4.180   5.810  1.1487  0.1786  0.7739
 3108SOL    HW220784   3.118   4.071   5.798  0.0581 -1.0906 -1.2486
 3109SOL     OW20785   3.182   2.560   7.761 -0.3139  0.2062 -0.4734
 3109SOL    HW120786   3.155   2.582   7.850  0.1827 -1.0525 -0.0150
 3109SOL    HW220787   3.256   2.501   7.776 -1.6776 -0.5752  3.2265
 3110SOL     OW20788   0.169   0.340  10.821  0.6741  0.0996 -0.0554
 3110SOL    HW120789   0.101   0.280  10.854 -0.4607  0.6729 -1.3265
 3110SOL    HW220790   0.248   0.314  10.869  0.7622 -1.2913 -0.9612
 3111SOL     OW20791   4.659   3.047  15.250  0.7956 -0.3504 -0.1366
 3111SOL    HW120792   4.604   3.113  15.209  0.7556 -0.0574  0.3888
 3111SOL    HW220793   4.597   3.021  15.318  0.4537 -2.2483 -1.1616
 3112SOL     OW20794   1.194   1.081   8.559 -0.3739 -0.0713  0.2006
 3112SOL    HW120795   1.197   1.088   8.655  0.2879 -0.6346  0.2193
 3112SOL    HW220796   1.124   1.017   8.564  0.5231 -0.8829  2.7521
 3113SOL     OW20797   1.813   2.663   3.411  0.7131  0.6707  0.6648
 3113SOL    HW120798   1.719   2.652   3.424  0.5537 -1.2418 -1.9786
 3113SOL    HW220799   1.827   2.750   3.375 -0.3220  0.3864 -0.4325
 3114SOL     OW20800   0.892   2.405   7.805 -0.8775  0.3932 -0.1314
 3114SOL    HW120801   0.918   2.423   7.895  0.6052  0.2409 -0.5404
 3114SOL    HW220802   0.979   2.400   7.767 -1.0055 -1.1015 -0.2126
 3115SOL     OW20803   1.637   2.564   3.661 -0.6099  0.2603  0.4709
 3115SOL    HW120804   1.696   2.489   3.665 -0.8915 -0.0723 -1.5444
 3115SOL    HW220805   1.600   2.557   3.573  1.9143 -2.4990 -0.3794
 3116SOL     OW20806   2.435   2.062   2.499 -0.0938  0.0971  0.1016
 3116SOL    HW120807   2.353   2.107   2.519 -0.5814 -0.6357 -0.2106
 3116SOL    HW220808   2.418   2.039   2.407 -2.3567  1.9614  0.0694
 3117SOL     OW20809   0.421   4.658   9.096 -0.0532 -0.2550 -0.3284
 3117SOL    HW120810   0.442   0.026   9.090  0.4606 -0.4248 -1.2387
 3117SOL    HW220811   0.500   4.624   9.138 -0.5119 -0.0094  0.7355
 3118SOL     OW20812   2.805   4.327   5.593 -0.0801  0.5506  0.4500
 3118SOL    HW120813   2.881   4.291   5.548 -0.7493  0.8575 -0.9113
 3118SOL    HW220814   2.849   4.409   5.616 -0.9602  0.4785  2.4235
 3119SOL     OW20815   0.620   4.610  15.095 -0.3809  0.6345  0.5872
 3119SOL    HW120816   0.589   4.635  15.008  1.0841  1.8794  0.4298
 3119SOL    HW220817   0.647   4.519  15.082 -3.1736 -0.2495  0.8903
 3120SOL     OW20818   4.193   3.471  12.849  0.0287  0.2843 -0.2341
 3120SOL    HW120819   4.151   3.504  12.929  1.6064 -1.0518  1.1408
 3120SOL    HW220820   4.148   3.539  12.798 -0.4671 -0.1502 -0.3778
 3121SOL     OW20821   2.702   3.192   6.431 -0.2766  0.1148  0.7912
 3121SOL    HW120822   2.710   3.135   6.355 -1.4523  1.9162 -0.6754
 3121SOL    HW220823   2.785   3.239   6.442 -0.4163  0.5244  0.0455
 3122SOL     OW20824   3.087   0.574   4.524 -0.3607  0.1593 -0.0960
 3122SOL    HW120825   3.168   0.538   4.486  1.3690  1.0800  2.6969
 3122SOL    HW220826   3.091   0.511   4.596  0.5988  1.0696  0.6385
 3123SOL     OW20827   3.169   2.232   8.007 -0.3990  0.1662 -0.7275
 3123SOL    HW120828   3.083   2.276   8.009  0.0697  0.9342  2.5504
 3123SOL    HW220829   3.227   2.297   7.967  0.2889  0.4678  0.7554
 3124SOL     OW20830   2.955   1.021  10.936  0.2822 -0.6035 -0.5026
 3124SOL    HW120831   2.905   1.091  10.979  0.6531 -0.6021 -0.0710
 3124SOL    HW220832   2.894   0.949  10.952 -0.6706  0.4100  0.4607
 3125SOL     OW20833   4.120   0.920  14.062  0.3693 -0.2616 -0.1491
 3125SOL    HW120834   4.178   0.982  14.020  1.2976  1.0735  3.0825
 3125SOL    HW220835   4.098   0.868  13.985  0.8644  0.1124 -0.5364
 3126SOL     OW20836   4.179   3.747  16.352  0.0084  0.7849  0.1317
 3126SOL    HW120837   4.204   3.770  16.442  0.4964 -0.6094  0.3579
 3126SOL    HW220838   4.093   3.788  16.354 -2.0202 -3.4248 -0.8353
 3127SOL     OW20839   3.114   1.974   4.772  0.3323 -1.0270  0.1300
 3127SOL    HW120840   3.142   1.886   4.746  1.9669 -0.0939 -1.2163
 3127SOL    HW220841   3.022   1.959   4.794  0.0365 -0.9865 -1.0955
 3128SOL     OW20842   1.278   4.703   0.542 -0.0107 -0.0372  0.2475
 3128SOL    HW120843   1.223   4.684   0.618 -2.3737  1.5764 -1.0408
 3128SOL    HW220844   1.364   4.689   0.580  0.1546 -0.4290 -0.2607
 3129SOL     OW20845   0.598   1.273   1.422  0.5840  0.1101 -0.4256
 3129SOL    HW120846   0.558   1.360   1.424  3.6257  1.4993  0.1349
 3129SOL    HW220847   0.594   1.249   1.329 -0.6158 -1.8622  0.1425
 3130SOL     OW20848   0.739   1.830  11.026 -0.1027  0.2545  0.1377
 3130SOL    HW120849   0.720   1.923  11.021  0.5647  0.3201 -1.1372
 3130SOL    HW220850   0.662   1.800  10.977  0.8459 -0.6869 -0.7907
 3131SOL     OW20851   2.279   0.307   4.623 -0.7594 -0.4293 -0.0331
 3131SOL    HW120852   2.234   0.389   4.644 -1.2348 -0.8063  0.4163
 3131SOL    HW220853   2.247   0.259   4.700  0.0622  2.2550  2.0001
 3132SOL     OW20854   3.980   0.811  11.362 -0.0897  0.6565  0.3441
 3132SOL    HW120855   4.043   0.768  11.304 -1.0569  0.2053 -0.3829
 3132SOL    HW220856   3.915   0.850  11.303  0.9359  1.6955 -0.0908
 3133SOL     OW20857   3.039   0.903   4.252  0.6009 -0.2438 -0.0057
 3133SOL    HW120858   2.955   0.946   4.269  0.8984  0.8525 -1.2356
 3133SOL    HW220859   3.099   0.975   4.233 -2.1954  2.1024  0.0578
 3134SOL     OW20860   1.154   3.863   4.893  0.0536 -0.4986  0.2704
 3134SOL    HW120861   1.161   3.916   4.813  2.4394  0.9801  1.4761
 3134SOL    HW220862   1.151   3.922   4.968 -1.5153  2.2634 -1.9609
 3135SOL     OW20863   3.276   4.445  15.525 -0.6316  0.5111 -0.3444
 3135SOL    HW120864   3.181   4.450  15.523 -0.6068  1.1070 -0.1844
 3135SOL    HW220865   3.297   4.471  15.435  1.2871  0.4836  0.0945
 3136SOL     OW20866   3.239   4.704   7.529 -0.0589 -0.3109 -0.5098
 3136SOL    HW120867   3.198   0.064   7.511  0.0242 -0.1940 -0.1506
 3136SOL    HW220868   3.250   4.708   7.624  0.1509 -1.7261 -0.4704
 3137SOL     OW20869   0.996   0.047  11.661 -0.1200  0.3809  0.4387
 3137SOL    HW120870   1.034   0.003  11.737 -0.6410 -0.6665  0.0971
 3137SOL    HW220871   1.058   0.118  11.643  0.5273 -0.4373 -0.5669
 3138SOL     OW20872   3.704   2.701  10.313  0.1872  0.5891  0.0937
 3138SOL    HW120873   3.633   2.725  10.373  1.2616  1.3040  1.0680
 3138SOL    HW220874   3.743   2.783  10.281  0.8808  0.3506  0.3395
 3139SOL     OW20875   0.059   4.241   5.137  0.7141  0.1726 -0.1408
 3139SOL    HW120876   0.111   4.286   5.071  2.2782 -1.6508 -0.1501
 3139SOL    HW220877   4.725   4.191   5.080 -1.0789  1.1798  0.8482
 3140SOL     OW20878   3.494   3.540   8.615  0.4858 -0.0232  0.5501
 3140SOL    HW120879   3.460   3.524   8.527 -0.6690 -0.0967  0.9989
 3140SOL    HW220880   3.564   3.603   8.605  1.9475 -2.1674 -2.5774
 3141SOL     OW20881   0.736   4.063   3.972  0.0851 -0.2310  0.0729
 3141SOL    HW120882   0.759   4.007   3.898 -1.1539 -0.5648 -0.0688
 3141SOL    HW220883   0.641   4.067   3.965  0.0184  0.1365  1.1022
 3142SOL     OW20884   1.295   0.169  15.536 -0.2980  0.4685 -0.4219
 3142SOL    HW120885   1.353   0.151  15.610 -0.9065  4.0200  0.9041
 3142SOL    HW220886   1.273   0.260  15.554 -0.8291 -0.2558  2.6019
 3143SOL     OW20887   0.855   2.980   3.964 -0.2443 -0.2017  0.6953
 3143SOL    HW120888   0.874   2.977   3.870  0.1876  2.4845  0.6918
 3143SOL    HW220889   0.947   2.965   3.988 -0.1133 -0.5681 -0.0223
 3144SOL     OW20890   3.753   2.337   4.916 -0.0199  0.6600 -0.2313
 3144SOL    HW120891   3.835   2.359   4.872 -0.3505  0.7584 -0.7913
 3144SOL    HW220892   3.781   2.251   4.948  0.0925  0.5075 -0.7462
 3145SOL     OW20893   2.556   2.646  12.198  0.1950  0.2223  0.1152
 3145SOL    HW120894   2.501   2.714  12.236  0.3642  0.4699 -0.0851
 3145SOL    HW220895   2.610   2.633  12.276  0.3275 -0.3509 -0.0715
 3146SOL     OW20896   2.831   1.044   4.889  0.2628 -0.7273  0.2722
 3146SOL    HW120897   2.887   1.018   4.962  0.5701 -1.9337 -0.3896
 3146SOL    HW220898   2.758   0.984   4.904 -1.3048  0.7929 -1.3471
 3147SOL     OW20899   1.602   3.533   7.294  0.0609  0.0288 -0.5959
 3147SOL    HW120900   1.628   3.602   7.355  0.7050 -0.0732 -0.7577
 3147SOL    HW220901   1.670   3.473   7.324 -0.3786 -0.6107 -0.8782
 3148SOL     OW20902   3.620   4.415   8.236 -0.4977  0.4461 -0.0617
 3148SOL    HW120903   3.635   4.504   8.207  0.6171  0.0516 -0.6924
 3148SOL    HW220904   3.696   4.392   8.290 -0.6938 -0.8441 -0.3208
 3149SOL     OW20905   2.577   0.697   2.298 -0.0063  0.5216  0.0083
 3149SOL    HW120906   2.509   0.720   2.234 -1.1995  1.2582  1.5597
 3149SOL    HW220907   2.542   0.610   2.319  1.0556  0.7877  2.8760
 3150SOL     OW20908   2.932   0.002   5.821 -0.0147 -0.9455  0.5147
 3150SOL    HW120909   2.897   4.705   5.735 -0.1994  1.2865  0.0329
 3150SOL    HW220910   2.862   4.693   5.876 -1.1188 -0.5832 -0.6837
 3151SOL     OW20911   1.595   2.454   0.270  0.1219  0.5706  0.2763
 3151SOL    HW120912   1.557   2.440   0.183  0.9569 -0.8424  0.1308
 3151SOL    HW220913   1.517   2.467   0.324  0.5138  0.5032  0.8522
 3152SOL     OW20914   3.438   1.757   9.651  0.1034  0.3060 -0.3848
 3152SOL    HW120915   3.505   1.758   9.583  0.4453 -0.7173 -0.0619
 3152SOL    HW220916   3.442   1.669   9.690  1.9268  0.2372 -0.7498
 3153SOL     OW20917   3.880   4.670  16.474  0.9648  0.6056 -0.1260
 3153SOL    HW120918   3.967   4.698  16.448  1.0741  0.9556  0.6248
 3153SOL    HW220919   3.832   0.025  16.452 -1.7330 -0.7035  0.9855
 3154SOL     OW20920   1.677   1.913   6.889  0.2580  0.0997 -0.3081
 3154SOL    HW120921   1.610   1.957   6.942  0.5847 -0.2142  0.3707
 3154SOL    HW220922   1.723   1.871   6.962 -3.6714 -0.5191  1.8399
 3155SOL     OW20923   4.080   3.594   1.403 -0.6533 -0.0367 -0.0210
 3155SOL    HW120924   4.034   3.510   1.403 -0.4078 -0.1493 -3.4989
 3155SOL    HW220925   4.161   3.557   1.368  0.2653  0.6542  1.3756
 3156SOL     OW20926   4.142   2.331   1.934  0.5993 -0.7042  0.1857
 3156SOL    HW120927   4.155   2.351   2.027  1.3056  0.5552 -0.1894
 3156SOL    HW220928   4.109   2.241   1.943  1.5712 -0.9133  1.7838
 3157SOL     OW20929   0.271   2.975   8.043  0.4338  0.1758  0.0433
 3157SOL    HW120930   0.217   3.029   8.101  1.2257  0.2215  0.7448
 3157SOL    HW220931   0.281   2.900   8.101 -2.2276 -0.4756 -0.3256
 3158SOL     OW20932   0.856   3.096   5.908 -0.0677  0.4364 -0.0334
 3158SOL    HW120933   0.786   3.051   5.861  1.7296  0.1962 -2.5195
 3158SOL    HW220934   0.900   3.018   5.941  2.0520 -0.0093 -3.8842
 3159SOL     OW20935   3.686   2.467   6.838  0.3435 -0.0565 -0.0689
 3159SOL    HW120936   3.755   2.534   6.835  0.2380  0.0707  0.2729
 3159SOL    HW220937   3.672   2.454   6.932  1.6617 -2.6370 -0.2461
 3160SOL     OW20938   1.341   0.622   2.545  0.2258  0.1934 -0.3169
 3160SOL    HW120939   1.309   0.706   2.513 -0.4480  0.5210  1.2112
 3160SOL    HW220940   1.331   0.570   2.465 -1.3536 -2.7709  1.7548
 3161SOL     OW20941   3.381   2.914   7.730 -0.3881  0.1584  0.6286
 3161SOL    HW120942   3.406   2.977   7.797  0.2435  1.8123 -1.1720
 3161SOL    HW220943   3.460   2.861   7.717 -2.0551 -2.2947  0.3848
 3162SOL     OW20944   1.701   0.474  14.305 -0.1063  0.0787  0.1926
 3162SOL    HW120945   1.775   0.465  14.365  0.6775 -0.1000 -0.8018
 3162SOL    HW220946   1.707   0.567  14.281  2.6104  0.0942  0.9338
 3163SOL     OW20947   0.740   0.072   1.789  0.2898  0.3428 -0.5471
 3163SOL    HW120948   0.700   4.719   1.828 -0.0770  0.7667 -0.0789
 3163SOL    HW220949   0.654   0.115   1.782 -1.1547 -2.0987  2.1489
 3164SOL     OW20950   1.786   3.594  12.065 -0.1727 -0.1280  0.5858
 3164SOL    HW120951   1.859   3.566  12.010  0.2835  1.3514  0.4293
 3164SOL    HW220952   1.708   3.587  12.010 -2.2458 -1.2806  3.6940
 3165SOL     OW20953   2.006   2.219   4.706 -0.5761  0.0859  0.8550
 3165SOL    HW120954   1.949   2.220   4.629  1.0228  3.0300 -0.2798
 3165SOL    HW220955   2.079   2.277   4.684 -0.6710 -0.9494 -2.2274
 3166SOL     OW20956   0.336   0.848   6.521 -0.2966  0.3008  0.7606
 3166SOL    HW120957   0.262   0.792   6.496  0.8387 -0.8668 -0.0123
 3166SOL    HW220958   0.322   0.852   6.615  1.4269  1.0479  0.9715
 3167SOL     OW20959   3.319   2.459   4.261  0.6831  0.4228  0.2458
 3167SOL    HW120960   3.312   2.404   4.183 -1.0661 -0.2095  0.8647
 3167SOL    HW220961   3.258   2.416   4.320 -0.0073  2.0491  0.7198
 3168SOL     OW20962   1.918   0.169   4.049  0.0420 -0.1635  0.0123
 3168SOL    HW120963   1.969   0.201   3.975 -1.3798 -0.2964 -1.0236
 3168SOL    HW220964   1.990   0.119   4.088 -1.6878 -0.9065  2.2508
 3169SOL     OW20965   3.491   4.469  13.846 -0.5325 -0.5750 -0.0454
 3169SOL    HW120966   3.555   4.499  13.911 -0.0358  0.6360 -1.0798
 3169SOL    HW220967   3.526   4.381  13.835 -0.1410 -0.4585  0.2800
 3170SOL     OW20968   0.367   3.878   3.396  0.0416 -0.1049 -0.0500
 3170SOL    HW120969   0.429   3.945   3.423 -1.1281  0.4161  1.2919
 3170SOL    HW220970   0.423   3.807   3.365 -0.1174 -0.7574  1.1658
 3171SOL     OW20971   3.951   3.369   8.738  0.2854 -0.6196 -0.1214
 3171SOL    HW120972   3.868   3.332   8.706 -0.4321  0.3064  0.6555
 3171SOL    HW220973   3.921   3.377   8.829 -0.9112 -3.7830 -0.2350
 3172SOL     OW20974   4.355   4.027   4.383 -0.0523  0.2732 -0.0657
 3172SOL    HW120975   4.273   4.008   4.428  1.0247 -0.0774  1.7654
 3172SOL    HW220976   4.371   3.959   4.318  3.1004  0.8418  0.1086
 3173SOL     OW20977   3.878   2.017  15.230  0.1343 -0.0676  0.3594
 3173SOL    HW120978   3.806   2.063  15.188 -2.1463 -1.3234  2.9724
 3173SOL    HW220979   3.907   1.981  15.146  2.3454  0.4445  0.8993
 3174SOL     OW20980   4.472   0.634   5.241 -0.1920 -0.4127  0.7493
 3174SOL    HW120981   4.451   0.620   5.333  0.7427 -2.1056  0.7033
 3174SOL    HW220982   4.383   0.662   5.219  0.0779  0.6886  1.0484
 3175SOL     OW20983   4.201   3.913   8.395  0.3818  0.4028 -0.7031
 3175SOL    HW120984   4.169   3.847   8.456  1.4832  0.6775  0.1690
 3175SOL    HW220985   4.208   3.861   8.315  0.1125  2.2918 -1.9648
 3176SOL     OW20986   3.358   0.958  12.283 -0.5317  0.0624  0.1783
 3176SOL    HW120987   3.431   1.019  12.289  1.6715 -2.4378 -0.8976
 3176SOL    HW220988   3.395   0.882  12.238  1.9582  0.3655  1.7515
 3177SOL     OW20989   0.281   3.013   4.230  0.5122 -0.1665  0.5649
 3177SOL    HW120990   0.375   3.024   4.246  0.4187 -0.6524  1.4259
 3177SOL    HW220991   0.254   3.095   4.189  0.1450 -1.0635 -0.9925
 3178SOL     OW20992   3.405   3.801  15.481  0.2041 -0.0133  1.0528
 3178SOL    HW120993   3.490   3.842  15.469 -0.2082  0.3753 -0.6086
 3178SOL    HW220994   3.353   3.879  15.459  0.0454 -0.2360  0.6367
 3179SOL     OW20995   3.737   0.762   7.649 -0.3481  0.3342  0.6324
 3179SOL    HW120996   3.816   0.708   7.652 -0.9275 -0.6286 -1.6072
 3179SOL    HW220997   3.666   0.699   7.661  1.0549 -1.1509  1.1112
 3180SOL     OW20998   3.394   3.668   5.018  0.8778  0.5398  0.0282
 3180SOL    HW120999   3.326   3.660   5.085 -0.5694  1.8495 -1.2780
 3180SOL    HW221000   3.392   3.577   4.988 -1.1336  0.0398  1.6739
 3181SOL     OW21001   2.496   4.391   6.751  0.1649  0.0591 -0.2923
 3181SOL    HW121002   2.532   4.364   6.835  2.2418  0.5758 -1.0169
 3181SOL    HW221003   2.401   4.381   6.742  0.3927 -1.8189 -0.5616
 3182SOL     OW21004   4.405   4.351  14.764  0.0895  0.2426 -0.4927
 3182SOL    HW121005   4.347   4.348  14.839  1.3453  2.8279  0.5520
 3182SOL    HW221006   4.401   4.256  14.751 -3.0786 -0.0051  2.4513
 3183SOL     OW21007   4.562   0.638   6.900  0.3795  0.0078  0.1722
 3183SOL    HW121008   4.539   0.598   6.984 -0.6258  0.6964  0.2290
 3183SOL    HW221009   4.552   0.733   6.911  2.2981  0.2856 -0.5174
 3184SOL     OW21010   2.279   0.261   5.233 -0.0595  0.4506  0.1502
 3184SOL    HW121011   2.201   0.294   5.278  1.2355  2.3371  1.0198
 3184SOL    HW221012   2.246   0.185   5.187 -1.1725  1.0727 -0.0751
 3185SOL     OW21013   2.820   4.265   7.121  0.4918 -0.2459 -0.6689
 3185SOL    HW121014   2.745   4.310   7.083  0.3045  0.4933  0.5896
 3185SOL    HW221015   2.795   4.248   7.212 -1.7972 -0.5453 -1.3730
 3186SOL     OW21016   3.072   0.311   8.604 -0.2348  0.0241  0.6457
 3186SOL    HW121017   3.067   0.282   8.695 -0.9367 -2.7418 -0.2717
 3186SOL    HW221018   3.115   0.240   8.558  0.3905  0.8339 -0.0209
 3187SOL     OW21019   1.852   3.926   6.111 -0.4509 -0.8760  0.2396
 3187SOL    HW121020   1.769   3.935   6.158 -0.7669 -0.0739 -0.4667
 3187SOL    HW221021   1.853   4.012   6.068 -1.6517  0.5680  3.0365
 3188SOL     OW21022   0.466   0.040   2.982 -0.0278 -0.2807 -0.1381
 3188SOL    HW121023   0.442   0.104   3.050  1.7519  0.2930 -0.0565
 3188SOL    HW221024   0.378   0.010   2.958  0.7651 -1.3254 -1.6444
 3189SOL     OW21025   4.167   4.166   8.313 -0.4992 -0.3091 -0.7753
 3189SOL    HW121026   4.173   4.086   8.365 -1.8547  1.6200  2.2948
 3189SOL    HW221027   4.188   4.125   8.229  0.3146  1.5299 -1.4567
 3190SOL     OW21028   0.645   1.535   2.294 -0.4848  0.7777  0.3512
 3190SOL    HW121029   0.608   1.622   2.277 -0.9367  0.5493  0.1786
 3190SOL    HW221030   0.568   1.478   2.301 -1.7196  2.3965  0.0094
 3191SOL     OW21031   0.634   3.108   3.586 -0.1469 -0.2846  0.0560
 3191SOL    HW121032   0.542   3.122   3.607  0.4573  1.4274  1.5237
 3191SOL    HW221033   0.654   3.022   3.624 -0.3836 -0.1667  0.4419
 3192SOL     OW21034   0.529   3.362   8.373  0.0208 -0.5980 -0.0353
 3192SOL    HW121035   0.572   3.447   8.387 -2.0157  0.2522  1.0350
 3192SOL    HW221036   0.437   3.390   8.378  0.4770  0.6157  1.6267
 3193SOL     OW21037   2.820   1.498  10.632  0.7387 -0.3449 -0.2219
 3193SOL    HW121038   2.805   1.436  10.703  0.7524 -1.6442 -1.3553
 3193SOL    HW221039   2.845   1.568  10.692  1.0897 -2.3163  1.9566
 3194SOL     OW21040   1.757   2.531   6.379  0.3916  0.1846 -0.2951
 3194SOL    HW121041   1.678   2.585   6.387  1.4957  1.8923 -0.9213
 3194SOL    HW221042   1.790   2.543   6.468  1.5570  1.1745 -0.8585
 3195SOL     OW21043   4.263   2.388  11.759  0.3245  0.3871 -0.3140
 3195SOL    HW121044   4.250   2.446  11.835 -3.3848 -1.0748  0.1556
 3195SOL    HW221045   4.349   2.414  11.725  0.3184 -4.1604 -3.7445
 3196SOL     OW21046   4.224   4.354   5.991  0.0854 -0.1949 -0.0275
 3196SOL    HW121047   4.241   4.424   5.928 -2.4562  1.2684  0.9124
 3196SOL    HW221048   4.208   4.281   5.932 -1.5544  0.4356 -0.3561
 3197SOL     OW21049   1.700   3.937   4.553 -0.3119  0.3680  0.2878
 3197SOL    HW121050   1.717   3.990   4.632 -0.9047  1.1780 -0.1267
 3197SOL    HW221051   1.759   3.974   4.487 -2.0352  2.3120 -0.1642
 3198SOL     OW21052   0.803   1.593   1.523  0.2514  0.1693 -0.0467
 3198SOL    HW121053   0.777   1.682   1.500 -1.7965 -0.0115  1.5400
 3198SOL    HW221054   0.880   1.608   1.578  0.1584  1.7082 -0.3259
 3199SOL     OW21055   3.981   0.428   7.201 -0.2060  0.0776 -0.1459
 3199SOL    HW121056   3.916   0.490   7.166  1.5876  2.4053  0.6758
 3199SOL    HW221057   3.957   0.428   7.293 -1.2024 -1.8482 -0.4095
 3200SOL     OW21058   0.470   3.295   9.021 -0.1402  0.1346 -0.5177
 3200SOL    HW121059   0.485   3.362   8.954 -0.1927  1.5260  0.8762
 3200SOL    HW221060   0.508   3.345   9.094 -0.8544  0.1833 -0.1876
 3201SOL     OW21061   1.326   2.098   7.870  0.2179 -0.3308  0.2008
 3201SOL    HW121062   1.353   2.010   7.843 -1.5545 -0.8713  0.2262
 3201SOL    HW221063   1.397   2.154   7.836  0.8170 -0.0992  1.8464
 3202SOL     OW21064   1.827   1.890   7.986 -0.1138  0.3145 -0.6370
 3202SOL    HW121065   1.748   1.863   7.939 -1.3257  2.6297  0.0198
 3202SOL    HW221066   1.888   1.838   7.935 -0.1687 -0.7680  0.3814
 3203SOL     OW21067   4.609   0.426   2.103  0.1385  0.3017 -0.1250
 3203SOL    HW121068   4.601   0.337   2.068 -0.1244  0.5012 -0.5672
 3203SOL    HW221069   4.553   0.472   2.041  0.0062  1.7760  1.0729
 3204SOL     OW21070   2.207   0.252   7.074 -0.4208  0.1377 -0.9939
 3204SOL    HW121071   2.119   0.278   7.050 -0.6947 -0.2276 -0.3817
 3204SOL    HW221072   2.219   0.171   7.024 -0.7078 -1.4244  1.5099
 3205SOL     OW21073   4.552   3.944   6.319  0.0991 -0.2016  0.5099
 3205SOL    HW121074   4.490   4.001   6.364  0.7895  0.7157  0.2939
 3205SOL    HW221075   4.507   3.958   6.235  0.4333 -0.7874  0.2327
 3206SOL     OW21076   3.639   1.404  14.793  0.1491 -0.5587  0.3867
 3206SOL    HW121077   3.650   1.408  14.888  0.4784  1.0600  0.2747
 3206SOL    HW221078   3.545   1.401  14.779  0.1426  4.5170 -0.6881
 3207SOL     OW21079   1.260   4.022   6.609 -0.0604 -0.0745 -0.1456
 3207SOL    HW121080   1.234   3.930   6.613  0.9935 -0.3690  0.0697
 3207SOL    HW221081   1.344   4.018   6.564  0.8711  3.6672  1.2825
 3208SOL     OW21082   3.497   0.886   1.693  0.4226 -0.4378  0.2578
 3208SOL    HW121083   3.535   0.972   1.676 -0.2420  0.2713  2.3377
 3208SOL    HW221084   3.431   0.915   1.756 -0.2372 -2.0025  0.2733
 3209SOL     OW21085   3.747   1.095   4.136  0.5673 -0.1653  0.2218
 3209SOL    HW121086   3.685   1.025   4.118  1.8083 -0.9636 -0.9997
 3209SOL    HW221087   3.831   1.049   4.139  1.1732  0.9960  1.0104
 3210SOL     OW21088   1.442   1.237   3.749  0.4514  0.2283  0.1779
 3210SOL    HW121089   1.480   1.193   3.673  0.8704  1.0871 -0.1055
 3210SOL    HW221090   1.454   1.322   3.706  0.8504 -0.3435 -0.8506
 3211SOL     OW21091   3.960   3.943  13.560 -0.0645 -0.6702  0.0107
 3211SOL    HW121092   4.019   4.019  13.552  0.3116 -1.0756 -1.1073
 3211SOL    HW221093   3.924   3.940  13.471  2.1041  0.2389 -0.9262
 3212SOL     OW21094   2.322   2.375   0.994  0.2150  0.7404 -1.0752
 3212SOL    HW121095   2.265   2.426   0.937 -0.6270 -0.6030 -1.4180
 3212SOL    HW221096   2.372   2.325   0.930  2.1872  6.1291 -3.7242
 3213SOL     OW21097   3.518   0.496   4.620 -0.3462 -0.2882 -0.3838
 3213SOL    HW121098   3.463   0.486   4.698  0.3391  0.6490  0.2071
 3213SOL    HW221099   3.469   0.547   4.555 -1.4331 -0.7094  0.1091
 3214SOL     OW21100   2.022   2.354   2.170 -0.2785 -0.6997  0.2385
 3214SOL    HW121101   2.032   2.311   2.084  1.0432 -1.7242  0.8983
 3214SOL    HW221102   1.950   2.414   2.152 -0.3872 -0.6446  0.8708
 3215SOL     OW21103   1.334   0.254   0.890 -0.9599 -0.4297 -0.4016
 3215SOL    HW121104   1.307   0.163   0.881 -2.2214 -0.2449  1.4879
 3215SOL    HW221105   1.378   0.250   0.974 -0.9024  0.1939 -0.4025
 3216SOL     OW21106   1.905   4.010   5.290 -0.3972 -0.1121 -0.0428
 3216SOL    HW121107   1.961   4.026   5.366  0.9110  0.9630 -1.2235
 3216SOL    HW221108   1.834   4.074   5.299  1.1131  1.5364  0.1695
 3217SOL     OW21109   0.546   2.835  13.805 -0.0315 -0.0190  0.4133
 3217SOL    HW121110   0.526   2.885  13.884  0.4236  0.6207  0.1201
 3217SOL    HW221111   0.467   2.858  13.756  0.1175 -0.2019  0.0846
 3218SOL     OW21112   3.406   4.014   4.969 -0.3133  0.0370 -0.5884
 3218SOL    HW121113   3.407   4.087   4.907 -1.3595  1.0774  0.6281
 3218SOL    HW221114   3.341   4.031   5.037 -0.3904  0.1145 -0.6795
 3219SOL     OW21115   1.169   1.459  14.051  0.1176 -0.8013 -0.0075
 3219SOL    HW121116   1.206   1.441  13.965  0.0331  4.7461 -1.1967
 3219SOL    HW221117   1.080   1.424  14.056 -0.4559  0.8948  1.7046
 3220SOL     OW21118   4.124   2.572   5.386 -0.1976 -0.1163 -0.0757
 3220SOL    HW121119   4.154   2.487   5.419 -2.3181 -0.3362  1.3018
 3220SOL    HW221120   4.075   2.540   5.311  0.0339 -0.3906 -0.1097
 3221SOL     OW21121   0.278   2.365   4.204  0.0039 -0.4226 -0.0327
 3221SOL    HW121122   0.348   2.410   4.156 -1.9702  0.0644 -2.4505
 3221SOL    HW221123   0.295   2.405   4.289 -0.4297 -0.5637  0.1204
 3222SOL     OW21124   2.523   1.080   5.755  0.5262  0.0053  0.2982
 3222SOL    HW121125   2.442   1.049   5.714  0.0327  1.2243  0.3366
 3222SOL    HW221126   2.500   1.169   5.782  0.5354  0.5985 -1.6390
 3223SOL     OW21127   3.733   4.292  17.368  0.4817 -0.0086  0.5202
 3223SOL    HW121128   3.695   4.249  17.292  1.3391  1.0072 -0.4863
 3223SOL    HW221129   3.730   4.383  17.340  1.8909  0.2108  1.0533
 3224SOL     OW21130   1.455   3.331  12.784 -0.3163  0.4495  0.0284
 3224SOL    HW121131   1.484   3.410  12.830 -0.7689  0.9252 -0.5151
 3224SOL    HW221132   1.419   3.374  12.707 -1.3391 -0.1982  0.1459
 3225SOL     OW21133   4.640   1.009   1.974  0.6243 -0.1032  0.3719
 3225SOL    HW121134   4.554   1.047   1.992 -0.8713 -2.9349 -0.7821
 3225SOL    HW221135   4.611   0.961   1.896 -1.4107 -3.8401  3.4514
 3226SOL     OW21136   0.630   3.617   8.469  0.3463 -0.5332  0.1746
 3226SOL    HW121137   0.607   3.692   8.414  0.3310 -0.0685  0.8281
 3226SOL    HW221138   0.715   3.648   8.498 -0.5253 -0.5913  2.7640
 3227SOL     OW21139   3.324   1.469   3.678  0.0525  0.5265 -0.6424
 3227SOL    HW121140   3.363   1.393   3.635  1.8961  1.4983 -0.6933
 3227SOL    HW221141   3.334   1.449   3.771 -2.0742  1.5955 -0.1969
 3228SOL     OW21142   1.377   1.133   3.461  0.4334 -0.2640 -0.4241
 3228SOL    HW121143   1.282   1.138   3.470  0.4250  2.0234 -1.6732
 3228SOL    HW221144   1.394   1.088   3.543  1.2673 -1.2538 -1.1355
 3229SOL     OW21145   2.817   0.143   7.277  0.4699 -0.4081  0.2981
 3229SOL    HW121146   2.757   0.187   7.217 -0.0634  1.5923  2.3045
 3229SOL    HW221147   2.775   0.057   7.285  1.2804 -0.9971 -1.9615
 3230SOL     OW21148   0.362   0.914   4.123  0.2948 -0.5422 -0.0971
 3230SOL    HW121149   0.308   0.965   4.062  0.3167 -2.2365 -1.5423
 3230SOL    HW221150   0.346   0.824   4.094  0.9755 -0.8543  0.4916
 3231SOL     OW21151   2.792   4.211   1.595 -0.2819 -0.2903 -0.5298
 3231SOL    HW121152   2.760   4.243   1.679  0.1292 -3.2744  0.7591
 3231SOL    HW221153   2.714   4.226   1.542 -2.0518 -1.5353  1.7110
 3232SOL     OW21154   1.888   1.555   6.838  0.1701 -0.2739 -0.0896
 3232SOL    HW121155   1.898   1.529   6.747 -1.3333 -0.0261 -0.3250
 3232SOL    HW221156   1.911   1.475   6.886 -0.3810  0.0398  0.7142
 3233SOL     OW21157   3.461   3.503   9.451  0.3480 -0.7937 -0.0910
 3233SOL    HW121158   3.500   3.590   9.460 -0.3594 -0.3527 -1.3726
 3233SOL    HW221159   3.483   3.458   9.533 -0.1672  1.7289  1.4432
 3234SOL     OW21160   3.880   2.230   1.581 -0.2778  0.3956 -0.2009
 3234SOL    HW121161   3.876   2.319   1.617  0.0750  0.3011  0.0736
 3234SOL    HW221162   3.958   2.189   1.618 -1.4762  0.6628  2.5546
 3235SOL     OW21163   2.072   3.327  10.062  0.3391  0.7421 -0.2906
 3235SOL    HW121164   2.103   3.415  10.085  1.7463  0.7941 -2.4472
 3235SOL    HW221165   2.094   3.271  10.137 -0.0274  0.5064 -0.3591
 3236SOL     OW21166   3.236   0.962  17.651  0.3102 -0.5881  0.5315
 3236SOL    HW121167   3.318   0.962  17.701  0.2082  2.6395  0.7358
 3236SOL    HW221168   3.262   0.895  17.588  1.7325 -1.1329  1.6774
 3237SOL     OW21169   1.513   2.216   3.603  0.3909 -0.8446  0.0049
 3237SOL    HW121170   1.597   2.241   3.565  0.6116 -1.4511  0.0998
 3237SOL    HW221171   1.544   2.216   3.693 -0.5108 -0.6054  0.3188
 3238SOL     OW21172   3.737   2.821   0.421  0.0785 -0.6464  0.3998
 3238SOL    HW121173   3.805   2.830   0.353  0.7573  2.1974  1.4587
 3238SOL    HW221174   3.668   2.874   0.381  1.1512 -0.2686 -0.9573
 3239SOL     OW21175   2.258   2.049   7.324  0.2105  0.4187  0.0067
 3239SOL    HW121176   2.283   2.111   7.255 -0.4714  0.8443  0.1393
 3239SOL    HW221177   2.339   2.005   7.351  0.4937 -0.0722 -1.6328
 3240SOL     OW21178   2.005   3.005   3.717  0.1487 -0.2345 -0.7967
 3240SOL    HW121179   1.940   3.025   3.650 -3.5692 -2.1514  2.2020
 3240SOL    HW221180   2.080   3.016   3.659  0.4915  2.5350  0.1854
 3241SOL     OW21181   3.490   4.188   3.752 -0.5273  0.5024  0.5126
 3241SOL    HW121182   3.559   4.133   3.716 -0.2316  1.5019 -0.4662
 3241SOL    HW221183   3.495   4.274   3.710  0.3419  0.1493 -0.0924
 3242SOL     OW21184   3.758   2.640   2.887 -0.0515 -0.2549 -0.0705
 3242SOL    HW121185   3.818   2.579   2.931  0.4244  1.4625  1.6560
 3242SOL    HW221186   3.810   2.669   2.812 -1.2139 -0.7850 -1.0848
 3243SOL     OW21187   2.638   4.624   0.417  0.4486 -0.1103 -0.4863
 3243SOL    HW121188   2.717   4.679   0.417 -0.9311  1.8474 -0.8668
 3243SOL    HW221189   2.636   4.605   0.323  1.3086 -0.7135 -0.3850
 3244SOL     OW21190   1.221   0.535   1.864 -0.0159  0.5760  0.3169
 3244SOL    HW121191   1.306   0.565   1.896 -0.1750  1.4431 -0.0576
 3244SOL    HW221192   1.191   0.612   1.816  0.6031  3.4497  4.5525
 3245SOL     OW21193   4.485   2.845   8.237  0.6608 -0.4161  0.5612
 3245SOL    HW121194   4.571   2.875   8.265  0.3250  0.7122  0.3895
 3245SOL    HW221195   4.482   2.758   8.277  0.5489 -0.6143  0.1238
 3246SOL     OW21196   3.216   0.707   9.343 -1.0541  0.0721  0.3103
 3246SOL    HW121197   3.213   0.765   9.419  0.7551  0.8516 -0.1870
 3246SOL    HW221198   3.301   0.669   9.364 -2.2048 -2.4534  0.3271
 3247SOL     OW21199   3.313   2.612  12.370  0.3274 -0.5015 -0.1999
 3247SOL    HW121200   3.288   2.549  12.437 -0.9294 -0.1515 -0.3289
 3247SOL    HW221201   3.291   2.684  12.429  0.4666 -0.0879 -0.6489
 3248SOL     OW21202   3.004   0.114   3.548  0.4474 -0.2645 -0.8108
 3248SOL    HW121203   2.993   0.027   3.587  0.8878  0.0876  0.1220
 3248SOL    HW221204   3.085   0.138   3.594 -0.1338 -2.1159  1.1545
 3249SOL     OW21205   1.056   2.796  13.828 -0.8202  0.4752 -0.4147
 3249SOL    HW121206   1.002   2.854  13.882 -2.3717  0.2043 -1.7016
 3249SOL    HW221207   0.979   2.752  13.794 -1.8720  1.1808  1.0591
 3250SOL     OW21208   0.010   0.732   5.858 -0.0146 -0.1431 -0.1395
 3250SOL    HW121209   4.679   0.699   5.787  2.5518 -1.3383 -1.6394
 3250SOL    HW221210   0.089   0.682   5.838  0.0431 -0.0508 -0.1419
 3251SOL     OW21211   0.109   4.345  17.191 -0.0034  0.1189  0.4884
 3251SOL    HW121212   0.189   4.387  17.223 -0.3395  0.8518  0.3690
 3251SOL    HW221213   0.062   4.349  17.274 -1.1046 -0.7553 -0.0858
 3252SOL     OW21214   4.224   1.393  12.235  0.0476 -0.8125  0.5716
 3252SOL    HW121215   4.254   1.310  12.197 -0.3871 -0.8533  0.3186
 3252SOL    HW221216   4.287   1.459  12.206  1.8218 -1.7376  2.3186
 3253SOL     OW21217   1.991   3.325   3.971 -0.2136 -0.4172  0.0677
 3253SOL    HW121218   2.006   3.370   4.054 -0.1448  1.4786 -0.9723
 3253SOL    HW221219   2.053   3.252   3.965  0.0315 -0.4853  3.1951
 3254SOL     OW21220   4.211   0.475  17.011 -0.2082  0.2408 -0.1636
 3254SOL    HW121221   4.127   0.455  17.052  0.6651 -0.1611  1.4400
 3254SOL    HW221222   4.214   0.397  16.955 -0.0929 -1.1032  1.7166
 3255SOL     OW21223   0.888   1.875   8.303 -1.2708 -0.3302 -0.2194
 3255SOL    HW121224   0.946   1.942   8.339 -0.7652  0.5620 -2.7486
 3255SOL    HW221225   0.925   1.793   8.337 -1.1358  0.4499  1.5476
 3256SOL     OW21226   0.757   1.745  10.570  0.7782  0.2475 -0.6234
 3256SOL    HW121227   0.662   1.736  10.582  0.6982 -0.3713 -1.7385
 3256SOL    HW221228   0.790   1.670  10.620 -0.0829  0.5175  0.3525
 3257SOL     OW21229   3.569   2.558   2.719  0.1613 -0.6433 -0.5790
 3257SOL    HW121230   3.480   2.583   2.744  0.6080 -0.3309  0.7090
 3257SOL    HW221231   3.628   2.598   2.783 -1.7245 -0.6326  1.1808
 3258SOL     OW21232   4.018   1.191   7.049  0.3646 -0.2918 -0.2231
 3258SOL    HW121233   3.943   1.133   7.066 -1.2036  1.2582 -1.8397
 3258SOL    HW221234   3.979   1.271   7.015 -0.9831 -0.1561  1.6432
 3259SOL     OW21235   2.905   0.383  11.872  0.2344 -0.1842 -0.1978
 3259SOL    HW121236   2.912   0.418  11.961  1.3850 -1.2301  0.1275
 3259SOL    HW221237   2.816   0.408  11.849  0.3972  1.0808  0.5911
 3260SOL     OW21238   1.403   1.682   5.872 -0.7737 -0.3129  0.6725
 3260SOL    HW121239   1.349   1.619   5.824  0.8241 -2.9384  2.3211
 3260SOL    HW221240   1.491   1.648   5.888  0.4099  2.0924 -0.7705
 3261SOL     OW21241   2.545   1.722  12.497  0.0618 -0.0393 -0.2568
 3261SOL    HW121242   2.504   1.644  12.535 -1.4084  1.0327  0.3380
 3261SOL    HW221243   2.487   1.735  12.422  2.0586  0.2539 -1.7548
 3262SOL     OW21244   3.945   1.421   7.232 -0.9211  0.6493  0.6641
 3262SOL    HW121245   3.873   1.461   7.183  0.8949  2.2852 -0.6878
 3262SOL    HW221246   3.903   1.375   7.304 -1.6908 -1.4349 -1.0830
 3263SOL     OW21247   2.341   4.557   2.516 -0.4310 -0.1887  1.0094
 3263SOL    HW121248   2.399   4.618   2.471 -0.4357 -0.1339  1.0783
 3263SOL    HW221249   2.256   4.601   2.517 -0.6740 -0.6840  1.7952
 3264SOL     OW21250   4.391   1.156  10.728  0.4581 -0.0690  0.0831
 3264SOL    HW121251   4.375   1.145  10.822 -2.4794 -1.1857 -0.5566
 3264SOL    HW221252   4.480   1.123  10.715  1.0106  1.1438  0.7946
 3265SOL     OW21253   1.494   0.643  11.373 -0.0626 -0.6090  0.8653
 3265SOL    HW121254   1.511   0.605  11.459  0.2150 -1.1471  0.5792
 3265SOL    HW221255   1.502   0.566  11.317 -2.5005  0.4235 -0.9176
 3266SOL     OW21256   2.854   3.532   3.195 -0.5471  0.2377  0.0064
 3266SOL    HW121257   2.906   3.493   3.265 -0.5546  1.6662  0.8005
 3266SOL    HW221258   2.918   3.580   3.143 -0.1739 -1.3794 -1.0434
 3267SOL     OW21259   3.986   2.644   4.208 -1.0657 -0.5298  0.4279
 3267SOL    HW121260   3.946   2.730   4.203 -0.8522 -0.5242 -1.2464
 3267SOL    HW221261   4.028   2.656   4.293 -0.6376 -2.0844  0.4368
 3268SOL     OW21262   1.717   2.186   1.453  0.8219 -0.6451  0.3383
 3268SOL    HW121263   1.659   2.197   1.528  0.9376 -0.3595  0.3850
 3268SOL    HW221264   1.693   2.262   1.400 -1.1521 -2.1294 -0.8942
 3269SOL     OW21265   3.231   4.086   1.878 -0.0824  0.5593  0.1400
 3269SOL    HW121266   3.166   4.114   1.814  0.6935  0.2751 -0.7657
 3269SOL    HW221267   3.218   4.158   1.940  0.2541  1.4059 -0.7664
 3270SOL     OW21268   1.865   1.439   2.457  0.4638 -0.0040  0.0488
 3270SOL    HW121269   1.855   1.361   2.403  0.7398  0.2645 -0.3938
 3270SOL    HW221270   1.895   1.503   2.392 -1.0670  0.0651 -0.5917
 3271SOL     OW21271   3.121   0.859   4.549  0.2334 -0.0063  0.4181
 3271SOL    HW121272   3.117   0.764   4.550 -0.1431  0.0074  0.5239
 3271SOL    HW221273   3.054   0.873   4.481  2.5165 -0.7923 -1.9950
 3272SOL     OW21274   2.634   1.623   5.716 -0.0316 -0.6246  0.3367
 3272SOL    HW121275   2.552   1.667   5.698  1.2554  1.7214  0.2063
 3272SOL    HW221276   2.697   1.665   5.658 -1.6561  1.1727 -0.1121
 3273SOL     OW21277   2.569   3.706   5.235  0.2416 -0.1065 -0.3920
 3273SOL    HW121278   2.535   3.771   5.174 -3.2490 -1.9752 -0.4012
 3273SOL    HW221279   2.517   3.720   5.315  0.3461 -0.7983 -0.2032
 3274SOL     OW21280   2.618   0.180   4.602  0.1761  0.0442 -0.2975
 3274SOL    HW121281   2.614   0.149   4.512 -0.4675 -3.7992  1.0864
 3274SOL    HW221282   2.618   0.102   4.657 -0.5556 -2.2278 -3.5700
 3275SOL     OW21283   0.849   1.346   2.364  0.2472 -0.0069  0.1677
 3275SOL    HW121284   0.920   1.405   2.388 -1.2928  1.7849  0.3295
 3275SOL    HW221285   0.772   1.403   2.361 -0.2088 -0.6379 -0.1338
 3276SOL     OW21286   1.105   3.675   5.937  0.4848 -0.6856  0.3689
 3276SOL    HW121287   1.019   3.707   5.911  1.1809  1.2109  0.3911
 3276SOL    HW221288   1.105   3.596   5.883  0.9012 -0.4777  0.0676
 3277SOL     OW21289   1.653   2.141  14.716 -0.1307 -0.7882 -0.1128
 3277SOL    HW121290   1.683   2.088  14.642 -3.0549 -0.6774 -1.3651
 3277SOL    HW221291   1.737   2.178  14.745 -0.4546 -0.5731  0.5443
 3278SOL     OW21292   4.378   4.067  14.770  0.0525  0.0849 -0.7345
 3278SOL    HW121293   4.457   4.053  14.822 -0.6152  2.3337  0.8992
 3278SOL    HW221294   4.322   3.995  14.801 -0.5396 -0.0096 -2.0232
 3279SOL     OW21295   2.038   3.191   8.600  0.3643 -0.6427  0.8197
 3279SOL    HW121296   2.031   3.193   8.505 -0.5834  1.2035  0.9396
 3279SOL    HW221297   2.063   3.101   8.623  1.0988 -0.1287  2.0684
 3280SOL     OW21298   1.958   0.095   9.917 -0.0279  0.1488  0.2326
 3280SOL    HW121299   1.906   0.090   9.837  0.9908 -2.2219 -0.2954
 3280SOL    HW221300   2.015   0.018   9.909 -1.6180 -1.1678  1.6166
 3281SOL     OW21301   1.359   3.357   5.847  0.3114 -0.4654 -0.6027
 3281SOL    HW121302   1.431   3.323   5.793  1.5978  0.4439  0.5421
 3281SOL    HW221303   1.387   3.328   5.934  1.7422 -3.0973 -1.9575
 3282SOL     OW21304   2.202   1.961  16.102  0.1430 -0.5106  0.5240
 3282SOL    HW121305   2.195   1.905  16.024 -0.2774 -1.4488  1.2334
 3282SOL    HW221306   2.111   1.989  16.105  0.0781 -0.4560 -1.6477
 3283SOL     OW21307   4.078   0.718   2.061 -0.0976 -0.0673  0.1189
 3283SOL    HW121308   3.987   0.693   2.076  0.3671 -1.2546  0.9095
 3283SOL    HW221309   4.063   0.797   2.008  1.7401 -0.4300 -0.9329
 3284SOL     OW21310   3.225   1.418   7.678  0.0934 -0.2935 -0.1777
 3284SOL    HW121311   3.252   1.435   7.588 -2.0837  3.6046 -0.0692
 3284SOL    HW221312   3.197   1.326   7.678  1.0417 -0.5805 -1.6601
 3285SOL     OW21313   0.127   0.520   6.213  0.4656  0.0788 -0.5488
 3285SOL    HW121314   0.071   0.448   6.183 -1.3219  2.2284 -2.3077
 3285SOL    HW221315   0.089   0.588   6.158  0.2311  1.0347  0.7907
 3286SOL     OW21316   3.748   2.040   7.324  0.0314  0.1886 -0.8945
 3286SOL    HW121317   3.743   2.004   7.412 -0.7682 -0.5089 -1.2274
 3286SOL    HW221318   3.816   1.983   7.287  1.2078  0.8838  0.1953
 3287SOL     OW21319   1.746   0.841  14.351  0.1099  0.3243 -0.7251
 3287SOL    HW121320   1.775   0.816  14.439 -0.4802 -4.1923 -1.7741
 3287SOL    HW221321   1.677   0.903  14.372  0.8313  0.5466  0.9877
 3288SOL     OW21322   4.365   3.723  15.159 -0.1032  0.7331 -0.3208
 3288SOL    HW121323   4.375   3.651  15.221 -0.7473 -0.8577 -2.0830
 3288SOL    HW221324   4.335   3.669  15.086  1.7870 -1.4798  0.5467
 3289SOL     OW21325   2.238   2.585   5.678  0.6700 -0.4953  0.1616
 3289SOL    HW121326   2.200   2.668   5.648 -1.4841 -1.3499  0.5152
 3289SOL    HW221327   2.331   2.608   5.680 -0.0302  1.9059  3.8511
 3290SOL     OW21328   0.861   1.924  16.061  0.0865 -0.4638 -0.6177
 3290SOL    HW121329   0.930   1.946  16.125 -0.7450  1.1241 -0.2752
 3290SOL    HW221330   0.816   2.006  16.041 -0.7230 -0.3789  1.5578
 3291SOL     OW21331   1.926   2.399   4.433 -0.4463 -0.0408  0.2722
 3291SOL    HW121332   1.882   2.334   4.486 -1.1424  0.1024 -0.1368
 3291SOL    HW221333   1.917   2.482   4.479  0.2009  0.7611 -1.0332
 3292SOL     OW21334   2.786   1.692  11.326 -0.2515 -0.5850 -0.1747
 3292SOL    HW121335   2.702   1.731  11.348  0.3672  0.7354 -0.0976
 3292SOL    HW221336   2.829   1.701  11.411 -0.1502 -2.3394 -0.0595
 3293SOL     OW21337   4.081   0.135   0.358 -0.2281 -0.4291  0.2773
 3293SOL    HW121338   4.135   0.188   0.300 -0.2582 -2.1685 -1.3390
 3293SOL    HW221339   4.109   0.049   0.327  1.0948  0.1797 -0.2135
 3294SOL     OW21340   1.366   0.081   7.410  0.0548  0.5195 -0.3967
 3294SOL    HW121341   1.389   0.105   7.320  1.8899 -0.2742 -0.1525
 3294SOL    HW221342   1.377   4.711   7.420  2.1127  0.9782  1.5748
 3295SOL     OW21343   1.401   3.911  16.354 -0.5524 -0.4923 -0.0346
 3295SOL    HW121344   1.385   3.989  16.300 -0.2877  0.0414  0.6481
 3295SOL    HW221345   1.393   3.945  16.444  0.8262  1.5380 -0.6586
 3296SOL     OW21346   3.439   0.784   5.210  0.4125 -0.3217  0.0204
 3296SOL    HW121347   3.471   0.694   5.217 -2.5215 -1.2945  0.6416
 3296SOL    HW221348   3.429   0.802   5.303  0.5045  0.9270 -0.2129
 3297SOL     OW21349   3.128   1.781   5.302 -0.1717 -0.3305 -0.0890
 3297SOL    HW121350   3.191   1.709   5.309 -0.5606 -0.7154 -0.4668
 3297SOL    HW221351   3.134   1.823   5.387 -1.2226 -1.7894  0.6928
 3298SOL     OW21352   3.760   4.075  13.330  0.3414  0.1663  0.4659
 3298SOL    HW121353   3.684   4.060  13.273 -1.5038  0.0087  2.9749
 3298SOL    HW221354   3.707   4.081  13.409 -1.8874  2.1836 -1.1664
 3299SOL     OW21355   2.194   0.141   5.909  0.1774  0.0165 -0.1148
 3299SOL    HW121356   2.144   0.186   5.977  2.3508 -1.2048  2.2728
 3299SOL    HW221357   2.265   0.097   5.955  1.7340  3.6998  1.0574
 3300SOL     OW21358   4.215   2.848   8.272 -0.3897 -0.5125  0.9436
 3300SOL    HW121359   4.222   2.761   8.312 -0.1659  0.1392  2.3143
 3300SOL    HW221360   4.302   2.883   8.290 -1.3530  1.9504  0.8001
 3301SOL     OW21361   3.787   1.994   3.595 -0.3992 -0.0285 -0.0777
 3301SOL    HW121362   3.834   2.002   3.677 -0.6001 -1.5111  0.1787
 3301SOL    HW221363   3.747   2.081   3.586 -0.4034  0.0327  0.5863
 3302SOL     OW21364   1.249   2.829   3.630  0.3212  0.2531  0.0727
 3302SOL    HW121365   1.283   2.740   3.642 -4.0571 -1.4216  0.1384
 3302SOL    HW221366   1.284   2.863   3.548  2.3960 -1.9908  0.0182
 3303SOL     OW21367   0.706   1.770  10.263 -0.6304  0.6332 -0.2724
 3303SOL    HW121368   0.742   1.712  10.196  1.8719  0.4523  1.1794
 3303SOL    HW221369   0.738   1.730  10.344 -0.5052 -1.0570 -1.1705
 3304SOL     OW21370   1.401   2.768   6.420 -0.5125 -0.4414 -0.1534
 3304SOL    HW121371   1.339   2.760   6.347  0.2657  0.0127 -0.8704
 3304SOL    HW221372   1.479   2.805   6.378  0.9608 -3.4417 -0.0595
 3305SOL     OW21373   1.239   0.665  11.414 -0.1075  0.6702  0.2444
 3305SOL    HW121374   1.329   0.655  11.383 -0.1187 -0.9076  0.7070
 3305SOL    HW221375   1.250   0.727  11.487 -0.4528  1.6071 -0.4929
 3306SOL     OW21376   2.465   0.486   1.979 -0.2063 -0.9188 -0.1892
 3306SOL    HW121377   2.434   0.423   1.914  0.7564 -1.3142 -0.2588
 3306SOL    HW221378   2.557   0.464   1.984 -0.0183 -0.1477 -0.1963
 3307SOL     OW21379   3.343   3.914   6.783 -0.7137  0.0826 -0.0225
 3307SOL    HW121380   3.395   3.835   6.796 -0.5872  0.0064 -1.0308
 3307SOL    HW221381   3.412   3.974   6.755 -0.5396 -0.5740 -0.9948
 3308SOL     OW21382   2.637   3.838   6.265 -0.5093 -0.3637 -0.0777
 3308SOL    HW121383   2.649   3.801   6.352  0.4734  0.1843  0.0238
 3308SOL    HW221384   2.549   3.873   6.270  0.0170  0.8083  0.9697
 3309SOL     OW21385   2.982   1.248   5.803 -0.4408 -0.1346 -0.0078
 3309SOL    HW121386   2.922   1.193   5.752  0.2142 -2.4809  1.7460
 3309SOL    HW221387   3.013   1.318   5.746  0.8695 -1.1872 -0.6162
 3310SOL     OW21388   3.555   3.162   4.938 -0.0565  0.2563 -0.1048
 3310SOL    HW121389   3.591   3.234   4.989 -0.5314  0.3276  0.1290
 3310SOL    HW221390   3.525   3.211   4.861 -0.1531 -0.2291 -0.3759
 3311SOL     OW21391   1.567   3.290   5.458  0.6835  0.1172 -0.0444
 3311SOL    HW121392   1.620   3.306   5.536 -0.0892  0.4681  0.4057
 3311SOL    HW221393   1.571   3.375   5.415  0.9468  1.7766  3.2786
 3312SOL     OW21394   0.257   2.285   7.132 -0.9110  0.4149  0.0365
 3312SOL    HW121395   0.242   2.256   7.222  0.6584  1.8016  0.7283
 3312SOL    HW221396   0.332   2.340   7.153 -0.3176 -1.2531  2.3060
 3313SOL     OW21397   0.909   0.176  16.612  0.4514  0.6342 -0.0700
 3313SOL    HW121398   0.843   0.155  16.545 -0.0930 -0.7631  0.8951
 3313SOL    HW221399   0.928   0.087  16.641 -0.3544  0.7690  0.8827
 3314SOL     OW21400   2.528   0.189   7.500  0.0087  0.2660 -0.5579
 3314SOL    HW121401   2.498   0.276   7.525 -0.9944  0.0258 -0.9186
 3314SOL    HW221402   2.464   0.163   7.434 -0.7788  0.7686  0.0067
 3315SOL     OW21403   3.596   0.577   1.405  0.1352 -0.0252 -0.6824
 3315SOL    HW121404   3.635   0.590   1.491  1.4541 -0.9801 -1.1339
 3315SOL    HW221405   3.593   0.667   1.373  1.0291  0.2916  0.1234
 3316SOL     OW21406   0.634   0.927  16.554  0.2449 -0.8383 -0.5393
 3316SOL    HW121407   0.662   0.874  16.629 -0.4358 -0.3917  0.0232
 3316SOL    HW221408   0.672   0.884  16.478  1.9045  2.4425 -1.5671
 3317SOL     OW21409   0.978   1.139  14.846 -0.0611 -0.0367  0.4519
 3317SOL    HW121410   0.989   1.223  14.889 -0.7868  2.4011 -4.1697
 3317SOL    HW221411   0.924   1.168  14.772 -0.7800 -0.6954  0.7127
 3318SOL     OW21412   2.723   0.477   9.819 -0.1602 -0.2525 -0.5532
 3318SOL    HW121413   2.708   0.383   9.826  0.3386 -0.2367  0.7369
 3318SOL    HW221414   2.755   0.474   9.729  3.2914 -0.0836  0.6567
 3319SOL     OW21415   1.938   4.040   3.214 -0.0250 -0.0766 -0.5610
 3319SOL    HW121416   1.894   3.958   3.192  1.4392 -0.4467 -2.0751
 3319SOL    HW221417   1.907   4.033   3.305 -1.3030  0.4593 -0.9479
 3320SOL     OW21418   2.022   3.344   3.472 -0.1328  0.4551  0.1530
 3320SOL    HW121419   2.083   3.366   3.402  0.7291  0.1805  0.8185
 3320SOL    HW221420   1.967   3.423   3.473  1.1588  1.3457  0.2644
 3321SOL     OW21421   1.333   2.777   3.116 -0.2720  0.0211  0.0805
 3321SOL    HW121422   1.274   2.741   3.183 -2.5999  2.3787 -0.7192
 3321SOL    HW221423   1.314   2.870   3.105 -0.9984 -0.0916  0.3622
 3322SOL     OW21424   0.660   1.642  12.905 -0.2644 -0.0734 -0.0840
 3322SOL    HW121425   0.750   1.614  12.885  0.2773  0.6986  1.2881
 3322SOL    HW221426   0.611   1.582  12.849 -0.1991 -2.7097  2.6636
 3323SOL     OW21427   3.563   4.590   2.592  0.3234 -0.4382  0.1737
 3323SOL    HW121428   3.595   4.630   2.510  1.5517 -1.5314  0.1151
 3323SOL    HW221429   3.497   4.524   2.572 -1.1876  1.0329  0.3404
 3324SOL     OW21430   1.204   2.480   4.330 -0.5591 -0.5207  0.1179
 3324SOL    HW121431   1.114   2.488   4.362  0.0773  2.0241  1.2516
 3324SOL    HW221432   1.257   2.477   4.410 -1.6364  0.4639  0.8733
 3325SOL     OW21433   3.127   4.596   2.435  0.4412 -0.1646 -0.5241
 3325SOL    HW121434   3.204   4.589   2.379  0.6807  0.3009 -0.2484
 3325SOL    HW221435   3.067   4.650   2.385  1.6099  2.4436  0.9167
 3326SOL     OW21436   2.274   0.717   6.707 -0.0841 -0.3484  0.0362
 3326SOL    HW121437   2.270   0.626   6.679 -1.4283  0.9150 -3.8051
 3326SOL    HW221438   2.358   0.731   6.752 -1.0894  2.8025  0.9791
 3327SOL     OW21439   3.509   3.716  14.560  0.1364  0.1710  0.0386
 3327SOL    HW121440   3.480   3.682  14.645  0.1078 -3.0958 -1.2713
 3327SOL    HW221441   3.601   3.688  14.564 -0.8514 -3.4089 -1.7439
 3328SOL     OW21442   0.032   3.333   3.833  0.1731 -0.0731 -0.4709
 3328SOL    HW121443   0.005   3.277   3.906 -1.6885 -0.7446 -1.6830
 3328SOL    HW221444   0.003   3.415   3.872 -0.7793 -1.2770  1.3854
 3329SOL     OW21445   0.831   2.219   8.788 -0.1385 -0.4359 -0.7316
 3329SOL    HW121446   0.799   2.272   8.861 -0.5029  3.0143 -3.4250
 3329SOL    HW221447   0.853   2.139   8.835 -0.3805 -1.0136 -1.5863
 3330SOL     OW21448   1.555   2.950   5.940 -0.3540  0.1316 -0.4725
 3330SOL    HW121449   1.556   2.856   5.957  0.5665  0.0434 -0.9645
 3330SOL    HW221450   1.623   2.986   5.998  0.3095 -2.0436  0.1106
 3331SOL     OW21451   3.255   2.693   4.535  0.4718 -0.2232 -0.1793
 3331SOL    HW121452   3.325   2.716   4.596  0.8988  1.4786 -1.3195
 3331SOL    HW221453   3.230   2.608   4.572  0.0206  0.6677  1.5908
 3332SOL     OW21454   1.100   2.572   2.568  0.4975  0.0430  0.1763
 3332SOL    HW121455   1.091   2.592   2.474 -1.2349  0.3068  0.3966
 3332SOL    HW221456   1.167   2.504   2.567  0.2109 -0.2450  0.7188
 3333SOL     OW21457   0.333   3.971  15.938 -0.1560  0.3387 -0.0023
 3333SOL    HW121458   0.341   4.008  15.850 -0.6510 -0.2835 -0.3131
 3333SOL    HW221459   0.404   4.017  15.982  0.3813 -0.4083 -0.0926
 3334SOL     OW21460   3.482   3.674   7.978  0.6725  0.3398  0.1382
 3334SOL    HW121461   3.537   3.597   7.963  0.0875 -0.5768  2.6979
 3334SOL    HW221462   3.437   3.663   7.895 -1.5530  1.3587  1.2068
 3335SOL     OW21463   3.952   0.937   1.656  0.3528  0.3258 -0.2803
 3335SOL    HW121464   3.990   0.960   1.571  1.1875 -1.6066 -0.4249
 3335SOL    HW221465   3.982   0.847   1.652 -0.7630  0.0512 -2.7891
 3336SOL     OW21466   1.199   0.641   8.203  0.0547  0.1441  0.0220
 3336SOL    HW121467   1.153   0.590   8.136  1.6639 -0.4860 -0.5808
 3336SOL    HW221468   1.159   0.606   8.283 -1.6746 -1.6382 -1.6166
 3337SOL     OW21469   1.588   4.359   5.440 -0.0532  0.1351  0.2501
 3337SOL    HW121470   1.592   4.345   5.345  1.7080  0.9498  0.2043
 3337SOL    HW221471   1.543   4.443   5.448  1.8116  1.2781 -1.0614
 3338SOL     OW21472   4.021   1.736   7.162  0.6380 -0.0977  0.3751
 3338SOL    HW121473   4.070   1.657   7.185  1.5923  0.4991  0.4406
 3338SOL    HW221474   4.003   1.767   7.251  2.4530  0.7873  0.4480
 3339SOL     OW21475   2.421   2.151   3.911 -0.1324 -0.2703  0.1740
 3339SOL    HW121476   2.413   2.058   3.892  0.3990 -0.0474 -1.1864
 3339SOL    HW221477   2.341   2.171   3.959  0.0893  1.0228  0.0128
 3340SOL     OW21478   0.272   1.253   5.754 -0.4562  0.1172 -0.5956
 3340SOL    HW121479   0.347   1.234   5.698  0.3985  2.4481 -0.2718
 3340SOL    HW221480   0.310   1.247   5.842  1.0411  0.0213 -1.2438
 3341SOL     OW21481   2.995   1.745   7.543 -0.2741 -0.6004  1.0238
 3341SOL    HW121482   2.921   1.724   7.600  0.4836 -1.1670  1.7819
 3341SOL    HW221483   2.965   1.737   7.452 -3.3552  0.5749  1.9177
 3342SOL     OW21484   3.965   0.146   6.104 -0.3063  0.0872  0.3621
 3342SOL    HW121485   3.894   0.183   6.052  0.6497  3.1539  1.2315
 3342SOL    HW221486   4.026   0.217   6.125  0.4579 -0.6577  0.6467
 3343SOL     OW21487   1.616   0.397   6.166  0.1551 -0.0153  0.2415
 3343SOL    HW121488   1.699   0.441   6.151 -0.3806  1.2173  0.8830
 3343SOL    HW221489   1.567   0.473   6.136 -3.1369 -1.0192  3.0192
 3344SOL     OW21490   3.731   0.787   2.446  0.4078  0.2911 -0.4824
 3344SOL    HW121491   3.699   0.834   2.523 -1.0984 -0.5645 -0.6043
 3344SOL    HW221492   3.774   0.711   2.484 -2.7680 -0.5830  1.3333
 3345SOL     OW21493   2.284   3.904   2.780  0.6002 -0.4761  0.1103
 3345SOL    HW121494   2.374   3.900   2.747  0.7540  2.3190  0.1872
 3345SOL    HW221495   2.270   3.814   2.812  0.3185 -0.4393  0.0898
 3346SOL     OW21496   4.709   2.888   3.960  0.1298  0.1053 -0.9728
 3346SOL    HW121497   0.061   2.858   4.008 -0.0811 -0.7441 -1.1794
 3346SOL    HW221498   4.723   2.866   3.868  0.3988  1.2502 -1.2108
 3347SOL     OW21499   1.637   3.893  17.129 -0.3543  0.0386  0.1612
 3347SOL    HW121500   1.708   3.898  17.192 -0.6455 -1.6018  0.6328
 3347SOL    HW221501   1.587   3.970  17.155  1.4431  1.2479  0.0075
 3348SOL     OW21502   0.037   2.611   9.155  0.2564 -0.1211 -0.0891
 3348SOL    HW121503   0.059   2.669   9.082 -0.8119  0.4960  0.0755
 3348SOL    HW221504   0.023   2.683   9.217  1.3588  0.7097 -0.8078
 3349SOL     OW21505   3.676   4.593   7.309  0.1812  0.5174  0.3107
 3349SOL    HW121506   3.603   4.643   7.272 -1.1273 -1.5429  0.1737
 3349SOL    HW221507   3.644   4.550   7.388 -0.4327 -1.5890 -1.0825
 3350SOL     OW21508   2.037   3.586   7.400 -0.2366 -0.0636 -0.6315
 3350SOL    HW121509   2.118   3.552   7.440 -0.2144  2.7376  1.6310
 3350SOL    HW221510   2.061   3.650   7.333 -1.0757 -0.0078 -0.8709
 3351SOL     OW21511   4.047   1.504   1.199  0.5286 -0.5865 -0.6924
 3351SOL    HW121512   4.091   1.570   1.145  0.3140 -0.4119 -0.6532
 3351SOL    HW221513   4.004   1.560   1.263  2.2238  0.3635 -0.3825
 3352SOL     OW21514   2.665   2.674  16.813 -0.3568  0.5856  0.0804
 3352SOL    HW121515   2.608   2.670  16.736 -0.9867 -2.8745  0.6918
 3352SOL    HW221516   2.644   2.765  16.832  0.8073  0.5627  1.4176
 3353SOL     OW21517   2.409   3.488  10.674 -0.4361 -0.0919 -0.5946
 3353SOL    HW121518   2.382   3.578  10.653 -0.7056  0.1471  0.7781
 3353SOL    HW221519   2.341   3.473  10.739  0.3130 -0.4735  0.0927
 3354SOL     OW21520   2.477   4.679   4.722  0.2628  0.5112 -0.5333
 3354SOL    HW121521   2.416   4.629   4.777 -0.1060  0.7590 -0.7231
 3354SOL    HW221522   2.420   4.710   4.652  0.2662 -0.9572 -1.1948
 3355SOL     OW21523   2.951   3.366   2.166 -0.3791  0.2047 -0.5727
 3355SOL    HW121524   3.043   3.357   2.192 -0.3938 -1.7868 -1.1958
 3355SOL    HW221525   2.955   3.333   2.076 -2.1283 -0.8281 -0.2644
 3356SOL     OW21526   2.897   1.259  16.713  0.1167  0.0375 -0.2870
 3356SOL    HW121527   2.870   1.289  16.799  0.8688 -1.3089  0.4096
 3356SOL    HW221528   2.878   1.332  16.654  0.7717  1.2312  0.9952
 3357SOL     OW21529   3.601   4.007  15.436 -0.2757  0.0585  0.0564
 3357SOL    HW121530   3.654   4.046  15.367  0.9232 -0.3673  0.7370
 3357SOL    HW221531   3.596   4.076  15.501 -3.2378 -1.9987  2.0391
 3358SOL     OW21532   2.432   2.840   7.661 -0.1012 -0.1395  0.4183
 3358SOL    HW121533   2.393   2.924   7.685 -0.0093  0.1338 -0.3906
 3358SOL    HW221534   2.380   2.770   7.699 -4.1665  2.3403 -0.6228
 3359SOL     OW21535   2.298   2.674   4.570 -0.0639  0.1514 -0.1345
 3359SOL    HW121536   2.349   2.726   4.508 -1.5476  0.8298 -0.7745
 3359SOL    HW221537   2.259   2.741   4.627  0.0286  0.8814 -0.9383
 3360SOL     OW21538   1.445   4.609   8.268  0.3826 -0.7673  0.4050
 3360SOL    HW121539   1.373   4.648   8.218 -0.6181 -0.3768  2.1826
 3360SOL    HW221540   1.403   4.615   8.354  2.0244 -0.0884  1.1558
 3361SOL     OW21541   3.224   3.537   9.765  0.2779  0.0009 -0.5545
 3361SOL    HW121542   3.199   3.493   9.685  0.9613 -2.1141  0.3879
 3361SOL    HW221543   3.297   3.592   9.736  2.5307 -3.5423 -1.5105
 3362SOL     OW21544   0.051   2.287  15.545  0.9087 -0.0180  0.7512
 3362SOL    HW121545   0.125   2.226  15.547  1.7218  0.9579  0.3965
 3362SOL    HW221546   4.716   2.233  15.596 -1.2271  1.2235 -0.4443
 3363SOL     OW21547   0.863   1.329   2.879 -0.2377  0.4281 -0.5952
 3363SOL    HW121548   0.905   1.335   2.965 -2.6010 -0.2723  0.6231
 3363SOL    HW221549   0.835   1.238   2.868  1.6153 -0.2173 -0.0246
 3364SOL     OW21550   1.750   1.370   4.637  0.4864 -0.1089 -0.0117
 3364SOL    HW121551   1.661   1.400   4.617  0.7648 -0.0396 -1.1605
 3364SOL    HW221552   1.810   1.437   4.605  1.9142 -2.2717 -1.9282
 3365SOL     OW21553   1.886   4.563  14.433 -0.1261 -0.2434  0.4232
 3365SOL    HW121554   1.967   4.600  14.467 -1.4490  1.7962  1.3704
 3365SOL    HW221555   1.887   4.473  14.466  1.2165  0.1239  1.3460
 3366SOL     OW21556   1.959   4.410   7.400 -0.3862  0.0983 -0.4139
 3366SOL    HW121557   2.022   4.352   7.444 -0.0377  0.3420 -0.5974
 3366SOL    HW221558   1.879   4.367   7.430  1.0438 -1.4990  1.1031
 3367SOL     OW21559   0.085   3.179   2.035 -0.2185 -0.0999  0.7124
 3367SOL    HW121560   0.121   3.211   1.952 -0.7127 -0.1842  0.4644
 3367SOL    HW221561   0.032   3.105   2.004 -0.4783  0.1910  0.4713
 3368SOL     OW21562   2.859   3.067   7.733 -0.0487 -0.1524 -0.0493
 3368SOL    HW121563   2.793   3.067   7.803  1.8631  1.9456  1.7697
 3368SOL    HW221564   2.920   2.993   7.742  0.6915  0.3141 -1.2159
 3369SOL     OW21565   2.436   4.061   4.506 -0.3344 -0.8954 -0.1102
 3369SOL    HW121566   2.473   4.085   4.591 -0.3639  2.1474 -0.9587
 3369SOL    HW221567   2.474   4.132   4.454  1.4295 -0.9307  1.1311
 3370SOL     OW21568   2.184   1.500   7.904 -0.2192  0.7253  0.0761
 3370SOL    HW121569   2.153   1.475   7.992  0.8351  0.2973  0.3229
 3370SOL    HW221570   2.154   1.431   7.845  1.5310  0.2950 -0.3212
 3371SOL     OW21571   0.808   2.192   2.757 -0.1541 -0.0614  0.4950
 3371SOL    HW121572   0.829   2.280   2.728 -2.2439  0.6783  1.2574
 3371SOL    HW221573   0.713   2.195   2.752  0.0357  0.5510 -2.5002
 3372SOL     OW21574   2.796   3.900   4.245  0.9050  0.0612  0.0417
 3372SOL    HW121575   2.746   3.857   4.175 -1.4916  2.4693  0.2657
 3372SOL    HW221576   2.877   3.851   4.234  0.7977 -0.1334  0.1226
 3373SOL     OW21577   0.041   1.068   6.475 -0.5126  0.2880  0.1707
 3373SOL    HW121578   0.108   1.041   6.538 -0.4353  0.3269  0.1047
 3373SOL    HW221579   4.722   0.983   6.463 -0.5974  0.5208 -1.1694
 3374SOL     OW21580   3.176   3.640   2.422  0.1416 -0.5434  0.9132
 3374SOL    HW121581   3.243   3.692   2.467  0.1065 -0.7386  1.1890
 3374SOL    HW221582   3.217   3.636   2.336 -0.1102  1.6736  0.6955
 3375SOL     OW21583   2.222   3.271   2.241  0.3991 -0.0749 -0.2393
 3375SOL    HW121584   2.264   3.357   2.239  1.5043 -0.6058 -0.1151
 3375SOL    HW221585   2.254   3.243   2.155 -0.5232  0.6643 -0.8253
 3376SOL     OW21586   4.184   4.023   8.079  0.2060  0.0525 -0.0227
 3376SOL    HW121587   4.107   4.020   8.022  0.1084 -0.0055  0.1110
 3376SOL    HW221588   4.210   3.932   8.071 -1.0970 -0.3183 -0.0181
 3377SOL     OW21589   4.120   3.450   6.096  0.1481  0.1744 -0.7403
 3377SOL    HW121590   4.153   3.370   6.135  1.9352  1.6185  0.7312
 3377SOL    HW221591   4.033   3.418   6.071  0.4074 -1.0191 -0.0866
 3378SOL     OW21592   0.771   3.194   1.878  0.5857  0.3109 -0.4262
 3378SOL    HW121593   0.779   3.133   1.804 -0.4764  1.2009 -1.2857
 3378SOL    HW221594   0.677   3.189   1.895  0.3489  3.0314 -0.9289
 3379SOL     OW21595   2.942   2.324   4.123  0.1830 -0.0899  0.3969
 3379SOL    HW121596   2.965   2.364   4.039 -2.4319  0.7925  0.1248
 3379SOL    HW221597   2.921   2.235   4.095  1.9556  0.5382 -2.8855
 3380SOL     OW21598   0.218   1.361   1.636 -0.0897  0.0835  0.6937
 3380SOL    HW121599   0.177   1.444   1.660 -0.5742  0.5219 -1.5861
 3380SOL    HW221600   0.163   1.298   1.683  0.1855 -1.3173 -0.8591
 3381SOL     OW21601   2.843   0.696   1.599 -0.2430  0.4814 -0.7289
 3381SOL    HW121602   2.813   0.787   1.610  1.6332  0.6352  3.1637
 3381SOL    HW221603   2.891   0.700   1.517  0.0512  0.9595 -0.5341
 3382SOL     OW21604   3.784   0.875   5.394  0.3996 -0.6284 -0.2132
 3382SOL    HW121605   3.780   0.812   5.465 -0.0327 -2.1325 -1.5763
 3382SOL    HW221606   3.733   0.842   5.321 -1.4742  0.2200  0.7170
 3383SOL     OW21607   2.464   0.051  17.310 -0.0157 -0.0636 -0.0956
 3383SOL    HW121608   2.452   0.072  17.217 -0.3318  0.2245  0.0112
 3383SOL    HW221609   2.489   4.683  17.310  0.9949  0.2108 -0.6213
 3384SOL     OW21610   0.412   4.455   2.784  0.0589 -0.2726  0.1408
 3384SOL    HW121611   0.339   4.425   2.838  0.3955 -0.5813  0.4209
 3384SOL    HW221612   0.371   4.432   2.701  1.2376 -0.6877 -0.3283
 3385SOL     OW21613   0.947   4.065   7.878  0.0429  0.0949 -0.4129
 3385SOL    HW121614   0.968   4.094   7.967  1.1955 -1.4397 -0.1767
 3385SOL    HW221615   0.869   4.118   7.865 -0.0392  0.4214  1.3995
 3386SOL     OW21616   3.628   0.486   6.191 -0.2832 -0.3201  0.5701
 3386SOL    HW121617   3.689   0.528   6.130  0.8339 -1.0718  1.1840
 3386SOL    HW221618   3.593   0.418   6.133  1.1201 -1.4961  1.1067
 3387SOL     OW21619   2.269   3.057   2.698  0.3911  0.6256 -0.4964
 3387SOL    HW121620   2.340   3.006   2.738  1.1901  1.5679 -0.7047
 3387SOL    HW221621   2.200   3.038   2.761  1.2027 -0.7806 -0.0255
 3388SOL     OW21622   3.577   1.246  10.760 -0.0025  0.0051 -0.3290
 3388SOL    HW121623   3.543   1.170  10.807  1.1856  0.0094  0.5342
 3388SOL    HW221624   3.664   1.259  10.797 -0.0476 -2.0001  0.5032
 3389SOL     OW21625   3.860   0.975  14.117 -0.9142  0.1766  0.7843
 3389SOL    HW121626   3.952   0.953  14.131 -0.6577  1.0290  0.4458
 3389SOL    HW221627   3.860   1.025  14.035  1.3111  0.4962  0.9735
 3390SOL     OW21628   3.777   3.880   2.432  0.2764  0.2925 -0.1978
 3390SOL    HW121629   3.715   3.856   2.362  0.3446 -0.5141  0.0130
 3390SOL    HW221630   3.784   3.804   2.490  1.7726  1.2256  0.8451
 3391SOL     OW21631   2.997   3.969   1.425 -0.6709  0.5687  0.1613
 3391SOL    HW121632   3.082   3.963   1.470 -0.6876  3.5899  0.5522
 3391SOL    HW221633   3.022   3.955   1.333 -0.5427 -0.4265  0.3369
 3392SOL     OW21634   3.894   3.055   5.044 -0.1464  0.6600  0.7927
 3392SOL    HW121635   3.983   3.090   5.041 -0.0635  0.5218  1.7178
 3392SOL    HW221636   3.864   3.083   4.958  1.1616 -2.0094 -0.5344
 3393SOL     OW21637   4.540   1.801   6.069 -0.1172 -0.0929 -0.1299
 3393SOL    HW121638   4.596   1.806   6.146  1.1202  0.3127 -1.0684
 3393SOL    HW221639   4.584   1.739   6.012 -1.0735 -1.8118  1.0148
 3394SOL     OW21640   4.152   3.411   5.448  0.1788  0.2162 -0.1386
 3394SOL    HW121641   4.168   3.488   5.504 -0.6396 -0.3359  0.8701
 3394SOL    HW221642   4.067   3.429   5.410 -0.6681 -0.0937  1.5859
 3395SOL     OW21643   1.622   2.913   7.710  0.4250 -0.1596  0.1031
 3395SOL    HW121644   1.637   2.993   7.659  0.9255 -1.1261 -1.2574
 3395SOL    HW221645   1.549   2.871   7.663 -0.4232  0.0247  1.2683
 3396SOL     OW21646   3.734   4.583   1.927 -0.1984 -0.1470  0.6335
 3396SOL    HW121647   3.734   4.577   2.023  1.4395 -3.6466  0.4163
 3396SOL    HW221648   3.829   4.587   1.922 -0.1646 -0.5123  0.9410
 3397SOL     OW21649   3.925   4.271  12.122  0.5017 -0.3855 -0.2146
 3397SOL    HW121650   3.975   4.343  12.160  0.8136 -1.5778  1.6339
 3397SOL    HW221651   3.993   4.237  12.064  0.9016 -1.1452  0.6921
 3398SOL     OW21652   0.760   4.450   2.432 -0.2901 -0.1963 -0.3333
 3398SOL    HW121653   0.666   4.456   2.414 -0.3783  0.3935  0.3098
 3398SOL    HW221654   0.768   4.539   2.467 -0.1436 -0.2935 -0.1171
 3399SOL     OW21655   1.044   2.283   4.900 -0.5555  0.1454 -0.1116
 3399SOL    HW121656   1.022   2.190   4.898 -0.4936  0.1194  0.6219
 3399SOL    HW221657   0.960   2.326   4.914  0.0399  1.8355 -1.6482
 3400SOL     OW21658   1.940   3.753   6.580  0.8291  0.2903  0.3201
 3400SOL    HW121659   2.005   3.751   6.509  1.9424 -1.6429  1.4072
 3400SOL    HW221660   1.938   3.665   6.616 -0.9064 -0.0761 -0.6912
 3401SOL     OW21661   2.258   2.727   8.418 -0.1860  0.2236  0.4717
 3401SOL    HW121662   2.244   2.640   8.454 -2.3908  0.6399  0.6356
 3401SOL    HW221663   2.321   2.716   8.347 -0.9605  1.6873 -0.4562
 3402SOL     OW21664   1.164   2.877   8.697 -0.0008 -0.1278  0.4625
 3402SOL    HW121665   1.163   2.870   8.792 -1.2797  1.2573  0.5457
 3402SOL    HW221666   1.131   2.965   8.680 -1.6565 -0.9646 -0.6462
 3403SOL     OW21667   1.244   1.013   2.646 -0.1732  0.1974 -0.1878
 3403SOL    HW121668   1.254   0.951   2.574 -2.5879 -0.6603  0.1987
 3403SOL    HW221669   1.163   1.063   2.630  0.7295  1.7479  0.1308
 3404SOL     OW21670   0.215   2.590   6.298  0.1143  0.4562  0.1609
 3404SOL    HW121671   0.121   2.599   6.285 -0.5471 -3.0639  2.5051
 3404SOL    HW221672   0.247   2.568   6.210  1.2183 -0.0766  0.6931
 3405SOL     OW21673   3.726   0.200   1.942 -0.5251  0.3096  0.2847
 3405SOL    HW121674   3.639   0.197   1.902  0.2169 -0.0230 -1.3265
 3405SOL    HW221675   3.780   0.245   1.877 -0.3688 -1.2337 -0.6525
 3406SOL     OW21676   0.133   0.657   7.385  0.1346 -0.3452 -0.1488
 3406SOL    HW121677   0.203   0.719   7.405 -0.9220  1.2251 -1.3833
 3406SOL    HW221678   0.178   0.582   7.344  1.0809 -0.5346  1.2079
 3407SOL     OW21679   4.670   3.390   2.167 -0.0901  0.2599  0.3205
 3407SOL    HW121680   0.016   3.391   2.231 -1.1485 -0.8940  1.5023
 3407SOL    HW221681   4.720   3.338   2.104  0.2278 -0.0142  0.7984
 3408SOL     OW21682   1.527   2.865   1.500 -0.1800  0.0841  0.4523
 3408SOL    HW121683   1.499   2.952   1.472  1.1381  0.4475  0.2882
 3408SOL    HW221684   1.516   2.877   1.594 -0.0965 -1.2678  0.6333
 3409SOL     OW21685   4.476   2.010   3.924 -0.7040 -0.0992  0.1405
 3409SOL    HW121686   4.486   1.989   3.831 -0.6558 -1.7227  0.5240
 3409SOL    HW221687   4.505   1.928   3.964  3.0827  1.2774  0.2992
 3410SOL     OW21688   4.657   4.590   4.048  0.3190  0.5961  0.2205
 3410SOL    HW121689   4.619   4.676   4.067  0.8004  0.6570  0.9196
 3410SOL    HW221690   0.028   4.598   4.052  0.4113 -0.0836 -0.7039
 3411SOL     OW21691   4.550   3.699   2.791  0.2524 -0.1198  0.1871
 3411SOL    HW121692   4.481   3.662   2.846 -0.0703  1.2495  0.6924
 3411SOL    HW221693   4.613   3.725   2.858  0.6774  0.2184 -0.3470
 3412SOL     OW21694   1.880   3.525   2.895  0.1567 -0.1918  0.1151
 3412SOL    HW121695   1.856   3.448   2.844  1.9892  0.8910 -2.3435
 3412SOL    HW221696   1.884   3.498   2.987  1.5950 -1.9435 -0.4783
 3413SOL     OW21697   3.659   3.799   5.432  0.5626 -0.5573  0.1318
 3413SOL    HW121698   3.604   3.810   5.354 -0.9370  1.7512  1.5114
 3413SOL    HW221699   3.737   3.833   5.387 -0.1796  1.3751  0.3285
 3414SOL     OW21700   1.085   3.546   7.729 -0.2044  0.0330  0.1945
 3414SOL    HW121701   1.039   3.462   7.724 -2.4540  1.3271 -0.9809
 3414SOL    HW221702   1.049   3.589   7.652 -3.0416  0.1980  1.5919
 3415SOL     OW21703   2.876   3.072  15.373  0.4919 -0.2568  0.4977
 3415SOL    HW121704   2.962   3.030  15.379  0.3052 -0.8147 -0.6935
 3415SOL    HW221705   2.898   3.134  15.304 -0.6830  0.8104  1.0806
 3416SOL     OW21706   3.407   1.412  10.944 -0.6842  0.3153  0.4316
 3416SOL    HW121707   3.454   1.363  10.876  2.7558  3.1738  0.7148
 3416SOL    HW221708   3.487   1.439  10.989 -0.7139 -0.0516  0.6971
 3417SOL     OW21709   0.918   2.351   0.311  0.4231 -0.3417 -0.4608
 3417SOL    HW121710   0.869   2.405   0.249 -1.5560 -1.6831 -0.0884
 3417SOL    HW221711   0.845   2.322   0.367  1.0084  2.5835  1.8144
 3418SOL     OW21712   3.828   1.789   1.794 -0.2035  0.9667 -0.0089
 3418SOL    HW121713   3.828   1.825   1.883  0.9648  2.1108 -0.4776
 3418SOL    HW221714   3.777   1.862   1.759 -1.2805  0.3268  0.1959
 3419SOL     OW21715   3.927   2.838   9.366  0.0211 -0.4004 -0.2348
 3419SOL    HW121716   4.015   2.851   9.332 -0.2810  1.6921 -0.2437
 3419SOL    HW221717   3.929   2.745   9.388  0.4250  0.0298  1.4847
 3420SOL     OW21718   3.662   1.495   3.325 -0.1560 -0.0397  0.1049
 3420SOL    HW121719   3.650   1.504   3.419 -2.7343 -0.1724 -0.2257
 3420SOL    HW221720   3.577   1.511   3.283 -0.4687 -1.9153  0.0323
 3421SOL     OW21721   0.525   1.327   2.090  0.2265 -0.0447 -0.0984
 3421SOL    HW121722   0.524   1.395   2.022 -2.2883 -0.2157 -0.2422
 3421SOL    HW221723   0.436   1.334   2.126  0.0362  1.1038 -0.8039
 3422SOL     OW21724   4.428   0.145   6.664  0.2732  0.2154  0.4094
 3422SOL    HW121725   4.363   0.114   6.728 -1.2360 -2.1125 -2.2918
 3422SOL    HW221726   4.420   0.240   6.656  1.3961  0.4360  2.0351
 3423SOL     OW21727   0.583   3.847   9.428 -0.2245  1.0139  0.0610
 3423SOL    HW121728   0.600   3.921   9.370 -1.1742  0.8617 -0.4192
 3423SOL    HW221729   0.631   3.874   9.507  0.3312  0.9628 -0.2614
 3424SOL     OW21730   0.421   3.076   0.836  0.3855  0.1911  1.0044
 3424SOL    HW121731   0.444   2.998   0.785 -1.8792 -0.7272  1.3667
 3424SOL    HW221732   0.469   3.075   0.919 -1.9831 -0.5402  2.3815
 3425SOL     OW21733   1.229   0.694  16.230  0.2479  0.0544  0.0506
 3425SOL    HW121734   1.171   0.658  16.296  1.2853 -0.7348  0.5267
 3425SOL    HW221735   1.158   0.707  16.167 -0.3973 -0.3763  0.6947
 3426SOL     OW21736   1.062   4.611   5.515  0.2876 -0.3544 -0.1344
 3426SOL    HW121737   1.057   4.536   5.456  2.8556 -1.1630  0.6842
 3426SOL    HW221738   0.970   4.636   5.506 -0.4145 -1.6541  3.4614
 3427SOL     OW21739   1.752   2.437  14.729 -0.2842 -0.3694 -0.2209
 3427SOL    HW121740   1.679   2.481  14.684  0.3347  0.0307 -0.8234
 3427SOL    HW221741   1.823   2.453  14.667  0.6707  1.4704  1.3588
 3428SOL     OW21742   0.915   1.872   8.028  0.0658  0.2038 -0.1975
 3428SOL    HW121743   0.900   1.778   8.017  0.1704  0.4492 -2.5075
 3428SOL    HW221744   0.913   1.874   8.123 -0.7907  0.5405 -0.2181
 3429SOL     OW21745   1.265   1.681   6.512 -0.2125 -0.0739  0.0754
 3429SOL    HW121746   1.349   1.700   6.470 -0.5222 -1.9505 -1.3900
 3429SOL    HW221747   1.212   1.648   6.440 -0.0051 -1.6523  0.6384
 3430SOL     OW21748   4.033   3.989  16.130 -0.1051  0.7130  0.0238
 3430SOL    HW121749   4.098   3.985  16.201 -0.5875 -3.3248  0.2385
 3430SOL    HW221750   3.989   4.073  16.140  0.5969  0.7724  2.7539
 3431SOL     OW21751   2.981   2.599  16.729  0.0769  0.2140 -0.9542
 3431SOL    HW121752   2.902   2.608  16.675 -0.9383  1.1410  0.6763
 3431SOL    HW221753   2.981   2.690  16.759 -0.9584 -0.0149 -0.2341
 3432SOL     OW21754   3.573   0.217  16.089 -0.5733  0.9512 -0.7598
 3432SOL    HW121755   3.502   0.270  16.126 -1.5461 -0.3466 -0.7370
 3432SOL    HW221756   3.613   0.276  16.025 -1.5857  3.1542  0.6260
 3433SOL     OW21757   1.127   1.369  11.198 -0.1976  0.1930 -0.0457
 3433SOL    HW121758   1.208   1.342  11.155 -0.3015  1.2360 -0.9074
 3433SOL    HW221759   1.124   1.464  11.184 -0.9027 -0.1353 -2.0882
 3434SOL     OW21760   0.920   3.310   7.692  0.0721  0.1450 -0.7777
 3434SOL    HW121761   0.829   3.309   7.721  0.6917  0.4992  1.1574
 3434SOL    HW221762   0.907   3.240   7.627 -1.7797  0.3998 -0.6968
 3435SOL     OW21763   0.666   1.605  12.138  0.5221 -0.0759  0.3908
 3435SOL    HW121764   0.616   1.535  12.096 -0.8345  2.7104 -2.5922
 3435SOL    HW221765   0.632   1.582  12.225 -3.1802  2.6366 -0.3354
 3436SOL     OW21766   1.967   3.347  16.584  0.2533  0.5181  0.0987
 3436SOL    HW121767   1.955   3.371  16.676  0.6030 -1.8086  0.7521
 3436SOL    HW221768   1.882   3.366  16.542 -0.5252 -0.4285  1.2437
 3437SOL     OW21769   2.913   3.262   1.913  0.2935  0.1725  0.1935
 3437SOL    HW121770   2.987   3.275   1.854  1.4867  1.6632  2.0106
 3437SOL    HW221771   2.840   3.275   1.853  0.4730 -3.0382 -0.6660
 3438SOL     OW21772   3.009   1.490   7.324 -0.5820  0.3840 -0.4143
 3438SOL    HW121773   3.103   1.502   7.313 -0.4675  0.5587  0.7876
 3438SOL    HW221774   2.992   1.423   7.257  0.6895  2.0336 -2.3994
 3439SOL     OW21775   2.005   4.054  14.232  0.3901 -0.5106 -0.1115
 3439SOL    HW121776   1.943   4.014  14.292 -1.2318  1.5154 -0.4258
 3439SOL    HW221777   2.063   3.979  14.220  1.4944 -0.1488  2.9053
 3440SOL     OW21778   1.641   1.408   6.139  0.3216 -0.4356  0.1300
 3440SOL    HW121779   1.632   1.479   6.074  0.9803  0.2931  0.8458
 3440SOL    HW221780   1.554   1.422   6.177  0.8167  2.7930  0.0925
 3441SOL     OW21781   0.825   2.457   2.550 -0.0266  0.3383  0.4317
 3441SOL    HW121782   0.903   2.490   2.506  0.6000 -0.8724  0.6008
 3441SOL    HW221783   0.794   2.538   2.590 -0.7602  1.2277 -1.9844
 3442SOL     OW21784   2.889   3.592  10.412 -0.0095  0.5578  0.5124
 3442SOL    HW121785   2.917   3.538  10.486 -0.3204  0.4695  0.5669
 3442SOL    HW221786   2.822   3.534  10.375  1.9272 -1.3024 -0.0850
 3443SOL     OW21787   2.385   0.671   8.478 -0.0437 -0.4045 -0.9782
 3443SOL    HW121788   2.400   0.585   8.518 -1.5889 -0.2958 -0.1589
 3443SOL    HW221789   2.289   0.673   8.481 -0.0970 -0.7496 -2.9138
 3444SOL     OW21790   2.092   4.451   0.737  0.3978 -0.7343  0.7002
 3444SOL    HW121791   2.069   4.438   0.645  0.5054  2.4828  0.2334
 3444SOL    HW221792   2.165   4.512   0.732  0.4931 -0.8836  0.2883
 3445SOL     OW21793   3.927   1.228   9.066 -0.3701  0.0293  0.5292
 3445SOL    HW121794   3.910   1.136   9.048 -2.1027  0.1460  1.5760
 3445SOL    HW221795   3.952   1.212   9.157 -0.3615 -0.6053  0.4146
 3446SOL     OW21796   3.440   1.705  12.809 -0.3609 -0.0051  0.0098
 3446SOL    HW121797   3.407   1.725  12.721 -0.1509 -0.1233 -0.0964
 3446SOL    HW221798   3.533   1.697  12.785 -0.6323 -0.1957 -0.9866
 3447SOL     OW21799   4.689   2.565  10.409 -0.2859  0.6351  0.3264
 3447SOL    HW121800   4.612   2.599  10.364 -2.9203 -1.2338  3.4431
 3447SOL    HW221801   4.705   2.648  10.454  2.1732 -1.4011  3.2058
 3448SOL     OW21802   3.394   3.611  14.794 -0.4248 -0.3360 -0.4917
 3448SOL    HW121803   3.410   3.564  14.875 -2.6437  1.9793  1.2591
 3448SOL    HW221804   3.391   3.538  14.731 -1.2202 -0.6287 -0.1113
 3449SOL     OW21805   3.422   4.656   1.378 -0.5352  0.0517 -0.1681
 3449SOL    HW121806   3.361   4.599   1.331 -0.9668  1.1376 -0.9284
 3449SOL    HW221807   3.509   4.630   1.347 -1.0218 -0.0941 -1.4145
 3450SOL     OW21808   4.169   0.836   2.316 -0.0413  0.2928  0.1760
 3450SOL    HW121809   4.151   0.775   2.244  0.1037 -0.0672  0.4459
 3450SOL    HW221810   4.099   0.828   2.380  0.5191 -1.2808  0.5858
 3451SOL     OW21811   1.097   4.716   3.233 -0.3542  0.4777 -0.6669
 3451SOL    HW121812   1.164   4.722   3.166  1.3644 -0.0719  1.0017
 3451SOL    HW221813   1.090   4.624   3.257 -1.0080  1.0012  1.2018
 3452SOL     OW21814   3.950   2.832  10.210  0.5031  0.0263  0.6368
 3452SOL    HW121815   3.989   2.844  10.124 -0.1510 -3.2699 -0.1308
 3452SOL    HW221816   3.968   2.740  10.229 -0.5598 -0.4328 -0.6377
 3453SOL     OW21817   2.493   3.300   4.877  0.3040 -0.4358  0.1967
 3453SOL    HW121818   2.537   3.366   4.930  0.1276  1.9521 -2.6370
 3453SOL    HW221819   2.523   3.328   4.791 -1.9368  1.7705  0.1417
 3454SOL     OW21820   2.384   1.990   3.265 -0.2452  0.1899  0.1570
 3454SOL    HW121821   2.299   2.030   3.245 -0.8804 -2.0913 -1.6339
 3454SOL    HW221822   2.359   1.902   3.293 -2.9099  0.9874  0.3462
 3455SOL     OW21823   2.943   4.346   2.493 -0.3986 -0.3839 -0.1578
 3455SOL    HW121824   2.958   4.436   2.464 -1.6012 -0.6022 -1.4768
 3455SOL    HW221825   3.006   4.290   2.448  0.5379  0.2610  0.3682
 3456SOL     OW21826   2.953   1.741  14.010  0.2376 -0.2114  0.6119
 3456SOL    HW121827   2.901   1.667  13.979 -1.7346  0.5887  2.0418
 3456SOL    HW221828   2.904   1.819  13.987  0.2713  0.2849  2.2594
 3457SOL     OW21829   2.567   0.854   2.519 -0.7542 -0.1843 -0.5621
 3457SOL    HW121830   2.638   0.910   2.487 -0.2166 -1.1505 -1.0552
 3457SOL    HW221831   2.572   0.795   2.444  0.8235  1.1007 -1.4785
 3458SOL     OW21832   0.851   3.656   7.068 -0.3664  0.1379 -0.1215
 3458SOL    HW121833   0.869   3.736   7.018  0.3255 -0.3788 -0.6977
 3458SOL    HW221834   0.862   3.678   7.161  2.8930  0.0984 -0.4717
 3459SOL     OW21835   2.091   1.333   5.756 -0.3008 -0.0519 -0.4997
 3459SOL    HW121836   2.056   1.387   5.685 -0.3212  0.8702  0.2009
 3459SOL    HW221837   2.165   1.391   5.774 -0.4398 -0.3603  1.0086
 3460SOL     OW21838   3.346   2.711   6.286 -0.4658 -0.6261 -0.0005
 3460SOL    HW121839   3.413   2.719   6.218 -0.8668 -2.0232 -0.5687
 3460SOL    HW221840   3.294   2.637   6.253 -2.1521 -0.2529  1.7905
 3461SOL     OW21841   4.642   4.337   4.139 -0.3979  0.1915  0.5352
 3461SOL    HW121842   4.647   4.426   4.104 -1.0700 -0.4974 -1.3110
 3461SOL    HW221843   4.623   4.370   4.226 -1.1024  0.3939  0.3018
 3462SOL     OW21844   2.019   2.753   9.216 -1.0624 -0.2594 -0.0482
 3462SOL    HW121845   1.944   2.812   9.206  1.1367  2.4680 -0.2665
 3462SOL    HW221846   2.024   2.722   9.306 -0.1013  0.1204  0.0264
 3463SOL     OW21847   4.448   3.312   5.740 -0.1475 -0.0045  0.5598
 3463SOL    HW121848   4.444   3.361   5.658  2.2229 -1.9709 -0.7450
 3463SOL    HW221849   4.364   3.267   5.730 -1.8181  2.6228  3.0106
 3464SOL     OW21850   4.703   1.749  13.454 -0.3139  0.3209  0.4782
 3464SOL    HW121851   4.664   1.835  13.466 -1.1395 -0.0319  0.3022
 3464SOL    HW221852   4.658   1.703  13.525 -0.9191  1.7943  1.0326
 3465SOL     OW21853   0.397   2.435   0.155  0.4840  0.5371  0.1006
 3465SOL    HW121854   0.351   2.478   0.228 -2.3817 -1.6026 -0.4392
 3465SOL    HW221855   0.446   2.506   0.114 -1.7877  1.9212 -0.2324
 3466SOL     OW21856   3.830   4.259  14.054 -0.1999 -0.5873 -0.3802
 3466SOL    HW121857   3.791   4.340  14.087  0.5331  0.7477 -2.8145
 3466SOL    HW221858   3.748   4.211  14.039  0.2874 -1.4875 -0.1350
 3467SOL     OW21859   2.023   4.506  13.569  0.1145 -0.1488  0.1200
 3467SOL    HW121860   2.103   4.470  13.608  1.0035  2.6439  0.8870
 3467SOL    HW221861   2.003   4.450  13.494  2.9489 -1.5495  0.3981
 3468SOL     OW21862   2.151   3.832   0.613 -0.1741  0.0546 -0.1363
 3468SOL    HW121863   2.134   3.744   0.647 -1.1169 -0.2787 -1.4624
 3468SOL    HW221864   2.231   3.851   0.661 -0.8231  2.9893 -0.2177
 3469SOL     OW21865   4.389   1.203   4.355 -0.0837 -0.2667 -0.1483
 3469SOL    HW121866   4.389   1.297   4.371  1.2424  0.0081 -1.7777
 3469SOL    HW221867   4.403   1.202   4.260  3.4133 -0.8192  0.4030
 3470SOL     OW21868   0.490   1.513   1.897 -0.1453 -0.0823  0.0118
 3470SOL    HW121869   0.424   1.560   1.949 -0.6354 -1.4152  0.5767
 3470SOL    HW221870   0.555   1.580   1.875  0.6608 -1.1406 -0.7727
 3471SOL     OW21871   3.455   3.415  14.613  0.2487 -0.0823  0.3174
 3471SOL    HW121872   3.470   3.384  14.524  0.5941  1.5358 -0.2056
 3471SOL    HW221873   3.479   3.335  14.658 -1.4215 -0.4221  0.5823
 3472SOL     OW21874   0.878   2.743   4.673  0.9294  0.7526  0.1808
 3472SOL    HW121875   0.858   2.822   4.723 -2.3279  0.5197 -0.7237
 3472SOL    HW221876   0.809   2.751   4.607  0.9273  0.6870  0.1745
 3473SOL     OW21877   2.930   4.693   8.048 -0.1137 -0.1157  0.4359
 3473SOL    HW121878   2.949   0.044   8.102 -0.9371  1.3800 -1.3863
 3473SOL    HW221879   3.018   4.657   8.063  0.0665  0.2378  0.2305
 3474SOL     OW21880   0.223   2.714   2.980  0.3763  0.2453 -0.7178
 3474SOL    HW121881   0.251   2.740   3.068 -1.4189 -1.9813  0.5107
 3474SOL    HW221882   0.183   2.631   3.004 -0.1375  1.0339  1.2044
 3475SOL     OW21883   4.610   2.537   4.474 -0.2970  0.2435 -0.4850
 3475SOL    HW121884   4.621   2.630   4.457 -1.5033  0.0224 -2.4447
 3475SOL    HW221885   4.519   2.538   4.502 -0.5561  1.5771 -1.3927
 3476SOL     OW21886   2.312   1.054  11.553  0.3390 -0.2543  0.2159
 3476SOL    HW121887   2.392   1.025  11.596  1.9552 -0.1673 -2.7842
 3476SOL    HW221888   2.349   1.131  11.510  0.1123 -0.2377  0.0464
 3477SOL     OW21889   0.275   1.268  16.860 -0.2698  0.2737 -0.1109
 3477SOL    HW121890   0.206   1.309  16.807 -1.5325 -1.1956  0.3963
 3477SOL    HW221891   0.266   1.180  16.825 -1.2543 -0.1706  1.2547
 3478SOL     OW21892   4.198   0.417  17.300 -0.0863 -0.3968 -0.3707
 3478SOL    HW121893   4.232   0.357  17.366  0.1782  0.8983  0.6707
 3478SOL    HW221894   4.148   0.359  17.243  0.4700  0.4870 -1.7630
 3479SOL     OW21895   1.509   2.031   7.485  0.1857 -0.5575 -0.0008
 3479SOL    HW121896   1.525   2.096   7.553  1.1521 -0.5429 -0.2417
 3479SOL    HW221897   1.572   1.961   7.503 -1.6414 -1.9110  1.1759
 3480SOL     OW21898   2.209   1.139   8.481 -0.1866 -0.0524  1.0715
 3480SOL    HW121899   2.121   1.114   8.508 -0.8761  0.4562 -0.6600
 3480SOL    HW221900   2.243   1.051   8.469  0.7394  0.2708  1.2850
 3481SOL     OW21901   2.264   3.878   5.861  0.1333  1.1126 -0.0256
 3481SOL    HW121902   2.330   3.916   5.804 -0.9766  3.3004  0.1432
 3481SOL    HW221903   2.184   3.928   5.845 -0.4563 -0.6024 -2.4389
 3482SOL     OW21904   3.940   1.666   5.373 -0.0195  0.3667  0.9507
 3482SOL    HW121905   3.938   1.571   5.362 -1.4829  0.4195  0.7323
 3482SOL    HW221906   4.035   1.675   5.377  0.0300 -0.2376  1.1743
 3483SOL     OW21907   3.330   2.802  17.076 -0.1599 -0.3487 -0.5072
 3483SOL    HW121908   3.298   2.807  17.166  3.8712 -2.5024  1.0536
 3483SOL    HW221909   3.410   2.855  17.089 -0.6135  0.9717 -3.2573
 3484SOL     OW21910   3.049   2.852   4.450  0.3761  0.2249 -0.3219
 3484SOL    HW121911   3.127   2.797   4.454 -0.3578 -0.7254  1.1215
 3484SOL    HW221912   2.983   2.784   4.435 -2.0975  2.8595 -1.3637
 3485SOL     OW21913   3.057   1.897   4.092 -0.1657  0.2335  0.7839
 3485SOL    HW121914   3.136   1.946   4.112 -0.0042  0.3137 -0.0507
 3485SOL    HW221915   3.010   1.960   4.036  2.2008  1.6559  0.4284
 3486SOL     OW21916   3.570   2.716   5.442 -0.2879  0.1259 -0.5041
 3486SOL    HW121917   3.648   2.763   5.413 -0.5606 -0.3046 -1.9726
 3486SOL    HW221918   3.507   2.743   5.374 -0.8586 -1.5855 -0.6682
 3487SOL     OW21919   0.058   2.580   7.821 -0.5833  0.5065  0.3508
 3487SOL    HW121920   0.010   2.612   7.745  1.4341 -0.3438 -1.2918
 3487SOL    HW221921   0.150   2.588   7.794 -1.0486 -2.0081 -1.9836
 3488SOL     OW21922   1.717   2.544   1.822 -0.4371 -0.4297  0.6176
 3488SOL    HW121923   1.770   2.577   1.750 -1.0632 -3.2176 -1.1161
 3488SOL    HW221924   1.651   2.612   1.835 -1.6894 -1.3430 -1.0447
 3489SOL     OW21925   3.516   1.076   5.398 -0.2088  0.3319  0.4715
 3489SOL    HW121926   3.576   1.010   5.434  0.1173  0.4734  0.1877
 3489SOL    HW221927   3.520   1.145   5.464 -0.3827  3.1854 -2.5140
 3490SOL     OW21928   2.783   4.513  14.062 -0.1943 -0.3524 -0.6399
 3490SOL    HW121929   2.736   4.550  14.138 -0.2537 -0.0493 -0.8237
 3490SOL    HW221930   2.720   4.537  13.994 -1.2108  0.1962  0.4827
 3491SOL     OW21931   1.571   2.785   3.240  0.0601 -0.6716  0.5820
 3491SOL    HW121932   1.644   2.793   3.178 -1.7656 -1.4395 -1.6491
 3491SOL    HW221933   1.492   2.798   3.188  0.5008 -1.4749 -0.2809
 3492SOL     OW21934   0.965   2.122   6.598  0.2557 -0.0436 -0.4253
 3492SOL    HW121935   0.993   2.106   6.688  0.5974 -1.5793 -0.8154
 3492SOL    HW221936   0.905   2.196   6.610  2.0125  1.6752 -2.0821
 3493SOL     OW21937   1.869   4.372   5.774 -0.2586  0.0374 -0.1890
 3493SOL    HW121938   1.916   4.347   5.853 -2.1004  2.0075  1.5453
 3493SOL    HW221939   1.897   4.306   5.711  1.3660 -0.1732  0.7766
 3494SOL     OW21940   0.256   0.759  16.667 -0.1901 -0.5410 -0.4180
 3494SOL    HW121941   0.304   0.677  16.663 -1.5470 -1.3851  0.8474
 3494SOL    HW221942   0.259   0.776  16.573  4.1212 -1.2191 -0.4088
 3495SOL     OW21943   2.441   4.234   2.357  0.4770 -0.0266 -0.0945
 3495SOL    HW121944   2.408   4.302   2.298 -3.2256 -0.5212  1.3623
 3495SOL    HW221945   2.475   4.274   2.437 -1.9040 -0.4729  1.1528
 3496SOL     OW21946   2.251   4.380   2.905 -0.0389  1.0069 -0.1012
 3496SOL    HW121947   2.281   4.466   2.876  0.9275  0.9662  0.8014
 3496SOL    HW221948   2.287   4.324   2.837 -3.0299  0.2932 -1.1249
 3497SOL     OW21949   0.141   3.373   2.338  0.0022  0.1527  0.5372
 3497SOL    HW121950   0.124   3.409   2.425 -1.1559  0.0535  0.3454
 3497SOL    HW221951   0.210   3.434   2.311 -0.1324 -1.6605 -3.8577
 3498SOL     OW21952   0.981   2.306  11.240 -0.1015  1.1316  0.1416
 3498SOL    HW121953   0.957   2.305  11.333  1.2423 -1.2135  0.4620
 3498SOL    HW221954   0.997   2.400  11.230  0.4120  0.9115 -1.0252
 3499SOL     OW21955   1.009   1.467  10.333  0.1697  0.3964  0.5066
 3499SOL    HW121956   1.037   1.494  10.421  1.5646 -3.6555  1.2883
 3499SOL    HW221957   1.092   1.494  10.293 -0.0612  1.0909  0.4883
 3500SOL     OW21958   3.937   4.598   6.531 -0.6679 -0.2664 -0.3687
 3500SOL    HW121959   3.850   4.563   6.550 -0.1372 -0.4758  1.7371
 3500SOL    HW221960   3.915   4.634   6.445 -1.4611 -2.5361 -1.1148
 3501SOL     OW21961   0.201   2.481   3.500 -0.3046 -1.0678  0.1501
 3501SOL    HW121962   0.282   2.499   3.453 -1.0297  1.4688 -0.1417
 3501SOL    HW221963   0.238   2.495   3.587 -0.1230  0.9142 -0.2343
 3502SOL     OW21964   0.902   2.699  17.650  0.2512  0.3794 -0.3728
 3502SOL    HW121965   0.916   2.730   0.038 -1.0603  2.6544 -0.9504
 3502SOL    HW221966   0.968   2.754  17.608  1.1524  2.0324  3.1821
 3503SOL     OW21967   3.978   2.613  17.640 -0.1468 -0.4185 -0.3027
 3503SOL    HW121968   4.070   2.635  17.623  0.3772 -1.3031  1.4885
 3503SOL    HW221969   3.975   2.544  17.574  1.2894  0.8031 -1.6667
 3504SOL     OW21970   2.166   2.637  12.007  0.1773 -0.5274 -0.1908
 3504SOL    HW121971   2.256   2.650  11.977 -1.5953  1.0240 -4.9686
 3504SOL    HW221972   2.172   2.680  12.092 -0.7798 -0.8821  0.0494
 3505SOL     OW21973   4.538   1.902   8.550 -0.6256  0.6220  0.5843
 3505SOL    HW121974   4.623   1.890   8.592  0.6043  4.3584 -0.7753
 3505SOL    HW221975   4.489   1.831   8.591  0.5074 -0.4956  0.0341
 3506SOL     OW21976   0.203   1.451   5.518 -0.4455  0.3044 -0.0740
 3506SOL    HW121977   0.261   1.402   5.460  1.2696  0.7699  1.2340
 3506SOL    HW221978   0.153   1.380   5.559  1.9599  0.4388  3.1362
 3507SOL     OW21979   1.881   1.182   9.052 -0.3325  0.4499 -0.4750
 3507SOL    HW121980   1.785   1.179   9.061 -0.3971 -0.7978 -1.4529
 3507SOL    HW221981   1.896   1.276   9.062  2.0684  0.0161 -0.0964
 3508SOL     OW21982   2.744   4.467   2.672  0.5318 -0.3997 -0.0126
 3508SOL    HW121983   2.818   4.411   2.648 -0.5800 -1.2282 -1.5648
 3508SOL    HW221984   2.671   4.408   2.657 -0.2060  0.0996  1.7267
 3509SOL     OW21985   4.572   0.685  15.062 -0.3178 -0.0739  0.1471
 3509SOL    HW121986   4.570   0.591  15.076  1.6116 -0.1043  0.2302
 3509SOL    HW221987   4.667   0.698  15.054 -0.3305 -1.2431 -1.7454
 3510SOL     OW21988   1.803   2.518   4.151 -0.1425 -0.0380  0.0431
 3510SOL    HW121989   1.881   2.572   4.163 -0.1097  0.3527 -2.0389
 3510SOL    HW221990   1.785   2.490   4.241 -0.6275 -2.0108 -0.6611
 3511SOL     OW21991   0.077   3.705  13.918  0.6485 -0.3015  0.2140
 3511SOL    HW121992   0.104   3.709  14.010 -1.8265  0.3402  0.8934
 3511SOL    HW221993   0.143   3.649  13.878  1.8334 -0.5046  2.4458
 3512SOL     OW21994   1.296   2.233   7.281 -0.2041 -0.4870  0.3085
 3512SOL    HW121995   1.210   2.202   7.255 -0.8060 -0.4461  2.2435
 3512SOL    HW221996   1.312   2.194   7.367 -1.3251  1.1026  1.2399
 3513SOL     OW21997   0.667   2.723   4.512  0.5283 -0.0879 -0.5978
 3513SOL    HW121998   0.635   2.660   4.448 -1.2203  1.0709 -0.8567
 3513SOL    HW221999   0.587   2.734   4.563 -0.1284 -0.5381 -1.5326
 3514SOL     OW22000   1.585   1.648   1.099 -0.2698  0.0814 -0.1318
 3514SOL    HW122001   1.675   1.635   1.069 -0.5358 -1.3374 -0.3203
 3514SOL    HW222002   1.609   1.693   1.180 -1.6302 -2.0592  1.4690
 3515SOL     OW22003   0.247   3.220   7.595 -0.5964  0.5582 -0.0726
 3515SOL    HW122004   0.169   3.264   7.562 -1.9311 -1.1134  0.8797
 3515SOL    HW222005   0.209   3.157   7.656  2.4060 -1.0749  0.1537
 3516SOL     OW22006   2.100   4.171  10.109  0.3687 -0.0756  0.5108
 3516SOL    HW122007   2.038   4.193  10.039  0.3084 -0.3212  0.4866
 3516SOL    HW222008   2.052   4.203  10.185 -0.4417 -1.6237  0.6415
 3517SOL     OW22009   0.947   4.469   8.176  0.2109  0.3837  0.8602
 3517SOL    HW122010   0.986   4.556   8.172  0.7707  0.0221 -1.9279
 3517SOL    HW222011   0.871   4.485   8.231  0.7336  0.9660  1.4071
 3518SOL     OW22012   4.673   1.718   0.179 -0.3832  0.0483  0.2426
 3518SOL    HW122013   4.649   1.652   0.244  0.6453  0.3235  0.9052
 3518SOL    HW222014   0.042   1.706   0.168 -0.5194  0.7957 -1.7336
 3519SOL     OW22015   1.806   1.720   7.043  0.0223  0.5918 -0.4966
 3519SOL    HW122016   1.889   1.756   7.071  1.2780 -2.7448  0.1458
 3519SOL    HW222017   1.832   1.671   6.965 -1.3263  0.3202 -0.7715
 3520SOL     OW22018   0.474   1.790   6.544 -0.0042 -0.2091  0.1112
 3520SOL    HW122019   0.512   1.822   6.462 -0.2376  0.8179  0.4162
 3520SOL    HW222020   0.451   1.870   6.590 -0.6202 -0.1647 -0.2672
 3521SOL     OW22021   2.904   2.734  13.161  0.0117 -0.3588  0.0791
 3521SOL    HW122022   2.890   2.704  13.071 -0.5925 -0.7079  0.2857
 3521SOL    HW222023   2.842   2.681  13.211  0.6788  0.0022  1.3051
 3522SOL     OW22024   0.129   1.551  10.099  0.8462  0.5355 -0.4178
 3522SOL    HW122025   0.099   1.638  10.127  0.1025 -0.0274  0.5421
 3522SOL    HW222026   0.161   1.576  10.012  1.4411  0.6552 -0.1630
 3523SOL     OW22027   2.223   3.069   6.896 -0.1440 -0.3274  0.0969
 3523SOL    HW122028   2.293   3.050   6.959 -1.9125  0.0341  2.1819
 3523SOL    HW222029   2.220   2.984   6.852 -1.5121  0.8569 -2.0789
 3524SOL     OW22030   0.543   1.880   8.001 -0.8094 -0.2282  0.1771
 3524SOL    HW122031   0.472   1.874   8.065  0.6476  0.9614  1.9134
 3524SOL    HW222032   0.599   1.810   8.034  0.0768 -0.2366 -1.3205
 3525SOL     OW22033   4.624   2.747   3.291 -0.1886 -0.0202  0.2647
 3525SOL    HW122034   4.537   2.777   3.319 -0.6654 -1.0397 -0.1540
 3525SOL    HW222035   4.663   2.748   3.378  1.1330 -0.2818 -0.3376
 3526SOL     OW22036   0.758   4.604   5.936  0.1650 -0.8252  0.3393
 3526SOL    HW122037   0.747   4.578   5.844  1.5174 -0.7546  0.1568
 3526SOL    HW222038   0.671   4.587   5.973  0.1515  1.4490  1.3234
 3527SOL     OW22039   2.764   1.243   3.026  0.8030  0.2020  0.2889
 3527SOL    HW122040   2.816   1.284   2.957 -0.1782  0.0026 -0.5667
 3527SOL    HW222041   2.685   1.234   2.974  2.8706 -0.0824 -2.7683
 3528SOL     OW22042   3.047   3.877   9.758  0.2237 -0.0483  0.8490
 3528SOL    HW122043   2.991   3.953   9.740 -1.5506 -2.0789 -2.1135
 3528SOL    HW222044   2.990   3.804   9.734 -0.7538  1.2775 -0.8505
 3529SOL     OW22045   1.143   0.164   6.704  0.1167  0.1761  0.1467
 3529SOL    HW122046   1.051   0.139   6.698  0.3668 -0.0622 -2.5738
 3529SOL    HW222047   1.181   0.081   6.734  0.4129  0.0102 -0.6947
 3530SOL     OW22048   2.330   3.908   3.948  0.2621  0.4857 -0.3124
 3530SOL    HW122049   2.277   3.988   3.946  2.5100  1.9961  0.8781
 3530SOL    HW222050   2.266   3.846   3.983 -0.2587  1.9170  1.2769
 3531SOL     OW22051   3.348   2.242  13.704 -0.1004 -0.6599 -0.1136
 3531SOL    HW122052   3.405   2.213  13.776 -0.1678  0.4076  0.3708
 3531SOL    HW222053   3.362   2.165  13.649 -1.5096  1.1169 -2.9876
 3532SOL     OW22054   0.097   1.908  13.753 -0.5869 -0.1666 -0.2477
 3532SOL    HW122055   0.066   1.906  13.663  0.0048  0.3079 -0.4623
 3532SOL    HW222056   0.022   1.885  13.809 -0.2264 -0.3346  0.1692
 3533SOL     OW22057   1.177   2.960  13.635 -0.5267 -0.0832 -0.0956
 3533SOL    HW122058   1.152   2.902  13.706  3.0223 -2.0008 -0.4357
 3533SOL    HW222059   1.206   2.900  13.566 -2.1899 -0.2004 -0.7041
 3534SOL     OW22060   1.468   4.617   3.915  0.3434 -0.0044 -0.5974
 3534SOL    HW122061   1.483   4.541   3.972 -0.4726  0.1659 -0.1566
 3534SOL    HW222062   1.424   4.674   3.978 -0.1487 -2.0835  0.9701
 3535SOL     OW22063   0.580   0.250  17.632  0.2254  0.3002  0.2199
 3535SOL    HW122064   0.673   0.258  17.652  0.2647 -2.3438  0.9975
 3535SOL    HW222065   0.566   0.156  17.629  0.6880  0.2346  0.2258
 3536SOL     OW22066   4.027   1.204  15.735 -0.4202  0.7152 -0.5695
 3536SOL    HW122067   3.958   1.153  15.779 -0.8927  0.5979 -1.4405
 3536SOL    HW222068   3.964   1.259  15.687  0.4248  2.6688  0.5538
 3537SOL     OW22069   2.459   3.685   0.901  0.4658  0.3764 -0.1177
 3537SOL    HW122070   2.392   3.617   0.905 -0.5439  1.3582 -0.3197
 3537SOL    HW222071   2.474   3.688   0.996 -2.9623  0.5957  0.4201
 3538SOL     OW22072   3.184   2.495   6.764  0.8359  0.4857 -0.0284
 3538SOL    HW122073   3.255   2.435   6.742 -0.4682 -1.6127  1.3729
 3538SOL    HW222074   3.196   2.550   6.687 -0.6978  1.0926  0.1644
 3539SOL     OW22075   1.666   1.788   9.209 -0.6013  0.3664 -0.2428
 3539SOL    HW122076   1.728   1.716   9.202 -1.6539 -0.3272 -2.1852
 3539SOL    HW222077   1.691   1.823   9.295 -1.2730  2.3860 -0.8624
 3540SOL     OW22078   3.465   2.379  16.936 -0.0902 -0.2253  0.3234
 3540SOL    HW122079   3.380   2.423  16.934 -0.5913 -1.3523 -2.9019
 3540SOL    HW222080   3.522   2.449  16.969  0.8080 -0.9650  0.3294
 3541SOL     OW22081   1.998   3.003   2.157  0.6585  0.0831 -0.6441
 3541SOL    HW122082   2.087   3.029   2.179  0.3496 -0.0153  0.7019
 3541SOL    HW222083   1.947   3.084   2.162  2.1188  0.8523  1.7281
 3542SOL     OW22084   2.295   2.202  15.386 -0.5219  0.1189  0.5171
 3542SOL    HW122085   2.255   2.268  15.330 -2.2710 -1.9079 -0.6240
 3542SOL    HW222086   2.358   2.155  15.331 -0.4402  0.4581  0.3231
 3543SOL     OW22087   2.257   0.431  14.212  0.1333  0.3599 -0.0888
 3543SOL    HW122088   2.165   0.457  14.222  0.1223  0.7629 -1.1875
 3543SOL    HW222089   2.295   0.459  14.295 -0.6971  0.0428  0.4004
 3544SOL     OW22090   0.292   0.990   3.465  0.1729 -0.1899  0.4913
 3544SOL    HW122091   0.267   1.078   3.494 -1.4641 -1.4707  2.9740
 3544SOL    HW222092   0.211   0.943   3.445  1.1681 -1.3755 -0.7082
 3545SOL     OW22093   4.506   0.517   3.158 -0.8232  0.3671  0.2344
 3545SOL    HW122094   4.451   0.440   3.141 -0.0483 -0.5817  2.0429
 3545SOL    HW222095   4.461   0.577   3.099 -0.0210 -0.2049 -0.9734
 3546SOL     OW22096   4.314   4.347   4.306  0.7101  0.4401 -0.1764
 3546SOL    HW122097   4.328   4.434   4.268 -1.0660  1.0364  0.5340
 3546SOL    HW222098   4.318   4.294   4.227  0.3042 -0.7791  0.6215
 3547SOL     OW22099   0.764   4.246  10.320 -0.1623 -0.1032  0.3394
 3547SOL    HW122100   0.849   4.255  10.365  0.7651  1.4238 -1.7292
 3547SOL    HW222101   0.771   4.171  10.261 -0.0845  0.5715 -0.5089
 3548SOL     OW22102   1.513   3.093   4.117  0.5781 -0.2504 -0.6587
 3548SOL    HW122103   1.507   3.009   4.161 -0.9634  0.8258  1.1441
 3548SOL    HW222104   1.419   3.103   4.103  0.4606  1.6985  1.5653
 3549SOL     OW22105   1.104   1.400   4.049 -0.6272  0.2302 -0.3950
 3549SOL    HW122106   1.014   1.389   4.081 -0.5582 -1.2643 -0.6992
 3549SOL    HW222107   1.115   1.492   4.028  1.2914 -0.1835 -1.1479
 3550SOL     OW22108   3.412   3.810  12.286  0.0216  0.1594 -0.3978
 3550SOL    HW122109   3.441   3.850  12.204  2.8867 -0.6185  0.2154
 3550SOL    HW222110   3.374   3.734  12.242  0.0197 -0.0495 -0.0327
 3551SOL     OW22111   1.736   3.209   0.378 -0.0592 -0.4800 -0.0013
 3551SOL    HW122112   1.646   3.218   0.347 -0.1920  4.0096  1.5132
 3551SOL    HW222113   1.754   3.302   0.397  0.1798 -0.6425  0.5809
 3552SOL     OW22114   0.810   0.845   5.079 -0.2043  0.0583  0.0085
 3552SOL    HW122115   0.806   0.841   5.174  1.3751  1.3573  0.1307
 3552SOL    HW222116   0.827   0.753   5.058 -0.5171 -0.1769  0.7978
 3553SOL     OW22117   3.277   2.138   7.582 -1.6700 -0.2931  0.4317
 3553SOL    HW122118   3.236   2.173   7.502  1.6416 -0.8133 -1.4841
 3553SOL    HW222119   3.203   2.095   7.625 -1.7756 -2.3876 -1.8775
 3554SOL     OW22120   2.376   4.200   0.564 -0.3137  0.3226 -0.2296
 3554SOL    HW122121   2.402   4.287   0.591  0.5158 -0.0521  0.1740
 3554SOL    HW222122   2.457   4.165   0.527 -1.3115  0.7531 -2.8648
 3555SOL     OW22123   3.735   4.241   2.748  0.1725 -0.5173  0.0821
 3555SOL    HW122124   3.786   4.215   2.825 -1.8631 -1.8825  0.9661
 3555SOL    HW222125   3.651   4.195   2.755 -0.4255  0.3967 -1.0032
 3556SOL     OW22126   2.413   0.705   7.106  0.0547  0.0351 -0.1048
 3556SOL    HW122127   2.346   0.743   7.049 -0.3934  0.6923  0.8644
 3556SOL    HW222128   2.408   0.617   7.070 -1.1205  0.4495 -0.9577
 3557SOL     OW22129   2.478   4.574   8.742 -0.4089 -0.5654  0.1541
 3557SOL    HW122130   2.571   4.554   8.750 -0.9852 -2.7857  1.3789
 3557SOL    HW222131   2.476   4.668   8.758 -1.3720 -0.5186 -0.2244
 3558SOL     OW22132   1.257   0.284   2.490 -0.0574  0.1985  0.1967
 3558SOL    HW122133   1.221   0.281   2.578  0.2224  0.0951  0.3070
 3558SOL    HW222134   1.350   0.306   2.501  0.4502 -1.5330 -0.6389
 3559SOL     OW22135   0.454   0.897  14.496 -0.1897  0.4890  0.0321
 3559SOL    HW122136   0.465   0.807  14.529 -0.5441  1.2534  2.2270
 3559SOL    HW222137   0.508   0.948  14.556  0.8479  0.3982 -0.8322
 3560SOL     OW22138   3.805   3.314   7.292  0.3967  0.4704 -0.5178
 3560SOL    HW122139   3.717   3.319   7.254  0.7012  0.8740 -1.1648
 3560SOL    HW222140   3.787   3.349   7.380  1.2931  0.3789 -0.3048
 3561SOL     OW22141   3.773   4.264  11.668  0.2181  0.3201 -0.0377
 3561SOL    HW122142   3.748   4.176  11.693 -0.2662  0.4664 -0.0109
 3561SOL    HW222143   3.857   4.270  11.714 -0.4025  0.4245  1.0822
 3562SOL     OW22144   0.019   1.227   9.241 -0.4195  0.1351  0.1685
 3562SOL    HW122145   0.082   1.287   9.282  0.3470 -0.2384 -0.4540
 3562SOL    HW222146   4.675   1.293   9.230 -0.0028  0.1790 -2.1295
 3563SOL     OW22147   0.910   0.449  10.598  0.4527 -0.0350 -0.2304
 3563SOL    HW122148   0.890   0.413  10.684 -3.5568  0.7298 -0.8432
 3563SOL    HW222149   1.006   0.443  10.601  0.3917 -0.7045  0.4498
 3564SOL     OW22150   3.885   0.310   1.786 -0.1657  0.5420  0.0129
 3564SOL    HW122151   3.946   0.364   1.836  1.4470  0.0655 -1.4230
 3564SOL    HW222152   3.919   0.311   1.696  0.8984  1.5276  0.4152
 3565SOL     OW22153   4.044   4.014  16.427 -0.1947 -0.0711  0.4268
 3565SOL    HW122154   4.055   4.108  16.437 -0.6951  0.0465 -0.1420
 3565SOL    HW222155   3.949   4.008  16.416 -0.1582  0.0439  0.0553
 3566SOL     OW22156   3.652   0.100   7.997 -0.0436  0.5578 -0.1243
 3566SOL    HW122157   3.616   0.183   8.028 -1.3445  0.9249 -2.5806
 3566SOL    HW222158   3.664   0.052   8.078 -1.1967 -0.1118 -0.3412
 3567SOL     OW22159   3.272   3.203   6.046  0.1614  0.7891  0.2361
 3567SOL    HW122160   3.297   3.189   5.955  2.7622  0.4593  1.0127
 3567SOL    HW222161   3.313   3.132   6.094  0.1988  0.5449 -0.1644
 3568SOL     OW22162   2.056   3.960   6.303 -0.0652 -0.1659  0.4812
 3568SOL    HW122163   2.130   3.916   6.263 -1.1569 -0.5671 -1.0937
 3568SOL    HW222164   1.986   3.934   6.243 -0.3922  1.2837  0.2205
 3569SOL     OW22165   3.863   2.470  11.684  0.1771  0.2410  0.4088
 3569SOL    HW122166   3.819   2.429  11.609  0.0678  2.2506 -0.6367
 3569SOL    HW222167   3.786   2.519  11.715 -0.8594 -0.2748 -1.3231
 3570SOL     OW22168   0.413   1.727   5.894 -0.2733  0.2457 -0.4143
 3570SOL    HW122169   0.475   1.785   5.849  0.8835  0.3272  1.2944
 3570SOL    HW222170   0.391   1.671   5.819 -1.1285 -0.7451  0.5776
 3571SOL     OW22171   0.274   2.836  10.456  0.1970 -0.4416 -0.4976
 3571SOL    HW122172   0.360   2.798  10.438  1.1005  2.5838 -2.6067
 3571SOL    HW222173   0.248   2.784  10.532 -1.6068 -1.2350 -1.6633
 3572SOL     OW22174   2.429   1.799   7.174 -0.1298  0.1611 -0.5460
 3572SOL    HW122175   2.440   1.866   7.241  0.6765 -0.8457  0.3333
 3572SOL    HW222176   2.498   1.823   7.111  0.8040 -0.2947  0.2966
 3573SOL     OW22177   3.181   0.189   2.591 -0.1054  0.3131 -0.3052
 3573SOL    HW122178   3.150   0.214   2.503 -2.1096  1.3607  0.6832
 3573SOL    HW222179   3.148   0.269   2.633  0.0689  0.4387 -0.4065
 3574SOL     OW22180   0.567   3.330   9.383  0.0902 -0.1247  0.3987
 3574SOL    HW122181   0.601   3.272   9.452 -0.7675  1.2113  1.9365
 3574SOL    HW222182   0.640   3.392   9.385  0.2732 -0.2078 -2.8791
 3575SOL     OW22183   3.306   4.163  10.079  0.0485  0.5213 -0.4244
 3575SOL    HW122184   3.224   4.133  10.038  1.9122 -1.3771 -2.7368
 3575SOL    HW222185   3.255   4.221  10.136  0.1763  1.9121 -1.7323
 3576SOL     OW22186   4.336   4.385  11.721 -0.4530 -0.4799  0.1733
 3576SOL    HW122187   4.361   4.468  11.679 -2.7571 -0.4615 -1.1896
 3576SOL    HW222188   4.242   4.395  11.703 -0.6694 -1.1692  0.9499
 3577SOL     OW22189   4.154   3.644   8.750 -0.1261  0.2405 -0.5714
 3577SOL    HW122190   4.116   3.611   8.831 -0.7162  2.8671  0.2323
 3577SOL    HW222191   4.175   3.733   8.778  0.5966 -0.2925  0.5651
 3578SOL     OW22192   1.069   3.767   9.059 -0.4348  0.5369 -0.1676
 3578SOL    HW122193   1.148   3.792   9.107 -1.8736  0.3747  2.2741
 3578SOL    HW222194   1.035   3.856   9.054  0.3066  0.8230 -0.2086
 3579SOL     OW22195   0.393   4.056  11.669  0.5699  0.1425 -0.3972
 3579SOL    HW122196   0.448   3.983  11.640  0.9837  0.4503 -0.3989
 3579SOL    HW222197   0.399   4.119  11.598 -0.3042  0.4143 -0.2259
 3580SOL     OW22198   4.294   0.339  15.884  0.4762 -0.1641  0.7926
 3580SOL    HW122199   4.210   0.351  15.839  1.7965  2.1518 -1.0583
 3580SOL    HW222200   4.302   0.424  15.928 -0.1290  1.1485 -1.6314
 3581SOL     OW22201   2.832   0.225   8.650 -0.0671  0.9772 -0.3190
 3581SOL    HW122202   2.754   0.279   8.636  0.5824  1.4339 -2.2924
 3581SOL    HW222203   2.908   0.281   8.637  0.5226  0.0036 -1.0920
 3582SOL     OW22204   4.443   4.255   5.368 -0.5750  0.6834 -0.2171
 3582SOL    HW122205   4.487   4.334   5.400 -2.9817  2.5329 -1.4372
 3582SOL    HW222206   4.507   4.184   5.373  0.1756  1.4040  0.4650
 3583SOL     OW22207   4.242   3.417  14.723 -0.1047 -0.4804  0.0847
 3583SOL    HW122208   4.294   3.436  14.645 -0.8137  1.0242 -0.0347
 3583SOL    HW222209   4.150   3.419  14.699  0.1777 -0.1064 -0.9757
 3584SOL     OW22210   1.057   3.868   0.922 -0.1779  0.1918 -0.6958
 3584SOL    HW122211   1.007   3.806   0.869 -0.9694 -0.1776  0.4890
 3584SOL    HW222212   1.146   3.832   0.922 -0.1682  0.2104 -0.3127
 3585SOL     OW22213   0.621   3.869   5.722 -0.3620 -0.4657  0.4842
 3585SOL    HW122214   0.578   3.794   5.764  0.2024 -1.3916 -0.6003
 3585SOL    HW222215   0.559   3.937   5.748  0.3013  0.0384  0.7378
 3586SOL     OW22216   0.810   0.197   7.243 -0.1999 -0.6085 -0.8087
 3586SOL    HW122217   0.782   0.271   7.297 -1.2475 -1.5836 -0.0398
 3586SOL    HW222218   0.734   0.182   7.186 -1.7629 -1.7114  1.5622
 3587SOL     OW22219   3.751   3.568  15.600  0.1001 -0.0218  0.0993
 3587SOL    HW122220   3.769   3.513  15.524  0.4779 -0.9741  0.8756
 3587SOL    HW222221   3.770   3.655  15.563  0.7554 -0.4770 -0.6475
 3588SOL     OW22222   4.326   3.394   2.786 -0.2900  0.1701 -0.5190
 3588SOL    HW122223   4.349   3.462   2.849 -0.5448  1.3854 -1.7264
 3588SOL    HW222224   4.248   3.435   2.748 -1.1782  0.2478  1.3852
 3589SOL     OW22225   3.415   4.392   2.488  0.0049 -0.3761  0.3323
 3589SOL    HW122226   3.339   4.431   2.443  1.2653 -0.2662 -1.6949
 3589SOL    HW222227   3.476   4.358   2.422 -0.3098 -1.0699  0.3998
 3590SOL     OW22228   1.198   0.418   1.403 -0.4883  0.0026  0.4524
 3590SOL    HW122229   1.250   0.452   1.476 -0.2654 -1.4729  0.9804
 3590SOL    HW222230   1.256   0.434   1.329  2.1562  1.6640  2.8536
 3591SOL     OW22231   1.970   1.119   5.815 -0.5866 -0.1947  0.1389
 3591SOL    HW122232   2.008   1.204   5.794 -2.8355  0.4540 -1.3901
 3591SOL    HW222233   1.928   1.140   5.899  0.5017  2.1261  0.1128
 3592SOL     OW22234   1.709   2.194   4.274  0.4558  0.3648  1.0862
 3592SOL    HW122235   1.765   2.228   4.205  0.5574 -2.2106 -0.0790
 3592SOL    HW222236   1.640   2.260   4.273 -1.4339 -1.6253  0.1677
 3593SOL     OW22237   1.322   2.845  11.540 -0.5799  0.2720 -0.0593
 3593SOL    HW122238   1.345   2.933  11.512  1.8554 -0.2513  0.2909
 3593SOL    HW222239   1.411   2.812  11.553 -0.2166  0.7647 -1.2525
 3594SOL     OW22240   0.474   4.028   7.442  0.2958  0.5466  0.0671
 3594SOL    HW122241   0.400   3.968   7.437  0.8388 -0.0777 -0.4994
 3594SOL    HW222242   0.523   4.015   7.360  0.1604  1.3644 -0.1446
 3595SOL     OW22243   3.474   3.326  15.645 -0.5180  0.4062  0.1329
 3595SOL    HW122244   3.479   3.376  15.564 -2.1722 -0.7210 -0.6723
 3595SOL    HW222245   3.564   3.302  15.667 -0.1413  1.7054 -0.0408
 3596SOL     OW22246   0.880   0.805   3.799 -0.5265 -0.3695 -0.1904
 3596SOL    HW122247   0.798   0.800   3.848 -1.0798  2.5201 -0.8258
 3596SOL    HW222248   0.865   0.881   3.741  0.6126 -1.2371 -1.6392
 3597SOL     OW22249   4.385   4.249   3.064  0.4131 -0.6671  0.5052
 3597SOL    HW122250   4.334   4.172   3.089 -0.1574  0.1533  1.8814
 3597SOL    HW222251   4.367   4.270   2.972 -0.4280 -0.6920  0.6632
 3598SOL     OW22252   3.075   0.133   2.999  0.1907  0.0014  0.2087
 3598SOL    HW122253   3.045   0.095   3.082  1.6336 -1.2316  0.1711
 3598SOL    HW222254   2.995   0.171   2.964  1.5876  1.0305 -1.8773
 3599SOL     OW22255   1.660   0.301   4.124 -0.2508 -0.3984  0.8338
 3599SOL    HW122256   1.705   0.376   4.163 -0.4443 -0.3835  1.0267
 3599SOL    HW222257   1.713   0.286   4.046 -0.6532  2.2462  0.0595
 3600SOL     OW22258   1.171   1.481   9.493 -0.3918  0.2861 -0.0069
 3600SOL    HW122259   1.178   1.452   9.402  0.4981 -3.2153  1.1695
 3600SOL    HW222260   1.254   1.444   9.522 -1.4913 -0.2134  2.5069
 3601SOL     OW22261   4.266   2.946   4.428 -0.5606  0.1796  0.0594
 3601SOL    HW122262   4.291   2.873   4.484  0.6759 -0.1616 -0.9422
 3601SOL    HW222263   4.296   2.902   4.348  0.6671  0.1714  0.5201
 3602SOL     OW22264   4.320   0.184   8.112  0.1202  0.4873  0.2350
 3602SOL    HW122265   4.299   0.148   8.026 -0.9585 -1.2711  1.2178
 3602SOL    HW222266   4.399   0.235   8.096  1.0541 -1.4932 -1.5068
 3603SOL     OW22267   1.526   3.295   3.349  0.1289 -0.7147 -0.0236
 3603SOL    HW122268   1.594   3.229   3.337  1.1124  0.5569 -1.4428
 3603SOL    HW222269   1.520   3.323   3.258  0.5208 -0.4276  0.0401
 3604SOL     OW22270   0.677   1.168   9.567  0.1513  0.5871 -0.0305
 3604SOL    HW122271   0.665   1.109   9.641  2.3504 -1.3002 -1.1611
 3604SOL    HW222272   0.747   1.125   9.517  0.4966 -0.7416  1.6043
 3605SOL     OW22273   1.367   3.460   9.191  0.2366 -0.1670 -0.2129
 3605SOL    HW122274   1.398   3.459   9.282 -1.4783 -0.7721  0.3646
 3605SOL    HW222275   1.277   3.429   9.199  0.7893 -1.5909  0.6453
 3606SOL     OW22276   0.833   3.078   8.824  0.2378 -0.1538 -1.0327
 3606SOL    HW122277   0.925   3.077   8.798  0.5088 -0.1067 -0.0764
 3606SOL    HW222278   0.798   3.137   8.756 -0.0211  0.3755 -0.4402
 3607SOL     OW22279   0.925   4.445   3.650  0.5128  0.2852 -0.2359
 3607SOL    HW122280   0.924   4.446   3.745 -0.3172 -0.6117 -0.2402
 3607SOL    HW222281   0.840   4.476   3.620 -0.7519 -0.1453  2.9546
 3608SOL     OW22282   4.404   2.670  15.464  0.2365 -0.0937  0.4197
 3608SOL    HW122283   4.464   2.611  15.509  1.6150  0.5019 -0.6718
 3608SOL    HW222284   4.459   2.743  15.436  1.1692 -1.1254 -0.4360
 3609SOL     OW22285   1.015   2.753   9.280  0.4414  0.3216 -0.6541
 3609SOL    HW122286   1.014   2.664   9.316 -0.9174 -0.1549 -1.8726
 3609SOL    HW222287   0.950   2.790   9.340  0.1476 -1.0042 -0.1553
 3610SOL     OW22288   0.410   0.775   3.349 -0.2248 -0.1257 -0.0866
 3610SOL    HW122289   0.377   0.857   3.387  2.6464  0.7470  0.5354
 3610SOL    HW222290   0.458   0.799   3.270  0.4713 -0.1039  0.3465
 3611SOL     OW22291   0.674   2.826   4.071 -0.2354  0.8000 -0.4392
 3611SOL    HW122292   0.747   2.882   4.044  1.7736  0.2929  3.8200
 3611SOL    HW222293   0.720   2.742   4.067 -1.2285  0.2381  0.0627
 3612SOL     OW22294   0.460   3.460  10.030 -0.2268  0.0009  0.5287
 3612SOL    HW122295   0.438   3.531  10.090  0.0213 -1.1576  1.9734
 3612SOL    HW222296   0.545   3.427  10.060  0.0041  1.4479  1.4417
 3613SOL     OW22297   4.045   3.818  15.024 -0.5930  0.1290 -0.3008
 3613SOL    HW122298   4.090   3.886  15.075 -1.9138  0.2364  0.7166
 3613SOL    HW222299   4.093   3.816  14.941 -0.6078  0.4025 -0.3176
 3614SOL     OW22300   2.393   0.306   3.260 -0.2180 -0.1049 -0.3944
 3614SOL    HW122301   2.320   0.248   3.284  2.4086 -3.2917 -0.0014
 3614SOL    HW222302   2.454   0.252   3.210  0.6660  0.4110  0.1358
 3615SOL     OW22303   2.403   4.714  10.466  0.0537 -0.6905  0.2385
 3615SOL    HW122304   2.483   4.722  10.413 -0.9471  2.7181 -0.7270
 3615SOL    HW222305   2.427   0.052  10.533  0.7753 -0.1321 -0.5425
 3616SOL     OW22306   3.983   3.867   3.152  0.2433 -0.2585 -0.3405
 3616SOL    HW122307   3.965   3.781   3.192 -1.2341  0.4474  0.4876
 3616SOL    HW222308   3.942   3.853   3.067  0.1580 -2.7813  0.0939
 3617SOL     OW22309   0.125   1.419   4.608 -0.7691 -0.0950  0.4078
 3617SOL    HW122310   0.220   1.416   4.620 -0.3976  1.0844 -2.1563
 3617SOL    HW222311   0.122   1.438   4.514 -0.4421 -0.0746  0.3996
 3618SOL     OW22312   4.395   0.876  10.112 -0.1285 -0.2660 -0.2958
 3618SOL    HW122313   4.431   0.845  10.029  0.9370 -1.1097  0.4868
 3618SOL    HW222314   4.305   0.847  10.097  0.1880 -1.3886 -0.0028
 3619SOL     OW22315   3.634   2.452   7.948 -0.5803 -0.1748  0.1420
 3619SOL    HW122316   3.595   2.485   8.029 -1.8135  0.0021 -0.5212
 3619SOL    HW222317   3.710   2.510   7.947 -0.7022 -0.0535 -2.0903
 3620SOL     OW22318   0.444   2.065   0.701  0.5454 -0.2647 -0.4758
 3620SOL    HW122319   0.371   2.064   0.639  1.2461  1.2119 -1.3059
 3620SOL    HW222320   0.499   2.135   0.666  0.2433 -0.8837 -2.1843
 3621SOL     OW22321   0.589   1.859   6.302 -0.3721 -1.0011  0.5263
 3621SOL    HW122322   0.568   1.948   6.273 -1.9556 -1.2386  0.9183
 3621SOL    HW222323   0.681   1.863   6.278 -0.8836 -0.3278 -1.3458
 3622SOL     OW22324   4.118   3.721   7.477  0.4253 -0.0036 -0.2174
 3622SOL    HW122325   4.026   3.714   7.504  0.9796  1.0729  1.9660
 3622SOL    HW222326   4.129   3.662   7.403  2.2342 -1.3772  1.1806
 3623SOL     OW22327   4.239   1.555   2.755  0.2752  0.4646 -0.0645
 3623SOL    HW122328   4.197   1.529   2.837  0.9630 -0.0408  0.1332
 3623SOL    HW222329   4.222   1.479   2.699  0.5286 -0.5798  1.2665
 3624SOL     OW22330   1.070   0.829  17.604  0.3473 -0.5894  0.2284
 3624SOL    HW122331   1.102   0.820  17.694  0.8377 -1.5148 -0.0437
 3624SOL    HW222332   1.066   0.924  17.600 -0.5713 -0.7210 -1.9638
 3625SOL     OW22333   0.067   4.322   2.375  0.3654  0.3450 -0.1487
 3625SOL    HW122334   4.714   4.301   2.426  0.5160  2.9319  1.1139
 3625SOL    HW222335   0.043   4.408   2.342  0.0575  0.6425  0.8485
 3626SOL     OW22336   2.113   0.220   3.849 -0.2070  0.3744 -0.2635
 3626SOL    HW122337   2.202   0.186   3.841  0.0367  1.1623 -0.9445
 3626SOL    HW222338   2.126   0.281   3.921 -0.6138  0.7011 -0.4641
 3627SOL     OW22339   3.644   1.742   2.712  0.1996  0.1950  0.4341
 3627SOL    HW122340   3.633   1.837   2.707 -1.5952  0.0436  1.5771
 3627SOL    HW222341   3.587   1.719   2.786 -0.9242  0.5979 -0.3097
 3628SOL     OW22342   3.056   0.914   7.178  0.1675  0.6027 -0.1512
 3628SOL    HW122343   3.026   0.934   7.089  0.7288 -0.2782 -0.5348
 3628SOL    HW222344   3.055   1.001   7.218 -0.9587 -0.6223  2.4919
 3629SOL     OW22345   0.719   2.095   6.398 -0.2712 -0.1264 -0.3254
 3629SOL    HW122346   0.632   2.120   6.368 -0.1611 -1.1791 -1.5000
 3629SOL    HW222347   0.705   2.077   6.491  0.1221 -0.9125 -0.4137
 3630SOL     OW22348   0.862   0.837   8.916 -0.6883  0.4534  0.1093
 3630SOL    HW122349   0.904   0.788   8.844 -3.3312 -1.7028  0.0334
 3630SOL    HW222350   0.820   0.761   8.957  2.9917 -0.6877  1.7773
 3631SOL     OW22351   1.987   4.432   7.884 -0.4763  0.3426  0.0536
 3631SOL    HW122352   2.041   4.403   7.810 -0.4279  2.8763 -0.8764
 3631SOL    HW222353   1.917   4.371   7.862 -0.5039 -0.1125  1.4079
 3632SOL     OW22354   3.331   0.006   3.464 -0.3359 -0.5053 -0.2770
 3632SOL    HW122355   3.422   0.023   3.490 -1.1883  0.9394  1.7468
 3632SOL    HW222356   3.335   0.041   3.374  0.9158 -0.3824 -0.1813
 3633SOL     OW22357   2.422   4.390   9.772 -0.0651  0.0547  0.1139
 3633SOL    HW122358   2.329   4.367   9.774  0.0096 -0.4758 -2.4640
 3633SOL    HW222359   2.413   4.467   9.829 -1.5338  0.4358 -0.6386
 3634SOL     OW22360   0.952   1.992   4.904 -0.4344  0.2482  0.7126
 3634SOL    HW122361   0.892   1.972   4.832  2.3281 -0.1203 -1.5085
 3634SOL    HW222362   0.891   2.034   4.964  0.0351  0.8225  0.7951
 3635SOL     OW22363   4.215   1.002  15.732 -0.2219 -0.2835  0.0445
 3635SOL    HW122364   4.281   1.071  15.723 -1.7029  1.5224  2.8940
 3635SOL    HW222365   4.138   1.059  15.729  0.2727  0.3842  0.0888
 3636SOL     OW22366   1.998   4.148  10.963 -0.1385 -0.3936  0.1788
 3636SOL    HW122367   1.930   4.213  10.943  0.1330  0.2053  1.2328
 3636SOL    HW222368   1.967   4.131  11.052  0.8355 -1.0829  0.3840
 3637SOL     OW22369   3.044   3.436   7.035  0.0832  0.6056 -0.1212
 3637SOL    HW122370   2.965   3.490   7.036 -2.0074 -2.4075 -1.8811
 3637SOL    HW222371   3.112   3.496   7.004  1.1392  0.1475  1.2942
 3638SOL     OW22372   3.270   3.410  16.831  0.2679 -0.1645 -0.4174
 3638SOL    HW122373   3.353   3.373  16.798 -1.5747 -1.8281 -3.1767
 3638SOL    HW222374   3.290   3.432  16.922 -0.2333  1.8129 -0.7898
 3639SOL     OW22375   4.386   2.389  13.472  0.2943 -0.3738 -0.1615
 3639SOL    HW122376   4.385   2.296  13.491  0.7110 -0.1912  0.7632
 3639SOL    HW222377   4.329   2.390  13.396 -1.8843 -0.7563  1.4796
 3640SOL     OW22378   0.752   4.194   2.001  0.4596 -0.5865  0.3467
 3640SOL    HW122379   0.777   4.106   2.029  1.5632 -0.6654 -0.9057
 3640SOL    HW222380   0.816   4.253   2.040  2.3121 -1.5292 -1.2627
 3641SOL     OW22381   1.712   0.910   5.812 -0.4591  0.0326  0.0785
 3641SOL    HW122382   1.738   0.865   5.892  1.6674  2.2845  0.6654
 3641SOL    HW222383   1.742   0.998   5.834 -0.3698 -0.1302  0.6052
 3642SOL     OW22384   4.452   2.003   5.257 -0.0085 -0.0187 -0.1616
 3642SOL    HW122385   4.462   2.094   5.283 -2.0980  0.2423 -0.2357
 3642SOL    HW222386   4.359   1.984   5.241  0.2398 -1.5094  0.1182
 3643SOL     OW22387   0.363   0.637   0.106 -0.0023 -0.4483  0.1523
 3643SOL    HW122388   0.364   0.584   0.027 -2.7058 -1.1999  0.6347
 3643SOL    HW222389   0.446   0.678   0.083  1.2923 -2.5441  1.0670
 3644SOL     OW22390   1.622   1.422   1.835 -0.6835 -0.0173 -0.5391
 3644SOL    HW122391   1.715   1.414   1.814 -0.9130 -2.3353 -0.7101
 3644SOL    HW222392   1.611   1.517   1.837  0.4102  0.0898  0.5704
 3645SOL     OW22393   2.844   0.305   5.279 -0.0310 -0.2620 -0.8944
 3645SOL    HW122394   2.833   0.400   5.279 -0.0876 -0.2648 -0.3426
 3645SOL    HW222395   2.755   0.269   5.277 -0.8302  1.4953  1.2271
 3646SOL     OW22396   4.089   4.508   5.082 -0.2944  0.3093  0.6386
 3646SOL    HW122397   4.040   4.429   5.058 -0.2927 -0.2001  2.2695
 3646SOL    HW222398   4.043   4.555   5.152 -1.7954 -0.7788  0.3856
 3647SOL     OW22399   3.479   4.290  17.483  0.3180  0.0716  0.2941
 3647SOL    HW122400   3.549   4.259  17.425  0.2782  1.3709 -0.4340
 3647SOL    HW222401   3.538   4.346  17.532  1.5811  0.2271 -1.4138
 3648SOL     OW22402   1.096   1.936   4.481 -0.3438 -0.3995 -0.6572
 3648SOL    HW122403   1.172   1.949   4.424 -0.6956  2.0989 -0.5815
 3648SOL    HW222404   1.123   1.958   4.570 -2.5986  1.1744 -0.3698
 3649SOL     OW22405   3.687   1.450   2.586 -0.4149 -0.0482  0.7431
 3649SOL    HW122406   3.604   1.432   2.542  1.1598  0.6383 -2.5025
 3649SOL    HW222407   3.725   1.524   2.540 -1.0695  0.5914  1.2201
 3650SOL     OW22408   3.781   2.847  15.273  0.1525 -0.9592  0.3109
 3650SOL    HW122409   3.869   2.886  15.266 -0.0340 -0.9854 -1.9846
 3650SOL    HW222410   3.769   2.813  15.185 -0.2679  0.0194 -0.0066
 3651SOL     OW22411   4.182   0.637   6.639 -0.3242  0.0180 -0.7651
 3651SOL    HW122412   4.105   0.592   6.674  0.1647 -0.3913 -0.2282
 3651SOL    HW222413   4.177   0.717   6.692  3.3046 -1.4449  1.7902
 3652SOL     OW22414   1.341   1.075   5.867 -0.2333 -0.2426 -0.4522
 3652SOL    HW122415   1.354   1.137   5.795 -0.8449 -0.9001 -1.1167
 3652SOL    HW222416   1.384   0.994   5.839 -0.2529 -0.2678 -0.4085
 3653SOL     OW22417   2.398   4.547   9.198  0.0250  0.3406 -0.1538
 3653SOL    HW122418   2.305   4.566   9.194  0.0363  0.5706  0.6582
 3653SOL    HW222419   2.434   4.622   9.246 -1.1150 -0.3056  1.6868
 3654SOL     OW22420   3.139   0.343   3.341  0.4499 -0.3628  0.2348
 3654SOL    HW122421   3.175   0.431   3.345 -1.1323  0.2861  0.2445
 3654SOL    HW222422   3.058   0.343   3.291 -0.5401 -2.1523  1.7879
 3655SOL     OW22423   4.155   3.804   2.854 -0.5876 -0.1167 -0.0825
 3655SOL    HW122424   4.173   3.816   2.760 -0.5930 -1.0778 -0.2040
 3655SOL    HW222425   4.061   3.815   2.865 -0.1114  1.6967  2.0967
 3656SOL     OW22426   0.809   2.256   5.474  0.2444  1.0463 -0.4360
 3656SOL    HW122427   0.802   2.287   5.384 -0.6851  0.4154 -0.5773
 3656SOL    HW222428   0.791   2.162   5.471  2.0225  0.7148 -0.6807
 3657SOL     OW22429   0.354   1.827   7.785 -0.1153 -0.0296 -0.0107
 3657SOL    HW122430   0.407   1.818   7.864 -0.3762 -0.3986  0.1256
 3657SOL    HW222431   0.424   1.859   7.729  0.4755  0.1618  0.8366
 3658SOL     OW22432   1.043   3.054   1.978  0.4010 -0.0451 -0.2427
 3658SOL    HW122433   0.999   2.993   1.919  1.7151 -1.1064 -0.1323
 3658SOL    HW222434   1.112   3.084   1.919  0.3226  0.0811 -0.2690
 3659SOL     OW22435   4.362   0.583   5.996  0.8060  0.0736  0.4089
 3659SOL    HW122436   4.416   0.652   6.034  0.4861 -0.9000  2.6150
 3659SOL    HW222437   4.315   0.550   6.072  1.7276 -0.5922  0.6937
 3660SOL     OW22438   1.734   0.528   7.899 -0.2809 -0.6238  0.4581
 3660SOL    HW122439   1.748   0.556   7.809  0.3148  0.4611  0.8924
 3660SOL    HW222440   1.796   0.456   7.907  1.4316  0.8322  0.2075
 3661SOL     OW22441   4.636   0.198   8.340 -0.4364 -0.1491 -0.3913
 3661SOL    HW122442   4.567   0.215   8.405  0.2025 -1.4800  0.6268
 3661SOL    HW222443   4.592   0.219   8.258 -2.1463 -1.7839  0.0987
 3662SOL     OW22444   0.698   4.647   2.929 -0.0364 -0.3631 -0.1228
 3662SOL    HW122445   0.615   4.688   2.953  0.2237  0.1572 -0.0945
 3662SOL    HW222446   0.749   4.679   3.004  0.4700  2.3723 -1.6003
 3663SOL     OW22447   0.705   2.949  12.685  0.2899 -0.1906 -0.1978
 3663SOL    HW122448   0.799   2.945  12.699  0.1307 -4.1662 -0.2976
 3663SOL    HW222449   0.710   2.946  12.589  2.4544  0.2455 -0.0770
 3664SOL     OW22450   1.714   0.790  13.419 -0.0271  0.0047 -0.2154
 3664SOL    HW122451   1.619   0.780  13.408 -0.3565  2.3386  0.3969
 3664SOL    HW222452   1.735   0.837  13.338  1.8385 -1.2951 -0.4832
 3665SOL     OW22453   2.706   1.065   2.270 -0.0094  1.1658 -0.0924
 3665SOL    HW122454   2.740   1.068   2.180  0.9952 -0.0485  0.2397
 3665SOL    HW222455   2.614   1.044   2.258  0.2149 -0.2004  0.5216
 3666SOL     OW22456   2.686   2.020   1.983  0.2181 -0.3382 -0.3158
 3666SOL    HW122457   2.768   2.053   1.946  1.3330 -3.4839 -0.6156
 3666SOL    HW222458   2.624   2.085   1.950  0.0344 -0.6226 -0.5259
 3667SOL     OW22459   0.637   2.046   1.474 -0.2085  0.0376 -0.2487
 3667SOL    HW122460   0.581   2.090   1.410  0.9334  0.5980 -0.8583
 3667SOL    HW222461   0.615   2.092   1.555 -0.0914 -1.3942  0.5951
 3668SOL     OW22462   0.602   1.695   9.037  0.4926 -0.2623  0.2148
 3668SOL    HW122463   0.623   1.787   9.018 -0.6164 -0.1842 -0.6779
 3668SOL    HW222464   0.613   1.655   8.951  0.7791 -1.6120  0.8813
 3669SOL     OW22465   4.461   3.671  11.171 -0.7244  0.1363  0.0675
 3669SOL    HW122466   4.543   3.721  11.174 -0.1241 -0.6774 -2.6886
 3669SOL    HW222467   4.425   3.682  11.259 -2.7481 -0.8176 -0.6651
 3670SOL     OW22468   4.397   3.931   4.819  0.3041 -0.2217  0.2451
 3670SOL    HW122469   4.431   3.842   4.815 -0.5357 -0.4886 -1.0690
 3670SOL    HW222470   4.440   3.967   4.741  1.9344 -0.6892  0.9349
 3671SOL     OW22471   0.823   1.298   8.657 -0.2870 -0.3908 -0.1928
 3671SOL    HW122472   0.731   1.273   8.668 -0.2492 -0.2830  0.3558
 3671SOL    HW222473   0.845   1.345   8.737 -1.1076  1.2687 -0.9463
 3672SOL     OW22474   3.921   3.654  15.225 -0.3814  0.5901  0.0542
 3672SOL    HW122475   3.966   3.717  15.169  3.0252 -1.5121  0.3981
 3672SOL    HW222476   3.986   3.649  15.294 -0.7097  0.3011  0.3411
 3673SOL     OW22477   1.667   3.092   1.688  0.1520 -0.5657 -0.5296
 3673SOL    HW122478   1.746   3.145   1.699 -1.0667  1.2276 -0.4365
 3673SOL    HW222479   1.652   3.104   1.594  0.1314 -1.3123 -0.6183
 3674SOL     OW22480   2.683   3.539  15.611 -0.4320 -0.6764  0.2236
 3674SOL    HW122481   2.718   3.625  15.633 -3.0581  0.3013  0.5376
 3674SOL    HW222482   2.686   3.540  15.516 -0.3037 -0.9474  0.2239
 3675SOL     OW22483   3.508   3.955  17.606 -0.3154 -0.0433 -0.1112
 3675SOL    HW122484   3.519   4.039  17.651  2.1872  0.0101 -0.8216
 3675SOL    HW222485   3.594   3.914  17.610 -0.3928 -0.2016 -0.0694
 3676SOL     OW22486   3.691   1.262  16.121  0.0434  0.0396 -0.4885
 3676SOL    HW122487   3.651   1.250  16.035 -0.1807  0.7649 -0.4858
 3676SOL    HW222488   3.655   1.348  16.141 -0.2468 -0.5404  1.4728
 3677SOL     OW22489   3.123   0.346   2.161  0.5436  0.0182  0.3008
 3677SOL    HW122490   3.215   0.332   2.182 -0.0450 -0.1343  2.7456
 3677SOL    HW222491   3.080   0.297   2.230  2.4343 -1.3717  0.4956
 3678SOL     OW22492   4.142   0.035  16.402  0.3860  0.0065  0.3164
 3678SOL    HW122493   4.166   0.105  16.341  0.3341 -0.1797  0.0826
 3678SOL    HW222494   4.189   0.057  16.482  1.0298 -0.3228  0.0251
 3679SOL     OW22495   2.927   4.553   7.091 -0.1377  0.3623 -0.5204
 3679SOL    HW122496   2.984   4.568   7.166 -0.7710  0.7421 -0.1096
 3679SOL    HW222497   2.920   4.457   7.087  0.5758  0.1596  3.4000
 3680SOL     OW22498   4.177   4.105   2.517 -0.0250 -0.0688 -0.1288
 3680SOL    HW122499   4.199   4.179   2.461  1.7033  0.3817  1.1558
 3680SOL    HW222500   4.123   4.155   2.578 -1.1492 -0.5199 -0.7460
 3681SOL     OW22501   4.122   3.575   4.111 -0.8341  0.4229  0.2270
 3681SOL    HW122502   4.104   3.499   4.167  0.4916 -0.6835 -0.8714
 3681SOL    HW222503   4.086   3.648   4.162 -2.1670  0.1255 -0.2944
 3682SOL     OW22504   3.193   0.822   6.890 -0.0638 -0.3458  0.4479
 3682SOL    HW122505   3.196   0.854   6.800  0.3395 -0.4096  0.4352
 3682SOL    HW222506   3.241   0.740   6.876  0.6532  0.1435  0.0634
 3683SOL     OW22507   4.001   3.808   4.328  0.8494 -0.2096 -0.5782
 3683SOL    HW122508   3.912   3.799   4.363  1.4449 -1.7922  0.5437
 3683SOL    HW222509   4.047   3.853   4.398 -0.6797  0.1899  0.1881
 3684SOL     OW22510   2.196   3.300   8.906 -0.1662  0.2394  0.3732
 3684SOL    HW122511   2.207   3.376   8.963  1.2852  0.6013 -0.3912
 3684SOL    HW222512   2.105   3.316   8.878  0.5824  1.5067 -1.3211
 3685SOL     OW22513   1.565   1.055   6.803  0.4563  0.3139 -0.6590
 3685SOL    HW122514   1.498   0.988   6.798 -1.7084  2.4181  0.1347
 3685SOL    HW222515   1.606   1.035   6.888 -0.7865 -0.5304 -0.2695
 3686SOL     OW22516   0.918   0.575  13.793  0.4668  0.0768  0.2846
 3686SOL    HW122517   0.985   0.633  13.758  1.3607 -0.5528  0.9628
 3686SOL    HW222518   0.846   0.586  13.731  0.7326  1.8828  0.3038
 3687SOL     OW22519   1.882   4.360   2.169  0.4624  0.5200  0.0622
 3687SOL    HW122520   1.797   4.359   2.212 -0.1301 -0.4735 -1.1154
 3687SOL    HW222521   1.853   4.361   2.077  2.6170  1.7031 -0.6056
 3688SOL     OW22522   0.820   3.109   8.446 -0.0811 -0.4714 -0.0599
 3688SOL    HW122523   0.764   3.031   8.455 -1.0513  0.2649  0.3430
 3688SOL    HW222524   0.776   3.178   8.497 -0.6091  0.5600 -1.9262
 3689SOL     OW22525   1.744   1.929   9.464 -0.3629 -0.0316 -0.5237
 3689SOL    HW122526   1.662   1.975   9.481  1.3964  3.2450 -0.7792
 3689SOL    HW222527   1.748   1.864   9.534  0.4125  2.3183  1.5857
 3690SOL     OW22528   0.394   1.002   5.035  0.2085  0.2617  0.2105
 3690SOL    HW122529   0.384   1.082   4.983  0.2849 -1.8882 -3.0860
 3690SOL    HW222530   0.327   0.952   4.988  1.9349 -1.3812 -0.5124
 3691SOL     OW22531   0.237   0.498  13.694  0.3697 -0.1403  0.6411
 3691SOL    HW122532   0.313   0.516  13.749  1.4978  0.3493 -1.0795
 3691SOL    HW222533   0.181   0.437  13.743 -1.1840 -0.3097 -1.3296
 3692SOL     OW22534   0.296   1.897   0.197  0.1190 -0.3856  0.7381
 3692SOL    HW122535   0.225   1.836   0.176  0.9081 -0.7535 -0.8719
 3692SOL    HW222536   0.268   1.984   0.167 -1.1185 -0.5678  1.3609
 3693SOL     OW22537   0.864   1.009  16.223  0.6966 -0.0657  0.5585
 3693SOL    HW122538   0.910   0.962  16.293 -1.4546  0.2719  2.2080
 3693SOL    HW222539   0.822   0.933  16.182  0.1928  0.5168 -0.0039
 3694SOL     OW22540   1.537   0.255  14.271  0.4383  0.0657 -0.0446
 3694SOL    HW122541   1.584   0.338  14.273 -1.1514  0.9589 -0.2519
 3694SOL    HW222542   1.498   0.255  14.358 -0.2727 -0.0904 -0.3585
 3695SOL     OW22543   1.188   2.508  13.167  0.3890 -0.2696  0.5095
 3695SOL    HW122544   1.281   2.508  13.189  0.6084  0.0534 -0.4175
 3695SOL    HW222545   1.150   2.445  13.229 -0.4413 -0.7523 -0.4973
 3696SOL     OW22546   2.026   0.584  14.256  0.5614  0.9276  0.4564
 3696SOL    HW122547   2.021   0.672  14.218 -0.2661 -0.1905 -1.9782
 3696SOL    HW222548   1.980   0.595  14.340 -1.6841  1.0157 -0.7748
 3697SOL     OW22549   0.662   1.680   4.719 -0.2131 -0.7392 -0.4675
 3697SOL    HW122550   0.627   1.679   4.809 -0.8639  1.9999 -0.6750
 3697SOL    HW222551   0.686   1.772   4.708  0.0639 -0.6007  1.3164
 3698SOL     OW22552   1.690   1.609  11.404  0.7165  0.2084  0.0349
 3698SOL    HW122553   1.598   1.594  11.382  1.0526  1.2224 -2.0736
 3698SOL    HW222554   1.703   1.527  11.451  0.2396  0.5077  0.6803
 3699SOL     OW22555   3.687   4.338  10.179 -0.4044 -0.2479 -0.3762
 3699SOL    HW122556   3.704   4.331  10.085  2.3600  1.3206  0.0058
 3699SOL    HW222557   3.730   4.420  10.204 -0.4436 -0.7124  1.1578
 3700SOL     OW22558   4.129   4.314   4.092 -0.2549  0.0138  0.1052
 3700SOL    HW122559   4.051   4.348   4.136 -0.0060  0.5319  0.1405
 3700SOL    HW222560   4.152   4.393   4.044  0.2900 -0.3092 -0.1554
 3701SOL     OW22561   0.305   0.514   0.543 -0.5599  0.4081  0.3524
 3701SOL    HW122562   0.304   0.486   0.634 -1.6989 -1.3634 -0.2061
 3701SOL    HW222563   0.362   0.447   0.506 -0.2597 -0.1989  1.9162
 3702SOL     OW22564   4.190   0.314   4.562 -0.0964 -0.0296 -0.5304
 3702SOL    HW122565   4.217   0.266   4.640  0.5321  0.0237 -0.7135
 3702SOL    HW222566   4.101   0.341   4.583  0.7310  1.2968  1.2998
 3703SOL     OW22567   0.196   0.938   5.663  0.2763  0.2285  0.4694
 3703SOL    HW122568   0.249   1.002   5.617 -0.1445 -1.6966 -2.6805
 3703SOL    HW222569   0.118   0.926   5.609  0.5757 -1.5905  0.4457
 3704SOL     OW22570   1.786   4.626   5.207  0.7176  0.4157 -0.3896
 3704SOL    HW122571   1.835   4.660   5.131 -0.8333  1.6284 -0.8545
 3704SOL    HW222572   1.850   4.625   5.278  1.1531 -1.3220 -0.8212
 3705SOL     OW22573   2.192   0.679  17.331  0.0217  0.5745  0.6369
 3705SOL    HW122574   2.158   0.596  17.364 -0.2360  0.8911  1.1635
 3705SOL    HW222575   2.193   0.643  17.243 -1.2642  0.7442  0.5545
 3706SOL     OW22576   4.389   1.156   5.802  0.1190 -0.2367  0.1706
 3706SOL    HW122577   4.474   1.198   5.817 -1.4358  1.8196  3.0533
 3706SOL    HW222578   4.352   1.125   5.884  0.7894 -2.2903 -0.3151
 3707SOL     OW22579   0.662   3.009   6.714 -0.0831 -1.1941 -0.2483
 3707SOL    HW122580   0.701   3.017   6.627  2.4561 -1.8125  0.8326
 3707SOL    HW222581   0.708   3.083   6.755 -1.2559  0.0351 -1.1542
 3708SOL     OW22582   4.123   2.107   9.322  0.0262  0.1220  0.0027
 3708SOL    HW122583   4.119   2.161   9.401  1.2767  1.6932 -1.0173
 3708SOL    HW222584   4.035   2.105   9.285  0.4187 -1.5270 -0.8436
 3709SOL     OW22585   1.554   1.953   5.554  0.3597 -0.0438  0.5181
 3709SOL    HW122586   1.494   1.886   5.521 -0.0850  1.0875 -0.9800
 3709SOL    HW222587   1.498   2.031   5.557  0.3169  0.0245 -1.9320
 3710SOL     OW22588   0.839   1.958   4.405 -0.2966  0.2992 -0.5123
 3710SOL    HW122589   0.862   1.937   4.315  0.5813 -3.3990  0.5430
 3710SOL    HW222590   0.927   1.971   4.441 -0.3900 -0.4970  0.0187
 3711SOL     OW22591   4.285   2.900   1.896  0.5505 -0.1703  0.2377
 3711SOL    HW122592   4.352   2.929   1.834 -1.1041  2.4660 -0.3169
 3711SOL    HW222593   4.268   2.812   1.862 -0.4470  0.5534 -1.1049
 3712SOL     OW22594   1.013   0.133   7.436 -0.1711  0.4517 -0.8139
 3712SOL    HW122595   0.963   0.170   7.364 -0.1142  1.7953 -0.1558
 3712SOL    HW222596   1.075   0.078   7.387  0.5788 -1.5601  2.4057
 3713SOL     OW22597   3.582   4.188   5.257  0.3620  0.2300  0.1102
 3713SOL    HW122598   3.497   4.232   5.263  0.4934 -0.0437  3.5646
 3713SOL    HW222599   3.553   4.099   5.276 -0.5525  0.8115  1.4588
 3714SOL     OW22600   2.163   2.646  11.603 -0.5140  0.1792  0.4641
 3714SOL    HW122601   2.122   2.570  11.645 -1.3298 -0.9252 -2.3108
 3714SOL    HW222602   2.198   2.600  11.527 -0.0788  0.0611  0.7389
 3715SOL     OW22603   1.296   0.357   3.434  0.1298 -0.4611  0.1978
 3715SOL    HW122604   1.367   0.337   3.373  0.1835  0.2363  0.0303
 3715SOL    HW222605   1.337   0.335   3.518 -0.2851  0.9763  0.7906
 3716SOL     OW22606   1.121   4.402   3.262 -0.0075  0.0659 -0.0615
 3716SOL    HW122607   1.195   4.437   3.213  0.2089 -1.7693 -1.0466
 3716SOL    HW222608   1.123   4.308   3.246 -1.6154  0.1497 -0.7848
 3717SOL     OW22609   3.729   2.545   8.628 -0.5109  0.4200  0.7315
 3717SOL    HW122610   3.816   2.512   8.606 -0.0257  2.0100  0.2391
 3717SOL    HW222611   3.740   2.640   8.639 -0.8474  0.6371 -0.7801
 3718SOL     OW22612   2.128   2.743  10.773 -0.2656 -0.1867  0.4167
 3718SOL    HW122613   2.061   2.716  10.710 -0.1864 -3.1042  1.5516
 3718SOL    HW222614   2.084   2.814  10.818  3.7014  1.7651  1.2217
 3719SOL     OW22615   0.714   4.349   6.101 -0.0626  0.1188 -0.5128
 3719SOL    HW122616   0.799   4.387   6.120  0.1336 -0.7942  0.4414
 3719SOL    HW222617   0.734   4.279   6.038  2.1497 -0.3049  0.6900
 3720SOL     OW22618   4.272   3.989  13.024  0.1236  0.1997 -0.5146
 3720SOL    HW122619   4.313   4.055  13.079 -0.4629  0.8190 -0.8106
 3720SOL    HW222620   4.344   3.932  12.995  1.2771  0.2124  2.3493
 3721SOL     OW22621   2.500   0.087   5.318  0.0563 -0.1321 -0.0023
 3721SOL    HW122622   2.546   0.106   5.237 -0.2123 -1.0805 -0.3787
 3721SOL    HW222623   2.425   0.146   5.308 -0.4300 -1.0873 -1.8579
 3722SOL     OW22624   0.964   0.960   4.811 -0.6915 -0.4067 -0.1349
 3722SOL    HW122625   0.992   1.041   4.767  1.7973 -1.2834 -0.2076
 3722SOL    HW222626   0.902   0.990   4.876 -0.2492 -0.9295  0.5243
 3723SOL     OW22627   1.843   3.467  15.813  0.4696  0.4214 -0.2910
 3723SOL    HW122628   1.883   3.541  15.767 -0.0164  2.3153  2.3243
 3723SOL    HW222629   1.921   3.417  15.839  0.0850 -0.6461 -1.1804
 3724SOL     OW22630   0.340   2.338  11.219  0.4928 -0.6592 -0.1030
 3724SOL    HW122631   0.343   2.309  11.310  2.1896 -0.5742 -0.1315
 3724SOL    HW222632   0.433   2.356  11.211  0.7263 -1.0402  1.6477
 3725SOL     OW22633   2.073   0.362   5.379  0.0946  0.1393 -0.1439
 3725SOL    HW122634   2.008   0.299   5.411 -1.5777  1.8029 -0.3214
 3725SOL    HW222635   2.100   0.405   5.460 -1.1386  1.1506 -0.2707
 3726SOL     OW22636   0.735   4.617  12.330  0.0516  0.0793 -0.2419
 3726SOL    HW122637   0.734   4.549  12.263 -0.0396  0.6254 -0.7895
 3726SOL    HW222638   0.806   4.666  12.288  1.1791 -0.6374  0.8318
 3727SOL     OW22639   2.406   4.506   8.335  0.1598  0.0512 -0.0487
 3727SOL    HW122640   2.474   4.439   8.337 -0.4693 -0.5562  0.7115
 3727SOL    HW222641   2.326   4.463   8.364 -0.4040  1.6321  0.7668
 3728SOL     OW22642   4.644   1.608   0.422 -0.1960 -0.3250  0.4325
 3728SOL    HW122643   4.578   1.677   0.425 -0.1980 -0.4021  2.9109
 3728SOL    HW222644   4.592   1.535   0.454 -1.7809  1.1007  1.1209
 3729SOL     OW22645   1.400   1.207   0.375  0.1147  0.1200 -0.2078
 3729SOL    HW122646   1.375   1.116   0.362 -1.2746  0.5413 -0.5031
 3729SOL    HW222647   1.494   1.192   0.362  0.5906 -0.1290  3.5802
 3730SOL     OW22648   3.914   4.514   3.792  0.0845 -0.2254 -0.0645
 3730SOL    HW122649   3.820   4.535   3.798  0.4305  1.2114  0.3988
 3730SOL    HW222650   3.910   4.420   3.806  1.6416 -0.1619  0.7551
 3731SOL     OW22651   3.123   1.163   7.730  0.1140 -0.4653 -0.1790
 3731SOL    HW122652   3.169   1.081   7.713  0.3094 -0.9137  2.6135
 3731SOL    HW222653   3.101   1.157   7.823 -0.3435 -1.4971 -0.3488
 3732SOL     OW22654   0.083   2.142   0.284 -0.2833  0.7488  0.5072
 3732SOL    HW122655   0.007   2.084   0.290 -0.5817  1.2942  2.1042
 3732SOL    HW222656   0.112   2.134   0.193 -2.6348 -0.1283 -0.1687
 3733SOL     OW22657   1.795   1.220   7.169 -0.3374  0.2469 -0.3228
 3733SOL    HW122658   1.853   1.279   7.122  0.6017  2.3881  3.5088
 3733SOL    HW222659   1.713   1.270   7.161 -0.3013  0.5470  1.0763
 3734SOL     OW22660   2.228   0.078  10.186  0.6751 -0.0517  0.2411
 3734SOL    HW122661   2.276   0.109  10.110 -1.8928  1.6184 -0.6895
 3734SOL    HW222662   2.248   0.148  10.248  2.0190  0.3312 -0.6253
 3735SOL     OW22663   3.678   3.428  11.630  0.1301 -0.2463 -0.7314
 3735SOL    HW122664   3.622   3.491  11.676  1.8446 -0.0985  1.1788
 3735SOL    HW222665   3.721   3.386  11.705  0.0173  0.5087 -0.2498
 3736SOL     OW22666   3.431   2.812   4.709  0.3271  0.2946 -0.5274
 3736SOL    HW122667   3.430   2.840   4.801  1.1384 -0.9307 -0.1509
 3736SOL    HW222668   3.525   2.809   4.690  0.1207 -2.8312 -1.0407
 3737SOL     OW22669   2.388   2.010   2.230  0.2943 -0.1009  0.1564
 3737SOL    HW122670   2.305   2.034   2.189  0.1055  0.9485  1.1560
 3737SOL    HW222671   2.379   1.915   2.234  0.4505 -0.1038  0.4095
 3738SOL     OW22672   1.784   1.079  12.429 -0.3194  0.0001  0.5011
 3738SOL    HW122673   1.737   1.001  12.456 -0.6967  0.3416  0.8355
 3738SOL    HW222674   1.843   1.031  12.371 -0.4942 -1.0272  1.1769
 3739SOL     OW22675   2.538   2.955   4.687 -0.1277 -0.0188 -0.2623
 3739SOL    HW122676   2.514   3.021   4.623  1.6236  1.2019  0.3512
 3739SOL    HW222677   2.466   2.936   4.747  1.3997 -1.5381  1.1257
 3740SOL     OW22678   0.763   4.132   8.217  0.2243  0.2297 -0.0835
 3740SOL    HW122679   0.827   4.186   8.169 -2.0042  1.2138 -1.9190
 3740SOL    HW222680   0.718   4.204   8.261 -2.2643 -1.8145  0.6329
 3741SOL     OW22681   1.432   0.299   4.935  0.4182  0.3047 -0.0227
 3741SOL    HW122682   1.439   0.320   4.842  2.3635  1.2151  0.3441
 3741SOL    HW222683   1.374   0.373   4.953 -0.7800 -1.0948  1.9329
 3742SOL     OW22684   2.310   3.510   9.918 -0.1603  0.1029  0.2097
 3742SOL    HW122685   2.229   3.543   9.958 -0.0327 -1.6011  1.8375
 3742SOL    HW222686   2.372   3.582   9.909  0.5767 -0.4538  0.9163
 3743SOL     OW22687   2.271   1.426   8.567  0.3045  0.1547  0.0154
 3743SOL    HW122688   2.272   1.341   8.523 -0.4681  0.7173 -1.0888
 3743SOL    HW222689   2.343   1.477   8.528 -1.0183  1.3247 -0.9354
 3744SOL     OW22690   3.476   2.033   5.755 -0.3487  0.2408 -0.4133
 3744SOL    HW122691   3.467   2.014   5.849 -0.3316 -0.9197 -0.6484
 3744SOL    HW222692   3.451   1.957   5.703  0.8799  0.4082 -1.2455
 3745SOL     OW22693   0.180   2.741   3.755  0.4422 -0.0326 -0.6172
 3745SOL    HW122694   0.113   2.675   3.772  0.4054 -0.6342 -3.0729
 3745SOL    HW222695   0.258   2.690   3.777  0.5187  0.0140 -0.7795
 3746SOL     OW22696   0.740   2.115   5.080 -0.2720  0.0878  0.2164
 3746SOL    HW122697   0.666   2.176   5.082  0.2944  0.7315  1.3704
 3746SOL    HW222698   0.696   2.035   5.109 -0.3674 -0.3803 -1.2341
 3747SOL     OW22699   3.602   4.660  17.617 -0.0694 -0.3122  0.5102
 3747SOL    HW122700   3.624   4.689   0.004 -1.0482  1.1664  0.2778
 3747SOL    HW222701   3.513   4.629  17.634  0.1791 -0.6350  1.2063
 3748SOL     OW22702   1.907   0.944  13.564 -0.1750  0.8838 -0.3351
 3748SOL    HW122703   1.986   0.889  13.561 -0.7156  0.2578 -3.2967
 3748SOL    HW222704   1.843   0.893  13.515  1.5777  0.0348 -1.7600
 3749SOL     OW22705   3.554   0.281  15.425 -0.4099  0.2109 -0.3723
 3749SOL    HW122706   3.605   0.228  15.364  0.6783 -0.4771  1.1324
 3749SOL    HW222707   3.594   0.253  15.508 -4.7927  1.1646  2.0908
 3750SOL     OW22708   0.386   1.925   3.917 -0.2013 -0.5282  0.8666
 3750SOL    HW122709   0.408   1.835   3.895 -1.0117 -0.2225 -1.1525
 3750SOL    HW222710   0.301   1.915   3.959 -0.7594 -1.3221 -0.4924
 3751SOL     OW22711   1.401   1.409   6.928 -0.1420 -0.2851  0.5117
 3751SOL    HW122712   1.355   1.379   6.849  0.5794 -0.4183  0.1459
 3751SOL    HW222713   1.446   1.488   6.897  0.3052 -0.2369  1.3011
 3752SOL     OW22714   0.881   4.306   6.634 -1.2402  0.3104 -0.2991
 3752SOL    HW122715   0.846   4.359   6.562  0.8765  0.1280 -1.4549
 3752SOL    HW222716   0.973   4.313   6.610 -1.1690  0.5387  0.0390
 3753SOL     OW22717   0.638   2.659  14.586  0.2252 -0.4427  0.1139
 3753SOL    HW122718   0.584   2.580  14.582  0.7884 -0.8587  0.5309
 3753SOL    HW222719   0.699   2.651  14.660  0.4369 -1.1302 -0.1321
 3754SOL     OW22720   3.375   3.343  12.773 -0.2118  0.4001  0.1085
 3754SOL    HW122721   3.292   3.326  12.729  0.8238  0.6287 -1.9394
 3754SOL    HW222722   3.424   3.390  12.705  1.2545  0.7826  1.4177
 3755SOL     OW22723   0.441   3.648   9.599 -0.4075  0.1198  0.1779
 3755SOL    HW122724   0.458   3.725   9.545 -0.4621 -0.6249 -0.8833
 3755SOL    HW222725   0.422   3.587   9.528 -1.8783 -0.7586  1.3121
 3756SOL     OW22726   3.588   3.377   8.156  0.0100 -0.1742 -0.7859
 3756SOL    HW122727   3.642   3.447   8.119 -0.8040  1.3631  0.8732
 3756SOL    HW222728   3.519   3.358   8.093 -0.4701 -0.1580 -0.2692
 3757SOL     OW22729   3.765   0.255   0.120  0.9258 -0.3494 -0.2308
 3757SOL    HW122730   3.787   0.347   0.103  1.3554 -0.6204 -1.1220
 3757SOL    HW222731   3.670   0.268   0.117  0.7890 -1.8446 -2.3960
 3758SOL     OW22732   1.495   4.590   8.823 -0.7984 -0.2759  0.3287
 3758SOL    HW122733   1.484   4.509   8.774  0.3845 -0.3842  0.2303
 3758SOL    HW222734   1.429   4.648   8.786 -1.1669 -1.0448 -0.2085
 3759SOL     OW22735   3.972   1.222  11.887 -0.1077 -0.5381 -0.0808
 3759SOL    HW122736   3.931   1.306  11.868 -1.1953 -0.8149  1.0235
 3759SOL    HW222737   4.055   1.238  11.933 -0.9494 -0.6364  1.4716
 3760SOL     OW22738   2.929   0.735   7.738 -0.7494 -0.8957 -0.0187
 3760SOL    HW122739   2.976   0.663   7.696  0.5768 -0.5709  0.8885
 3760SOL    HW222740   2.859   0.757   7.677 -1.5576  3.6250  2.4716
 3761SOL     OW22741   4.555   2.136   6.451 -0.2852  0.8523 -0.0230
 3761SOL    HW122742   4.504   2.129   6.532 -0.3188 -1.6538 -0.2588
 3761SOL    HW222743   4.534   2.227   6.429  1.2949  1.3634  0.5553
 3762SOL     OW22744   2.321   0.019   6.116  0.5622  0.3627  0.0425
 3762SOL    HW122745   2.313   0.034   6.210  1.2398 -2.9571  0.6380
 3762SOL    HW222746   2.309   4.649   6.121  1.4525  0.2943  0.9610
 3763SOL     OW22747   2.649   1.997   7.104 -0.2593  0.3044  0.3719
 3763SOL    HW122748   2.663   2.053   7.027 -0.2347  2.5641  2.0290
 3763SOL    HW222749   2.711   2.029   7.169 -0.2253  1.9709 -0.4902
 3764SOL     OW22750   4.488   3.223  10.554 -0.1395  0.2672 -0.2427
 3764SOL    HW122751   4.425   3.229  10.626 -0.6248  4.7293 -1.0663
 3764SOL    HW222752   4.437   3.258  10.482 -1.5193 -2.8855 -0.7937
 3765SOL     OW22753   0.401   2.495   3.309 -0.0085 -0.1050 -0.2693
 3765SOL    HW122754   0.477   2.476   3.364 -0.3835 -2.9684 -0.7456
 3765SOL    HW222755   0.402   2.415   3.256 -0.9836 -0.0665 -0.3447
 3766SOL     OW22756   2.530   4.028  17.301  0.5534  0.2447 -0.7750
 3766SOL    HW122757   2.577   4.100  17.343 -0.3593 -0.5033  1.5192
 3766SOL    HW222758   2.576   3.957  17.345 -0.2449  0.0536 -0.2517
 3767SOL     OW22759   1.651   1.909  12.885  0.0825 -0.3347  0.1518
 3767SOL    HW122760   1.557   1.889  12.895  0.0723 -0.2886  0.1496
 3767SOL    HW222761   1.675   1.851  12.813 -0.7558 -0.1108 -0.3129
 3768SOL     OW22762   0.152   1.060  17.518 -0.3149  0.0360  0.6351
 3768SOL    HW122763   0.150   1.156  17.519  1.4401  0.0509  1.8480
 3768SOL    HW222764   0.060   1.046  17.542 -1.4405  1.9093 -2.5238
 3769SOL     OW22765   2.128   0.460  12.690 -0.2971 -0.2702 -0.3964
 3769SOL    HW122766   2.051   0.516  12.679 -0.5008  0.1966  3.5013
 3769SOL    HW222767   2.190   0.518  12.647 -0.5195 -0.3587 -0.8385
 3770SOL     OW22768   4.312   3.512  14.985 -0.0176  0.3580  0.3213
 3770SOL    HW122769   4.312   3.494  14.891  0.6588 -0.2450  0.4325
 3770SOL    HW222770   4.225   3.488  15.016  0.6462 -0.9480  1.1905
 3771SOL     OW22771   4.464   3.213   7.670 -0.3196 -0.3308 -0.3701
 3771SOL    HW122772   4.452   3.233   7.763 -2.3502  0.5703 -0.8403
 3771SOL    HW222773   4.535   3.276   7.652  0.2787 -1.2273 -1.1387
 3772SOL     OW22774   0.194   2.201  16.753  0.3046 -0.6732 -0.0862
 3772SOL    HW122775   0.184   2.286  16.797 -0.0289 -0.7801  0.0413
 3772SOL    HW222776   0.288   2.212  16.738  0.7952 -3.5188  0.8605
 3773SOL     OW22777   3.030   0.428   9.847 -0.6920 -0.1591 -0.1650
 3773SOL    HW122778   2.948   0.477   9.841  1.8554  4.1735  0.1800
 3773SOL    HW222779   3.077   0.468   9.774  0.1312 -0.0247  0.4420
 3774SOL     OW22780   1.402   4.222   3.583 -0.7853  0.1083 -0.7286
 3774SOL    HW122781   1.389   4.187   3.671  1.6104  0.7915 -0.0827
 3774SOL    HW222782   1.312   4.251   3.567 -1.4241 -1.4387  0.0480
 3775SOL     OW22783   0.709   2.452   0.160  0.0998  0.1314  0.2840
 3775SOL    HW122784   0.687   2.542   0.136 -0.3319  0.2298  1.0483
 3775SOL    HW222785   0.652   2.444   0.236 -0.6459 -1.4986 -0.4585
 3776SOL     OW22786   0.043   0.762   9.452 -0.1929 -0.2773  0.7384
 3776SOL    HW122787   0.046   0.857   9.458  0.9070 -0.2988  0.5832
 3776SOL    HW222788   0.026   0.732   9.542 -1.8946  1.3654  0.9618
 3777SOL     OW22789   2.550   2.906   5.063  0.3367 -0.2977  0.7708
 3777SOL    HW122790   2.492   2.831   5.054 -0.2704  0.2066  0.4852
 3777SOL    HW222791   2.634   2.870   5.035 -1.1942 -1.1096 -2.7426
 3778SOL     OW22792   4.209   1.288   1.205 -0.3970  0.1793  0.2961
 3778SOL    HW122793   4.291   1.316   1.163 -0.2558  1.1729  1.2188
 3778SOL    HW222794   4.154   1.366   1.208 -1.9398 -0.8721 -1.3827
 3779SOL     OW22795   3.040   3.969   4.428 -0.7432 -0.5188 -0.1000
 3779SOL    HW122796   3.036   3.882   4.388  0.8718 -1.1556  1.1075
 3779SOL    HW222797   3.125   4.000   4.397 -0.2504 -1.8845 -0.0923
 3780SOL     OW22798   4.193   2.249   8.756  0.0770  0.5003  0.4025
 3780SOL    HW122799   4.179   2.320   8.819  0.6751  0.8310  0.1670
 3780SOL    HW222800   4.115   2.197   8.740  0.7565 -0.6442  0.8148
 3781SOL     OW22801   0.552   3.386   3.525 -0.4841  0.4551 -0.0087
 3781SOL    HW122802   0.628   3.405   3.470  0.2531 -0.1731  0.7873
 3781SOL    HW222803   0.533   3.293   3.512  0.0395  0.3394  0.0330
 3782SOL     OW22804   1.936   2.205  14.600  0.0122  0.2465  0.3324
 3782SOL    HW122805   2.022   2.163  14.599  0.3199  0.8884 -0.1583
 3782SOL    HW222806   1.956   2.293  14.570  3.8473 -0.7928 -0.1491
 3783SOL     OW22807   1.377   3.236   8.076  0.0249  0.1393 -0.3245
 3783SOL    HW122808   1.415   3.170   8.018 -1.4109 -1.2469  0.3037
 3783SOL    HW222809   1.361   3.312   8.021  0.3840  1.8932  2.0244
 3784SOL     OW22810   0.193   3.249   1.785 -0.1553 -0.3303  0.7029
 3784SOL    HW122811   0.138   3.189   1.733 -1.4749  1.2766  0.2458
 3784SOL    HW222812   0.280   3.213   1.771  0.2047  0.7853  0.1165
 3785SOL     OW22813   2.777   1.300   4.541  0.0304 -0.0044  0.1890
 3785SOL    HW122814   2.829   1.224   4.567  0.3708  0.3455  0.5287
 3785SOL    HW222815   2.731   1.266   4.464 -1.3674  1.0332  0.5688
 3786SOL     OW22816   0.044   4.027   6.789 -0.0467 -0.0889  0.1586
 3786SOL    HW122817   0.105   3.958   6.765 -0.8058 -0.5879 -0.3322
 3786SOL    HW222818   0.043   4.074   6.706  2.9383  0.8793  0.6687
 3787SOL     OW22819   1.455   3.718   9.030  0.0195  0.3197 -0.8799
 3787SOL    HW122820   1.527   3.760   9.076 -1.0176 -0.8180  1.7593
 3787SOL    HW222821   1.408   3.690   9.108 -2.1632  1.7927 -1.6644
 3788SOL     OW22822   2.355   2.804  12.300  0.2426 -0.0383 -0.3766
 3788SOL    HW122823   2.356   2.895  12.270  1.4543 -1.0756 -3.4271
 3788SOL    HW222824   2.260   2.795  12.291  0.3061 -1.7384  0.6720
 3789SOL     OW22825   3.739   3.639   6.496 -0.6250 -0.6212 -0.4680
 3789SOL    HW122826   3.775   3.587   6.424 -3.1570 -0.3719 -1.9149
 3789SOL    HW222827   3.713   3.570   6.556  2.1057 -0.5977  0.7472
 3790SOL     OW22828   3.760   2.359   9.298  0.1332 -0.0368  0.1097
 3790SOL    HW122829   3.695   2.426   9.319 -0.3061 -0.2783 -0.4790
 3790SOL    HW222830   3.827   2.375   9.365  0.8187 -0.7862 -0.3942
 3791SOL     OW22831   2.757   0.616   0.221  0.2485 -0.1460  0.1806
 3791SOL    HW122832   2.787   0.707   0.221 -1.4520  0.4246  1.2694
 3791SOL    HW222833   2.824   0.570   0.272  0.1781 -1.0390 -0.5346
 3792SOL     OW22834   0.562   0.761   7.959  0.4522 -0.5737 -0.2058
 3792SOL    HW122835   0.643   0.798   7.925 -0.0903 -0.9997 -1.9192
 3792SOL    HW222836   0.577   0.668   7.943  1.6055 -0.3482 -0.4426
 3793SOL     OW22837   1.928   4.290  12.420 -0.4004  0.0783 -0.9969
 3793SOL    HW122838   2.019   4.261  12.426 -0.1636  0.9976 -0.0531
 3793SOL    HW222839   1.918   4.318  12.511 -1.1012 -0.2534 -0.9786
 3794SOL     OW22840   3.382   2.191  11.828  0.3711  0.1902  0.5236
 3794SOL    HW122841   3.451   2.176  11.892  1.0460  2.5521  0.3755
 3794SOL    HW222842   3.311   2.131  11.850  1.4055 -0.6069  1.6546
 3795SOL     OW22843   3.548   0.993  17.526  0.5024  0.0411 -0.2916
 3795SOL    HW122844   3.594   1.036  17.598  1.0083 -1.5859  0.3655
 3795SOL    HW222845   3.564   0.901  17.550 -1.8936 -0.3309 -0.1060
 3796SOL     OW22846   0.013   2.733   5.304 -0.9569 -0.0100  0.1246
 3796SOL    HW122847   4.673   2.763   5.368 -0.8489 -0.6095  0.5162
 3796SOL    HW222848   0.066   2.701   5.377 -0.2320  2.5361  0.7167
 3797SOL     OW22849   4.374   4.051   1.610  0.2407  0.0640  0.0727
 3797SOL    HW122850   4.297   4.034   1.664 -1.8142  2.5769 -2.0751
 3797SOL    HW222851   4.346   4.095   1.530 -2.0891  2.3544  2.1628
 3798SOL     OW22852   0.096   4.544   3.357  0.1052  0.1413  0.4231
 3798SOL    HW122853   0.177   4.503   3.327  0.0819  1.8454 -1.9453
 3798SOL    HW222854   0.037   4.472   3.378 -0.5340 -0.2084 -2.5381
 3799SOL     OW22855   3.765   3.097   3.602  0.1861 -0.7456  0.4730
 3799SOL    HW122856   3.727   3.178   3.635  0.4199 -0.0278 -1.0596
 3799SOL    HW222857   3.846   3.126   3.562 -0.4476  1.8026  1.0229
 3800SOL     OW22858   1.890   4.100   3.874 -0.6401 -0.8242  0.2745
 3800SOL    HW122859   1.913   4.164   3.807  0.4900 -0.2757  1.1764
 3800SOL    HW222860   1.912   4.140   3.958 -0.3655 -1.5803  0.5599
 3801SOL     OW22861   2.100   0.539   0.981  0.0692 -0.1702  0.3192
 3801SOL    HW122862   2.120   0.516   0.890 -2.5159  0.2117 -0.3352
 3801SOL    HW222863   2.174   0.598   0.998 -0.6043  0.1933  2.0050
 3802SOL     OW22864   1.918   4.500  17.439 -0.5708  0.0351 -0.8845
 3802SOL    HW122865   1.854   4.522  17.507  0.1310 -2.4398  0.5734
 3802SOL    HW222866   1.938   4.407  17.437  0.2009  0.1217  2.6236
 3803SOL     OW22867   1.290   1.763   2.844  0.2490 -0.4642  0.5560
 3803SOL    HW122868   1.325   1.850   2.864 -0.0747 -0.2031 -0.0018
 3803SOL    HW222869   1.200   1.776   2.874  0.5283  0.1614  1.1283
 3804SOL     OW22870   3.021   4.426   0.299 -0.4267  0.1893 -0.2687
 3804SOL    HW122871   2.977   4.470   0.226  1.3628  2.7011  0.1729
 3804SOL    HW222872   2.977   4.341   0.299  0.3085 -0.2198  4.4841
 3805SOL     OW22873   0.839   3.187   3.201 -0.0612  0.2730  0.0063
 3805SOL    HW122874   0.766   3.249   3.190 -0.6944 -0.2481  1.2941
 3805SOL    HW222875   0.855   3.167   3.109  0.4968  0.7353  0.0048
 3806SOL     OW22876   1.084   3.264   2.142 -0.4558  0.1478 -0.0407
 3806SOL    HW122877   1.176   3.238   2.144 -1.3771 -3.2192 -0.3068
 3806SOL    HW222878   1.045   3.188   2.098 -0.4342 -0.9875  1.8819
 3807SOL     OW22879   2.424   3.251  14.431  0.3967 -0.2160  0.1559
 3807SOL    HW122880   2.499   3.304  14.456  0.8709  0.1042 -1.9499
 3807SOL    HW222881   2.359   3.321  14.436 -0.7821 -1.2932 -0.0660
 3808SOL     OW22882   2.969   1.435   4.161 -0.7225 -0.2349 -0.7841
 3808SOL    HW122883   3.006   1.437   4.249  0.6334 -0.8980 -1.3291
 3808SOL    HW222884   2.947   1.528   4.151 -1.7522 -0.8175 -3.8534
 3809SOL     OW22885   4.667   3.525   3.435 -0.0016 -0.3385 -0.3540
 3809SOL    HW122886   0.008   3.594   3.448  0.0052 -0.4557  0.2427
 3809SOL    HW222887   4.624   3.568   3.362 -2.0909  0.1432  1.1845
 3810SOL     OW22888   4.581   1.934  13.584 -0.2850 -0.2932 -0.5643
 3810SOL    HW122889   4.522   1.989  13.531  0.3537 -0.5965 -1.5956
 3810SOL    HW222890   4.579   1.972  13.672  0.9228  0.4534 -0.8529
 3811SOL     OW22891   4.207   3.971   7.527  0.2658  0.1959 -0.0180
 3811SOL    HW122892   4.226   4.013   7.443  2.2626 -1.9784 -0.6401
 3811SOL    HW222893   4.184   3.881   7.505  1.0119  0.2015 -0.7679
 3812SOL     OW22894   2.076   0.553   2.154  0.2355  0.0759 -0.3740
 3812SOL    HW122895   2.022   0.575   2.078 -0.6941 -0.4153  0.1421
 3812SOL    HW222896   2.007   0.544   2.220 -0.3335 -2.6556 -1.3371
 3813SOL     OW22897   1.150   1.102   6.482  0.5223  0.7677  0.2553
 3813SOL    HW122898   1.137   1.163   6.409 -2.2903 -1.3307 -0.9986
 3813SOL    HW222899   1.085   1.136   6.544  2.3370  2.6806  1.1321
 3814SOL     OW22900   0.431   2.178   0.982 -0.2899 -0.3921 -0.7879
 3814SOL    HW122901   0.376   2.131   1.044  0.4373  0.7903  0.7532
 3814SOL    HW222902   0.445   2.108   0.918  0.6766 -0.5272 -0.4318
 3815SOL     OW22903   2.484   1.391   8.160  0.2430 -0.1299  0.3163
 3815SOL    HW122904   2.568   1.351   8.137  1.6931  1.1388  3.4211
 3815SOL    HW222905   2.426   1.328   8.116  2.1108 -0.9702 -0.9779
 3816SOL     OW22906   4.452   1.663   8.620  0.5793  0.1935 -0.2675
 3816SOL    HW122907   4.508   1.585   8.621 -1.2470 -1.1419 -1.7104
 3816SOL    HW222908   4.366   1.622   8.619  0.5454  0.2293  1.2020
 3817SOL     OW22909   3.300   1.631   1.777 -0.0383  0.4973  0.2376
 3817SOL    HW122910   3.306   1.688   1.701  0.7416 -2.3934 -1.8655
 3817SOL    HW222911   3.393   1.609   1.783 -0.4410 -1.1216  0.5628
 3818SOL     OW22912   2.983   2.836  11.061  0.1106 -0.3516 -0.7598
 3818SOL    HW122913   3.032   2.777  11.002 -2.5057 -2.7651 -0.5218
 3818SOL    HW222914   2.989   2.917  11.011 -0.1377 -0.2102 -0.5599
 3819SOL     OW22915   1.605   4.112   7.510 -0.2845 -0.7781 -0.2696
 3819SOL    HW122916   1.582   4.103   7.603  0.5396 -0.3755 -0.0272
 3819SOL    HW222917   1.545   4.046   7.476  1.2378 -1.5969 -1.3496
 3820SOL     OW22918   0.484   0.040   0.604 -0.6664 -0.1363 -0.3633
 3820SOL    HW122919   0.478   0.101   0.678  1.5800 -0.7714  0.3515
 3820SOL    HW222920   0.392   0.015   0.603 -1.2473  2.0581 -2.5005
 3821SOL     OW22921   4.296   1.958   4.267  0.4648 -0.5339 -0.3815
 3821SOL    HW122922   4.277   1.897   4.196 -0.2091  0.9879 -1.4902
 3821SOL    HW222923   4.365   2.010   4.225  1.1975 -1.5916 -0.5076
 3822SOL     OW22924   3.710   2.805   8.722 -0.5296  0.5051 -0.0702
 3822SOL    HW122925   3.730   2.860   8.798  0.9078 -0.5920  0.3355
 3822SOL    HW222926   3.648   2.861   8.676 -0.4682  1.3516  0.8602
 3823SOL     OW22927   1.233   2.476   2.140 -0.1002 -0.1629 -0.2039
 3823SOL    HW122928   1.171   2.476   2.067 -0.7025  2.8186  0.3378
 3823SOL    HW222929   1.186   2.531   2.203 -0.8887 -1.9105  0.7500
 3824SOL     OW22930   4.010   4.272   9.243 -0.0504  0.3677  0.1455
 3824SOL    HW122931   3.917   4.253   9.232  0.3203 -1.6953  0.5628
 3824SOL    HW222932   4.004   4.256   9.337  1.0083 -0.0900  0.1338
 3825SOL     OW22933   2.858   0.420   5.014  0.5114  0.1024  0.1938
 3825SOL    HW122934   2.818   0.348   5.062  1.1969  0.4019  1.2124
 3825SOL    HW222935   2.829   0.490   5.073 -1.1888  1.1409 -1.8597
 3826SOL     OW22936   0.606   1.122   6.925 -0.3221  0.2318  0.5144
 3826SOL    HW122937   0.522   1.149   6.888 -0.4305 -0.7487  0.0241
 3826SOL    HW222938   0.578   1.120   7.017 -0.9675  0.5541  0.3259
 3827SOL     OW22939   4.707   1.034  17.011  0.4757 -0.0046 -0.2313
 3827SOL    HW122940   4.686   1.124  16.986  0.4608  0.6428  2.0905
 3827SOL    HW222941   4.653   0.973  16.960 -1.5440  2.0094 -0.5029
 3828SOL     OW22942   4.671   2.761   8.754  0.4297 -0.3489  0.1936
 3828SOL    HW122943   0.009   2.750   8.825 -0.5403 -0.8812  0.9680
 3828SOL    HW222944   4.709   2.706   8.684  1.1125 -2.3726  2.1451
 3829SOL     OW22945   2.468   3.640   1.160  0.5111 -0.2117 -0.0922
 3829SOL    HW122946   2.402   3.588   1.204  0.4858 -0.1613 -0.0708
 3829SOL    HW222947   2.484   3.704   1.230  0.2553 -0.2865  0.0316
 3830SOL     OW22948   1.806   1.568   9.304 -0.2992  0.3658 -0.1001
 3830SOL    HW122949   1.801   1.544   9.397 -2.3174  1.7749  0.1566
 3830SOL    HW222950   1.894   1.604   9.297  0.1092 -0.6425 -0.1820
 3831SOL     OW22951   4.426   1.669   2.910 -0.0291 -0.0957 -0.0904
 3831SOL    HW122952   4.486   1.710   2.848 -0.3528 -0.7926 -0.8470
 3831SOL    HW222953   4.352   1.638   2.859 -0.5355 -2.0432  1.8156
 3832SOL     OW22954   0.689   1.363   4.432 -0.4515  0.3017  0.0122
 3832SOL    HW122955   0.667   1.294   4.495 -0.7087 -0.4995 -0.9528
 3832SOL    HW222956   0.771   1.403   4.461 -1.8942  1.7111  2.1976
 3833SOL     OW22957   1.643   2.077  16.040 -0.4623 -0.0132  0.1327
 3833SOL    HW122958   1.627   2.170  16.025  0.7086  0.1701  0.0827
 3833SOL    HW222959   1.601   2.036  15.965  2.1712 -0.3446 -1.1502
 3834SOL     OW22960   1.564   0.294   7.974 -0.4221 -0.1701  0.4571
 3834SOL    HW122961   1.614   0.269   8.052  2.1201  1.8700 -0.5442
 3834SOL    HW222962   1.602   0.378   7.950  0.6991 -0.3944  1.4229
 3835SOL     OW22963   1.594   4.528   3.027 -0.4074 -0.7518  0.7815
 3835SOL    HW122964   1.690   4.518   3.027 -0.6108 -2.7902  1.6990
 3835SOL    HW222965   1.580   4.616   3.060  0.4567 -0.1818 -0.3612
 3836SOL     OW22966   0.597   3.699   4.211 -0.1299 -0.2841 -0.0883
 3836SOL    HW122967   0.672   3.722   4.157  0.7987 -1.0899  0.8820
 3836SOL    HW222968   0.641   3.652   4.281 -2.7485  0.5016  2.1037
 3837SOL     OW22969   4.569   0.580  11.576  0.2276 -0.2880 -0.6041
 3837SOL    HW122970   4.500   0.523  11.543 -0.4972 -0.1571  0.7038
 3837SOL    HW222971   4.622   0.515  11.623  1.1409  0.8771 -0.0250
 3838SOL     OW22972   3.893   3.533   2.440 -0.3785 -0.2497  0.4924
 3838SOL    HW122973   3.910   3.588   2.364 -0.4178 -1.3339 -0.3008
 3838SOL    HW222974   3.943   3.453   2.421  0.1359  0.3186 -0.5474
 3839SOL     OW22975   0.624   2.062   2.315 -0.2660  0.0391 -0.0365
 3839SOL    HW122976   0.651   2.149   2.344 -1.2453  0.4530 -0.3586
 3839SOL    HW222977   0.584   2.019   2.391 -1.9639 -0.7083 -1.3528
 3840SOL     OW22978   0.783   1.263  17.465  0.1207  0.2695  0.8540
 3840SOL    HW122979   0.740   1.341  17.500  0.9739  1.2669 -0.3087
 3840SOL    HW222980   0.749   1.267  17.375  0.9443  0.6406  0.5590
 3841SOL     OW22981   1.947   3.824   3.871  0.0381 -0.4590 -0.4747
 3841SOL    HW122982   1.994   3.820   3.787 -1.6210  0.4848 -1.4530
 3841SOL    HW222983   1.913   3.913   3.878  0.8234  0.0395 -2.8077
 3842SOL     OW22984   3.537   4.707  12.343  0.4387  0.4209  0.0557
 3842SOL    HW122985   3.587   0.027  12.411  2.4449 -0.7316 -0.6611
 3842SOL    HW222986   3.450   0.015  12.367  0.1837  0.7075 -1.2518
 3843SOL     OW22987   0.762   2.316   6.140 -0.8901  0.0712 -0.2477
 3843SOL    HW122988   0.717   2.345   6.219 -1.0033 -0.2533 -0.1920
 3843SOL    HW222989   0.777   2.399   6.094  1.8734 -1.1680 -1.5755
 3844SOL     OW22990   1.016   3.195  13.698 -0.2175 -0.3682 -0.0058
 3844SOL    HW122991   1.085   3.129  13.702  0.3702  0.4770  4.3202
 3844SOL    HW222992   0.964   3.184  13.618  1.7501  0.2142 -1.3685
 3845SOL     OW22993   2.054   0.858   2.031  0.0155 -0.2542  0.0058
 3845SOL    HW122994   1.984   0.806   2.072 -1.0243  0.2166 -1.2151
 3845SOL    HW222995   2.072   0.820   1.945 -0.0886  0.8245 -0.4907
 3846SOL     OW22996   2.137   2.789   5.523 -0.2102  0.1467  0.3341
 3846SOL    HW122997   2.127   2.746   5.438  0.0928 -0.3993  0.5761
 3846SOL    HW222998   2.110   2.880   5.507  1.2700  0.2043 -1.7646
 3847SOL     OW22999   3.041   2.297  12.934 -0.2414  0.5404  0.0499
 3847SOL    HW123000   3.032   2.317  12.840 -0.0887  0.9675  0.1274
 3847SOL    HW223001   3.131   2.265  12.944 -0.2721  0.2554 -0.5227
 3848SOL     OW23002   0.353   2.339   6.378 -0.0320  0.2859 -0.0921
 3848SOL    HW123003   0.288   2.327   6.447 -0.3956 -0.3522 -0.5424
 3848SOL    HW223004   0.298   2.389   6.318 -0.1308  1.1855  0.7499
 3849SOL     OW23005   2.023   3.674   5.718  0.1689 -0.5082 -0.2923
 3849SOL    HW123006   1.941   3.720   5.738  0.3774  0.4996 -1.8057
 3849SOL    HW223007   2.069   3.678   5.802 -2.5964  2.4431  1.1037
 3850SOL     OW23008   1.402   2.869  14.677 -0.3300 -0.0878  0.2277
 3850SOL    HW123009   1.448   2.953  14.677 -0.5902  0.0640  2.0446
 3850SOL    HW223010   1.388   2.847  14.585  2.3096 -0.0200 -0.1845
 3851SOL     OW23011   1.298   3.137  13.431  0.2328 -0.5175  0.1818
 3851SOL    HW123012   1.279   3.114  13.522  1.8632  2.2897  1.2280
 3851SOL    HW223013   1.393   3.125  13.438  0.4057  1.2357  0.9617
 3852SOL     OW23014   0.934   0.164   2.037 -0.2845 -0.0182  0.0638
 3852SOL    HW123015   1.011   0.219   2.022 -0.4149  0.4836  1.2759
 3852SOL    HW223016   0.976   0.090   2.082 -0.2801  0.0539  0.1751
 3853SOL     OW23017   0.347   1.520   4.779 -0.4733  0.4286 -0.1673
 3853SOL    HW123018   0.315   1.585   4.842  1.4866 -0.0378  1.3002
 3853SOL    HW223019   0.424   1.481   4.821 -1.3596 -1.2450 -0.0519
 3854SOL     OW23020   0.117   0.142   6.158 -0.3636  0.3415  0.2871
 3854SOL    HW123021   0.143   0.098   6.240 -2.2512 -1.9016 -0.3219
 3854SOL    HW223022   0.191   0.131   6.098  0.1655 -1.7785  1.3265
 3855SOL     OW23023   2.762   0.187   8.268 -0.3752  0.6226  0.4863
 3855SOL    HW123024   2.704   0.147   8.203  0.0776 -1.6190  1.4541
 3855SOL    HW223025   2.720   0.273   8.277 -1.5404  0.0861  0.1773
 3856SOL     OW23026   1.802   1.290   6.348  0.7393 -0.1957 -0.0703
 3856SOL    HW123027   1.727   1.334   6.307 -1.1182 -2.0918  1.3407
 3856SOL    HW223028   1.816   1.217   6.287  2.6336 -1.2905  1.6959
 3857SOL     OW23029   3.988   0.343   2.251  0.0499 -0.1404 -0.4144
 3857SOL    HW123030   3.956   0.259   2.218 -0.1593 -1.1451  2.3266
 3857SOL    HW223031   4.031   0.370   2.170  1.0543  2.2244  0.8808
 3858SOL     OW23032   2.860   3.947   3.093  0.1065 -0.5353 -0.1718
 3858SOL    HW123033   2.898   4.005   3.027  0.8993  0.2774  0.9814
 3858SOL    HW223034   2.788   4.004   3.124  0.5532  0.2856 -0.6399
 3859SOL     OW23035   1.747   1.643   2.851 -0.0683  0.2362  0.0891
 3859SOL    HW123036   1.703   1.612   2.930  0.7744  0.1300  0.5251
 3859SOL    HW223037   1.768   1.733   2.872 -0.0917 -0.2147  1.9989
 3860SOL     OW23038   0.739   0.390  10.834 -0.0331 -0.3555  0.0342
 3860SOL    HW123039   0.669   0.376  10.897 -0.6584  1.0936 -0.3522
 3860SOL    HW223040   0.717   0.473  10.792 -0.9384 -1.3929 -1.5377
 3861SOL     OW23041   0.054   0.550   8.262  0.4016 -0.8452  0.5474
 3861SOL    HW123042   0.047   0.628   8.318 -2.0322 -1.6589  1.3816
 3861SOL    HW223043   4.722   0.578   8.190 -0.2710 -0.7442  1.1186
 3862SOL     OW23044   2.750   4.164   7.664  0.1964  0.1940 -0.3297
 3862SOL    HW123045   2.820   4.161   7.729 -1.7675 -1.8232  1.6805
 3862SOL    HW223046   2.729   4.257   7.668  0.9517  0.4416 -1.9221
 3863SOL     OW23047   4.649   2.495  13.540  0.1676 -0.4412 -0.0600
 3863SOL    HW123048   4.573   2.443  13.513 -1.5528  1.4338  1.1107
 3863SOL    HW223049   4.628   2.540  13.622  1.0361  1.4425 -0.8798
 3864SOL     OW23050   3.005   0.134   9.758  0.3802  0.3343  0.1807
 3864SOL    HW123051   3.086   0.090   9.785  0.8435  0.5204 -0.8865
 3864SOL    HW223052   3.017   0.221   9.797  2.7363  0.2470 -0.3012
 3865SOL     OW23053   0.714   3.266   8.649 -0.0257 -0.4163 -0.1212
 3865SOL    HW123054   0.621   3.281   8.636  0.8893  2.4031 -3.4878
 3865SOL    HW223055   0.740   3.354   8.676  0.4965 -0.2527 -1.1674
 3866SOL     OW23056   2.718   1.560   2.389 -0.3395 -0.3938 -0.3054
 3866SOL    HW123057   2.701   1.495   2.457  1.5299 -1.5553 -0.9320
 3866SOL    HW223058   2.666   1.631   2.425  0.6768 -0.0027  0.4014
 3867SOL     OW23059   4.644   3.773   2.556 -0.5403 -0.1374 -0.1318
 3867SOL    HW123060   4.591   3.743   2.630  1.1853 -1.4698  0.5482
 3867SOL    HW223061   0.007   3.762   2.590 -0.5154  0.1923 -0.0910
 3868SOL     OW23062   3.363   1.205  11.269 -0.9681  0.2324  0.6327
 3868SOL    HW123063   3.309   1.205  11.191 -1.2528  0.3795  0.8300
 3868SOL    HW223064   3.324   1.264  11.334 -0.9041  0.5677  0.3709
 3869SOL     OW23065   1.586   1.812  14.449 -0.1477 -0.1281 -0.1164
 3869SOL    HW123066   1.520   1.832  14.516  1.3867 -0.2367  1.4055
 3869SOL    HW223067   1.573   1.722  14.421  1.7861 -0.1023 -1.0788
 3870SOL     OW23068   2.065   2.697   8.039 -0.2390 -0.5828 -0.9423
 3870SOL    HW123069   2.072   2.633   8.110 -0.2779 -0.5360 -0.8963
 3870SOL    HW223070   2.020   2.650   7.969 -3.2078  3.5805 -1.7753
 3871SOL     OW23071   4.183   4.167   1.896 -0.2107 -0.1171 -0.1889
 3871SOL    HW123072   4.177   4.096   1.833 -0.4712  1.3772 -1.8612
 3871SOL    HW223073   4.244   4.133   1.961 -0.0899 -1.5255 -1.0559
 3872SOL     OW23074   0.371   0.999   8.445 -0.3969 -0.0536  0.0119
 3872SOL    HW123075   0.364   0.931   8.378  0.5267 -1.4981  1.3891
 3872SOL    HW223076   0.325   1.066   8.395  0.4898 -0.5183 -1.4079
 3873SOL     OW23077   4.511   0.053   7.299  0.6905 -0.3112 -0.3020
 3873SOL    HW123078   4.568   0.100   7.359 -1.2865  0.7979  0.7100
 3873SOL    HW223079   4.444   0.119   7.280  2.7397  2.3106  1.6004
 3874SOL     OW23080   1.144   2.568   3.627  0.4336 -0.2774  0.4089
 3874SOL    HW123081   1.167   2.555   3.535 -2.7944 -0.1216 -0.4218
 3874SOL    HW223082   1.086   2.645   3.624  0.4936 -0.3053 -1.4081
 3875SOL     OW23083   1.483   2.355   4.265  0.8560 -0.3304  0.5016
 3875SOL    HW123084   1.529   2.436   4.288  0.2241  0.3754 -0.7387
 3875SOL    HW223085   1.422   2.409   4.215  2.4630  0.0116 -1.0923
 3876SOL     OW23086   4.307   0.211   1.779  0.9137 -0.8513  0.7230
 3876SOL    HW123087   4.379   0.273   1.766  0.0746  0.2806  1.4190
 3876SOL    HW223088   4.261   0.225   1.696  2.1777  1.6695  0.4221
 3877SOL     OW23089   3.163   0.783   3.172 -0.0607  0.0845 -0.0236
 3877SOL    HW123090   3.157   0.865   3.221 -0.6120 -0.3601  0.6530
 3877SOL    HW223091   3.073   0.772   3.142  0.2137  0.8043 -1.0850
 3878SOL     OW23092   2.389   0.737  13.715  0.7466  0.1566 -0.2608
 3878SOL    HW123093   2.451   0.739  13.788 -0.2546 -0.6923  0.6046
 3878SOL    HW223094   2.413   0.656  13.670  1.4213 -0.0605  0.4904
 3879SOL     OW23095   0.455   2.221   5.103 -0.5133  0.4522  0.4284
 3879SOL    HW123096   0.416   2.278   5.170 -0.2298 -1.7836  2.4901
 3879SOL    HW223097   0.397   2.145   5.097  0.0010  0.3527 -2.9140
 3880SOL     OW23098   1.213   4.629  17.308  0.1990  0.0094  0.3280
 3880SOL    HW123099   1.201   4.642  17.402 -0.5070  0.2965  0.1977
 3880SOL    HW223100   1.275   4.699  17.287 -0.0065  0.3679  0.9181
 3881SOL     OW23101   2.986   3.219  10.439  0.5815 -0.2261 -0.4019
 3881SOL    HW123102   2.907   3.268  10.461 -0.3702 -2.0948  0.4120
 3881SOL    HW223103   3.052   3.279  10.472  0.2471  1.2420 -2.4157
 3882SOL     OW23104   3.599   2.582   7.658 -0.5615  0.9862 -0.0187
 3882SOL    HW123105   3.596   2.583   7.754 -0.7459 -1.7356  0.0147
 3882SOL    HW223106   3.670   2.521   7.636 -1.7993 -0.1421 -0.9362
 3883SOL     OW23107   4.578   0.408  15.123 -0.3192  0.0248  0.2558
 3883SOL    HW123108   4.508   0.349  15.150 -1.0824  0.1521 -1.4618
 3883SOL    HW223109   4.650   0.346  15.115 -1.2111 -0.6708 -2.2757
 3884SOL     OW23110   2.495   3.421  10.411  0.0475  0.1042  0.4011
 3884SOL    HW123111   2.448   3.386  10.486  1.6642  0.6768  1.6750
 3884SOL    HW223112   2.429   3.430  10.342 -1.0202 -1.4037  1.2091
 3885SOL     OW23113   3.897   2.825   7.480 -0.2428 -0.3984  0.1648
 3885SOL    HW123114   3.936   2.808   7.566 -1.0149 -0.1786  0.5628
 3885SOL    HW223115   3.965   2.879   7.439 -1.6459  0.7863 -0.5986
 3886SOL     OW23116   3.821   3.094   4.040 -0.4604  0.1000  0.2572
 3886SOL    HW123117   3.801   3.172   3.989  0.7981 -0.1237 -0.5792
 3886SOL    HW223118   3.758   3.037   3.996 -2.9629  0.4529  3.3270
 3887SOL     OW23119   0.406   3.284  17.105 -0.0192  0.0128  0.3645
 3887SOL    HW123120   0.374   3.197  17.082 -0.3578  0.6309 -1.4625
 3887SOL    HW223121   0.440   3.264  17.193  0.6484  0.3396  0.1790
 3888SOL     OW23122   2.244   2.487   5.345  0.2604 -0.0990  0.0230
 3888SOL    HW123123   2.289   2.464   5.263  2.8901  0.6311  1.2481
 3888SOL    HW223124   2.213   2.577   5.331 -0.9464 -0.6522 -0.8803
 3889SOL     OW23125   0.981   0.086  14.249  0.0378 -0.2866 -0.2524
 3889SOL    HW123126   0.933   0.148  14.304 -1.5902 -1.8289  0.0894
 3889SOL    HW223127   0.989   0.010  14.306 -0.3498 -0.8432 -0.9342
 3890SOL     OW23128   2.687   3.765   5.855  0.3415  0.0964 -0.8199
 3890SOL    HW123129   2.738   3.767   5.936  0.4948  0.5440 -0.9309
 3890SOL    HW223130   2.615   3.705   5.872 -0.8986  1.8607  0.0767
 3891SOL     OW23131   4.380   1.916   1.864 -0.0397 -0.0339  0.2192
 3891SOL    HW123132   4.313   1.885   1.803  2.7416  0.0577 -2.8192
 3891SOL    HW223133   4.462   1.922   1.815 -0.4047  0.9732 -0.2684
 3892SOL     OW23134   0.130   3.943   4.550 -0.0080  0.0016  0.0734
 3892SOL    HW123135   0.220   3.916   4.568 -0.8139 -2.5147  0.2323
 3892SOL    HW223136   0.085   3.869   4.511 -1.4183  1.2458 -0.6671
 3893SOL     OW23137   4.352   3.529   6.975 -0.0135  0.3730 -0.2869
 3893SOL    HW123138   4.318   3.493   6.893 -2.0797 -2.3512  1.7699
 3893SOL    HW223139   4.410   3.595   6.936 -0.7899  1.0101 -0.3671
 3894SOL     OW23140   0.293   3.599   2.266 -0.0182  0.5378  0.2464
 3894SOL    HW123141   0.307   3.625   2.175  0.4146 -0.0175  0.1478
 3894SOL    HW223142   0.221   3.657   2.287  0.5870  1.1561  0.6107
 3895SOL     OW23143   3.579   1.845   3.252 -0.6453  0.0371 -0.6573
 3895SOL    HW123144   3.550   1.912   3.190 -1.0695  1.0257  0.6116
 3895SOL    HW223145   3.495   1.828   3.296  0.4043 -2.1764  0.4844
 3896SOL     OW23146   1.278   3.342   5.337 -0.2699 -0.8107 -0.2186
 3896SOL    HW123147   1.346   3.402   5.306  2.2847 -1.7851  3.5647
 3896SOL    HW223148   1.218   3.356   5.263  0.0326  2.9966  0.2429
 3897SOL     OW23149   3.684   2.297  10.581  0.3651  0.4492  0.4004
 3897SOL    HW123150   3.634   2.338  10.652 -0.0602  0.7202 -0.0546
 3897SOL    HW223151   3.611   2.239  10.561 -0.8870  1.3878  2.3107
 3898SOL     OW23152   1.210   4.148   7.734 -0.3702  0.4261 -0.1587
 3898SOL    HW123153   1.192   4.241   7.719  1.9553  0.7660 -0.8337
 3898SOL    HW223154   1.147   4.128   7.803 -2.7144  0.7017 -2.1887
 3899SOL     OW23155   2.923   1.678   3.465 -0.0370 -0.0209 -0.1964
 3899SOL    HW123156   2.883   1.599   3.501  3.3300 -0.9398  1.5623
 3899SOL    HW223157   2.962   1.650   3.383 -2.0473 -0.0892 -1.1296
 3900SOL     OW23158   1.023   3.575   5.259  0.2840  0.0587  0.4374
 3900SOL    HW123159   1.070   3.581   5.176  0.5020 -0.1363  0.5476
 3900SOL    HW223160   0.960   3.509   5.229 -0.8453  1.3246  0.0266
 3901SOL     OW23161   1.454   0.177   4.320 -0.2056  0.0310  0.1795
 3901SOL    HW123162   1.398   0.163   4.244 -0.3547  0.1429  0.2676
 3901SOL    HW223163   1.535   0.200   4.274 -0.9494  0.2555 -1.0211
 3902SOL     OW23164   4.321   0.332   3.050 -0.1262  0.2602  0.2416
 3902SOL    HW123165   4.312   0.345   2.956 -2.3720 -1.7592  0.1775
 3902SOL    HW223166   4.333   0.237   3.048 -0.0038  0.2989 -1.1267
 3903SOL     OW23167   2.821   3.440   2.589  0.4974  0.1283 -0.2883
 3903SOL    HW123168   2.734   3.405   2.570  0.6167 -0.8352  0.9234
 3903SOL    HW223169   2.796   3.533   2.594  0.1426 -0.0015  0.4457
 3904SOL     OW23170   4.569   2.170  10.819 -0.0306 -0.0041 -0.0061
 3904SOL    HW123171   4.581   2.263  10.836  0.0188  0.0876 -0.5358
 3904SOL    HW223172   4.483   2.150  10.856  0.7557 -0.6914  1.4689
 3905SOL     OW23173   1.923   2.186   7.101  0.0218 -0.3980  0.4270
 3905SOL    HW123174   1.981   2.230   7.163 -1.8852  0.9745  1.2494
 3905SOL    HW223175   1.884   2.125   7.164  2.2761  0.9652  3.1333
 3906SOL     OW23176   2.323   1.516  14.523 -0.3964  0.3063  0.3398
 3906SOL    HW123177   2.289   1.582  14.583  0.1825  0.3574  0.6050
 3906SOL    HW223178   2.265   1.526  14.447 -0.9051  0.0241  0.6947
 3907SOL     OW23179   0.630   0.395   4.765  0.2673  0.3298  0.0871
 3907SOL    HW123180   0.656   0.441   4.685 -0.7073  0.3871 -0.1961
 3907SOL    HW223181   0.701   0.331   4.762  0.6155  0.8174 -1.5923
 3908SOL     OW23182   1.434   2.324   9.911  0.3120 -0.3052  0.2277
 3908SOL    HW123183   1.350   2.368   9.923  0.1808 -0.0026 -1.8979
 3908SOL    HW223184   1.494   2.396   9.893 -0.4329  0.1850 -0.2968
 3909SOL     OW23185   0.672   3.081   9.037  0.7161  0.0336  0.0452
 3909SOL    HW123186   0.592   3.128   9.014  1.5972  0.8109 -1.4091
 3909SOL    HW223187   0.732   3.092   8.963 -1.2279 -0.0980 -1.5294
 3910SOL     OW23188   1.507   4.490   7.570  0.8755 -0.4490 -0.0431
 3910SOL    HW123189   1.561   4.411   7.578  0.3365 -0.7368  0.7941
 3910SOL    HW223190   1.494   4.521   7.660  2.5882 -0.6889  0.2979
 3911SOL     OW23191   1.408   3.314   2.554 -0.3945  0.4219  0.6806
 3911SOL    HW123192   1.488   3.266   2.535 -1.9499 -2.3628  1.2416
 3911SOL    HW223193   1.401   3.352   2.467 -1.0780 -0.0060  0.5546
 3912SOL     OW23194   4.409   4.223   7.948  0.4717  0.0265 -0.2816
 3912SOL    HW123195   4.346   4.152   7.935 -1.2816  1.5349 -0.1390
 3912SOL    HW223196   4.431   4.222   8.041  0.5609 -2.7086 -0.3255
 3913SOL     OW23197   1.539   2.094   9.421 -0.4402  0.2068 -0.1014
 3913SOL    HW123198   1.564   2.139   9.502 -3.4791 -0.9587  1.5077
 3913SOL    HW223199   1.594   2.141   9.359 -0.1133 -0.5939 -0.4254
 3914SOL     OW23200   1.623   1.296  13.465  0.1856  0.2465  0.8095
 3914SOL    HW123201   1.635   1.211  13.422  2.6994  0.5361  0.9626
 3914SOL    HW223202   1.714   1.314  13.486  0.7272 -0.0013 -1.3061
 3915SOL     OW23203   1.241   3.449   0.758 -0.4616 -0.8734 -0.4526
 3915SOL    HW123204   1.161   3.482   0.716 -0.3267  0.9090  0.7106
 3915SOL    HW223205   1.206   3.360   0.768 -0.0483 -1.0936 -0.9599
 3916SOL     OW23206   3.021   4.171   8.385  0.7386  0.6973 -0.4282
 3916SOL    HW123207   2.984   4.252   8.350 -2.5004 -1.6611 -2.4227
 3916SOL    HW223208   2.944   4.134   8.429  1.0220 -0.0155 -0.5279
 3917SOL     OW23209   1.250   3.745  11.204  0.3658 -0.2582 -0.7937
 3917SOL    HW123210   1.160   3.736  11.236  0.3570 -0.6399 -0.9199
 3917SOL    HW223211   1.262   3.672  11.143  3.2555  0.2662 -0.8332
 3918SOL     OW23212   1.123   4.602   5.130  0.0279 -0.0486  0.0655
 3918SOL    HW123213   1.154   4.692   5.139  1.5929 -0.6168  0.2526
 3918SOL    HW223214   1.206   4.555   5.119  0.3434 -0.0818  2.6220
 3919SOL     OW23215   4.512   2.051   2.739 -0.0359 -0.5353  0.2988
 3919SOL    HW123216   4.517   1.957   2.725  0.5518 -0.2806 -1.1646
 3919SOL    HW223217   4.451   2.076   2.670  1.7398  0.2477 -1.0058
 3920SOL     OW23218   3.771   2.320   8.230 -0.2179 -0.5154 -0.7511
 3920SOL    HW123219   3.706   2.250   8.218 -0.3102 -0.6299  0.4315
 3920SOL    HW223220   3.718   2.390   8.267 -0.9427 -1.8574  0.7496
 3921SOL     OW23221   2.510   1.312   2.893  0.5291  0.0528  0.0518
 3921SOL    HW123222   2.517   1.403   2.923  1.0353 -0.1694  0.6295
 3921SOL    HW223223   2.423   1.291   2.926 -0.1419  1.1690 -1.0292
 3922SOL     OW23224   4.062   0.862  10.190  0.5563 -0.0273 -0.5651
 3922SOL    HW123225   4.069   0.957  10.180 -0.6410  0.1145  0.0478
 3922SOL    HW223226   3.972   0.852  10.159 -0.7334  2.8561  2.2566
 3923SOL     OW23227   3.395   1.314   7.477  0.0034  0.7041  0.2946
 3923SOL    HW123228   3.479   1.307   7.522 -0.8443 -1.1556  1.6081
 3923SOL    HW223229   3.424   1.289   7.390  1.0141  1.0036  0.5438
 3924SOL     OW23230   1.896   2.135   3.405  0.0826  0.3495  0.5353
 3924SOL    HW123231   1.956   2.084   3.458 -1.6831 -1.0767  1.1726
 3924SOL    HW223232   1.841   2.060   3.382  3.8883 -1.8276 -1.2751
 3925SOL     OW23233   1.917   1.014   6.591  0.4789 -1.2681  0.2576
 3925SOL    HW123234   1.948   1.093   6.546 -0.1821 -1.7053 -0.9604
 3925SOL    HW223235   1.977   0.950   6.553  2.2071  0.5805 -0.1469
 3926SOL     OW23236   4.113   1.313   2.314 -0.4034 -0.2317 -0.8688
 3926SOL    HW123237   4.056   1.360   2.253 -2.0910 -2.4970 -1.0384
 3926SOL    HW223238   4.140   1.249   2.249 -1.2382 -0.1265 -1.3222
 3927SOL     OW23239   0.897   3.651   9.209  0.0602  0.4169  0.2482
 3927SOL    HW123240   0.954   3.698   9.148 -1.3287  0.1764 -1.2463
 3927SOL    HW223241   0.945   3.570   9.229  0.6109  0.3275 -1.4437
 3928SOL     OW23242   2.079   1.993   3.542  0.1246  0.6884 -0.2070
 3928SOL    HW123243   2.088   1.918   3.601  1.1464  1.1999  0.2625
 3928SOL    HW223244   2.158   2.043   3.559 -0.4773  1.9539 -1.1063
 3929SOL     OW23245   1.223   3.947  14.021 -0.3375 -0.3808  0.7782
 3929SOL    HW123246   1.154   3.997  14.064 -0.6845 -0.7721  0.6670
 3929SOL    HW223247   1.242   4.003  13.946  2.7360  0.8970  2.4847
 3930SOL     OW23248   2.750   0.972   3.119 -0.1066  0.4631  0.3855
 3930SOL    HW123249   2.753   1.066   3.103 -1.2992  0.8641  2.4443
 3930SOL    HW223250   2.660   0.951   3.094  0.1214  1.0975 -0.9448
 3931SOL     OW23251   1.896   3.723   0.709 -0.1712  0.4561 -0.4583
 3931SOL    HW123252   1.939   3.749   0.791  1.6468 -0.7743 -1.0252
 3931SOL    HW223253   1.969   3.665   0.685  1.0869  1.5663  0.6324
 3932SOL     OW23254   3.776   2.055  10.411 -0.1395 -0.1581 -0.0260
 3932SOL    HW123255   3.806   2.121  10.473  0.0098  1.2970 -1.6665
 3932SOL    HW223256   3.686   2.078  10.388  0.3452  0.4243 -1.3122
 3933SOL     OW23257   1.524   2.743  15.736  0.2649 -0.0146 -0.3617
 3933SOL    HW123258   1.504   2.732  15.643  0.9914  1.1617 -0.6575
 3933SOL    HW223259   1.512   2.659  15.779  0.8179 -1.9790 -4.0737
 3934SOL     OW23260   2.895   3.932   8.273 -0.4491  0.1537 -0.2837
 3934SOL    HW123261   2.958   4.003   8.271 -1.6706  1.2409  0.1267
 3934SOL    HW223262   2.831   3.966   8.336 -0.0493  2.1215 -0.9654
 3935SOL     OW23263   4.302   1.328   3.027 -0.0305 -0.2556  0.2630
 3935SOL    HW123264   4.321   1.328   2.933  0.7825 -2.0705  0.4391
 3935SOL    HW223265   4.231   1.392   3.018 -0.3497 -0.5896  0.4062
 3936SOL     OW23266   4.288   1.894   3.216 -0.3786 -0.5716 -0.2201
 3936SOL    HW123267   4.318   1.804   3.208  3.3797  0.7632 -1.1143
 3936SOL    HW223268   4.329   1.941   3.143  0.1127 -2.3404 -1.0855
 3937SOL     OW23269   0.254   4.129   6.172 -0.6606  0.3746 -0.1326
 3937SOL    HW123270   0.212   4.094   6.251 -0.9604 -1.7849 -1.2603
 3937SOL    HW223271   0.328   4.177   6.208 -2.5907  2.2608  1.3866
 3938SOL     OW23272   4.221   1.713   4.493 -0.1311 -0.0510 -0.6545
 3938SOL    HW123273   4.223   1.699   4.398 -1.8564  2.8450 -1.1287
 3938SOL    HW223274   4.301   1.763   4.508  0.3667 -1.1485  0.2749
 3939SOL     OW23275   0.669   0.424   1.632  0.2905  0.2437 -0.1638
 3939SOL    HW123276   0.628   0.501   1.673 -0.8669 -1.3848  1.7071
 3939SOL    HW223277   0.678   0.361   1.703  1.4729  0.6337  0.0353
 3940SOL     OW23278   0.579   2.351   4.851  0.2908  0.2067  0.2084
 3940SOL    HW123279   0.566   2.306   4.768 -2.0544  0.7306  0.2822
 3940SOL    HW223280   0.493   2.336   4.891 -0.3372 -1.0201 -1.6317
 3941SOL     OW23281   4.130   0.211  17.696 -0.6138 -0.2585  0.0911
 3941SOL    HW123282   4.159   0.278   0.056  0.5570  0.2714 -1.0256
 3941SOL    HW223283   4.197   0.233  17.631  0.2491  0.4568  1.2204
 3942SOL     OW23284   2.964   2.682   3.387  0.0352 -0.2130 -0.0458
 3942SOL    HW123285   2.979   2.687   3.481 -1.6933 -1.1421  0.2933
 3942SOL    HW223286   3.054   2.690   3.356 -0.5972  1.7211 -1.3919
 3943SOL     OW23287   0.446   0.560   0.793 -0.2764  0.0172  0.3618
 3943SOL    HW123288   0.479   0.618   0.862 -1.2237  0.5988  0.3287
 3943SOL    HW223289   0.352   0.552   0.812 -0.5917  1.1791 -0.7202
 3944SOL     OW23290   2.227   3.395   4.986  0.0657 -0.0700  0.3715
 3944SOL    HW123291   2.310   3.350   4.972 -0.0425 -0.9272  2.4768
 3944SOL    HW223292   2.251   3.483   4.956  0.4503 -0.3617 -0.1699
 3945SOL     OW23293   0.380   0.938   5.308  0.4426  0.4193 -0.1691
 3945SOL    HW123294   0.385   0.953   5.213  1.6405 -2.3848 -0.5721
 3945SOL    HW223295   0.295   0.980   5.318 -0.0724 -1.1554  2.0616
 3946SOL     OW23296   2.815   0.755   3.817 -0.3105  0.2064 -0.2185
 3946SOL    HW123297   2.731   0.730   3.778  0.3615 -0.6774 -1.0952
 3946SOL    HW223298   2.879   0.696   3.776  0.1389  1.2087 -0.9515
 3947SOL     OW23299   0.073   4.143   3.491 -0.1190 -0.0548  0.1630
 3947SOL    HW123300   0.127   4.128   3.413  1.4943  1.9818  0.8585
 3947SOL    HW223301   0.007   4.200   3.451  1.3587  1.1452 -0.5782
 3948SOL     OW23302   4.512   1.755  14.507  0.4704 -0.1006 -0.0913
 3948SOL    HW123303   4.555   1.714  14.431  2.8728 -1.0618  1.7847
 3948SOL    HW223304   4.502   1.844  14.474  1.1537 -0.4085 -1.1147
 3949SOL     OW23305   3.699   4.245   0.870  0.4645 -0.1321 -0.2705
 3949SOL    HW123306   3.752   4.323   0.852 -0.0365 -0.1281 -1.7626
 3949SOL    HW223307   3.765   4.178   0.856 -2.6029 -3.1515 -0.4001
 3950SOL     OW23308   3.854   2.106   9.237  0.4513 -0.2202  0.0990
 3950SOL    HW123309   3.818   2.193   9.251  0.6905  0.0364 -0.9010
 3950SOL    HW223310   3.798   2.053   9.295 -0.0834 -0.4990 -0.6755
 3951SOL     OW23311   0.190   1.028   3.150  0.1100  0.3875  0.3167
 3951SOL    HW123312   0.125   1.034   3.219 -1.5368 -0.3482 -1.1581
 3951SOL    HW223313   0.167   0.943   3.113  0.3100 -0.8109  2.9668
 3952SOL     OW23314   0.491   1.468   7.835 -0.1665 -0.2862  0.3102
 3952SOL    HW123315   0.560   1.535   7.839  0.8437 -1.3410  0.4499
 3952SOL    HW223316   0.542   1.401   7.790 -0.5614 -0.0638 -0.4680
 3953SOL     OW23317   3.847   1.426   3.892  0.4397  0.4330  0.3490
 3953SOL    HW123318   3.849   1.475   3.810 -0.3463  1.2638  0.8299
 3953SOL    HW223319   3.763   1.461   3.920 -0.6247 -1.1514 -0.8790
 3954SOL     OW23320   1.634   4.014   4.907 -0.4641 -0.4433  0.1787
 3954SOL    HW123321   1.646   4.017   5.002  0.8258  0.3163 -0.0117
 3954SOL    HW223322   1.661   3.922   4.899 -1.2934 -0.6926  0.2417
 3955SOL     OW23323   0.828   4.681   5.397 -0.3777  0.4474 -0.0851
 3955SOL    HW123324   0.845   0.027   5.335 -0.3188  1.5094  1.1559
 3955SOL    HW223325   0.742   4.658   5.361 -0.2002  0.8252 -0.7604
 3956SOL     OW23326   1.813   0.517  14.801 -0.4078 -0.3625  0.2151
 3956SOL    HW123327   1.886   0.467  14.838  1.2639 -0.1226 -2.7298
 3956SOL    HW223328   1.837   0.609  14.792 -0.3653 -0.2847  1.1312
 3957SOL     OW23329   2.022   4.583   2.826  0.0496 -0.7401  0.7144
 3957SOL    HW123330   2.112   4.607   2.847 -0.7925  2.9720 -0.0168
 3957SOL    HW223331   2.020   4.627   2.742  1.2643  0.9277  1.5522
 3958SOL     OW23332   1.871   1.815  15.388 -0.0954  0.3266  0.4977
 3958SOL    HW123333   1.845   1.808  15.296  0.1593 -0.9444  0.5216
 3958SOL    HW223334   1.938   1.883  15.381  0.5176 -0.5083 -1.8269
 3959SOL     OW23335   1.061   2.271  17.518 -0.5002 -0.3599  0.0791
 3959SOL    HW123336   1.005   2.210  17.471 -0.9877  1.8686 -2.2325
 3959SOL    HW223337   1.003   2.335  17.559 -0.0950  0.7849 -1.1415
 3960SOL     OW23338   0.642   0.643   7.414  0.6858 -0.2378  0.2057
 3960SOL    HW123339   0.632   0.658   7.508 -1.2154  1.0342 -0.1789
 3960SOL    HW223340   0.733   0.667   7.397  0.2474  1.7247  0.6203
 3961SOL     OW23341   3.400   3.001   6.680  0.0304  0.0439 -0.3941
 3961SOL    HW123342   3.485   2.982   6.639 -1.0392 -1.0967 -2.0846
 3961SOL    HW223343   3.433   3.066   6.742 -3.8014 -0.3812  2.0812
 3962SOL     OW23344   4.065   3.337   7.447 -0.2630 -0.3358  0.4385
 3962SOL    HW123345   3.977   3.372   7.436 -0.4673 -1.9453 -2.9329
 3962SOL    HW223346   4.105   3.338   7.360 -1.1987  1.1835  0.0302
 3963SOL     OW23347   0.107   1.071  10.792  0.5005  0.1878 -0.2317
 3963SOL    HW123348   0.139   1.136  10.729 -0.0852  1.3659  0.6880
 3963SOL    HW223349   0.116   0.995  10.735 -1.2453  0.8429 -1.3646
 3964SOL     OW23350   0.920   0.896   2.496  0.1496  0.2086  0.3227
 3964SOL    HW123351   0.831   0.883   2.463  1.4956 -0.7557 -2.9089
 3964SOL    HW223352   0.959   0.846   2.423 -0.9952  0.8880 -0.7534
 3965SOL     OW23353   3.708   0.970  17.044 -0.1427  0.8819  0.0533
 3965SOL    HW123354   3.699   0.959  16.950  1.0554 -0.6530  0.1229
 3965SOL    HW223355   3.730   1.062  17.059  0.2435  0.9498 -0.9425
 3966SOL     OW23356   3.023   4.205   1.730 -0.4692 -0.2824  0.4029
 3966SOL    HW123357   2.958   4.260   1.774 -1.6645 -1.0935 -0.3700
 3966SOL    HW223358   2.971   4.181   1.653 -0.2615  1.0651 -0.1628
 3967SOL     OW23359   1.416   4.078   4.443  0.0696  0.3245  0.1745
 3967SOL    HW123360   1.410   3.991   4.483  1.1467  0.3217  0.3337
 3967SOL    HW223361   1.510   4.098   4.449  0.2006  0.0159 -0.7720
 3968SOL     OW23362   4.235   4.176  13.738 -0.6993  0.0156  0.3667
 3968SOL    HW123363   4.154   4.201  13.695  0.9971  1.8847 -1.7253
 3968SOL    HW223364   4.194   4.109  13.793  0.5810 -0.6650  0.4977
 3969SOL     OW23365   3.949   1.473   7.917 -0.1389 -0.0515 -0.3020
 3969SOL    HW123366   4.033   1.451   7.957 -0.4456 -0.8353 -0.0911
 3969SOL    HW223367   3.891   1.428   7.977  2.1521 -1.4484  0.8521
 3970SOL     OW23368   3.817   1.092  15.127  0.1011  0.4353 -0.1700
 3970SOL    HW123369   3.872   1.078  15.204  1.4898 -1.5399 -1.4979
 3970SOL    HW223370   3.764   1.014  15.114  0.4912  0.1732 -0.2057
 3971SOL     OW23371   3.128   4.662  10.883 -0.1078 -0.5477  0.3336
 3971SOL    HW123372   3.196   4.596  10.868 -1.0512 -1.0989 -1.5237
 3971SOL    HW223373   3.153   4.695  10.969 -1.1795  0.6925  0.1563
 3972SOL     OW23374   1.057   3.092  13.312 -0.1602 -0.1819  0.7637
 3972SOL    HW123375   0.991   3.151  13.348  0.5528 -0.1263  1.9719
 3972SOL    HW223376   1.131   3.117  13.368 -0.2784 -2.4243  1.8938
 3973SOL     OW23377   2.562   3.241   7.282  0.0972  0.1663  0.8589
 3973SOL    HW123378   2.611   3.314   7.245 -0.8063  1.0931  1.4643
 3973SOL    HW223379   2.629   3.186   7.322 -0.5852 -0.5046  1.0756
 3974SOL     OW23380   1.176   1.023   0.119  0.0231 -0.6886  0.5740
 3974SOL    HW123381   1.242   1.008   0.187  0.8546  0.1735 -0.0445
 3974SOL    HW223382   1.204   1.104   0.076  0.5659 -0.9211  0.4850
 3975SOL     OW23383   1.029   2.235   4.448 -0.1367  0.6738 -0.1632
 3975SOL    HW123384   0.946   2.269   4.482 -1.3381  0.2917 -2.6956
 3975SOL    HW223385   1.073   2.206   4.528  1.0936  2.0010 -0.3607
 3976SOL     OW23386   1.463   1.585   5.140  0.2086 -0.1881  0.6670
 3976SOL    HW123387   1.472   1.678   5.159 -2.2038  0.0997  0.3937
 3976SOL    HW223388   1.499   1.575   5.052 -1.0661  0.6254  0.0546
 3977SOL     OW23389   2.161   4.235   0.210  0.2105  0.2924 -0.5044
 3977SOL    HW123390   2.169   4.160   0.268 -0.6424 -0.3360 -1.1957
 3977SOL    HW223391   2.250   4.249   0.179  1.2705 -1.5409  1.7230
 3978SOL     OW23392   2.606   2.656   2.824 -0.2253  0.5837 -0.2148
 3978SOL    HW123393   2.512   2.655   2.845 -0.4095  0.2052 -1.0652
 3978SOL    HW223394   2.611   2.564   2.799 -2.1938  0.3693  0.1585
 3979SOL     OW23395   4.312   1.294   6.294  0.7822  0.4928 -0.2735
 3979SOL    HW123396   4.349   1.230   6.355  2.6364  0.4101 -1.4966
 3979SOL    HW223397   4.314   1.371   6.351  0.3279  0.9974 -0.9416
 3980SOL     OW23398   1.652   4.256   7.266 -0.5359  0.6261  0.1639
 3980SOL    HW123399   1.692   4.185   7.216 -2.5708 -0.0987 -0.4250
 3980SOL    HW223400   1.639   4.221   7.354 -0.0020  0.3906  0.1504
 3981SOL     OW23401   2.847   4.119  10.339 -0.0600 -0.2829  0.5252
 3981SOL    HW123402   2.868   4.030  10.371  1.3394 -0.4714 -0.9286
 3981SOL    HW223403   2.891   4.124  10.255 -0.1739  1.5557  0.5918
 3982SOL     OW23404   3.697   0.945  11.655  0.0503 -0.3226 -0.1590
 3982SOL    HW123405   3.688   0.852  11.633 -2.0761 -0.4106  1.0804
 3982SOL    HW223406   3.672   0.987  11.573 -1.3382  1.8307  1.3766
 3983SOL     OW23407   2.716   2.816  13.937  0.2930  0.3032 -0.1353
 3983SOL    HW123408   2.748   2.905  13.918  0.5314  0.4806  1.1015
 3983SOL    HW223409   2.683   2.831  14.026 -0.6027  2.2401 -0.7810
 3984SOL     OW23410   0.791   4.219   5.297 -0.3478  0.7808  0.3175
 3984SOL    HW123411   0.867   4.167   5.323  0.8446  1.8605 -0.9586
 3984SOL    HW223412   0.745   4.153   5.244  2.9445 -0.3101 -1.1883
 3985SOL     OW23413   3.196   2.881   0.222  0.1760 -0.0782  0.2660
 3985SOL    HW123414   3.179   2.974   0.206  2.4031 -0.3068 -3.5956
 3985SOL    HW223415   3.109   2.843   0.218  0.3414 -0.2520 -1.8961
 3986SOL     OW23416   2.261   2.374   6.763 -0.1353  0.1390 -0.4878
 3986SOL    HW123417   2.212   2.405   6.687  1.1106 -1.2314 -1.8413
 3986SOL    HW223418   2.199   2.307   6.789 -1.0104  1.4892  0.9292
 3987SOL     OW23419   4.204   3.837   2.592 -0.6759  0.2342  0.2014
 3987SOL    HW123420   4.256   3.792   2.525 -2.0968 -3.2108  1.3830
 3987SOL    HW223421   4.200   3.926   2.559  0.4744 -0.3151 -1.4459
 3988SOL     OW23422   2.214   2.965  14.638  0.4386  1.0702 -0.2974
 3988SOL    HW123423   2.238   3.043  14.688  0.3273  0.7551  0.2489
 3988SOL    HW223424   2.243   2.983  14.548  3.4074 -0.0020  0.4464
 3989SOL     OW23425   2.195   3.553   4.387 -0.1612 -0.4138 -0.2196
 3989SOL    HW123426   2.179   3.647   4.380  0.6691 -0.2641 -0.1221
 3989SOL    HW223427   2.226   3.546   4.478  0.4678  1.7102 -0.2793
 3990SOL     OW23428   0.149   1.391   2.584 -0.2262 -0.1503  0.3633
 3990SOL    HW123429   0.122   1.299   2.590 -1.9691  0.3760  0.7548
 3990SOL    HW223430   0.222   1.406   2.643  0.4767  1.0660 -0.8158
 3991SOL     OW23431   0.023   3.944   4.830  0.2095  0.1100 -0.1784
 3991SOL    HW123432   0.119   3.949   4.836  0.2327 -0.2463 -0.2629
 3991SOL    HW223433   4.723   3.942   4.737 -0.1510 -0.6138 -0.0625
 3992SOL     OW23434   1.175   0.855   2.866 -0.1594  0.0038  0.0912
 3992SOL    HW123435   1.125   0.908   2.929  0.6806 -0.0593  0.8116
 3992SOL    HW223436   1.197   0.916   2.796 -0.0007 -1.9204 -1.5615
 3993SOL     OW23437   0.194   3.858   0.804  0.0653 -0.0987 -0.0210
 3993SOL    HW123438   0.277   3.814   0.790 -1.6539 -3.3499  0.0461
 3993SOL    HW223439   0.213   3.880   0.895  1.3066 -0.7014 -0.1389
 3994SOL     OW23440   0.718   0.956   2.297 -0.0913  0.6680  0.7729
 3994SOL    HW123441   0.720   1.028   2.233 -0.3691  0.5353  0.6143
 3994SOL    HW223442   0.660   0.889   2.262 -0.0895  1.1234 -0.1107
 3995SOL     OW23443   2.485   2.048   1.011  0.1766  0.2327 -0.4712
 3995SOL    HW123444   2.412   2.060   1.072 -2.2339  0.1234 -3.2937
 3995SOL    HW223445   2.447   2.080   0.929  0.9594  0.2260 -0.8281
 3996SOL     OW23446   1.247   3.100   3.774  0.2374  0.0626 -0.5725
 3996SOL    HW123447   1.282   3.085   3.862 -0.9902  0.2489 -0.0497
 3996SOL    HW223448   1.245   3.006   3.754 -1.0790 -0.5008  2.1246
 3997SOL     OW23449   1.232   1.135   8.841  0.1477 -0.4457 -0.0868
 3997SOL    HW123450   1.250   1.228   8.851  0.5829 -0.6663  1.1976
 3997SOL    HW223451   1.141   1.132   8.872  0.4748  2.7711  1.1268
 3998SOL     OW23452   0.642   1.210  16.560 -0.1444 -0.7952  0.2355
 3998SOL    HW123453   0.719   1.239  16.510 -0.9913 -0.8701 -1.1021
 3998SOL    HW223454   0.646   1.114  16.557 -0.8084 -0.7973 -0.4213
 3999SOL     OW23455   2.920   0.743   5.745 -0.0089  0.3499  0.2000
 3999SOL    HW123456   2.932   0.832   5.713 -1.6432  0.0358 -1.2813
 3999SOL    HW223457   2.975   0.724   5.821  0.3536 -2.2288 -0.6866
 4000SOL     OW23458   0.714   2.219  17.335 -0.0297 -0.6610  0.2448
 4000SOL    HW123459   0.664   2.183  17.408  1.0111 -0.9603  0.8243
 4000SOL    HW223460   0.796   2.172  17.350 -1.0643 -1.6622  2.7835
 4001SOL     OW23461   3.043   2.348   3.625 -0.0815 -0.0832  0.7697
 4001SOL    HW123462   3.097   2.375   3.551 -1.9708  1.0651 -0.1586
 4001SOL    HW223463   2.968   2.314   3.577 -0.9058  0.3350  1.7697
 4002SOL     OW23464   4.613   2.630   2.878 -0.1422 -0.2851  0.3681
 4002SOL    HW123465   4.642   2.720   2.865  0.0487 -0.4940 -0.6436
 4002SOL    HW223466   4.662   2.590   2.806  1.6192 -0.8403  1.8479
 4003SOL     OW23467   0.214   2.704  15.637 -0.6317 -0.4698 -0.2474
 4003SOL    HW123468   0.196   2.653  15.557  1.2402  1.6070 -1.9719
 4003SOL    HW223469   0.177   2.790  15.617  0.7157  0.3333  0.7533
 4004SOL     OW23470   2.001   1.595  10.643  0.4200  0.2003 -0.0449
 4004SOL    HW123471   2.084   1.549  10.629  0.5536 -0.2173  2.1309
 4004SOL    HW223472   2.022   1.688  10.649 -1.5576  0.5857  1.0339
 4005SOL     OW23473   4.387   0.918   3.273 -0.6291 -0.1983  0.3538
 4005SOL    HW123474   4.351   0.987   3.215  2.0373  0.8183 -0.0802
 4005SOL    HW223475   4.372   0.951   3.361  0.6597 -1.0853  0.8913
 4006SOL     OW23476   4.001   1.847   4.891 -0.3415 -0.3923  1.0348
 4006SOL    HW123477   4.032   1.759   4.872  0.7402  0.1023  0.4856
 4006SOL    HW223478   3.942   1.865   4.817  0.5045 -1.9134 -0.0251
 4007SOL     OW23479   1.510   3.853   1.106  0.0646 -0.1693 -0.0628
 4007SOL    HW123480   1.526   3.907   1.184 -0.1663 -0.1338 -0.0384
 4007SOL    HW223481   1.559   3.775   1.131  1.8513  1.5141  1.7705
 4008SOL     OW23482   2.747   4.119   5.773 -0.1400 -0.2286  0.0265
 4008SOL    HW123483   2.836   4.119   5.808 -0.1545  2.8435  0.0694
 4008SOL    HW223484   2.740   4.196   5.717 -0.0540 -0.6154 -0.5134
 4009SOL     OW23485   0.265   1.281   1.375  0.0809 -0.2855 -0.6855
 4009SOL    HW123486   0.263   1.278   1.470 -0.0066  1.9595 -0.6239
 4009SOL    HW223487   0.307   1.364   1.352  2.3093 -1.1494  0.2101
 4010SOL     OW23488   2.888   0.435   4.748  0.3847  0.5864  0.3620
 4010SOL    HW123489   2.881   0.430   4.843 -2.7405 -0.5943  0.0743
 4010SOL    HW223490   2.976   0.400   4.729  0.5565  0.8146  0.7447
 4011SOL     OW23491   3.173   2.926   6.282  0.3818 -0.6759  0.3168
 4011SOL    HW123492   3.217   2.842   6.271 -0.1774 -0.8945 -0.2589
 4011SOL    HW223493   3.199   2.951   6.370 -1.9179 -0.8037  1.0158
 4012SOL     OW23494   0.135   3.510  17.543  0.0030  0.0923  0.6298
 4012SOL    HW123495   0.210   3.534  17.597  0.0955  1.5821 -0.1844
 4012SOL    HW223496   0.090   3.434  17.580  1.8252 -2.1780 -1.7934
 4013SOL     OW23497   4.081   2.744   3.271 -0.1938 -0.1221 -0.4529
 4013SOL    HW123498   4.019   2.673   3.287 -1.0585  1.3411  2.8235
 4013SOL    HW223499   4.158   2.687   3.269  0.3750  0.6304  0.3835
 4014SOL     OW23500   2.937   3.484   4.739  0.2274 -0.4569 -0.3421
 4014SOL    HW123501   2.979   3.398   4.743 -0.8245 -0.9790 -0.3065
 4014SOL    HW223502   2.882   3.469   4.815 -2.4979  1.6138 -1.8882
 4015SOL     OW23503   3.969   0.065  11.379 -0.2750  0.2260  0.5512
 4015SOL    HW123504   3.966   4.724  11.448  0.8955  0.1246  0.4881
 4015SOL    HW223505   4.062   0.081  11.365  0.0585 -4.0062 -1.9583
 4016SOL     OW23506   1.006   0.454   4.798  0.1364 -0.1004  0.1462
 4016SOL    HW123507   1.099   0.459   4.820  0.1943  1.0610 -0.3494
 4016SOL    HW223508   0.972   0.421   4.881 -1.3004  0.0714 -0.3674
 4017SOL     OW23509   0.814   2.671   5.592 -0.2072 -0.0119  0.2227
 4017SOL    HW123510   0.853   2.758   5.576  1.6173 -0.6154  1.4835
 4017SOL    HW223511   0.887   2.611   5.591 -0.2730 -0.0875 -2.1215
 4018SOL     OW23512   2.239   3.491  10.874  0.1190 -0.3784 -1.0797
 4018SOL    HW123513   2.289   3.491  10.955  0.2048 -0.8531 -1.1316
 4018SOL    HW223514   2.150   3.521  10.892  1.6073  2.6377  1.1634
 4019SOL     OW23515   0.942   3.391  12.329 -0.3920  0.6346 -0.2944
 4019SOL    HW123516   0.910   3.426  12.246 -0.3280  0.7830 -0.2569
 4019SOL    HW223517   0.859   3.377  12.375 -1.2765 -0.1772 -2.1481
 4020SOL     OW23518   2.841   0.519   6.802  0.1247 -0.4905 -0.6227
 4020SOL    HW123519   2.833   0.435   6.847 -0.4323 -0.4975 -0.7340
 4020SOL    HW223520   2.882   0.498   6.718  1.8301  0.5430 -0.0493
 4021SOL     OW23521   4.429   0.571   1.104  0.1389 -0.0084 -0.3324
 4021SOL    HW123522   4.517   0.587   1.140  0.6403  0.0303 -1.5702
 4021SOL    HW223523   4.396   0.505   1.164  0.7273  0.9110  1.0234
 4022SOL     OW23524   3.875   0.974  11.889 -0.0235 -0.0024 -0.4084
 4022SOL    HW123525   3.881   1.067  11.911 -1.5532 -0.5783  2.3564
 4022SOL    HW223526   3.811   0.980  11.818 -0.1787 -1.8579 -0.4251
 4023SOL     OW23527   4.656   3.896   5.213  0.5820  0.3550  0.0217
 4023SOL    HW123528   4.657   3.981   5.256  2.0394  1.0371 -1.3477
 4023SOL    HW223529   4.575   3.911   5.165  0.6270 -1.4385 -0.6174
 4024SOL     OW23530   2.086   0.865  16.316  0.1868  0.0855  0.0014
 4024SOL    HW123531   2.170   0.825  16.296 -1.1921 -3.4423  1.2937
 4024SOL    HW223532   2.111   0.935  16.377  0.5723  1.5880 -1.8619
 4025SOL     OW23533   3.618   2.040   2.316  0.7119 -0.8956 -0.0895
 4025SOL    HW123534   3.642   1.984   2.390  0.6383  0.7327  1.1688
 4025SOL    HW223535   3.706   2.068   2.290  1.1465 -1.2907  0.9237
 4026SOL     OW23536   3.679   3.379   5.018  0.2295 -0.3604 -0.4464
 4026SOL    HW123537   3.688   3.440   5.091 -2.1122  1.5992 -1.7876
 4026SOL    HW223538   3.709   3.426   4.940  0.1333 -0.8076 -0.7509
 4027SOL     OW23539   1.251   1.159  13.482  0.8445 -0.3397  0.2147
 4027SOL    HW123540   1.191   1.088  13.458 -0.5646 -0.5249  4.3271
 4027SOL    HW223541   1.331   1.107  13.493  1.7907  0.9557 -0.6598
 4028SOL     OW23542   3.662   2.177   3.171  0.4736  0.5754 -0.0264
 4028SOL    HW123543   3.592   2.237   3.197  2.5229  1.9583  2.2867
 4028SOL    HW223544   3.631   2.157   3.082 -3.7871 -2.2176  2.0543
 4029SOL     OW23545   2.899   1.703   3.983 -0.3638  0.0684 -0.0676
 4029SOL    HW123546   2.947   1.702   3.901  2.6073  2.8939  1.6362
 4029SOL    HW223547   2.950   1.770   4.029  1.4657 -0.4736 -1.2979
 4030SOL     OW23548   3.168   0.598  14.655 -0.4756 -0.2823 -0.2369
 4030SOL    HW123549   3.229   0.665  14.686 -0.3913 -1.0999  1.3709
 4030SOL    HW223550   3.164   0.625  14.563  2.0831 -2.2750 -0.9497
 4031SOL     OW23551   2.685   0.702  16.377 -0.1368  0.5043  0.2768
 4031SOL    HW123552   2.702   0.796  16.390  1.3523  0.0389  1.7003
 4031SOL    HW223553   2.760   0.656  16.413  1.0339  1.5559 -0.7988
 4032SOL     OW23554   4.507   4.162   7.496  0.0289  0.2821 -0.4958
 4032SOL    HW123555   4.432   4.220   7.509 -1.5973 -2.1044  0.7889
 4032SOL    HW223556   4.475   4.102   7.427 -1.7721  1.2354 -0.4829
 4033SOL     OW23557   3.974   4.010   2.320  0.0644 -0.7627  0.5157
 4033SOL    HW123558   4.051   4.014   2.376  1.8320 -2.1226 -1.7855
 4033SOL    HW223559   3.920   3.963   2.382 -1.5291 -0.1218 -0.3979
 4034SOL     OW23560   3.867   4.372   5.729 -0.0850 -0.0571 -0.0365
 4034SOL    HW123561   3.854   4.432   5.656 -2.8049 -0.0676  0.4348
 4034SOL    HW223562   3.950   4.333   5.700  0.2639  0.3355  0.4371
 4035SOL     OW23563   1.986   3.656   8.347 -0.2070  0.3772 -0.1720
 4035SOL    HW123564   2.045   3.582   8.334 -2.4081 -1.9687  3.1086
 4035SOL    HW223565   1.908   3.609   8.378 -1.1600  1.2652 -1.1979
 4036SOL     OW23566   1.528   0.408   7.634 -0.3063 -0.3258 -0.3449
 4036SOL    HW123567   1.522   0.344   7.564  1.2630  0.2305 -0.9995
 4036SOL    HW223568   1.468   0.369   7.697  0.4908 -0.8030  0.1232
 4037SOL     OW23569   0.515   0.008  13.320  0.1021 -0.7433 -0.1965
 4037SOL    HW123570   0.564   0.057  13.253 -0.0567 -0.6694 -0.2594
 4037SOL    HW223571   0.584   0.005  13.386 -1.5231  0.5295  1.5716
 4038SOL     OW23572   4.137   1.004   5.201 -0.4479 -0.2052  0.4725
 4038SOL    HW123573   4.224   1.030   5.233 -0.5764 -0.0391  0.6920
 4038SOL    HW223574   4.125   1.064   5.128  2.5556  2.7769  2.3929
 4039SOL     OW23575   1.452   2.382   6.443  0.4785  0.2779 -0.2354
 4039SOL    HW123576   1.438   2.466   6.487  0.1134 -0.7999  1.7185
 4039SOL    HW223577   1.486   2.405   6.357 -0.2125 -0.7188 -0.7719
 4040SOL     OW23578   0.255   3.739   2.596 -0.3744 -0.3748  0.0572
 4040SOL    HW123579   0.257   3.834   2.592 -1.1300 -0.3340  0.6355
 4040SOL    HW223580   0.349   3.725   2.594  0.1980  3.7160  0.0579
 4041SOL     OW23581   0.650   2.818   7.754  0.3159 -0.4862 -0.0102
 4041SOL    HW123582   0.584   2.887   7.768 -1.2872 -2.1272  0.5381
 4041SOL    HW223583   0.710   2.884   7.721  0.6777 -1.7507 -1.8348
 4042SOL     OW23584   4.030   4.702  14.490 -0.0506 -0.2543  0.0573
 4042SOL    HW123585   3.948   4.654  14.498  0.1335 -0.4933  0.4910
 4042SOL    HW223586   4.033   0.014  14.578  3.6980 -1.7063  0.5478
 4043SOL     OW23587   3.393   1.067   7.197  0.5091  0.4733  0.1176
 4043SOL    HW123588   3.419   1.052   7.106 -0.5512 -1.7964  0.1699
 4043SOL    HW223589   3.448   1.141   7.221  0.1778  0.5931  0.5096
 4044SOL     OW23590   0.140   2.520   6.863  0.4098 -0.0602  0.3938
 4044SOL    HW123591   0.066   2.465   6.836  1.6935 -1.8757  0.5324
 4044SOL    HW223592   0.138   2.509   6.958  1.1017  2.0451  0.6446
 4045SOL     OW23593   2.857   1.866   3.120  0.4374  0.5975  0.2209
 4045SOL    HW123594   2.778   1.919   3.137  0.0084 -0.7032  2.2497
 4045SOL    HW223595   2.825   1.778   3.103 -4.9213  3.0298 -2.2823
 4046SOL     OW23596   3.877   3.962   8.239 -0.2848  0.1771  0.3561
 4046SOL    HW123597   3.811   3.938   8.304  1.2700 -1.1355  1.4439
 4046SOL    HW223598   3.940   3.890   8.240 -0.4816  0.0184  1.3536
 4047SOL     OW23599   2.169   3.933   8.488  0.4081  0.2843 -0.1225
 4047SOL    HW123600   2.139   3.974   8.407 -1.0745 -2.0655 -0.7468
 4047SOL    HW223601   2.203   4.006   8.541  0.9115  0.9241 -1.3120
 4048SOL     OW23602   2.061   1.321  13.418 -0.2915 -0.6225 -0.1904
 4048SOL    HW123603   2.062   1.413  13.393 -1.3801 -0.0184  1.9478
 4048SOL    HW223604   2.155   1.305  13.426 -0.1433  0.3039 -0.1180
 4049SOL     OW23605   4.488   2.322   5.618 -0.6038 -0.4156 -0.0336
 4049SOL    HW123606   4.470   2.248   5.677 -3.7293  1.6230  1.5869
 4049SOL    HW223607   4.510   2.391   5.679 -1.2868 -0.7919  0.6399
 4050SOL     OW23608   4.070   2.276  15.045 -0.2238  0.3877  0.8626
 4050SOL    HW123609   4.025   2.348  15.001  1.4737  0.7132 -0.3383
 4050SOL    HW223610   4.029   2.195  15.014  3.0426  0.3928 -3.4461
 4051SOL     OW23611   4.469   1.968   4.659  0.1498 -0.1336  0.0408
 4051SOL    HW123612   4.449   1.947   4.750  1.7837  1.1542  0.7148
 4051SOL    HW223613   4.479   1.883   4.617  0.1836 -0.2055  0.1933
 4052SOL     OW23614   0.273   0.355  11.315  0.1464 -0.3760 -0.1909
 4052SOL    HW123615   0.213   0.422  11.283 -0.5963 -0.8578  0.1998
 4052SOL    HW223616   0.273   0.286  11.249 -1.6881  1.8570 -2.5040
 4053SOL     OW23617   3.772   2.018   4.601 -0.2981  0.4072 -0.5229
 4053SOL    HW123618   3.791   1.944   4.543 -1.3575 -0.1590 -0.1556
 4053SOL    HW223619   3.811   2.091   4.554 -0.5061 -0.5305 -2.1848
 4054SOL     OW23620   3.463   3.787   4.785 -0.1216 -0.7048 -0.2934
 4054SOL    HW123621   3.544   3.740   4.806  0.1337  0.0768  0.4679
 4054SOL    HW223622   3.418   3.776   4.869 -0.4557  0.8528 -0.2738
 4055SOL     OW23623   3.343   1.313   6.480 -0.2581 -0.3003 -0.2660
 4055SOL    HW123624   3.305   1.349   6.400  0.2744 -2.0822 -1.3426
 4055SOL    HW223625   3.315   1.372   6.549  2.2474 -2.0951  2.2557
 4056SOL     OW23626   2.961   3.323   6.529  0.5263  0.1325  0.0269
 4056SOL    HW123627   2.923   3.409   6.545 -1.4162 -1.0426  1.7086
 4056SOL    HW223628   2.967   3.299   6.621  0.9693 -0.1078 -0.0622
 4057SOL     OW23629   2.557   0.288   4.217 -0.1459  0.1366 -0.1636
 4057SOL    HW123630   2.632   0.345   4.235  1.2986 -1.0651 -2.3118
 4057SOL    HW223631   2.517   0.327   4.139 -0.9683 -2.3106 -0.9678
 4058SOL     OW23632   0.151   1.382   3.276  0.4153 -0.1162 -0.5042
 4058SOL    HW123633   0.226   1.352   3.224  0.8859 -0.2752  0.2632
 4058SOL    HW223634   0.152   1.473   3.245 -0.0325 -1.0957 -3.3326
 4059SOL     OW23635   3.094   4.087  13.522  0.1583  0.0389 -0.0494
 4059SOL    HW123636   3.013   4.111  13.478  1.1188 -0.3083 -2.0128
 4059SOL    HW223637   3.123   4.013  13.468  1.5217 -0.4160  1.2931
 4060SOL     OW23638   1.946   3.518  11.884  0.2857  0.4331 -0.2508
 4060SOL    HW123639   2.030   3.472  11.876  0.3863  0.3743  1.2199
 4060SOL    HW223640   1.913   3.497  11.796  1.4207 -2.7221  0.0584
 4061SOL     OW23641   4.618   0.927   6.938 -0.8395  0.0614  0.0949
 4061SOL    HW123642   4.666   1.010   6.934 -0.3243 -0.2959 -1.2658
 4061SOL    HW223643   4.640   0.906   7.028  0.6028  4.3844  0.7547
 4062SOL     OW23644   2.679   0.706   2.783  1.0240  0.4041 -0.0115
 4062SOL    HW123645   2.596   0.743   2.751  1.1621  1.2986  0.6760
 4062SOL    HW223646   2.740   0.693   2.710  0.7271  1.0921 -0.3850
 4063SOL     OW23647   2.758   3.269   4.633  0.1183  0.2262 -0.3777
 4063SOL    HW123648   2.756   3.182   4.592  0.8307 -0.5295  1.1564
 4063SOL    HW223649   2.853   3.269   4.644  0.1735  0.9804 -0.8586
 4064SOL     OW23650   4.344   4.397   8.410 -0.0598 -0.1050 -0.1657
 4064SOL    HW123651   4.344   4.447   8.328 -0.3220  1.2292  0.6674
 4064SOL    HW223652   4.273   4.335   8.395 -0.0416 -0.0909 -0.3116
 4065SOL     OW23653   3.380   4.142  15.263 -0.1037 -0.0404 -0.7001
 4065SOL    HW123654   3.424   4.078  15.319  1.9011  1.9523 -0.0066
 4065SOL    HW223655   3.449   4.187  15.214 -1.0610  0.4970 -1.5448
 4066SOL     OW23656   2.704   1.306   4.850 -0.6418  0.7136  0.4299
 4066SOL    HW123657   2.776   1.348   4.804 -0.0616 -0.2746  0.4376
 4066SOL    HW223658   2.742   1.220   4.864 -0.4959  0.2850 -2.5598
 4067SOL     OW23659   4.585   0.324   0.530 -0.1165 -0.1432 -0.7465
 4067SOL    HW123660   4.561   0.283   0.447 -1.6935 -0.4811 -0.1197
 4067SOL    HW223661   4.510   0.383   0.540  0.2528  0.1464  0.3695
 4068SOL     OW23662   0.280   4.713   4.483  0.9834 -0.5874 -0.2131
 4068SOL    HW123663   0.270   4.629   4.439  2.9537 -0.3952 -1.0425
 4068SOL    HW223664   0.189   0.004   4.507  1.5148  1.9514  0.1091
 4069SOL     OW23665   2.211   2.677  15.376 -0.0129 -0.1017 -0.4546
 4069SOL    HW123666   2.218   2.758  15.325  0.4947  0.2733  0.2066
 4069SOL    HW223667   2.292   2.687  15.426 -0.6018 -0.3371  0.5650
 4070SOL     OW23668   2.485   0.918   6.520 -0.0066  0.4654  0.0139
 4070SOL    HW123669   2.497   0.858   6.594 -1.0577  1.3341  0.8968
 4070SOL    HW223670   2.424   0.984   6.553  0.8060  0.5542  1.3487
 4071SOL     OW23671   2.698   2.234   7.816  0.0447 -0.0405  0.2226
 4071SOL    HW123672   2.761   2.185   7.763  0.5715  2.1801 -1.1616
 4071SOL    HW223673   2.710   2.177   7.893  0.8020 -0.9935 -0.6056
 4072SOL     OW23674   3.941   1.973   2.527  0.1546 -0.1733  0.6764
 4072SOL    HW123675   3.905   1.887   2.550  1.1254 -1.5014 -2.8451
 4072SOL    HW223676   4.029   1.950   2.556  1.0410  0.8230 -1.2420
 4073SOL     OW23677   2.136   1.912   4.576  0.0959  0.1371 -0.0907
 4073SOL    HW123678   2.188   1.991   4.563  1.2597 -0.4710  0.9181
 4073SOL    HW223679   2.157   1.903   4.669  2.3391  1.0898 -0.5209
 4074SOL     OW23680   2.717   2.651  13.682  0.1560  0.0883 -0.3501
 4074SOL    HW123681   2.736   2.700  13.762 -0.3873 -0.9486  0.4071
 4074SOL    HW223682   2.783   2.582  13.681 -0.4178 -0.4699  0.4894
 4075SOL     OW23683   1.152   1.280   2.831  0.3131 -0.1874 -0.4255
 4075SOL    HW123684   1.107   1.356   2.867  0.6933  0.0461 -0.4463
 4075SOL    HW223685   1.097   1.208   2.862 -1.2396  0.9165 -0.5993
 4076SOL     OW23686   1.469   3.816   1.714  0.0414 -0.0954 -0.3623
 4076SOL    HW123687   1.551   3.858   1.741  0.3166 -0.9210  0.1013
 4076SOL    HW223688   1.501   3.761   1.643  0.9449  0.2314 -0.2151
 4077SOL     OW23689   3.143   0.518   9.609 -0.4257  0.0862  0.5971
 4077SOL    HW123690   3.210   0.457   9.576 -1.3515 -0.9536  0.6405
 4077SOL    HW223691   3.124   0.562   9.526 -0.1240  0.5176  0.7568
 4078SOL     OW23692   0.987   1.490   6.518  0.2028 -0.0978  0.1036
 4078SOL    HW123693   0.949   1.542   6.448 -0.3385 -1.0506 -0.3131
 4078SOL    HW223694   0.961   1.403   6.486 -0.8053  0.4568 -0.5753
 4079SOL     OW23695   1.025   1.507   5.311 -0.2885  0.0331 -0.0078
 4079SOL    HW123696   1.062   1.559   5.239  0.4267 -1.1384 -0.4876
 4079SOL    HW223697   1.059   1.419   5.299  3.6809  0.9271  4.3416
 4080SOL     OW23698   0.806   3.178  15.160 -0.4320 -0.2979  0.4849
 4080SOL    HW123699   0.772   3.184  15.071 -0.4893  4.0270  0.8215
 4080SOL    HW223700   0.828   3.085  15.150 -0.3351 -0.2707  0.4516
 4081SOL     OW23701   3.242   0.681   2.792 -0.2628 -0.2950 -0.3277
 4081SOL    HW123702   3.276   0.742   2.857  1.4776 -2.5657  0.8963
 4081SOL    HW223703   3.192   0.737   2.733 -0.4645 -0.5513 -0.3984
 4082SOL     OW23704   0.426   3.120  14.365 -0.5268 -0.6297 -0.5325
 4082SOL    HW123705   0.371   3.174  14.422  0.5134  0.0900 -0.2329
 4082SOL    HW223706   0.405   3.160  14.280  0.2806  1.8387  0.4390
 4083SOL     OW23707   1.914   1.311  12.516 -0.3522 -0.5060  0.2638
 4083SOL    HW123708   1.875   1.342  12.598  1.2971  0.5974  0.6560
 4083SOL    HW223709   1.856   1.242  12.486  0.3919 -0.6222 -0.8899
 4084SOL     OW23710   2.954   2.875   0.026  0.1801 -0.5159  0.3925
 4084SOL    HW123711   2.911   2.924  17.657 -0.4055 -0.7613  0.5767
 4084SOL    HW223712   2.887   2.822   0.069 -0.8919  0.2447 -0.3209
 4085SOL     OW23713   2.083   4.244  12.036 -0.0615 -0.0184  0.0062
 4085SOL    HW123714   2.073   4.164  11.984 -0.7121 -0.4674  0.8245
 4085SOL    HW223715   2.120   4.221  12.122 -1.5316 -1.5002  0.2435
 4086SOL     OW23716   2.247   3.305   1.083  0.2014  0.4669 -0.7319
 4086SOL    HW123717   2.165   3.326   1.040 -0.8445  1.5285  1.7923
 4086SOL    HW223718   2.236   3.363   1.158 -0.7590 -0.7647  0.0785
 4087SOL     OW23719   1.324   1.085   3.133  0.4153  0.1458 -0.1606
 4087SOL    HW123720   1.371   1.085   3.049 -1.8666  0.0806 -1.4244
 4087SOL    HW223721   1.313   1.178   3.153  0.3799 -0.4661  2.6712
 4088SOL     OW23722   2.589   1.927   6.208  0.1361 -0.2428 -0.1462
 4088SOL    HW123723   2.530   1.985   6.257  1.0027  0.6547 -0.1584
 4088SOL    HW223724   2.538   1.910   6.128  0.4360  1.2692 -0.6678
 4089SOL     OW23725   3.229   2.616   2.580  0.2589 -0.9916  0.0167
 4089SOL    HW123726   3.210   2.576   2.665  2.0733  0.7560  1.2440
 4089SOL    HW223727   3.215   2.542   2.521  0.1802 -0.1385 -1.0376
 4090SOL     OW23728   4.375   4.330   5.052 -0.1341  0.2072  0.6342
 4090SOL    HW123729   4.382   4.310   5.145  3.2005 -0.6220  0.1718
 4090SOL    HW223730   4.322   4.410   5.054  1.6460  1.3863  0.5076
 4091SOL     OW23731   1.621   2.241   8.225  0.1973 -0.0092  0.1399
 4091SOL    HW123732   1.664   2.325   8.241  0.8949 -0.0885 -1.3107
 4091SOL    HW223733   1.538   2.281   8.201 -0.3891 -0.6055  1.2004
 4092SOL     OW23734   1.874   0.227   4.383  0.2465  0.2539 -0.6400
 4092SOL    HW123735   1.819   0.191   4.313  0.0375 -1.9815  0.6737
 4092SOL    HW223736   1.868   0.152   4.442  0.2127 -0.0060 -0.9723
 4093SOL     OW23737   3.756   0.514   2.527 -0.4153  0.5597 -0.5269
 4093SOL    HW123738   3.699   0.521   2.451  3.1315  1.5107 -3.1069
 4093SOL    HW223739   3.767   0.423   2.556 -1.0742  0.5446 -0.3460
 4094SOL     OW23740   3.236   2.684   3.400 -0.4773  0.5249  0.2136
 4094SOL    HW123741   3.228   2.761   3.343 -0.4905  0.9806  0.8210
 4094SOL    HW223742   3.308   2.639   3.357 -0.6722  0.4491 -0.0371
 4095SOL     OW23743   4.013   2.077  16.275  0.0980  0.0377 -0.0299
 4095SOL    HW123744   4.030   2.157  16.225  0.8667 -1.5039 -2.2500
 4095SOL    HW223745   4.042   2.102  16.363 -2.0460  1.0150  0.4203
 4096SOL     OW23746   1.360   2.887   5.486 -0.8626 -0.5729  0.1038
 4096SOL    HW123747   1.326   2.810   5.439 -1.1312 -1.0156  1.0233
 4096SOL    HW223748   1.450   2.884   5.453 -2.2584  1.2362 -3.8674
 4097SOL     OW23749   1.642   2.273   9.209  0.1147 -0.0835 -0.3186
 4097SOL    HW123750   1.716   2.245   9.156  0.4744  0.1803  0.0489
 4097SOL    HW223751   1.689   2.345   9.250  0.6874 -0.9792  0.5817
 4098SOL     OW23752   0.777   1.030  15.367  0.0769 -0.2325  0.0951
 4098SOL    HW123753   0.851   0.978  15.399  0.9443  0.5041 -0.7000
 4098SOL    HW223754   0.711   1.009  15.433  1.6797 -0.9076  1.4810
 4099SOL     OW23755   0.382   2.240   3.104  0.2372 -0.5578 -0.3826
 4099SOL    HW123756   0.331   2.185   3.162  0.5310  1.4225  1.7376
 4099SOL    HW223757   0.344   2.217   3.019  0.1422  1.0996 -0.8073
 4100SOL     OW23758   1.459   0.904   2.033 -0.2220  0.7189 -0.7284
 4100SOL    HW123759   1.503   0.977   1.990  0.5276  1.2931  1.0233
 4100SOL    HW223760   1.370   0.940   2.026 -0.7284  0.3440  3.7447
 4101SOL     OW23761   2.712   4.163   4.272 -0.1349 -0.5470  0.2854
 4101SOL    HW123762   2.723   4.071   4.246 -0.2186 -0.6979  0.7879
 4101SOL    HW223763   2.802   4.192   4.256 -0.0270 -0.5169  0.9530
 4102SOL     OW23764   2.334   0.032  17.699  0.5888 -0.0265 -0.0578
 4102SOL    HW123765   2.419   0.030  17.655  1.1393  3.3170  0.7783
 4102SOL    HW223766   2.278   0.010  17.625 -0.9067  0.4734  0.9084
 4103SOL     OW23767   0.574   3.914  10.889  0.0188 -0.1095  0.7649
 4103SOL    HW123768   0.567   4.000  10.931  0.5109  0.3485 -0.1102
 4103SOL    HW223769   0.626   3.873  10.959  0.3566  1.7379  1.6059
 4104SOL     OW23770   0.308   0.429   7.212 -0.4412  0.2141  0.4968
 4104SOL    HW123771   0.271   0.362   7.270 -0.4528 -0.9730 -0.8833
 4104SOL    HW223772   0.282   0.396   7.126 -1.6196 -0.0003  0.9316
 4105SOL     OW23773   3.307   3.223   2.864 -0.4212  0.1673 -0.1183
 4105SOL    HW123774   3.324   3.237   2.771  2.7270  0.5830  0.5078
 4105SOL    HW223775   3.248   3.148   2.864 -0.1961 -0.0118  0.5424
 4106SOL     OW23776   2.580   3.479   7.670  0.0101  0.2368  0.2130
 4106SOL    HW123777   2.495   3.436   7.677 -0.0326  0.0436 -1.3483
 4106SOL    HW223778   2.562   3.562   7.713 -0.7628 -0.6274  1.5354
 4107SOL     OW23779   3.321   3.075  16.712  0.5088 -0.0962 -0.0300
 4107SOL    HW123780   3.241   3.123  16.732  0.4113 -0.5466  0.6588
 4107SOL    HW223781   3.382   3.091  16.784 -0.8401  0.9663  0.8903
 4108SOL     OW23782   4.508   0.059   5.578  0.5435 -0.0287 -0.0871
 4108SOL    HW123783   4.568   4.718   5.613  0.5447 -0.9578 -1.8691
 4108SOL    HW223784   4.424   0.015   5.595  0.0272  0.1915 -2.1415
 4109SOL     OW23785   1.777   4.616   6.971 -0.3674 -0.6699 -0.0939
 4109SOL    HW123786   1.841   4.614   7.042 -1.1924  1.7238  0.7080
 4109SOL    HW223787   1.711   4.559   7.011  1.0286 -3.8616 -2.2642
 4110SOL     OW23788   2.792   2.843   9.991 -0.5656  0.1204  0.4285
 4110SOL    HW123789   2.847   2.921   9.985 -2.4647  1.4273 -0.2421
 4110SOL    HW223790   2.832   2.802  10.067 -1.0566 -2.1275 -0.5291
 4111SOL     OW23791   2.801   1.002   5.681 -0.1792  0.4736  0.1683
 4111SOL    HW123792   2.802   1.010   5.585  1.8818  0.3370  0.1729
 4111SOL    HW223793   2.717   1.043   5.699  0.3262  0.7175  1.9059
 4112SOL     OW23794   2.307   0.552   7.333  0.4339  0.7859  0.5532
 4112SOL    HW123795   2.218   0.562   7.300  0.5773 -1.0311 -0.4157
 4112SOL    HW223796   2.349   0.615   7.275 -0.0808  0.1898 -0.4612
 4113SOL     OW23797   0.028   3.474   8.078  0.2387 -0.8693 -0.1648
 4113SOL    HW123798   0.012   3.517   7.994 -2.1054 -3.8230 -1.2451
 4113SOL    HW223799   4.662   3.458   8.102 -0.3901  1.4940 -0.9920
 4114SOL     OW23800   1.743   1.122   9.381 -0.0083 -0.5352  0.5018
 4114SOL    HW123801   1.670   1.092   9.326 -0.0812  0.8557 -0.1664
 4114SOL    HW223802   1.693   1.194   9.420  1.0487 -0.1140  1.0643
 4115SOL     OW23803   3.125   3.633  16.384  0.3465 -0.5116  0.3903
 4115SOL    HW123804   3.035   3.631  16.416  0.1450 -1.3688 -0.2208
 4115SOL    HW223805   3.167   3.577  16.448  0.9968 -0.4189  0.0460
 4116SOL     OW23806   0.737   0.289   9.419  0.3549  0.1131 -0.4002
 4116SOL    HW123807   0.808   0.323   9.365 -0.9992 -0.5516 -2.6051
 4116SOL    HW223808   0.767   0.199   9.434  1.7932  0.6224 -0.1936
 4117SOL     OW23809   4.592   3.694   6.480 -0.5133 -0.0742  0.2404
 4117SOL    HW123810   4.555   3.735   6.559 -0.1625  3.4541 -1.3903
 4117SOL    HW223811   4.618   3.772   6.431 -0.6199 -0.4775 -0.4438
 4118SOL     OW23812   4.603   0.765   3.239  0.0919 -0.2023  0.2627
 4118SOL    HW123813   4.535   0.832   3.248  0.6476  0.5663 -1.1540
 4118SOL    HW223814   4.559   0.683   3.260  0.1733 -0.0210  1.1445
 4119SOL     OW23815   0.752   3.125   4.560  0.9094 -0.5089  0.2440
 4119SOL    HW123816   0.744   3.053   4.497  1.1037 -0.4132  0.1079
 4119SOL    HW223817   0.752   3.194   4.493  1.6531  1.9113  2.7486
 4120SOL     OW23818   0.384   0.479  17.606 -0.5043 -0.1760 -0.6014
 4120SOL    HW123819   0.453   0.428  17.648 -1.7226 -1.4536 -0.1439
 4120SOL    HW223820   0.324   0.407  17.584 -1.8153  0.2706  1.5362
 4121SOL     OW23821   1.887   1.223  13.200  0.4653 -0.2808 -0.0233
 4121SOL    HW123822   1.933   1.263  13.273  0.1826 -0.0910  0.0511
 4121SOL    HW223823   1.811   1.280  13.197 -0.1582 -1.1518 -1.1560
 4122SOL     OW23824   1.171   2.228   1.271  0.1945 -0.3048  0.5552
 4122SOL    HW123825   1.202   2.274   1.193 -0.1813 -2.1673 -0.6825
 4122SOL    HW223826   1.077   2.213   1.256  0.3140  1.7388 -2.2462
 4123SOL     OW23827   4.672   4.035   4.260  0.2657 -0.1714 -0.6862
 4123SOL    HW123828   4.587   4.022   4.218 -0.3462  0.3425  0.4147
 4123SOL    HW223829   4.698   3.943   4.263  2.0882  0.3035 -1.8443
 4124SOL     OW23830   0.229   2.683  13.468  0.0236  0.0023 -0.0059
 4124SOL    HW123831   0.315   2.641  13.466  0.9134  1.7879  0.5237
 4124SOL    HW223832   0.197   2.651  13.553  1.9162 -0.9833  0.3355
 4125SOL     OW23833   3.076   3.943   6.300  0.6405 -0.2830 -0.3241
 4125SOL    HW123834   3.136   3.873   6.324  1.3602  0.6450  0.6234
 4125SOL    HW223835   2.993   3.900   6.319 -1.1276  2.5101 -1.6904
 4126SOL     OW23836   0.424   4.027  14.956  0.0546 -0.0066 -0.1262
 4126SOL    HW123837   0.493   4.093  14.946  0.6021 -0.7314 -1.2609
 4126SOL    HW223838   0.449   3.972  14.881  2.0303  0.1371  0.4140
 4127SOL     OW23839   3.266   0.102   5.510  0.3953 -0.2518 -0.5524
 4127SOL    HW123840   3.224   0.127   5.592  1.2701 -1.9610  0.4018
 4127SOL    HW223841   3.350   0.144   5.529 -0.3298  0.5155  0.9584
 4128SOL     OW23842   1.527   3.244   9.465 -0.2079  0.8577  0.2111
 4128SOL    HW123843   1.584   3.263   9.539 -1.2449  2.0031  0.7042
 4128SOL    HW223844   1.448   3.294   9.486 -0.7101  0.4508 -0.7020
 4129SOL     OW23845   2.488   3.307  11.035  0.2064  0.0088 -0.4136
 4129SOL    HW123846   2.439   3.389  11.042  0.7351  0.0200  2.9771
 4129SOL    HW223847   2.426   3.241  11.006  1.8424 -1.6620 -0.1364
 4130SOL     OW23848   3.492   0.602   9.923  0.0850 -0.2477 -0.1014
 4130SOL    HW123849   3.401   0.582   9.946 -0.7477  1.2536 -2.0731
 4130SOL    HW223850   3.526   0.534   9.865 -0.9313 -0.7337 -0.1303
 4131SOL     OW23851   4.166   2.298  10.984 -0.0667  0.3197 -0.3767
 4131SOL    HW123852   4.157   2.345  11.067  1.3915  0.9359 -0.5669
 4131SOL    HW223853   4.079   2.260  10.972  0.7648 -2.2233  1.5904
 4132SOL     OW23854   4.623   1.618  14.303  0.1124 -0.1298  0.2719
 4132SOL    HW123855   4.695   1.566  14.265 -0.1431  0.1368 -0.5840
 4132SOL    HW223856   4.577   1.631  14.220  1.3874  2.2915 -0.0580
 4133SOL     OW23857   4.670   1.200   6.031 -0.2136  0.0305 -0.1923
 4133SOL    HW123858   4.725   1.188   6.109 -0.8031 -1.0936  0.0486
 4133SOL    HW223859   4.708   1.131   5.976 -0.1471 -1.2704  1.5147
 4134SOL     OW23860   0.970   0.504   5.656 -0.2311 -0.2628 -0.4437
 4134SOL    HW123861   0.910   0.507   5.731 -1.1827 -1.5686 -1.1611
 4134SOL    HW223862   0.967   0.411   5.636 -1.0497 -0.6555  1.4818
 4135SOL     OW23863   1.928   3.351   8.789  0.4514  0.6697 -0.2090
 4135SOL    HW123864   1.857   3.290   8.812  0.0722  1.6657  1.3083
 4135SOL    HW223865   1.952   3.322   8.702  0.5195 -1.8583  0.6519
 4136SOL     OW23866   0.832   0.460   6.065  0.2041  0.3401  0.2715
 4136SOL    HW123867   0.816   0.547   6.101  1.4132  1.8820 -2.8654
 4136SOL    HW223868   0.747   0.437   6.028 -0.2624 -0.6392  1.9422
 4137SOL     OW23869   2.287   3.879   6.153  0.2987  0.1589 -0.2511
 4137SOL    HW123870   2.288   3.887   6.058 -0.1662  2.0676 -0.0850
 4137SOL    HW223871   2.343   3.954   6.170  1.6069 -1.2882  1.8338
 4138SOL     OW23872   3.408   3.728   9.691 -0.1380 -0.3348 -0.1771
 4138SOL    HW123873   3.467   3.695   9.623  1.1361  0.2321  0.6582
 4138SOL    HW223874   3.385   3.809   9.645  2.4168  0.7059  0.3804
 4139SOL     OW23875   0.270   1.651  12.115 -0.0691 -0.8969  0.4442
 4139SOL    HW123876   0.270   1.570  12.166  0.6261 -0.5741  0.9614
 4139SOL    HW223877   0.213   1.713  12.161 -0.1242 -0.6202 -0.0012
 4140SOL     OW23878   2.004   2.651   3.599 -0.3054  0.0358  0.1126
 4140SOL    HW123879   2.027   2.559   3.590 -1.5490 -0.4114  1.4380
 4140SOL    HW223880   1.931   2.657   3.538 -0.1668 -1.5061 -0.1967
 4141SOL     OW23881   2.795   1.042  10.181 -0.6333  0.0157 -0.0659
 4141SOL    HW123882   2.753   1.000  10.256  0.2665 -0.8274 -0.0358
 4141SOL    HW223883   2.884   1.007  10.188 -1.7223 -2.2388  2.5176
 4142SOL     OW23884   3.535   2.523   8.211  0.1547  0.0791 -0.1208
 4142SOL    HW123885   3.470   2.489   8.274 -0.6271  0.7681 -0.5538
 4142SOL    HW223886   3.573   2.595   8.261 -0.3327  1.2373 -1.4270
 4143SOL     OW23887   1.351   4.060   2.852 -0.6344 -0.5785  0.1093
 4143SOL    HW123888   1.292   4.121   2.809 -0.4961 -2.4653 -2.7322
 4143SOL    HW223889   1.345   4.086   2.944  0.4110 -1.2602  0.3772
 4144SOL     OW23890   2.372   4.533   1.881 -0.4629  0.5617  0.3489
 4144SOL    HW123891   2.349   4.441   1.891 -2.5424  1.2092  1.5248
 4144SOL    HW223892   2.322   4.566   1.806 -1.4084 -2.0352 -0.1389
 4145SOL     OW23893   1.252   3.877   5.614 -0.2571 -0.6504  0.5722
 4145SOL    HW123894   1.331   3.910   5.571 -1.3346  2.8959  1.2988
 4145SOL    HW223895   1.201   3.830   5.548  0.5107 -1.4032  0.5079
 4146SOL     OW23896   2.124   4.310   7.684  0.3033  0.4061 -0.1290
 4146SOL    HW123897   2.214   4.305   7.718  0.0316  0.2111  0.5510
 4146SOL    HW223898   2.138   4.298   7.590 -0.3136  0.5683 -0.2388
 4147SOL     OW23899   3.146   4.461   4.802 -0.6215  0.1514 -0.1192
 4147SOL    HW123900   3.124   4.506   4.883 -0.9788  0.1291 -0.2040
 4147SOL    HW223901   3.094   4.507   4.736 -2.0510 -0.4477  0.5872
 4148SOL     OW23902   1.631   2.841   1.788  0.1742 -0.3799 -0.3608
 4148SOL    HW123903   1.612   2.923   1.743 -0.6170 -0.5773 -0.3859
 4148SOL    HW223904   1.726   2.837   1.790  0.1490 -0.7386  0.0048
 4149SOL     OW23905   0.277   2.377   2.264 -0.5248  0.1584 -0.0502
 4149SOL    HW123906   0.263   2.471   2.251 -0.6804  0.0988 -0.3336
 4149SOL    HW223907   0.342   2.366   2.333 -1.5574 -1.7356  0.6158
 4150SOL     OW23908   2.529   4.479  13.722  0.4568  0.2415 -0.0878
 4150SOL    HW123909   2.554   4.553  13.777  0.6782 -0.2797  0.5108
 4150SOL    HW223910   2.607   4.424  13.719  0.7877  0.6113  1.8253
 4151SOL     OW23911   3.038   0.204   0.746  0.2906 -0.0925  0.2157
 4151SOL    HW123912   2.945   0.184   0.760  0.5389 -1.3852 -0.0705
 4151SOL    HW223913   3.075   0.130   0.699 -2.6883  0.1111 -2.5328
 4152SOL     OW23914   0.593   3.768   5.235 -0.4073  0.0529 -0.4501
 4152SOL    HW123915   0.548   3.694   5.273 -0.9827 -1.5412 -4.2595
 4152SOL    HW223916   0.671   3.727   5.197 -0.6704 -0.8489 -0.0028
 4153SOL     OW23917   3.337   1.770   3.369 -0.1321  0.2446  0.8031
 4153SOL    HW123918   3.384   1.780   3.452  2.3430 -0.7575 -0.4800
 4153SOL    HW223919   3.260   1.821   3.393 -0.1722  0.1283  0.9202
 4154SOL     OW23920   1.688   1.609   5.937 -0.3522  0.1336 -0.5226
 4154SOL    HW123921   1.711   1.545   5.870 -1.6771  0.1469 -0.9768
 4154SOL    HW223922   1.775   1.645   5.957  0.0035 -1.9947  1.6907
 4155SOL     OW23923   4.261   2.684   6.559  0.1293  0.3940 -0.3843
 4155SOL    HW123924   4.201   2.616   6.588  2.8642 -2.0126 -0.3721
 4155SOL    HW223925   4.264   2.728   6.644 -0.6001  0.4667 -0.4008
 4156SOL     OW23926   3.112   3.924   6.633 -0.6472  0.3646 -0.2877
 4156SOL    HW123927   3.134   3.856   6.569 -1.8194  0.0760 -0.3730
 4156SOL    HW223928   3.191   3.919   6.687  0.0017 -0.3889 -1.3204
 4157SOL     OW23929   4.226   1.549   8.027 -0.1106  0.3841 -0.3279
 4157SOL    HW123930   4.231   1.557   7.932 -0.1190  2.1144 -0.1672
 4157SOL    HW223931   4.184   1.633   8.044 -0.5102 -0.6389  3.7724
 4158SOL     OW23932   1.995   3.163   8.326 -0.0105 -0.4793 -0.6260
 4158SOL    HW123933   2.021   3.071   8.324 -0.0328 -0.4776 -0.9460
 4158SOL    HW223934   1.910   3.157   8.283 -0.6822 -1.2759  0.7947
 4159SOL     OW23935   0.358   2.398  15.297  0.1060 -0.2036  0.5301
 4159SOL    HW123936   0.303   2.356  15.231  1.9065  1.3746 -1.9933
 4159SOL    HW223937   0.405   2.320  15.329  0.9049  0.1646  0.2717
 4160SOL     OW23938   2.567   1.204  12.944  0.0354  0.2674 -0.4162
 4160SOL    HW123939   2.541   1.273  13.006 -0.3314 -1.5534  1.4409
 4160SOL    HW223940   2.489   1.149  12.942 -0.6553  1.2333 -0.4904
 4161SOL     OW23941   2.305   3.002   6.509  0.0996 -0.1582 -0.5707
 4161SOL    HW123942   2.307   2.928   6.449  2.1358 -1.6558  1.3466
 4161SOL    HW223943   2.283   2.958   6.591 -0.4679  0.6279 -0.2986
 4162SOL     OW23944   0.292   4.671   8.389  0.3775  0.0702 -0.5534
 4162SOL    HW123945   0.197   4.676   8.378  0.3018 -1.4666 -0.5629
 4162SOL    HW223946   0.304   0.039   8.407  1.6476 -0.3131  0.6081
 4163SOL     OW23947   2.222   1.462   2.733 -0.0483  0.1878  0.1620
 4163SOL    HW123948   2.280   1.401   2.688  1.5393  1.4425  0.4879
 4163SOL    HW223949   2.223   1.424   2.820 -0.6469  1.0622  0.5505
 4164SOL     OW23950   2.334   3.295   6.182  0.0212 -0.6029  0.3419
 4164SOL    HW123951   2.337   3.297   6.278  2.3679  2.3057  0.2205
 4164SOL    HW223952   2.268   3.359   6.156  0.7021 -0.6180 -1.3812
 4165SOL     OW23953   1.464   0.813   5.032  0.0572  0.4316  0.2805
 4165SOL    HW123954   1.467   0.769   4.948 -1.1898  0.2593  0.3149
 4165SOL    HW223955   1.466   0.737   5.090 -0.0804  0.6510  0.5774
 4166SOL     OW23956   2.083   0.790   5.531 -0.3641  0.0273  0.0345
 4166SOL    HW123957   2.017   0.860   5.538  1.0143  1.2689  0.6915
 4166SOL    HW223958   2.076   0.746   5.615 -1.1531  1.1091  0.5352
 4167SOL     OW23959   1.430   1.644   9.340 -0.9273  0.1825  0.0424
 4167SOL    HW123960   1.416   1.579   9.408 -0.8573 -1.5504 -1.5928
 4167SOL    HW223961   1.525   1.643   9.333 -0.9789  0.0710 -0.7002
 4168SOL     OW23962   2.373   3.648   4.936 -0.0300  0.3625  0.4260
 4168SOL    HW123963   2.384   3.736   4.973 -1.5905  0.8998 -0.3734
 4168SOL    HW223964   2.459   3.612   4.957 -0.1409 -0.4590 -0.5361
 4169SOL     OW23965   3.659   0.848   2.152 -0.4100  0.1598  0.5704
 4169SOL    HW123966   3.682   0.805   2.235 -0.3329  1.7340  1.3617
 4169SOL    HW223967   3.626   0.933   2.181  0.9449  1.7157 -2.4267
 4170SOL     OW23968   2.718   3.297   2.333 -0.0070 -0.0162  0.9158
 4170SOL    HW123969   2.687   3.211   2.305  0.4605  0.4170 -0.9044
 4170SOL    HW223970   2.793   3.299   2.274 -0.0571 -1.6030  0.8031
 4171SOL     OW23971   2.029   1.650   2.691  0.1153  0.0111 -0.1888
 4171SOL    HW123972   2.102   1.589   2.702  0.4416  0.1905 -1.3520
 4171SOL    HW223973   2.057   1.722   2.748 -0.8401 -0.1159  0.4335
 4172SOL     OW23974   1.532   1.269  13.122  0.3228 -0.9729 -0.1946
 4172SOL    HW123975   1.502   1.217  13.047 -2.6122 -1.4320  1.2800
 4172SOL    HW223976   1.448   1.312  13.138  0.1132 -0.8313 -1.6343
 4173SOL     OW23977   2.769   1.251  15.540  0.2858  0.5428 -0.5411
 4173SOL    HW123978   2.771   1.267  15.634  1.4415 -1.7346 -0.1662
 4173SOL    HW223979   2.790   1.158  15.536 -2.0177 -0.0029  0.3699
 4174SOL     OW23980   1.454   1.453   9.545  0.0874  0.1932  0.8802
 4174SOL    HW123981   1.508   1.375   9.530 -1.6828 -1.1152  1.3066
 4174SOL    HW223982   1.506   1.507   9.604  1.3288 -3.3074  3.0022
 4175SOL     OW23983   0.390   3.174   1.418 -0.0302 -0.0538 -0.4893
 4175SOL    HW123984   0.389   3.137   1.330  0.4238  0.5810 -0.7571
 4175SOL    HW223985   0.303   3.155   1.453  0.1545  2.9550  1.5621
 4176SOL     OW23986   0.737   3.703   6.621 -0.0768  0.0992  0.3447
 4176SOL    HW123987   0.687   3.622   6.632  0.2282  0.2789  2.8330
 4176SOL    HW223988   0.774   3.687   6.534 -1.6648  0.1961 -0.3513
 4177SOL     OW23989   0.860   1.002   6.283 -0.6589  0.3327 -0.3259
 4177SOL    HW123990   0.834   1.049   6.203 -4.4846 -0.4812  0.4581
 4177SOL    HW223991   0.915   1.064   6.332  0.8366  1.2380 -3.1213
 4178SOL     OW23992   1.090   3.872  14.899  0.2904 -0.2083  0.9007
 4178SOL    HW123993   0.997   3.890  14.883 -0.0475 -2.7875 -0.1194
 4178SOL    HW223994   1.103   3.791  14.850 -1.2151  0.8166 -1.2143
 4179SOL     OW23995   0.371   1.253   9.110  0.7194  0.0876 -0.6616
 4179SOL    HW123996   0.354   1.162   9.133  0.0884  0.8444  1.8473
 4179SOL    HW223997   0.466   1.260   9.120  0.6869 -0.4582  0.0189
 4180SOL     OW23998   4.299   3.311   5.209  0.0274  0.1538 -0.5531
 4180SOL    HW123999   4.393   3.320   5.191  0.4537 -1.3410  0.9057
 4180SOL    HW224000   4.296   3.363   5.289  0.0083  0.9027 -1.0345
 4181SOL     OW24001   2.702   2.546   9.744  0.1636  0.0054  0.1014
 4181SOL    HW124002   2.716   2.473   9.804  0.7750 -1.9857 -2.4458
 4181SOL    HW224003   2.694   2.493   9.664  0.9559  0.7217 -0.4497
 4182SOL     OW24004   4.630   4.493   7.268  0.0847 -0.5062 -0.2928
 4182SOL    HW124005   4.573   4.568   7.253  0.0602 -0.3667  0.5404
 4182SOL    HW224006   4.591   4.423   7.215 -2.1520  1.0350 -0.7000
 4183SOL     OW24007   0.523   0.048   5.434 -0.3803  0.1359 -0.0311
 4183SOL    HW124008   0.558   4.713   5.368  0.7329 -1.5982  2.1354
 4183SOL    HW224009   0.503   0.130   5.388  0.5093  0.4742  0.1854
 4184SOL     OW24010   2.788   3.781  15.663 -0.4515 -0.4592  0.1205
 4184SOL    HW124011   2.840   3.852  15.626 -0.2512 -0.5042  0.3231
 4184SOL    HW224012   2.711   3.824  15.701 -1.2534 -1.3901 -0.4132
 4185SOL     OW24013   2.511   3.346  17.303 -0.0229  0.0792  0.2622
 4185SOL    HW124014   2.518   3.394  17.220 -2.4574  1.1747  0.7129
 4185SOL    HW224015   2.571   3.387  17.365 -3.4315  1.9628  2.2624
 4186SOL     OW24016   0.905   4.611   8.758 -0.2266  0.6295 -0.8177
 4186SOL    HW124017   0.904   4.618   8.663  2.7947 -0.1087 -0.9102
 4186SOL    HW224018   0.813   4.631   8.775 -0.6078  0.1436 -2.3323
 4187SOL     OW24019   0.944   2.567   8.398 -0.3356  0.3263 -0.0791
 4187SOL    HW124020   1.023   2.615   8.374  0.1521 -0.5270 -0.1717
 4187SOL    HW224021   0.915   2.619   8.473 -0.4561 -0.0214  0.1122
 4188SOL     OW24022   2.945   2.509   2.274 -0.5542 -0.3241 -0.1731
 4188SOL    HW124023   2.921   2.421   2.243  2.3793 -0.8663 -0.8369
 4188SOL    HW224024   3.022   2.541   2.227 -0.3674  0.4056  0.6256
 4189SOL     OW24025   1.741   1.510  17.510  0.4401 -0.1438 -0.0910
 4189SOL    HW124026   1.666   1.482  17.459  0.9817 -2.1573  0.2179
 4189SOL    HW224027   1.718   1.603  17.506  1.1320  0.0366  0.0065
 4190SOL     OW24028   0.412   4.061   1.746  0.0341 -0.1010  0.0374
 4190SOL    HW124029   0.360   4.011   1.809 -2.9948  0.9455 -1.6680
 4190SOL    HW224030   0.489   4.006   1.759  0.3087  0.5043  0.9920
 4191SOL     OW24031   2.370   3.455   6.624  0.5328 -0.3829  0.4695
 4191SOL    HW124032   2.428   3.425   6.695  0.2981  1.9072  1.6385
 4191SOL    HW224033   2.390   3.388   6.558 -0.9085  0.5931 -0.9414
 4192SOL     OW24034   1.321   1.182   7.893 -0.1264 -0.0211 -0.3025
 4192SOL    HW124035   1.396   1.130   7.922  2.3372  1.8054 -3.4149
 4192SOL    HW224036   1.265   1.110   7.864  0.9264 -0.7909 -0.4378
 4193SOL     OW24037   4.120   1.926   6.975 -0.6457  0.1890 -0.9488
 4193SOL    HW124038   4.093   1.976   7.053  0.2382  0.1573 -0.6150
 4193SOL    HW224039   4.076   1.842   6.966 -0.1974 -0.3161  1.4064
 4194SOL     OW24040   3.171   4.652   2.724  0.9394  0.3248 -0.7462
 4194SOL    HW124041   3.182   0.013   2.683  0.1246 -1.0226 -3.7454
 4194SOL    HW224042   3.166   4.604   2.641  1.7761 -0.4446 -0.3609
 4195SOL     OW24043   2.202   1.721   8.152  0.4070 -0.1295 -0.1578
 4195SOL    HW124044   2.186   1.628   8.168 -1.5620  0.4079  0.9857
 4195SOL    HW224045   2.109   1.742   8.162  0.9853  1.8181  1.0536
 4196SOL     OW24046   0.877   3.343   3.731  0.5675  0.2066 -0.1752
 4196SOL    HW124047   0.796   3.335   3.782 -0.4868  1.7319 -1.6070
 4196SOL    HW224048   0.845   3.306   3.649  0.7605 -2.1947  0.8222
 4197SOL     OW24049   4.573   3.712   3.246 -0.5131 -0.5068 -0.0960
 4197SOL    HW124050   4.589   3.694   3.153 -2.0211  1.6403 -0.7809
 4197SOL    HW224051   4.497   3.771   3.249  1.3177  1.7089  3.0495
 4198SOL     OW24052   3.655   1.553  10.949 -0.1507 -0.3649  0.2153
 4198SOL    HW124053   3.615   1.535  11.034 -0.2261 -2.6313 -0.2948
 4198SOL    HW224054   3.724   1.487  10.943  0.5679  0.3041  1.2079
 4199SOL     OW24055   1.394   0.559   6.955 -0.4667  0.0470  0.5804
 4199SOL    HW124056   1.436   0.494   6.899  0.1540 -1.3246  2.6177
 4199SOL    HW224057   1.314   0.582   6.908 -0.7816  0.7394  1.4427
 4200SOL     OW24058   3.434   1.846   0.893 -0.5541 -0.3645 -0.0267
 4200SOL    HW124059   3.527   1.846   0.914 -0.1124 -0.9472 -2.0006
 4200SOL    HW224060   3.416   1.936   0.920  0.5703 -0.2953  0.4705
 4201SOL     OW24061   2.571   0.624   4.387 -0.0117 -0.5313  0.1709
 4201SOL    HW124062   2.539   0.580   4.465  1.1564  0.6375  1.3030
 4201SOL    HW224063   2.663   0.598   4.385  0.1480  0.1590 -1.8401
 4202SOL     OW24064   3.625   3.092   2.954 -0.2200  0.2457 -0.3344
 4202SOL    HW124065   3.591   3.182   2.950  1.0447  0.6983 -0.9697
 4202SOL    HW224066   3.706   3.107   2.906 -0.1621  1.2178  0.0655
 4203SOL     OW24067   4.681   1.885  13.131  0.4282  0.2467 -0.1415
 4203SOL    HW124068   4.669   1.958  13.191  0.9665 -0.4950  0.8597
 4203SOL    HW224069   0.049   1.894  13.109  0.0693  3.8922 -0.0668
 4204SOL     OW24070   2.361   1.965   8.330  0.2591  0.1214  0.2335
 4204SOL    HW124071   2.313   2.037   8.372  0.7330  1.2187 -1.1084
 4204SOL    HW224072   2.306   1.893   8.361 -0.3274  0.5218  0.1297
 4205SOL     OW24073   1.534   4.581   3.418  0.9611 -0.3049 -0.1788
 4205SOL    HW124074   1.497   4.508   3.467 -1.0336 -0.0501 -1.3195
 4205SOL    HW224075   1.511   4.568   3.326  0.8294 -0.5191 -0.1159
 4206SOL     OW24076   0.570   3.292   0.342  0.0031 -0.0486 -0.4595
 4206SOL    HW124077   0.492   3.280   0.396  0.8044 -0.0355  0.7038
 4206SOL    HW224078   0.571   3.388   0.337 -2.8674  0.0580  0.7536
 4207SOL     OW24079   1.924   4.382  13.837  0.4759 -0.0860  0.2034
 4207SOL    HW124080   2.016   4.400  13.854  0.8620 -2.1784  0.2947
 4207SOL    HW224081   1.887   4.469  13.820  0.1356  0.0492  1.6085
 4208SOL     OW24082   2.129   2.125   7.679  0.2041  0.1907  0.0118
 4208SOL    HW124083   2.114   2.121   7.773  2.0803 -0.3401  0.2904
 4208SOL    HW224084   2.054   2.068   7.661  1.2516 -1.0574 -0.4032
 4209SOL     OW24085   3.655   1.164   4.513 -0.0965  0.4695 -0.1015
 4209SOL    HW124086   3.735   1.126   4.477  0.4289  1.8093 -0.3579
 4209SOL    HW224087   3.603   1.178   4.434  0.2046  1.3640 -0.1406
 4210SOL     OW24088   0.497   3.709   8.803  0.4840  0.0369 -0.1585
 4210SOL    HW124089   0.423   3.767   8.818 -0.5851 -1.6262  0.8689
 4210SOL    HW224090   0.534   3.759   8.729 -1.8043  0.4230 -1.0537
 4211SOL     OW24091   3.777   0.968  11.210 -0.1925  1.2043 -0.1989
 4211SOL    HW124092   3.807   1.059  11.210  1.6640  0.5903 -1.7694
 4211SOL    HW224093   3.683   0.972  11.191 -0.5870 -0.6471  1.3305
 4212SOL     OW24094   3.017   1.763   6.022  0.7142 -0.4401 -0.3193
 4212SOL    HW124095   2.981   1.851   6.032  0.8028 -0.2277 -1.8332
 4212SOL    HW224096   3.057   1.757   5.935 -0.2653 -0.1332 -0.7987
 4213SOL     OW24097   0.615   3.923  11.539 -0.2881  0.3051 -0.4310
 4213SOL    HW124098   0.693   3.954  11.585 -1.2707  0.3854  1.1442
 4213SOL    HW224099   0.639   3.927  11.446 -0.3603 -2.2421 -0.5654
 4214SOL     OW24100   4.292   2.760   7.197  0.4009 -0.1662  0.7551
 4214SOL    HW124101   4.203   2.730   7.215  0.2390 -0.6975 -0.9006
 4214SOL    HW224102   4.335   2.674   7.191 -1.5591 -1.0624 -0.3647
 4215SOL     OW24103   3.987   0.612   5.130 -0.0310  0.1255  0.5391
 4215SOL    HW124104   3.967   0.601   5.037  0.1213  1.9329  0.2888
 4215SOL    HW224105   3.902   0.649   5.156  2.0897  5.1283  0.1788
 4216SOL     OW24106   0.798   2.677   7.443  0.2878 -0.0469  0.1200
 4216SOL    HW124107   0.819   2.648   7.531  1.3157  0.0350 -0.0895
 4216SOL    HW224108   0.864   2.747   7.446  0.5332 -0.2733  0.0570
 4217SOL     OW24109   4.643   2.876   9.283 -0.8754 -0.0798  0.5234
 4217SOL    HW124110   4.603   2.902   9.201 -0.0947  1.7037  0.7090
 4217SOL    HW224111   4.705   2.948   9.291 -1.5606  0.6012 -0.2579
 4218SOL     OW24112   3.790   1.707   6.484 -0.2139 -0.3257 -0.2259
 4218SOL    HW124113   3.804   1.614   6.466 -2.1861 -0.7838  0.6209
 4218SOL    HW224114   3.843   1.750   6.417 -1.0895 -0.2885 -0.9032
 4219SOL     OW24115   4.126   1.156   5.642 -0.9414 -0.6916 -0.3508
 4219SOL    HW124116   4.139   1.227   5.705 -0.0306 -0.7012 -0.5137
 4219SOL    HW224117   4.049   1.180   5.590 -1.5093  2.0742  1.7609
 4220SOL     OW24118   0.709   3.376  11.329 -0.3316 -0.1745  0.0302
 4220SOL    HW124119   0.650   3.403  11.399  1.8718 -2.6477  2.8538
 4220SOL    HW224120   0.716   3.459  11.281  2.9886 -0.7095 -0.4482
 4221SOL     OW24121   2.795   0.551   7.157 -0.3035 -0.2300  0.3464
 4221SOL    HW124122   2.861   0.597   7.210 -2.5216  2.7190  0.5442
 4221SOL    HW224123   2.788   0.610   7.082 -0.6111  0.4095  0.8738
 4222SOL     OW24124   2.052   3.993   2.638 -0.2561 -0.0808 -0.2141
 4222SOL    HW124125   2.111   3.998   2.564  0.0287  3.6740  0.2611
 4222SOL    HW224126   2.114   3.971   2.708 -0.2358  1.3994  0.2282
 4223SOL     OW24127   0.968   3.496   4.294 -1.1520  0.0257 -0.3547
 4223SOL    HW124128   0.941   3.544   4.372  0.8705  1.4352 -0.5022
 4223SOL    HW224129   1.042   3.439   4.314 -0.8629  0.6551  0.3823
 4224SOL     OW24130   0.471   3.850   6.302  0.1113 -0.0931 -0.0805
 4224SOL    HW124131   0.494   3.942   6.290  0.1190 -0.0163  0.5096
 4224SOL    HW224132   0.539   3.830   6.367  1.0663  1.8501 -0.4629
 4225SOL     OW24133   3.479   3.565  17.649  0.0721  0.1781  0.1044
 4225SOL    HW124134   3.543   3.556  17.578 -0.2303  1.3443 -0.3162
 4225SOL    HW224135   3.534   3.604   0.016  0.3419 -0.7164  0.4074
 4226SOL     OW24136   1.382   3.529  12.249  0.0902 -0.2202  0.3424
 4226SOL    HW124137   1.298   3.554  12.285  0.2969 -1.5924  1.7473
 4226SOL    HW224138   1.444   3.550  12.319  0.3361 -0.8180  0.3061
 4227SOL     OW24139   3.934   4.325  11.441 -0.0819 -0.3037 -0.0139
 4227SOL    HW124140   3.860   4.354  11.495  0.0082  0.1742 -0.1488
 4227SOL    HW224141   3.940   4.243  11.489 -0.4146  1.0391  2.3519
 4228SOL     OW24142   2.972   0.518   7.564 -0.4978  0.2768  0.4086
 4228SOL    HW124143   2.911   0.446   7.550 -0.8002  0.5476  0.3433
 4228SOL    HW224144   2.990   0.556   7.478  0.5751 -0.4058  0.3271
 4229SOL     OW24145   2.193   0.632   5.106  0.1170  0.1220  0.4081
 4229SOL    HW124146   2.258   0.683   5.058  0.5835  0.0737  0.9883
 4229SOL    HW224147   2.233   0.627   5.193  1.1167 -1.9078 -0.1771
 4230SOL     OW24148   4.182   2.785  12.101 -0.2727  0.1789 -0.1494
 4230SOL    HW124149   4.168   2.870  12.058  0.8701 -0.4988 -1.8385
 4230SOL    HW224150   4.092   2.759  12.122 -0.6874 -0.3207 -2.5777
 4231SOL     OW24151   4.237   3.641  10.744 -0.2739  0.2454  0.0950
 4231SOL    HW124152   4.209   3.643  10.653 -0.0484  2.4976  0.0580
 4231SOL    HW224153   4.226   3.547  10.755  0.2177 -0.0804 -2.3656
 4232SOL     OW24154   0.214   1.901   9.076 -0.2804 -0.0446  0.2601
 4232SOL    HW124155   0.225   1.985   9.121 -0.2063 -0.0289  0.2138
 4232SOL    HW224156   0.293   1.900   9.020  1.1747  1.0226  2.2980
 4233SOL     OW24157   3.325   4.043   5.581  0.1183  0.2247 -0.0634
 4233SOL    HW124158   3.399   4.023   5.639  0.3134  1.1324  0.0043
 4233SOL    HW224159   3.344   4.133   5.556 -1.5765  1.1147  1.9032
 4234SOL     OW24160   4.584   1.208  12.533  0.3421 -0.3793 -0.3439
 4234SOL    HW124161   4.557   1.116  12.540 -0.4778 -0.0993  0.1994
 4234SOL    HW224162   4.631   1.221  12.616 -1.5594  0.1715  0.6297
 4235SOL     OW24163   0.141   3.684   8.983  0.2738 -0.4148 -0.3323
 4235SOL    HW124164   0.112   3.756   9.038 -1.5444 -1.2672 -0.1783
 4235SOL    HW224165   0.197   3.733   8.923 -0.2953  0.5691 -0.0550
 4236SOL     OW24166   3.884   0.196  16.837  0.1134 -0.6438  0.7169
 4236SOL    HW124167   3.952   0.134  16.811 -0.6203 -0.9744 -0.4671
 4236SOL    HW224168   3.817   0.138  16.873 -0.5721  1.4786  2.8315
 4237SOL     OW24169   1.545   2.218   1.660 -0.4177 -0.1135  0.2365
 4237SOL    HW124170   1.517   2.206   1.751 -0.5519 -3.1788 -0.2162
 4237SOL    HW224171   1.496   2.295   1.633 -0.6804 -0.7975 -1.2411
 4238SOL     OW24172   0.118   0.842   5.138 -0.0763 -0.0649 -0.5395
 4238SOL    HW124173   0.034   0.808   5.109 -1.0696  1.3190  0.7054
 4238SOL    HW224174   0.174   0.828   5.061 -0.3654  2.0009 -1.1138
 4239SOL     OW24175   2.276   1.260   9.320  0.5915 -0.2025  0.1173
 4239SOL    HW124176   2.370   1.264   9.342  0.7433 -0.0154 -0.5662
 4239SOL    HW224177   2.273   1.257   9.225 -0.4566 -0.3349  0.1618
 4240SOL     OW24178   2.206   1.907   4.832 -0.1853 -0.0799 -0.0480
 4240SOL    HW124179   2.222   1.850   4.907  1.8662  0.6045  0.0467
 4240SOL    HW224180   2.201   1.992   4.876  1.3608 -0.2068  0.3498
 4241SOL     OW24181   1.960   4.433  11.873 -0.4201 -0.2688 -0.0389
 4241SOL    HW124182   1.889   4.378  11.838 -1.1555  0.6584 -0.0039
 4241SOL    HW224183   1.985   4.371  11.942  2.9826  1.3498  0.1688
 4242SOL     OW24184   2.870   3.851  16.002 -0.2053  0.5796  0.5030
 4242SOL    HW124185   2.927   3.909  15.951 -0.5236  0.8392  0.4454
 4242SOL    HW224186   2.916   3.767  16.001  2.6847  2.1823 -2.1162
 4243SOL     OW24187   1.373   1.375   0.590  0.1727 -0.2769 -0.3757
 4243SOL    HW124188   1.432   1.314   0.546 -1.1784 -1.0627 -1.0822
 4243SOL    HW224189   1.319   1.403   0.517  0.8700  0.8981 -0.4305
 4244SOL     OW24190   2.134   4.248   5.946 -0.5012  0.6193 -0.0831
 4244SOL    HW124191   2.203   4.255   5.880  1.9202 -1.7027  2.2537
 4244SOL    HW224192   2.085   4.168   5.929  1.1200 -0.5611  0.8278
 4245SOL     OW24193   2.320   2.323   8.815  0.1713  0.0994  0.6835
 4245SOL    HW124194   2.318   2.336   8.909  1.5899 -0.1804  0.7476
 4245SOL    HW224195   2.306   2.408   8.772  1.9692  0.5827  1.0490
 4246SOL     OW24196   1.418   2.594   1.588  0.3023 -0.1626 -0.1236
 4246SOL    HW124197   1.376   2.678   1.567 -0.2112 -0.7270 -1.4115
 4246SOL    HW224198   1.511   2.614   1.592  0.6888 -1.8331 -0.6134
 4247SOL     OW24199   2.515   1.336  14.621 -0.1131 -0.1471 -0.0327
 4247SOL    HW124200   2.467   1.417  14.603 -3.3117 -2.0430 -0.1570
 4247SOL    HW224201   2.487   1.313  14.710 -0.8517  0.8874  0.0066
 4248SOL     OW24202   0.262   2.193   2.840  0.7211 -0.3356 -0.4369
 4248SOL    HW124203   0.261   2.098   2.850 -0.7354 -0.4198 -1.3191
 4248SOL    HW224204   0.180   2.201   2.792 -0.0414 -0.9612  0.7632
 4249SOL     OW24205   2.922   3.265  10.080 -0.1546 -0.8082  0.2008
 4249SOL    HW124206   2.965   3.333  10.027  0.1160 -0.0605  1.3695
 4249SOL    HW224207   2.980   3.195  10.051 -0.8753 -1.7942  1.1541
 4250SOL     OW24208   1.075   3.329   6.330 -0.0093  0.3617 -0.0219
 4250SOL    HW124209   1.075   3.422   6.308  0.7343  0.6083  1.0383
 4250SOL    HW224210   1.166   3.302   6.317  0.2561  1.6668 -0.8549
 4251SOL     OW24211   3.649   4.157   8.656  0.2982 -0.4562  0.2116
 4251SOL    HW124212   3.594   4.093   8.610 -0.5272  1.1261 -1.0185
 4251SOL    HW224213   3.578   4.187   8.713  0.9962  1.3716  0.1493
 4252SOL     OW24214   4.135   1.751  17.488 -0.2056  0.3167  0.3154
 4252SOL    HW124215   4.155   1.798  17.568  1.3793  0.6935 -0.3046
 4252SOL    HW224216   4.042   1.771  17.477 -0.3230 -0.4916 -0.1936
 4253SOL     OW24217   3.243   2.453  11.348  0.0691  0.5599 -0.4000
 4253SOL    HW124218   3.289   2.409  11.277  1.1855 -1.1171  1.3576
 4253SOL    HW224219   3.173   2.388  11.360  0.7412 -0.2478 -0.8687
 4254SOL     OW24220   3.647   3.487   7.865  0.3908 -0.3764 -0.2059
 4254SOL    HW124221   3.616   3.423   7.801  1.0921 -2.3916  1.4772
 4254SOL    HW224222   3.726   3.521   7.824 -0.0446 -0.0293 -0.7507
 4255SOL     OW24223   2.768   2.206   3.733 -0.1849 -0.2628 -0.2863
 4255SOL    HW124224   2.782   2.184   3.641 -0.5091  0.7232 -0.5702
 4255SOL    HW224225   2.860   2.217   3.757 -0.5787 -0.3362  1.2444
 4256SOL     OW24226   0.318   2.193  15.799  0.1652 -0.1607  0.5790
 4256SOL    HW124227   0.313   2.288  15.793 -1.1765 -0.2902 -0.2463
 4256SOL    HW224228   0.279   2.165  15.716  1.0734 -0.2180  0.1624
 4257SOL     OW24229   1.313   4.587   4.307  0.1886  0.4512 -0.1372
 4257SOL    HW124230   1.313   4.502   4.352  2.5051  1.2561  1.3847
 4257SOL    HW224231   1.249   4.636   4.358 -0.6200 -0.6658 -0.0691
 4258SOL     OW24232   0.749   2.989   2.929 -0.0771 -0.2518  0.0049
 4258SOL    HW124233   0.758   2.939   2.848  1.1690 -0.2562  0.1457
 4258SOL    HW224234   0.839   2.982   2.961 -0.9977 -0.8147  2.4252
 4259SOL     OW24235   3.802   2.506   8.927 -0.5198  0.1595  0.4763
 4259SOL    HW124236   3.836   2.431   8.878 -1.4284 -0.5928  0.9923
 4259SOL    HW224237   3.741   2.456   8.982  0.3554 -1.5991 -0.1760
 4260SOL     OW24238   0.217   1.368   2.079 -0.2468  0.5307  0.5802
 4260SOL    HW124239   0.154   1.349   2.148 -1.2506 -0.5720 -0.6342
 4260SOL    HW224240   0.187   1.321   2.001 -0.2434 -0.1785  1.0017
 4261SOL     OW24241   1.383   0.176   2.254 -0.4111  0.3535 -0.7727
 4261SOL    HW124242   1.425   0.133   2.329 -1.4422  2.1144  0.8105
 4261SOL    HW224243   1.338   0.250   2.295 -1.0769 -0.1590 -0.5803
 4262SOL     OW24244   1.854   2.666   5.466 -0.2297  0.9477  0.4385
 4262SOL    HW124245   1.845   2.593   5.527  0.1453  0.0842 -0.5442
 4262SOL    HW224246   1.940   2.697   5.493 -0.4305  0.6755  1.3872
 4263SOL     OW24247   0.007   1.738   9.663  0.0484 -0.4957 -0.2241
 4263SOL    HW124248   4.699   1.776   9.582  2.5298 -0.2207 -1.1038
 4263SOL    HW224249   4.692   1.799   9.724 -0.5788  1.1647 -2.2982
 4264SOL     OW24250   4.122   1.775   3.014 -0.5764 -0.1902 -0.2498
 4264SOL    HW124251   4.046   1.827   2.987 -0.4123  1.3274  2.2025
 4264SOL    HW224252   4.170   1.847   3.053  0.2768 -2.7342  3.4305
 4265SOL     OW24253   0.385   0.996  16.505 -0.2557  0.0298  0.3748
 4265SOL    HW124254   0.355   1.006  16.595 -1.1797  0.9365 -0.0380
 4265SOL    HW224255   0.481   0.990  16.504 -0.2968 -0.2912 -2.1671
 4266SOL     OW24256   4.331   3.431   4.055  0.3214 -0.0832 -0.0035
 4266SOL    HW124257   4.393   3.473   3.995  0.5015  1.3742  1.2239
 4266SOL    HW224258   4.278   3.508   4.074  2.0684  1.4024 -1.1525
 4267SOL     OW24259   1.520   0.353   2.483 -0.1196 -0.2879 -0.5862
 4267SOL    HW124260   1.557   0.437   2.510  1.0482 -0.3901 -1.9216
 4267SOL    HW224261   1.589   0.288   2.474  1.0739  0.7243  1.2235
 4268SOL     OW24262   0.732   4.217   7.853 -0.5607 -0.8066 -0.1171
 4268SOL    HW124263   0.667   4.274   7.895  2.9244  2.4976  0.8235
 4268SOL    HW224264   0.675   4.146   7.823 -0.5480 -1.1402  0.6384
 4269SOL     OW24265   2.550   1.638   3.318  0.1389 -0.0924 -0.1898
 4269SOL    HW124266   2.631   1.589   3.307 -0.6915 -1.8438  1.6218
 4269SOL    HW224267   2.589   1.723   3.338 -2.4943  0.2955  3.2498
 4270SOL     OW24268   1.207   2.142   3.918  0.5301 -0.0957  0.6595
 4270SOL    HW124269   1.294   2.145   3.960  1.2747  0.2547 -0.9282
 4270SOL    HW224270   1.195   2.234   3.895 -0.3511  0.0322  1.6231
 4271SOL     OW24271   4.422   0.194   6.350  0.0601  0.0117  0.5330
 4271SOL    HW124272   4.444   0.147   6.270  0.1711  0.9427  0.0157
 4271SOL    HW224273   4.425   0.117   6.408 -1.2901  0.9479  1.8500
 4272SOL     OW24274   2.427   3.915  16.027  0.5850 -0.7662 -0.0129
 4272SOL    HW124275   2.422   3.822  16.006 -0.4222 -0.6776 -0.1889
 4272SOL    HW224276   2.486   3.918  16.102 -1.6675  2.0261  1.6698
 4273SOL     OW24277   0.039   3.847   5.525  0.2500 -0.1745  0.1315
 4273SOL    HW124278   0.017   3.759   5.554 -1.6310 -0.0783 -1.0103
 4273SOL    HW224279   0.088   3.880   5.600 -0.1493  1.4000 -0.2966
 4274SOL     OW24280   1.093   1.479   2.413  0.2149 -0.3971  0.4846
 4274SOL    HW124281   1.140   1.455   2.493 -1.1276  0.2948  1.4787
 4274SOL    HW224282   1.076   1.568   2.443  0.9568  0.4633 -1.6417
 4275SOL     OW24283   0.635   2.701  16.348  0.2770 -0.4216 -0.3181
 4275SOL    HW124284   0.705   2.679  16.288  0.0215  2.2416 -1.5931
 4275SOL    HW224285   0.598   2.614  16.361 -0.3452 -0.1174 -0.0024
 4276SOL     OW24286   1.947   3.072   0.256 -0.1282 -1.0737 -0.0994
 4276SOL    HW124287   1.863   3.092   0.297  0.2914  1.2939 -0.3698
 4276SOL    HW224288   1.977   3.153   0.214 -0.5024 -1.3420 -0.8746
 4277SOL     OW24289   1.225   3.437  11.349  0.3010  0.3238  0.2788
 4277SOL    HW124290   1.273   3.382  11.288  1.0221  2.4453 -1.0956
 4277SOL    HW224291   1.295   3.483  11.396  0.5410  1.6253 -1.3443
 4278SOL     OW24292   2.799   2.763   7.856  0.2592  0.7794 -0.1961
 4278SOL    HW124293   2.828   2.672   7.861 -0.9135  0.6393  4.0564
 4278SOL    HW224294   2.755   2.761   7.771  0.4413  1.5652 -0.3086
 4279SOL     OW24295   4.221   0.352  12.416 -0.2046  0.5072 -0.0106
 4279SOL    HW124296   4.186   0.312  12.495  0.5780 -1.2926 -0.5705
 4279SOL    HW224297   4.317   0.356  12.424 -0.1610 -0.7413  0.0915
 4280SOL     OW24298   0.081   3.550  13.584 -0.0946  0.4004  0.3512
 4280SOL    HW124299   0.060   3.643  13.591 -0.5038  0.3276  0.1016
 4280SOL    HW224300   0.174   3.549  13.561 -0.3217 -1.1943 -0.4818
 4281SOL     OW24301   2.294   4.583   3.160  0.1955 -0.5558 -0.7073
 4281SOL    HW124302   2.300   4.621   3.072 -0.9074  2.6002  0.6036
 4281SOL    HW224303   2.370   4.525   3.161  1.3736  1.0676  2.1688
 4282SOL     OW24304   0.231   3.766   8.297  0.3369 -0.3105 -0.0035
 4282SOL    HW124305   0.155   3.824   8.300 -0.3531 -1.2078 -0.4900
 4282SOL    HW224306   0.303   3.827   8.278  0.6766 -0.6253  0.2647
 4283SOL     OW24307   0.226   3.993   3.650  0.0977  0.6435 -0.0203
 4283SOL    HW124308   0.141   4.037   3.649 -0.5653 -0.6402 -1.6209
 4283SOL    HW224309   0.280   4.045   3.591  2.1693 -2.8524 -1.2100
 4284SOL     OW24310   1.994   1.270   7.905 -0.0030 -0.5415  0.4881
 4284SOL    HW124311   1.905   1.267   7.940  0.1429 -0.8628  0.8331
 4284SOL    HW224312   2.036   1.224   7.977 -0.7669  0.1996  1.4063
 4285SOL     OW24313   4.591   3.645   1.977  0.3188 -0.2117 -0.0082
 4285SOL    HW124314   4.643   3.717   2.011 -0.1895  0.8146 -1.4072
 4285SOL    HW224315   4.664   3.586   1.961  0.9373  0.4625  0.3116
 4286SOL     OW24316   4.420   1.813  14.119  0.0188 -0.1687  0.0022
 4286SOL    HW124317   4.353   1.768  14.069 -0.6431 -1.9759  2.5097
 4286SOL    HW224318   4.366   1.881  14.160 -1.3821 -0.8880 -0.6588
 4287SOL     OW24319   0.507   2.594  13.479 -0.3761  0.0360 -0.1820
 4287SOL    HW124320   0.575   2.660  13.489  1.1002 -1.3745 -0.9774
 4287SOL    HW224321   0.524   2.567  13.389  0.7723 -3.8088  1.1670
 4288SOL     OW24322   2.390   4.411   2.144 -0.5525  0.6506  0.1377
 4288SOL    HW124323   2.303   4.424   2.180 -0.3651  0.2385  0.7325
 4288SOL    HW224324   2.388   4.484   2.082  1.0229 -0.6489 -1.4635
 4289SOL     OW24325   1.544   0.205  13.223  0.3944  0.4825 -0.8234
 4289SOL    HW124326   1.623   0.153  13.217  0.0985 -0.2510  1.4611
 4289SOL    HW224327   1.511   0.174  13.307  0.0056  2.6187 -0.1794
 4290SOL     OW24328   4.551   3.202   8.438  0.0720 -0.1652  0.0091
 4290SOL    HW124329   4.543   3.116   8.481  0.9157  1.8979  4.2405
 4290SOL    HW224330   4.640   3.226   8.463 -0.5455  0.3971  1.6123
 4291SOL     OW24331   2.408   4.661  16.100 -0.0596 -0.1430 -0.6827
 4291SOL    HW124332   2.457   4.589  16.061  3.0001  2.1632 -1.0316
 4291SOL    HW224333   2.350   4.692  16.030  0.6217  2.9757  0.1436
 4292SOL     OW24334   3.710   3.636   0.142 -0.0790  0.4767 -0.2161
 4292SOL    HW124335   3.695   3.685   0.223 -1.0172 -1.5324  0.8298
 4292SOL    HW224336   3.726   3.554   0.188  0.5693  1.5767  1.5501
 4293SOL     OW24337   1.497   1.026   8.880 -0.2518 -0.4987 -0.3500
 4293SOL    HW124338   1.407   1.049   8.857 -0.7197 -1.0558  0.9385
 4293SOL    HW224339   1.523   1.112   8.914  1.3262 -1.7911  1.6666
 4294SOL     OW24340   3.009   0.984   1.379  0.5342  0.0401  0.5637
 4294SOL    HW124341   3.043   0.973   1.291 -0.1221 -0.1732  0.3331
 4294SOL    HW224342   2.959   0.902   1.380 -0.7406  0.8030 -0.5323
 4295SOL     OW24343   3.274   3.832   2.911  0.1072  0.0985 -0.6596
 4295SOL    HW124344   3.345   3.881   2.953  0.3048  0.0399 -0.9218
 4295SOL    HW224345   3.245   3.904   2.855  1.0598  0.8728 -0.1489
 4296SOL     OW24346   1.169   1.900   7.079  0.5983  0.3441 -0.2040
 4296SOL    HW124347   1.090   1.858   7.113  1.1870 -1.5894 -1.2703
 4296SOL    HW224348   1.228   1.899   7.154 -1.6509  1.5416  1.5849
 4297SOL     OW24349   2.197   2.052   2.039 -0.1624 -0.5738  0.5018
 4297SOL    HW124350   2.146   1.974   2.064 -2.4543  0.1548 -1.9410
 4297SOL    HW224351   2.130   2.117   2.019 -1.4578 -1.7039  1.1234
 4298SOL     OW24352   2.054   1.764  15.595 -0.0486 -0.1416 -0.1946
 4298SOL    HW124353   1.989   1.761  15.525 -1.1918  1.9787  0.7929
 4298SOL    HW224354   2.134   1.766  15.542 -0.8876  1.4252 -1.3904
 4299SOL     OW24355   0.248   0.822   4.891  0.2115  0.2085  0.3224
 4299SOL    HW124356   0.218   0.874   4.816  0.9156  0.3151  0.1158
 4299SOL    HW224357   0.284   0.739   4.861  0.9209  0.6471 -0.0598
 4300SOL     OW24358   2.999   0.812   3.563  0.0720  0.3471  0.1822
 4300SOL    HW124359   2.938   0.785   3.495  1.3811  1.0401 -1.2557
 4300SOL    HW224360   2.947   0.889   3.588 -0.6528 -0.4545  1.1442
 4301SOL     OW24361   0.459   1.814  10.343  0.3251  0.1981 -0.3646
 4301SOL    HW124362   0.545   1.803  10.303 -0.5329 -1.4527 -1.7708
 4301SOL    HW224363   0.465   1.775  10.431  0.2020 -0.6822 -0.7444
 4302SOL     OW24364   4.633   3.059   6.156 -0.1428 -0.2528 -0.0472
 4302SOL    HW124365   4.612   3.119   6.084 -1.3149  0.3068  0.7643
 4302SOL    HW224366   4.649   3.119   6.229  0.4099 -1.8431  1.1192
 4303SOL     OW24367   1.371   2.161  11.337  0.3455  0.6108  0.1952
 4303SOL    HW124368   1.348   2.106  11.412 -2.5645  1.7903  0.1828
 4303SOL    HW224369   1.417   2.238  11.371  2.8887 -0.4636 -0.8227
 4304SOL     OW24370   1.532   1.503  12.526  0.1438 -0.4471 -0.0020
 4304SOL    HW124371   1.456   1.521  12.470 -0.1167 -0.7187  0.2596
 4304SOL    HW224372   1.572   1.440  12.467  1.2864 -0.1448  0.4513
 4305SOL     OW24373   2.249   0.018   6.912  0.2576  0.2115 -0.0370
 4305SOL    HW124374   2.173   0.062   6.874  0.5333 -0.5083 -1.4517
 4305SOL    HW224375   2.210   4.656   6.923  0.6034 -0.0035 -0.5115
 4306SOL     OW24376   3.109   3.189   7.163  0.2144  0.6098  0.4633
 4306SOL    HW124377   3.080   3.268   7.117  1.5915  1.2569  0.7288
 4306SOL    HW224378   3.063   3.120   7.115  0.7440 -0.6070  1.7297
 4307SOL     OW24379   4.202   3.641   4.617 -0.1271 -0.2419 -0.1603
 4307SOL    HW124380   4.263   3.712   4.639 -1.7487  0.9210  0.5498
 4307SOL    HW224381   4.255   3.561   4.624  0.6058  0.0256 -2.9302
 4308SOL     OW24382   3.977   4.520   7.162 -0.2038  0.2017 -0.3573
 4308SOL    HW124383   3.887   4.492   7.177 -0.3580  0.8064 -0.1829
 4308SOL    HW224384   3.969   4.561   7.076 -1.5931  0.3999 -0.1265
 4309SOL     OW24385   3.905   3.916   4.041 -0.1649 -0.1022  0.2015
 4309SOL    HW124386   3.959   3.982   3.998 -1.8391  0.9919 -0.2099
 4309SOL    HW224387   3.934   3.912   4.132  0.8451  1.5412 -0.0581
 4310SOL     OW24388   2.924   2.360  11.092 -0.2089 -0.2216  0.0521
 4310SOL    HW124389   2.907   2.366  10.998  1.3898 -1.1077 -0.2872
 4310SOL    HW224390   2.874   2.281  11.114  0.6500  0.1628  3.3086
 4311SOL     OW24391   0.963   0.304   7.678  0.5652  0.0629 -0.4923
 4311SOL    HW124392   1.031   0.255   7.633  1.5130  0.6347  0.3148
 4311SOL    HW224393   0.994   0.394   7.671  0.8892  0.0037  0.1754
 4312SOL     OW24394   0.684   0.247   2.894 -0.1291 -0.0613 -0.5726
 4312SOL    HW124395   0.669   0.210   2.981  2.5104  0.5657  0.1648
 4312SOL    HW224396   0.599   0.266   2.853 -1.2992  2.1635  2.8208
 4313SOL     OW24397   3.209   1.399  10.682 -0.4795 -0.2849 -0.4542
 4313SOL    HW124398   3.178   1.341  10.752 -0.2855  0.7733  0.5036
 4313SOL    HW224399   3.247   1.335  10.622 -1.3008 -1.5152  0.3319
 4314SOL     OW24400   2.563   0.013   6.459 -0.4773  0.0126  0.2568
 4314SOL    HW124401   2.504   0.071   6.507 -0.7471  2.2717 -2.7464
 4314SOL    HW224402   2.616   4.704   6.531 -0.0990  0.4286  0.1761
 4315SOL     OW24403   2.528   3.780   4.481  0.2034 -0.4619  0.3717
 4315SOL    HW124404   2.488   3.867   4.493  2.1369  0.4197  0.3109
 4315SOL    HW224405   2.616   3.814   4.497 -0.4903  1.6719 -0.3429
 4316SOL     OW24406   3.234   1.719  12.604  0.2492  0.2318 -0.6885
 4316SOL    HW124407   3.170   1.670  12.655 -0.7351  0.4283 -1.7375
 4316SOL    HW224408   3.185   1.798  12.579  0.1110  0.9288  1.7919
 4317SOL     OW24409   0.939   1.755  13.444  0.0680 -0.1668  1.1770
 4317SOL    HW124410   1.026   1.794  13.441 -0.6973  1.5085  1.0461
 4317SOL    HW224411   0.912   1.799  13.524 -1.6573  1.8894 -0.5315
 4318SOL     OW24412   0.800   1.245   0.897  0.1957 -0.0585 -0.1350
 4318SOL    HW124413   0.717   1.235   0.943  0.5330  0.4866  0.5866
 4318SOL    HW224414   0.825   1.320   0.950  1.5983  0.0775 -0.9967
 4319SOL     OW24415   2.574   1.057   2.820 -0.0402  0.0247  0.4984
 4319SOL    HW124416   2.534   1.143   2.834 -0.4313 -0.1123  0.1963
 4319SOL    HW224417   2.544   1.041   2.730 -0.5018 -0.9202  0.8260
 4320SOL     OW24418   1.462   1.012  13.520 -0.6356 -0.0096 -0.3827
 4320SOL    HW124419   1.422   0.932  13.484  0.7075 -0.1632 -1.5330
 4320SOL    HW224420   1.531   1.029  13.456  0.1795  0.6083  0.6520
 4321SOL     OW24421   4.386   3.724   1.830 -0.2583 -0.4136  0.6177
 4321SOL    HW124422   4.466   3.681   1.859  0.5926  0.1919 -0.8484
 4321SOL    HW224423   4.323   3.652   1.821  2.0083 -2.3370  0.0548
 4322SOL     OW24424   3.240   4.206  17.661 -0.0667 -0.0334 -0.6340
 4322SOL    HW124425   3.287   4.162   0.031  1.3087  0.4941 -1.2251
 4322SOL    HW224426   3.299   4.192  17.588 -1.5360 -0.3722 -1.7571
 4323SOL     OW24427   3.212   3.907   1.559  0.3557 -0.2653 -0.6929
 4323SOL    HW124428   3.254   3.825   1.534  1.2387 -0.4406  1.3437
 4323SOL    HW224429   3.270   3.933   1.631 -0.4103  1.9809 -0.8786
 4324SOL     OW24430   2.700   1.443   1.609 -1.1759  0.1114 -0.0086
 4324SOL    HW124431   2.745   1.428   1.526 -1.6806 -0.8129 -0.1183
 4324SOL    HW224432   2.621   1.487   1.576 -1.3101 -1.7679 -2.1962
 4325SOL     OW24433   1.062   2.496   1.912 -0.4038  0.2763  0.1977
 4325SOL    HW124434   1.088   2.408   1.883 -2.7609 -0.4926  0.4121
 4325SOL    HW224435   0.966   2.495   1.901 -0.2956 -0.2916 -0.7375
 4326SOL     OW24436   2.766   1.981   6.743 -0.2229 -0.2503 -0.0676
 4326SOL    HW124437   2.727   1.904   6.784 -2.1731  0.9572  0.3300
 4326SOL    HW224438   2.732   2.051   6.797 -0.4046 -0.1315 -0.3346
 4327SOL     OW24439   0.420   1.418   4.429  0.0939 -0.0559 -0.0054
 4327SOL    HW124440   0.427   1.336   4.478  1.8446 -0.6987 -1.2917
 4327SOL    HW224441   0.514   1.421   4.408 -0.2864  0.2117 -1.6488
 4328SOL     OW24442   0.178   1.490   0.454  0.3755 -0.3507 -0.0735
 4328SOL    HW124443   0.114   1.561   0.454 -0.1645 -0.8358  0.9503
 4328SOL    HW224444   0.198   1.477   0.361 -0.2534  0.1972 -0.2856
 4329SOL     OW24445   1.064   4.055  16.453 -0.6528 -0.0086 -0.3647
 4329SOL    HW124446   1.134   4.007  16.498 -1.0191 -1.0820 -0.9595
 4329SOL    HW224447   1.010   4.041  16.531  0.3764 -1.0903  0.1544
 4330SOL     OW24448   1.578   3.625   3.303 -1.1205  0.0120 -0.4765
 4330SOL    HW124449   1.577   3.542   3.350 -0.3541  0.1792 -0.1620
 4330SOL    HW224450   1.496   3.617   3.255 -1.5915  2.8120 -0.1763
 4331SOL     OW24451   1.748   2.041   5.720 -0.5739 -0.9446  0.3552
 4331SOL    HW124452   1.667   2.014   5.676 -0.9336  0.2805  0.2893
 4331SOL    HW224453   1.734   2.134   5.708 -1.6894 -1.1083  0.3611
 4332SOL     OW24454   1.001   3.493  11.160  0.2280 -0.0921 -0.0462
 4332SOL    HW124455   1.072   3.484  11.224 -0.8421  0.0467  1.1566
 4332SOL    HW224456   0.934   3.548  11.201  1.3626 -0.0173  1.7131
 4333SOL     OW24457   2.472   3.061   9.245  0.4913  0.3171 -0.1302
 4333SOL    HW124458   2.403   3.123   9.270  1.6404  1.8759 -0.9320
 4333SOL    HW224459   2.471   3.033   9.337 -0.8506  0.0550 -0.2118
 4334SOL     OW24460   1.946   4.052   1.672  0.7668 -0.3052 -0.4043
 4334SOL    HW124461   1.910   4.042   1.583  0.4342 -1.5748 -0.1333
 4334SOL    HW224462   1.972   4.144   1.674  1.4434 -0.4726 -1.3828
 4335SOL     OW24463   1.133   1.852  15.901  0.2188 -0.1052 -0.5637
 4335SOL    HW124464   1.116   1.842  15.994  1.8664  0.5478 -0.2042
 4335SOL    HW224465   1.042   1.860  15.873  0.3556  0.2606 -0.9107
 4336SOL     OW24466   3.646   4.563   7.871  0.4828 -0.7502 -0.3120
 4336SOL    HW124467   3.657   4.644   7.922  1.2659 -0.5717 -0.7574
 4336SOL    HW224468   3.645   4.611   7.788  3.0202  1.4120  0.8950
 4337SOL     OW24469   4.704   3.994  10.627 -0.3389 -0.4991  0.5687
 4337SOL    HW124470   0.013   3.946  10.551  1.1541 -0.5659  1.2878
 4337SOL    HW224471   4.683   3.920  10.685 -0.1132 -0.5952  0.5280
 4338SOL     OW24472   2.142   0.185   3.301 -0.0132  0.6743 -0.0211
 4338SOL    HW124473   2.120   0.129   3.375  0.2069 -0.8371 -1.0896
 4338SOL    HW224474   2.113   0.139   3.222  1.0186 -1.3509  0.7701
 4339SOL     OW24475   0.959   2.035   3.508  0.1646 -0.0587 -0.3738
 4339SOL    HW124476   1.042   1.988   3.499  0.3176  0.2413 -0.5536
 4339SOL    HW224477   0.937   2.028   3.601  1.4640  3.0837  0.1670
 4340SOL     OW24478   3.775   0.828  17.257 -0.0543 -0.4528  0.3185
 4340SOL    HW124479   3.715   0.764  17.219 -0.1378 -1.0521  1.4591
 4340SOL    HW224480   3.770   0.896  17.190  0.6533 -0.1375  0.5768
 4341SOL     OW24481   4.529   3.106   8.776 -0.1540  0.2213  0.9959
 4341SOL    HW124482   4.444   3.098   8.819 -0.8713 -0.4140 -0.5263
 4341SOL    HW224483   4.516   3.083   8.684  3.1569  1.7202  0.1512
 4342SOL     OW24484   1.886   3.305   4.389 -0.2842 -0.3286  0.2732
 4342SOL    HW124485   1.922   3.368   4.327 -1.7553 -1.0246 -1.3037
 4342SOL    HW224486   1.824   3.253   4.338 -0.5764 -0.0817  0.3741
 4343SOL     OW24487   3.067   0.286   1.549  0.1767 -0.0635  0.1458
 4343SOL    HW124488   3.088   0.346   1.621  0.1400 -0.0648  0.1577
 4343SOL    HW224489   3.101   0.208   1.592 -0.1839 -1.2280 -1.6718
 4344SOL     OW24490   1.439   3.834   4.550  0.3181 -0.1864  0.0877
 4344SOL    HW124491   1.524   3.838   4.507  1.0967 -1.8738  1.4590
 4344SOL    HW224492   1.452   3.753   4.601  2.6070 -0.3395 -0.7410
 4345SOL     OW24493   2.371   0.189   8.228  0.1608 -0.4193  0.2821
 4345SOL    HW124494   2.374   0.133   8.305 -2.3787  1.7898  2.0116
 4345SOL    HW224495   2.280   0.217   8.242  0.7254  0.8147  1.4751
 4346SOL     OW24496   4.702   4.189   1.833  0.7793  0.2111  0.4822
 4346SOL    HW124497   0.028   4.114   1.801 -1.0632 -1.0952  0.5867
 4346SOL    HW224498   0.033   4.258   1.798 -2.3953  1.9047 -1.2721
 4347SOL     OW24499   0.167   0.081   2.906 -0.5375  0.1935  0.1701
 4347SOL    HW124500   0.151   0.164   2.950  0.2373 -0.7609  2.2717
 4347SOL    HW224501   0.177   0.100   2.813 -1.2096  0.4878  0.1570
 4348SOL     OW24502   0.786   2.620   8.822  0.7239 -0.6534 -0.4730
 4348SOL    HW124503   0.785   2.620   8.918  1.4894 -0.9942 -0.4628
 4348SOL    HW224504   0.738   2.539   8.804 -0.5310  0.4556 -2.0472
 4349SOL     OW24505   3.424   2.491   8.466  0.1479  0.0251 -0.5810
 4349SOL    HW124506   3.498   2.484   8.527 -0.7281  0.7822  0.5592
 4349SOL    HW224507   3.367   2.429   8.510 -0.3142  0.6384 -0.3305
 4350SOL     OW24508   0.821   0.533   8.187 -0.0697  0.5897  0.1445
 4350SOL    HW124509   0.903   0.561   8.146 -0.3422  1.9270  0.5261
 4350SOL    HW224510   0.754   0.547   8.120  2.2149 -0.2516 -2.3395
 4351SOL     OW24511   2.735   0.325  17.642  0.3416  0.1331 -0.0732
 4351SOL    HW124512   2.719   0.352  17.552  1.0131 -2.1005 -0.8720
 4351SOL    HW224513   2.830   0.327  17.651  0.3491  0.2304 -0.1777
 4352SOL     OW24514   1.102   2.081   0.461 -0.2663  0.1020 -0.0428
 4352SOL    HW124515   1.039   2.023   0.417  0.0107 -0.1523 -0.1020
 4352SOL    HW224516   1.171   2.083   0.395 -0.4402 -3.4411 -0.3718
 4353SOL     OW24517   4.037   1.334   4.066  0.8594  0.4353  0.5786
 4353SOL    HW124518   3.971   1.363   4.002 -1.5327 -2.3635  1.7834
 4353SOL    HW224519   4.112   1.311   4.011 -1.3494 -0.6967 -1.9685
 4354SOL     OW24520   3.274   3.636   2.175  0.2596 -0.3890  0.3009
 4354SOL    HW124521   3.216   3.688   2.118 -0.9246 -1.1305  0.8179
 4354SOL    HW224522   3.341   3.595   2.120  0.4559 -0.3849  0.5379
 4355SOL     OW24523   2.775   0.638   9.221  1.2003  0.2607  1.0324
 4355SOL    HW124524   2.713   0.626   9.292 -2.7585 -0.5041 -2.5404
 4355SOL    HW224525   2.842   0.574   9.245  0.5547  0.0554  2.2550
 4356SOL     OW24526   2.621   0.276   7.142  0.1234  0.1518  0.3041
 4356SOL    HW124527   2.560   0.340   7.180 -0.6218 -0.7486  0.6261
 4356SOL    HW224528   2.621   0.293   7.047  1.9703 -0.0391  0.2748
 4357SOL     OW24529   4.211   2.524   3.556  0.0547 -0.3644 -0.4754
 4357SOL    HW124530   4.218   2.530   3.460 -1.6928 -1.1517 -0.6524
 4357SOL    HW224531   4.123   2.493   3.575  1.7107 -2.3420  3.8641
 4358SOL     OW24532   0.792   0.089   4.369 -0.0979  0.2864 -0.2195
 4358SOL    HW124533   0.836   0.154   4.314 -1.6361  0.0895 -1.7013
 4358SOL    HW224534   0.736   0.036   4.312  1.8612 -2.1166  0.0447
 4359SOL     OW24535   2.506   3.997  11.487 -0.5562  0.3237 -0.4029
 4359SOL    HW124536   2.470   4.061  11.549  0.1020 -0.6656  1.0072
 4359SOL    HW224537   2.503   4.053  11.409 -1.4693 -0.2232 -0.7569
 4360SOL     OW24538   2.013   3.957   4.856 -0.0413 -0.0486 -0.1534
 4360SOL    HW124539   2.017   4.042   4.811  0.8380  0.8991  1.6805
 4360SOL    HW224540   2.104   3.928   4.862 -0.4434 -1.6624 -2.1700
 4361SOL     OW24541   4.511   2.375   7.631  0.2151 -0.0847 -0.3039
 4361SOL    HW124542   4.443   2.310   7.651  0.5801 -0.1866  0.6004
 4361SOL    HW224543   4.543   2.348   7.545  1.8847  2.3862 -0.4596
 4362SOL     OW24544   4.437   0.574   8.726  0.0013 -0.1034 -0.5298
 4362SOL    HW124545   4.365   0.517   8.699 -1.8285  2.3463 -0.8269
 4362SOL    HW224546   4.506   0.548   8.665 -2.4077 -5.0963 -1.1307
 4363SOL     OW24547   1.360   4.634   4.698  0.0059  0.1736  0.3122
 4363SOL    HW124548   1.305   4.672   4.767  0.3045  2.1031 -0.5129
 4363SOL    HW224549   1.334   4.543   4.712  1.0416 -0.2424 -0.4953
 4364SOL     OW24550   2.364   2.349   5.643  1.0139 -0.1456 -0.2484
 4364SOL    HW124551   2.298   2.417   5.655  1.0982 -0.4172  1.6635
 4364SOL    HW224552   2.374   2.307   5.728  0.4456  0.1054 -0.0621
 4365SOL     OW24553   0.454   4.441   7.665 -0.5734  0.3401  0.4046
 4365SOL    HW124554   0.517   4.480   7.604  1.3364 -3.0847  0.1338
 4365SOL    HW224555   0.435   4.370   7.602 -0.7050 -0.7843  1.7106
 4366SOL     OW24556   3.762   1.089   6.455 -0.0334 -0.0678 -0.1822
 4366SOL    HW124557   3.681   1.110   6.501  0.7497  0.7445  0.8298
 4366SOL    HW224558   3.758   1.160   6.391  1.1223 -1.1762 -1.4869
 4367SOL     OW24559   1.453   2.282   8.862  0.0076  0.2000 -0.3366
 4367SOL    HW124560   1.451   2.348   8.932  1.2398  0.4347 -0.5326
 4367SOL    HW224561   1.432   2.348   8.796 -0.4588 -0.3087 -0.6947
 4368SOL     OW24562   1.252   1.607   7.992  0.1642 -0.0020  0.2944
 4368SOL    HW124563   1.213   1.648   8.069 -1.4889 -1.7654  0.3763
 4368SOL    HW224564   1.290   1.525   8.024  0.9895  0.2333 -0.0676
 4369SOL     OW24565   4.013   3.325   1.361 -0.3854 -0.1362 -0.2393
 4369SOL    HW124566   3.941   3.275   1.400  0.0207  1.2220  2.2598
 4369SOL    HW224567   4.048   3.257   1.304 -0.4078 -0.5485  0.2386
 4370SOL     OW24568   0.714   0.700   2.074  0.4242 -0.3522  0.3529
 4370SOL    HW124569   0.663   0.657   2.143 -0.9858 -1.1382 -1.1675
 4370SOL    HW224570   0.784   0.635   2.076  0.7911  0.1136  2.3232
 4371SOL     OW24571   0.617   0.591   2.500 -0.0003 -0.4797 -0.2089
 4371SOL    HW124572   0.657   0.504   2.506  0.9544  0.0548  1.1565
 4371SOL    HW224573   0.574   0.586   2.414 -0.4232 -0.0997 -0.0193
 4372SOL     OW24574   2.024   4.016   9.837  0.0469 -1.0089  0.3839
 4372SOL    HW124575   2.035   3.956   9.911  3.0022 -1.5549 -0.5061
 4372SOL    HW224576   2.005   3.953   9.767  2.7968  1.2178 -2.3345
 4373SOL     OW24577   1.521   1.788   3.986  0.4822 -0.4123 -0.1486
 4373SOL    HW124578   1.615   1.771   3.984  0.5164 -0.0323 -1.2655
 4373SOL    HW224579   1.507   1.880   4.007  1.0948  0.0506 -1.8034
 4374SOL     OW24580   2.633   4.560  10.015 -0.1866 -0.2999 -0.4140
 4374SOL    HW124581   2.682   4.639  10.039  2.4414 -2.3226  0.7996
 4374SOL    HW224582   2.665   4.544   9.926  4.2942 -1.2623  1.3622
 4375SOL     OW24583   4.474   0.452  16.720  0.1368  0.2178 -0.2939
 4375SOL    HW124584   4.473   0.534  16.770  1.4385 -0.9006  1.5548
 4375SOL    HW224585   4.554   0.412  16.754 -0.9316 -2.1592 -0.5983
 4376SOL     OW24586   3.211   2.193  14.448 -0.3109 -0.7751  0.3847
 4376SOL    HW124587   3.150   2.137  14.401 -0.1294  1.1138 -2.1122
 4376SOL    HW224588   3.272   2.219  14.378  1.7547 -1.5229  1.9165
 4377SOL     OW24589   2.123   0.758  13.575  0.3384  0.0432  0.4646
 4377SOL    HW124590   2.135   0.707  13.655 -0.5661 -2.9871 -1.3182
 4377SOL    HW224591   2.213   0.780  13.552  0.0739  1.0114  0.3401
 4378SOL     OW24592   1.252   2.405  17.625  0.2537 -0.4109 -0.3401
 4378SOL    HW124593   1.186   2.348  17.584  0.5472 -0.9072 -0.1291
 4378SOL    HW224594   1.204   2.463  17.684 -0.7790 -0.9151 -0.6866
 4379SOL     OW24595   2.493   0.046   2.380 -0.5393  0.7111 -0.5634
 4379SOL    HW124596   2.474   0.123   2.434 -0.7673 -0.0802  0.4756
 4379SOL    HW224597   2.588   0.036   2.391 -1.2446 -1.8207  2.9362
 4380SOL     OW24598   4.194   2.549   8.022  0.4638  0.1119  0.5549
 4380SOL    HW124599   4.114   2.564   8.073 -0.4763 -0.7077 -0.6639
 4380SOL    HW224600   4.224   2.635   7.994 -1.5938  0.6522  0.0313
 4381SOL     OW24601   4.488   2.436   1.902 -0.1018 -0.5726 -0.3629
 4381SOL    HW124602   4.433   2.458   1.827 -0.1756 -1.4425 -0.5659
 4381SOL    HW224603   4.468   2.343   1.907  1.8005 -0.8965  1.4460
 4382SOL     OW24604   2.838   1.231   7.713 -0.0892 -0.5402 -0.0872
 4382SOL    HW124605   2.797   1.149   7.740  0.6948 -0.8436  0.1780
 4382SOL    HW224606   2.930   1.214   7.734 -0.6116 -1.3543  1.5588
 4383SOL     OW24607   2.715   2.013   8.023 -0.1092 -0.0207 -0.2782
 4383SOL    HW124608   2.650   1.982   7.960 -0.4355  0.6465 -0.2712
 4383SOL    HW224609   2.688   2.000   8.114  0.1982 -1.3234 -0.3732
 4384SOL     OW24610   0.717   0.098  16.431 -0.0594 -0.5355  0.1021
 4384SOL    HW124611   0.654   0.051  16.486  0.7069 -1.9395 -0.2265
 4384SOL    HW224612   0.659   0.161  16.389  1.8417  1.1621  0.0385
 4385SOL     OW24613   3.696   3.053  10.682 -0.4937  0.6573 -0.3634
 4385SOL    HW124614   3.754   2.996  10.632 -2.1322 -0.2638 -1.2382
 4385SOL    HW224615   3.750   3.074  10.758 -0.0066  0.1534 -0.5738
 4386SOL     OW24616   1.768   1.378   7.628  1.0538  0.3725 -0.2341
 4386SOL    HW124617   1.844   1.345   7.580 -0.5167 -3.0993 -0.3423
 4386SOL    HW224618   1.812   1.444   7.681 -0.0417  1.0751 -0.2162
 4387SOL     OW24619   4.512   2.689  10.917 -0.7645 -0.4759 -0.5034
 4387SOL    HW124620   4.575   2.760  10.904  0.2457 -1.4720 -1.1428
 4387SOL    HW224621   4.509   2.697  11.012  1.1428 -2.2508 -0.2915
 4388SOL     OW24622   2.356   1.599   6.507  0.7187  0.3893  0.8423
 4388SOL    HW124623   2.357   1.528   6.571 -2.1110 -0.6013 -0.1799
 4388SOL    HW224624   2.441   1.639   6.524  1.4294 -0.2812 -1.1205
 4389SOL     OW24625   3.579   4.204  13.886  0.2922 -0.2033 -1.1329
 4389SOL    HW124626   3.657   4.185  13.834  1.3039 -1.1800  0.7384
 4389SOL    HW224627   3.586   4.136  13.953  0.6566  0.4395 -0.5181
 4390SOL     OW24628   2.224   1.630  15.009  0.9264  0.0972  0.1083
 4390SOL    HW124629   2.136   1.624  15.045  0.8700  1.8760  0.2692
 4390SOL    HW224630   2.255   1.552  15.055  3.8601  2.1687  1.6472
 4391SOL     OW24631   0.095   1.402   8.394  0.0816  0.4951 -0.3461
 4391SOL    HW124632   0.043   1.425   8.471  0.2775 -1.2310  0.3118
 4391SOL    HW224633   0.049   1.439   8.319  0.8238  0.4786 -0.8053
 4392SOL     OW24634   2.636   3.997   5.342 -0.2337  0.1181 -0.2672
 4392SOL    HW124635   2.665   3.923   5.395  1.0716  0.8874  0.0934
 4392SOL    HW224636   2.684   3.981   5.260  0.0198 -0.1508 -0.0640
 4393SOL     OW24637   3.202   3.440  16.007  0.1696  0.1531 -0.0452
 4393SOL    HW124638   3.273   3.464  15.947  1.3332  1.2134  1.7743
 4393SOL    HW224639   3.238   3.451  16.095 -0.6880 -0.1484  0.3432
 4394SOL     OW24640   2.565   0.170   9.059 -0.1983 -0.2922  0.6845
 4394SOL    HW124641   2.549   0.118   9.138 -2.3433 -2.4820 -1.1924
 4394SOL    HW224642   2.572   0.257   9.098  0.9524  0.5502 -1.3904
 4395SOL     OW24643   2.580   4.451  15.408 -0.2546 -0.0213  1.0603
 4395SOL    HW124644   2.527   4.510  15.461 -0.7425  1.2128 -0.8223
 4395SOL    HW224645   2.599   4.504  15.331  0.4782  0.9150  1.9002
 4396SOL     OW24646   3.104   3.858   2.627  0.1114  0.3143  0.3007
 4396SOL    HW124647   3.015   3.884   2.603  0.3641  0.1550 -0.7921
 4396SOL    HW224648   3.104   3.773   2.584 -1.0443  1.0434 -1.1166
 4397SOL     OW24649   3.529   1.981   6.588  0.1456  0.7124  0.4604
 4397SOL    HW124650   3.446   2.020   6.615  0.0695  0.8344  0.0428
 4397SOL    HW224651   3.599   2.017   6.642  1.2672  1.4433 -1.4749
 4398SOL     OW24652   0.976   0.452   2.809  0.1186  0.7980  0.1158
 4398SOL    HW124653   0.985   0.521   2.743  1.6220 -1.1390 -1.7090
 4398SOL    HW224654   0.993   0.499   2.890  0.0423 -0.3872  0.8147
 4399SOL     OW24655   1.089   2.406   6.056 -0.5132 -0.2407  0.2347
 4399SOL    HW124656   1.089   2.320   6.099 -0.7565 -0.2698  0.1797
 4399SOL    HW224657   1.046   2.456   6.125 -1.1639 -1.5955  0.8167
 4400SOL     OW24658   1.402   4.219   7.084 -0.2159 -0.0498  0.7102
 4400SOL    HW124659   1.318   4.258   7.107  0.0563  0.2172  1.2308
 4400SOL    HW224660   1.461   4.260   7.146 -0.1873  2.1115 -0.7676
 4401SOL     OW24661   1.898   4.628   7.240 -0.3114 -0.0564 -0.0516
 4401SOL    HW124662   1.939   4.547   7.269 -0.3758 -0.0274  0.1173
 4401SOL    HW224663   1.839   4.640   7.314 -0.9628  1.1118 -0.7510
 4402SOL     OW24664   3.768   3.031   8.861  0.5370  0.5230  0.0700
 4402SOL    HW124665   3.737   3.102   8.805 -0.2009  0.3297  0.2357
 4402SOL    HW224666   3.774   3.069   8.949 -0.9532 -0.6231  0.6562
 4403SOL     OW24667   1.209   4.427   7.718  0.7057 -0.0348 -0.9861
 4403SOL    HW124668   1.285   4.478   7.748 -0.8282 -0.0321  2.9105
 4403SOL    HW224669   1.142   4.496   7.716  0.5145 -0.1635  1.5645
 4404SOL     OW24670   4.462   2.327   9.662 -0.3390  0.4245  0.3056
 4404SOL    HW124671   4.494   2.389   9.727  0.2893 -0.3133  0.7027
 4404SOL    HW224672   4.524   2.256   9.681  0.0798  0.7248  0.0621
 4405SOL     OW24673   0.259   0.431   5.855  0.2167  0.4134 -0.9234
 4405SOL    HW124674   0.324   0.499   5.872 -0.8712  1.6383 -1.6701
 4405SOL    HW224675   0.238   0.428   5.762  0.3950  2.7376 -1.0355
 4406SOL     OW24676   3.576   3.417   1.734  0.8586 -0.2180  0.1984
 4406SOL    HW124677   3.651   3.357   1.731  1.2513  0.1911  1.8573
 4406SOL    HW224678   3.634   3.491   1.720 -0.1009  0.3939 -0.5266
 4407SOL     OW24679   3.094   3.550  12.229 -0.4685 -0.2854 -0.2312
 4407SOL    HW124680   3.110   3.630  12.279 -2.2812 -1.1017  1.6625
 4407SOL    HW224681   3.090   3.476  12.290  0.9855  0.5375  0.8687
 4408SOL     OW24682   4.660   3.414   7.678  0.2579 -0.2117 -0.0120
 4408SOL    HW124683   4.712   3.471   7.735 -0.8914  1.4107 -0.5664
 4408SOL    HW224684   4.574   3.456   7.686  0.9243  1.7391 -3.0817
 4409SOL     OW24685   1.254   0.967  16.807 -0.4955 -0.2277  0.2557
 4409SOL    HW124686   1.167   1.006  16.815  0.0156  1.1943 -1.1196
 4409SOL    HW224687   1.256   0.950  16.713 -0.6594  0.5496  0.1085
 4410SOL     OW24688   4.696   3.771  10.792 -0.0133 -0.3362  0.1954
 4410SOL    HW124689   4.602   3.774  10.809 -0.0174 -0.8075  0.2588
 4410SOL    HW224690   0.006   3.685  10.816 -0.0096 -0.0911  1.0715
 4411SOL     OW24691   2.761   0.339   2.170  0.0059  0.0124 -0.0454
 4411SOL    HW124692   2.825   0.385   2.224 -0.4933  0.4571  0.1724
 4411SOL    HW224693   2.770   0.247   2.195  3.5466  0.8720  1.8247
 4412SOL     OW24694   3.917   3.910   4.705  0.2157 -0.0425  0.3854
 4412SOL    HW124695   3.895   3.822   4.736  2.3873  0.0736  2.2546
 4412SOL    HW224696   3.843   3.965   4.728  0.5307  0.6788 -0.3505
 4413SOL     OW24697   3.134   3.631   8.596  0.7645  0.0955  0.2769
 4413SOL    HW124698   3.108   3.711   8.550 -1.7376 -1.0447 -0.2994
 4413SOL    HW224699   3.150   3.664   8.684 -1.5283 -0.2806  0.8153
 4414SOL     OW24700   0.269   4.174   7.654 -0.1634 -0.2053  0.7536
 4414SOL    HW124701   0.348   4.226   7.638 -1.5803  2.2365  1.5905
 4414SOL    HW224702   0.214   4.190   7.577  0.3680 -1.3329  0.1559
 4415SOL     OW24703   1.257   4.398   5.925 -0.0088  0.1479 -0.1827
 4415SOL    HW124704   1.184   4.458   5.939 -0.6784 -0.4107 -1.3487
 4415SOL    HW224705   1.259   4.392   5.830  1.7046  0.7563 -0.1756
 4416SOL     OW24706   4.065   0.884  12.111  0.2069  0.0583  0.4190
 4416SOL    HW124707   4.050   0.942  12.185  0.0878  0.9921 -0.3438
 4416SOL    HW224708   3.991   0.892  12.050  0.9672 -2.0812 -0.7677
 4417SOL     OW24709   3.454   1.454   2.428 -0.2449 -0.6653 -0.1080
 4417SOL    HW124710   3.363   1.472   2.451 -0.2198 -0.6833  0.0035
 4417SOL    HW224711   3.477   1.520   2.363 -0.9877  0.4754  0.7901
 4418SOL     OW24712   0.867   3.132  15.461  0.4573 -0.3442  0.0612
 4418SOL    HW124713   0.809   3.196  15.501 -0.1168 -1.7126  1.4288
 4418SOL    HW224714   0.862   3.154  15.368 -1.8887  1.9773  0.7536
 4419SOL     OW24715   1.474   3.552   8.243 -0.4633 -0.5230 -0.6137
 4419SOL    HW124716   1.491   3.579   8.153 -0.9996  0.7027 -0.3434
 4419SOL    HW224717   1.384   3.522   8.241 -0.8670  0.6074  0.6904
 4420SOL     OW24718   1.151   1.237   0.834 -0.2693 -0.4927 -0.2352
 4420SOL    HW124719   1.179   1.177   0.903 -4.3745 -1.9057  0.2483
 4420SOL    HW224720   1.083   1.274   0.889 -1.3873 -1.5714 -0.8760
 4421SOL     OW24721   1.570   3.580  11.826 -0.4362 -0.0008 -0.0148
 4421SOL    HW124722   1.496   3.636  11.806 -0.4872  0.3551  1.1725
 4421SOL    HW224723   1.528   3.533  11.898  0.0259 -0.5743 -0.1166
 4422SOL     OW24724   4.193   3.178   3.792 -0.0007  0.4402 -0.0465
 4422SOL    HW124725   4.141   3.258   3.796  1.3237  1.4447 -2.2885
 4422SOL    HW224726   4.190   3.153   3.884  2.3241  0.7649  0.1272
 4423SOL     OW24727   3.423   3.904  10.024  0.1149  0.0704 -0.1402
 4423SOL    HW124728   3.367   3.982  10.025 -0.5667 -0.3787 -1.9791
 4423SOL    HW224729   3.366   3.835   9.990 -1.1494  0.1426  1.8206
 4424SOL     OW24730   0.362   2.317   3.902  0.5403 -0.4302 -0.5726
 4424SOL    HW124731   0.330   2.230   3.925  0.4972 -0.9122 -2.4325
 4424SOL    HW224732   0.421   2.345   3.971  0.0453  0.7318 -0.6189
 4425SOL     OW24733   0.439   2.731   8.772  0.6540 -0.0919 -0.6274
 4425SOL    HW124734   0.412   2.815   8.735  1.4596  0.9520  1.1730
 4425SOL    HW224735   0.436   2.749   8.866  2.3757 -0.4879 -0.5110
 4426SOL     OW24736   1.922   0.887  17.094  0.0481  0.0146  0.5779
 4426SOL    HW124737   2.014   0.877  17.070 -0.2783  0.6142 -0.9358
 4426SOL    HW224738   1.936   0.907  17.186  2.6682  4.0338 -0.7327
 4427SOL     OW24739   1.120   4.361   8.554  0.4460 -0.1704  0.4828
 4427SOL    HW124740   1.062   4.433   8.529 -1.6057 -1.9750  0.0574
 4427SOL    HW224741   1.063   4.284   8.551 -1.0091  0.9651 -0.9709
 4428SOL     OW24742   1.830   1.206   2.295 -0.4547 -0.0955 -0.8171
 4428SOL    HW124743   1.770   1.262   2.246  0.5905  0.7623 -1.1204
 4428SOL    HW224744   1.853   1.147   2.224  0.9117 -1.0931  0.4600
 4429SOL     OW24745   0.930   3.536   1.001  0.1644 -0.1295  0.2026
 4429SOL    HW124746   0.939   3.591   0.923 -0.4696  0.0507  0.2566
 4429SOL    HW224747   0.950   3.446   0.974 -0.5878 -0.1237 -0.3634
 4430SOL     OW24748   1.155   0.248  11.597  0.2906 -0.1684  0.1424
 4430SOL    HW124749   1.114   0.330  11.569  1.7680  0.5164 -0.0651
 4430SOL    HW224750   1.208   0.223  11.521 -2.2379 -1.6267 -1.1373
 4431SOL     OW24751   3.321   2.486  11.831  0.3789 -0.5009 -0.3444
 4431SOL    HW124752   3.288   2.489  11.920 -0.1982 -1.2563 -0.5264
 4431SOL    HW224753   3.309   2.391  11.821 -0.7400 -0.3776 -0.1580
 4432SOL     OW24754   0.800   0.458   4.077 -0.2095  0.1484 -0.5949
 4432SOL    HW124755   0.834   0.545   4.095 -3.3302  1.3219 -0.2867
 4432SOL    HW224756   0.870   0.408   4.036  1.5600  0.6344  1.8661
 4433SOL     OW24757   0.800   0.365   8.965  0.6717 -0.0801 -0.4988
 4433SOL    HW124758   0.808   0.459   8.978 -1.3207  0.1004 -0.5024
 4433SOL    HW224759   0.814   0.364   8.871 -0.0928 -0.4512 -0.6146
 4434SOL     OW24760   1.722   1.400   5.698  0.3911 -0.5057  0.5709
 4434SOL    HW124761   1.666   1.322   5.699 -0.6110  0.1946 -0.1525
 4434SOL    HW224762   1.759   1.390   5.610  0.7206  1.2497  0.5101
 4435SOL     OW24763   1.709   4.232   4.686  0.2758 -1.1935  0.5286
 4435SOL    HW124764   1.709   4.291   4.611  0.9852  0.5986  1.9514
 4435SOL    HW224765   1.618   4.203   4.692 -0.9722  2.5417 -0.3820
 4436SOL     OW24766   1.645   4.442   3.718  0.2974  0.2245  0.2539
 4436SOL    HW124767   1.662   4.386   3.642  1.7348  2.2624 -0.9104
 4436SOL    HW224768   1.549   4.439   3.714  0.1835  2.1839  1.8686
 4437SOL     OW24769   0.904   2.377   3.232 -0.6683  0.1825  0.3507
 4437SOL    HW124770   0.906   2.334   3.147  2.6294  2.0076 -0.4774
 4437SOL    HW224771   0.851   2.449   3.198  0.3821  0.1961 -1.2275
 4438SOL     OW24772   3.914   1.259   1.320 -0.1630  0.1518  0.3556
 4438SOL    HW124773   3.931   1.167   1.302 -0.1125  0.1444  0.4434
 4438SOL    HW224774   3.981   1.291   1.260 -1.1427 -0.3411 -1.0040
 4439SOL     OW24775   2.319   3.398   1.806  0.4296 -0.0488 -0.0993
 4439SOL    HW124776   2.230   3.405   1.772  0.7489  1.2879 -0.6587
 4439SOL    HW224777   2.344   3.491   1.811 -0.5410  0.1736  0.5511
 4440SOL     OW24778   1.226   0.090   4.858  0.0252  0.2139 -0.2007
 4440SOL    HW124779   1.310   0.129   4.884 -0.6872  1.2767  0.5235
 4440SOL    HW224780   1.174   0.090   4.938  0.6461  0.9940  0.2011
 4441SOL     OW24781   4.182   4.556  14.800  0.1516 -0.5478  0.0292
 4441SOL    HW124782   4.121   4.627  14.777  0.6625  0.0733  0.6030
 4441SOL    HW224783   4.156   4.537  14.890  1.1759  0.5673  0.5665
 4442SOL     OW24784   0.049   2.510   2.711  0.2963  0.0067  0.1227
 4442SOL    HW124785   0.107   2.516   2.635  0.1676  2.0558  0.1966
 4442SOL    HW224786   0.041   2.414   2.714 -0.8082  0.1177  0.5473
 4443SOL     OW24787   3.385   2.938   4.979 -0.9205 -0.3140 -0.3183
 4443SOL    HW124788   3.431   3.021   4.973  2.4176 -2.0615  1.4841
 4443SOL    HW224789   3.306   2.968   5.024  0.9339  3.0931  0.6754
 4444SOL     OW24790   3.833   2.328   2.075 -0.0804  0.6412 -0.3515
 4444SOL    HW124791   3.740   2.307   2.082 -0.2651  1.1193 -1.3748
 4444SOL    HW224792   3.861   2.268   2.006 -1.4433 -1.8439  1.2588
 4445SOL     OW24793   2.433   3.356  15.502 -0.1384  0.1403 -0.6303
 4445SOL    HW124794   2.370   3.353  15.430 -1.2267 -0.8749  0.3661
 4445SOL    HW224795   2.514   3.351  15.451  1.5603 -0.6184  2.1107
 4446SOL     OW24796   4.400   0.853  14.168  0.5282  0.5621 -0.5306
 4446SOL    HW124797   4.439   0.807  14.094  0.9273 -0.3921  0.2730
 4446SOL    HW224798   4.306   0.835  14.159  0.7919 -0.5088 -1.0693
 4447SOL     OW24799   1.834   1.644   6.277  0.4647 -1.2123  0.3388
 4447SOL    HW124800   1.775   1.660   6.351  1.6160 -2.2260  1.4638
 4447SOL    HW224801   1.886   1.723   6.289 -1.3532  0.3234 -1.8922
 4448SOL     OW24802   4.534   3.824   1.626  0.4922  0.1302 -0.1072
 4448SOL    HW124803   4.481   3.903   1.620 -0.1620 -0.3071 -0.0091
 4448SOL    HW224804   4.474   3.785   1.689  2.0906 -1.0991  0.6451
 4449SOL     OW24805   0.283   3.954   7.794 -0.3587  0.7976 -0.3112
 4449SOL    HW124806   0.235   3.979   7.873  0.4164 -0.0600  0.4393
 4449SOL    HW224807   0.256   4.023   7.733 -1.4938  1.9169  1.4732
 4450SOL     OW24808   4.549   4.041   2.501 -0.3136 -0.1774 -0.1536
 4450SOL    HW124809   4.476   4.002   2.452  2.0261 -0.5966 -3.2673
 4450SOL    HW224810   4.597   3.964   2.531  0.0435  0.6845  1.4890
 4451SOL     OW24811   3.568   3.008   5.677 -0.3822 -0.3827  0.4075
 4451SOL    HW124812   3.633   2.978   5.613 -1.4422 -0.1702 -0.7637
 4451SOL    HW224813   3.610   3.007   5.763 -1.0980 -2.1920  0.7519
 4452SOL     OW24814   2.954   2.022   5.997  0.7433  0.1680  0.2928
 4452SOL    HW124815   2.923   2.113   5.996  3.4898  1.1512  2.9757
 4452SOL    HW224816   3.021   2.030   5.929  0.8502 -1.0988  0.2615
 4453SOL     OW24817   0.100   1.298   3.804  0.6271 -0.3017 -0.2715
 4453SOL    HW124818   0.151   1.377   3.820 -0.2722 -0.1863  2.0214
 4453SOL    HW224819   0.100   1.295   3.708  1.5567  1.7471 -0.3346
 4454SOL     OW24820   2.542   1.296   5.500  0.3868 -0.1995  0.1199
 4454SOL    HW124821   2.464   1.343   5.470  1.1481  1.4405  0.7147
 4454SOL    HW224822   2.547   1.292   5.595 -2.9629  1.6564  0.3826
 4455SOL     OW24823   3.315   0.622   0.595  0.2477  0.0997  0.0003
 4455SOL    HW124824   3.294   0.687   0.662  0.3246 -0.6508  0.7598
 4455SOL    HW224825   3.229   0.609   0.555  0.4691 -0.9259 -0.1546
 4456SOL     OW24826   2.488   1.729   1.637 -0.4364 -0.2519  0.1507
 4456SOL    HW124827   2.558   1.743   1.701  0.0153  1.4279 -0.7005
 4456SOL    HW224828   2.425   1.795   1.663 -1.4246 -1.7202  1.5101
 4457SOL     OW24829   1.615   1.730   7.917 -0.0589  0.7240  0.3786
 4457SOL    HW124830   1.584   1.699   8.002 -2.2528 -2.1523 -1.4671
 4457SOL    HW224831   1.533   1.754   7.872  0.3125  0.8795 -0.2149
 4458SOL     OW24832   0.344   3.849   4.746 -0.1159 -0.4423  0.6629
 4458SOL    HW124833   0.408   3.780   4.762  1.2638  0.0148 -2.7538
 4458SOL    HW224834   0.338   3.881   4.836  0.2938 -1.2322  0.9653
 4459SOL     OW24835   2.792   3.547   6.673 -0.4282  0.6381 -0.6441
 4459SOL    HW124836   2.741   3.615   6.630 -0.7273 -0.5106 -2.1040
 4459SOL    HW224837   2.851   3.600   6.727  0.6409 -0.3853 -0.8076
 4460SOL     OW24838   4.216   2.880   6.765 -0.7498 -0.5189  0.2679
 4460SOL    HW124839   4.179   2.914   6.847 -1.7232  1.5351 -1.0244
 4460SOL    HW224840   4.169   2.937   6.704 -0.8283 -0.6813  0.1768
 4461SOL     OW24841   2.925   2.469  11.334 -0.1505  0.2689 -0.3323
 4461SOL    HW124842   2.910   2.441  11.244 -5.2724 -0.4881  0.7653
 4461SOL    HW224843   3.010   2.512  11.323  0.1399  0.2521  1.7925
 4462SOL     OW24844   0.904   3.106   6.306 -0.2726 -0.1828 -0.5105
 4462SOL    HW124845   0.948   3.108   6.221  2.7136  0.4469  1.0646
 4462SOL    HW224846   0.944   3.187   6.337  0.2198 -0.5088 -0.2943
 4463SOL     OW24847   1.519   1.930   7.096  0.0163  0.0895  0.3024
 4463SOL    HW124848   1.594   1.896   7.143 -1.3884  0.4208  2.7734
 4463SOL    HW224849   1.459   1.883   7.153  0.5055  0.1938  0.8957
 4464SOL     OW24850   1.922   0.779   6.903  0.3755  0.6817 -0.0292
 4464SOL    HW124851   1.857   0.758   6.970  0.2815  1.3799  0.1012
 4464SOL    HW224852   1.869   0.758   6.826  0.1578 -2.1330  0.9017
 4465SOL     OW24853   4.286   2.288   0.401 -0.6379  0.5559 -0.2508
 4465SOL    HW124854   4.238   2.365   0.433 -1.6133  0.7245 -2.1151
 4465SOL    HW224855   4.292   2.309   0.307  0.6333  1.4546  0.0284
 4466SOL     OW24856   1.900   1.034  10.919 -0.1053 -0.1722 -0.1564
 4466SOL    HW124857   1.818   1.046  10.870 -1.0729 -0.5141  1.3838
 4466SOL    HW224858   1.970   1.024  10.854 -0.7554  0.1477 -0.9062
 4467SOL     OW24859   2.411   2.163  11.158 -0.7184 -0.4701 -0.4615
 4467SOL    HW124860   2.382   2.183  11.069 -1.0106 -0.6688 -0.4107
 4467SOL    HW224861   2.454   2.246  11.181  0.5047 -1.3895  0.5457
 4468SOL     OW24862   0.581   3.634   9.844 -0.8723  0.5378  0.4684
 4468SOL    HW124863   0.541   3.555   9.880  2.7630 -0.8205  1.4441
 4468SOL    HW224864   0.545   3.640   9.756  2.2723 -0.8110 -0.8955
 4469SOL     OW24865   3.374   1.247  10.528 -0.0704  0.4580 -0.0525
 4469SOL    HW124866   3.438   1.230  10.458  1.6641  2.8477  0.9485
 4469SOL    HW224867   3.432   1.243  10.604  0.4781  1.7856 -0.4115
 4470SOL     OW24868   3.330   3.306   9.649 -0.3069  0.5668 -0.0233
 4470SOL    HW124869   3.330   3.247   9.574 -0.0351 -1.7023  1.7703
 4470SOL    HW224870   3.419   3.307   9.686 -1.2008 -0.6232  2.1145
 4471SOL     OW24871   0.466   0.426   2.786  0.6255  0.3297 -0.0061
 4471SOL    HW124872   0.383   0.399   2.746  0.8297 -1.3588  0.7317
 4471SOL    HW224873   0.478   0.504   2.731 -2.4098  1.2957  0.7121
 4472SOL     OW24874   1.684   3.709  14.791  0.0892  0.1242  0.0688
 4472SOL    HW124875   1.620   3.701  14.861 -1.7306  2.3033 -1.3435
 4472SOL    HW224876   1.680   3.616  14.770 -1.9384  0.0972  0.6108
 4473SOL     OW24877   1.268   2.276   0.599  0.3686  0.4942 -0.1134
 4473SOL    HW124878   1.189   2.308   0.643  1.6294 -1.8862  3.8072
 4473SOL    HW224879   1.236   2.211   0.536  1.6860  3.5072 -3.9300
 4474SOL     OW24880   0.553   3.410   4.488 -0.4799 -0.0643 -0.3912
 4474SOL    HW124881   0.491   3.429   4.417  1.1510 -0.9336 -2.0448
 4474SOL    HW224882   0.636   3.392   4.445  0.8276  0.9179  1.7583
 4475SOL     OW24883   0.726   1.343  12.267  0.2297  0.0811  0.9132
 4475SOL    HW124884   0.652   1.397  12.294 -0.2924  0.1792 -0.7086
 4475SOL    HW224885   0.767   1.313  12.348  0.5841  3.3342  1.9301
 4476SOL     OW24886   0.874   1.729   7.529 -0.2597 -0.0835 -0.3822
 4476SOL    HW124887   0.916   1.678   7.598  0.9570  0.5377 -0.6506
 4476SOL    HW224888   0.783   1.702   7.532 -0.4619  0.5413 -0.7121
 4477SOL     OW24889   3.741   2.278  15.462  0.5849  0.0165 -0.2304
 4477SOL    HW124890   3.767   2.305  15.374 -1.0455 -2.3971 -1.4444
 4477SOL    HW224891   3.660   2.317  15.496 -0.5855 -0.7077 -2.2117
 4478SOL     OW24892   1.696   4.224  12.930  0.1600  0.3589  0.2167
 4478SOL    HW124893   1.636   4.186  12.866 -0.1475 -0.7682  1.1892
 4478SOL    HW224894   1.670   4.181  13.012  2.7699 -0.9114  0.3944
 4479SOL     OW24895   2.243   4.590  12.809  0.0851 -0.1556  0.3733
 4479SOL    HW124896   2.219   4.658  12.871 -2.8900  0.5439 -1.5196
 4479SOL    HW224897   2.158   4.578  12.765  0.0818 -1.5641  0.7538
 4480SOL     OW24898   3.475   3.161  14.728  0.1200 -0.0098 -0.0840
 4480SOL    HW124899   3.393   3.132  14.767 -0.1076  0.9207  0.1089
 4480SOL    HW224900   3.485   3.083  14.672  1.5160 -0.4154  0.7222
 4481SOL     OW24901   3.307   2.639   3.995 -0.0496 -0.0410 -0.2741
 4481SOL    HW124902   3.260   2.557   4.007 -0.0978  0.0580  0.1954
 4481SOL    HW224903   3.233   2.695   3.970  0.7798  1.4892  0.7220
 4482SOL     OW24904   0.846   1.344   4.144 -0.3471 -0.4468  0.1782
 4482SOL    HW124905   0.788   1.409   4.182  0.3448 -0.2783  0.9534
 4482SOL    HW224906   0.897   1.301   4.214  0.0319  2.3535  1.6246
 4483SOL     OW24907   0.759   0.029   8.039 -0.4293  0.4051 -0.0328
 4483SOL    HW124908   0.700   4.714   7.975 -0.6944 -0.6908  0.8942
 4483SOL    HW224909   0.703   0.080   8.097 -0.7780 -1.6020  1.4058
 4484SOL     OW24910   1.559   2.548   3.400  0.0752 -0.1532 -0.6332
 4484SOL    HW124911   1.547   2.612   3.330  1.0848  3.0929  2.1562
 4484SOL    HW224912   1.561   2.460   3.363  2.1947  0.3481 -1.6860
 4485SOL     OW24913   4.038   2.451  16.862 -0.4477  0.2060  0.1716
 4485SOL    HW124914   3.975   2.383  16.885  0.1644 -1.0578 -1.9038
 4485SOL    HW224915   4.090   2.472  16.940  0.3786 -0.8521 -0.0910
 4486SOL     OW24916   0.929   2.856   8.104 -0.0055 -0.7549  0.2436
 4486SOL    HW124917   0.907   2.932   8.050 -1.6061 -1.9040 -0.7262
 4486SOL    HW224918   0.987   2.895   8.169 -0.0492 -1.5350  0.7498
 4487SOL     OW24919   1.889   0.592  14.500  0.3160  0.2145  0.2308
 4487SOL    HW124920   1.846   0.672  14.529 -1.1674 -0.6945  0.5337
 4487SOL    HW224921   1.826   0.533  14.542  0.5524 -0.2251 -0.0387
 4488SOL     OW24922   1.792   4.532   4.825  0.2349 -0.5420  0.1210
 4488SOL    HW124923   1.836   4.616   4.837 -0.3483 -0.0827 -1.0252
 4488SOL    HW224924   1.719   4.554   4.768  0.1719  1.2403  0.8903
 4489SOL     OW24925   1.883   4.250   3.631 -0.1479  0.1854 -0.0449
 4489SOL    HW124926   1.979   4.252   3.639 -0.1086  0.1966 -0.5365
 4489SOL    HW224927   1.874   4.309   3.556 -1.3143 -2.1840 -1.7368
 4490SOL     OW24928   1.773   2.518   7.122 -0.7603  0.1903 -0.2820
 4490SOL    HW124929   1.697   2.488   7.171 -0.2253 -1.2732 -0.3578
 4490SOL    HW224930   1.798   2.442   7.070  3.0299 -0.1012  1.9214
 4491SOL     OW24931   2.957   3.723  17.075 -0.0385  0.7056 -0.3114
 4491SOL    HW124932   3.000   3.743  17.158 -1.1547 -0.5346  0.5820
 4491SOL    HW224933   3.019   3.657  17.044  1.2256  0.5130  2.6743
 4492SOL     OW24934   0.926   1.774   7.225  1.0111  0.4279  0.1464
 4492SOL    HW124935   0.891   1.855   7.263  2.5519  1.3107 -0.2996
 4492SOL    HW224936   0.927   1.714   7.300 -0.1006  0.5566  0.2636
 4493SOL     OW24937   3.512   0.615   5.922  0.6132 -0.0273 -0.1416
 4493SOL    HW124938   3.485   0.606   6.013 -0.1770  0.7891 -0.2980
 4493SOL    HW224939   3.607   0.618   5.922  0.5630  1.3753  0.3333
 4494SOL     OW24940   1.401   4.128   3.113  0.4316 -0.0830  0.0154
 4494SOL    HW124941   1.469   4.067   3.084  2.2482  0.7858  2.4223
 4494SOL    HW224942   1.411   4.121   3.208  0.4023 -1.2029 -0.0663
 4495SOL     OW24943   0.947   0.985   0.246 -0.6483  0.2511 -0.0918
 4495SOL    HW124944   0.964   1.055   0.308  2.3700  0.7451 -1.4699
 4495SOL    HW224945   1.028   1.001   0.196  0.0142  0.4722  1.0485
 4496SOL     OW24946   2.253   3.590   1.547  0.1880 -0.5051  0.7924
 4496SOL    HW124947   2.294   3.603   1.632 -1.0435  2.0533  0.9932
 4496SOL    HW224948   2.159   3.600   1.565 -0.2319 -1.6825 -0.7067
 4497SOL     OW24949   2.758   3.097  12.646 -0.1076  0.5106  0.1839
 4497SOL    HW124950   2.746   3.013  12.690  2.7046 -0.0674 -0.1793
 4497SOL    HW224951   2.837   3.136  12.683 -0.2247  0.9298 -0.0125
 4498SOL     OW24952   4.305   2.740   5.525 -0.1692  0.4099 -0.5185
 4498SOL    HW124953   4.238   2.691   5.478 -0.9471 -0.8520  1.8980
 4498SOL    HW224954   4.259   2.763   5.606 -2.6853  0.0647 -1.8407
 4499SOL     OW24955   2.938   1.080   3.647  0.5545  0.9347  0.4088
 4499SOL    HW124956   2.970   1.169   3.668  3.1220  0.1855 -0.2723
 4499SOL    HW224957   3.001   1.050   3.581 -1.4906  1.6746 -1.8836
 4500SOL     OW24958   0.408   3.059   5.795  0.4807 -0.8065  0.1034
 4500SOL    HW124959   0.467   3.035   5.866 -0.1197 -2.8228 -0.0847
 4500SOL    HW224960   0.348   3.109   5.850  0.3062  0.0820 -0.8888
 4501SOL     OW24961   2.844   0.214   2.895  0.0137 -0.0302  0.1538
 4501SOL    HW124962   2.820   0.284   2.955  1.1338 -0.3299  0.9619
 4501SOL    HW224963   2.797   0.241   2.816 -0.6250 -0.0789  0.5217
 4502SOL     OW24964   3.488   0.424   4.232 -0.0510  0.4851  0.0890
 4502SOL    HW124965   3.558   0.488   4.242  0.6348 -0.0048 -1.6121
 4502SOL    HW224966   3.473   0.451   4.142  0.0043 -2.0102 -0.6575
 4503SOL     OW24967   2.676   0.339   0.552 -0.2219  0.3769  0.3433
 4503SOL    HW124968   2.580   0.340   0.547 -0.1703  0.3314 -0.5741
 4503SOL    HW224969   2.690   0.257   0.600  1.9257 -0.5455 -1.8242
 4504SOL     OW24970   0.867   2.419  17.645 -0.5289  0.0755 -0.6383
 4504SOL    HW124971   0.805   2.430   0.016  1.2027 -0.0499  0.8510
 4504SOL    HW224972   0.897   2.509  17.642  0.5512 -0.3344 -2.1593
 4505SOL     OW24973   0.725   1.862   3.919 -0.1146  0.1564 -0.0787
 4505SOL    HW124974   0.683   1.781   3.890  1.7813 -1.3011  1.2354
 4505SOL    HW224975   0.669   1.924   3.871 -1.8985 -0.1265  1.6408
 4506SOL     OW24976   1.115   0.511   4.167 -0.5711 -0.6149 -0.7706
 4506SOL    HW124977   1.172   0.546   4.235 -0.7701  1.9105 -1.9070
 4506SOL    HW224978   1.174   0.507   4.092 -0.4765  1.1207 -0.7713
 4507SOL     OW24979   2.676   3.330  15.348  0.2452  0.2192  0.3770
 4507SOL    HW124980   2.721   3.413  15.333 -1.1312  0.9961  0.5387
 4507SOL    HW224981   2.634   3.321  15.263  1.6066 -3.2513  0.0926
 4508SOL     OW24982   2.383   3.903   0.759  0.1561  0.0794  0.3236
 4508SOL    HW124983   2.401   3.986   0.803  0.1874  0.1211  0.2331
 4508SOL    HW224984   2.413   3.837   0.821 -2.1426  0.3965  1.7770
 4509SOL     OW24985   0.535   4.527  17.480  0.2439 -0.2368  0.0592
 4509SOL    HW124986   0.479   4.568  17.546 -0.7555 -3.3100  1.1231
 4509SOL    HW224987   0.624   4.558  17.496  0.3189  0.0773 -0.9771
 4510SOL     OW24988   2.446   1.084   9.925 -0.3843 -0.8046  0.2003
 4510SOL    HW124989   2.515   1.018   9.928 -0.1683 -0.6810 -1.5450
 4510SOL    HW224990   2.487   1.150   9.868 -0.7552 -0.6839  0.0739
 4511SOL     OW24991   0.832   2.002   0.283 -0.5427  0.4953  0.0140
 4511SOL    HW124992   0.788   2.017   0.200 -0.3160 -1.3191 -0.4469
 4511SOL    HW224993   0.915   1.958   0.267 -1.3006 -0.7375 -0.5273
 4512SOL     OW24994   3.955   0.323   4.263 -0.2065 -0.0055  0.0672
 4512SOL    HW124995   4.049   0.323   4.248 -0.2170  1.2690  0.0239
 4512SOL    HW224996   3.932   0.402   4.214 -0.6254  0.9657  1.8301
 4513SOL     OW24997   1.444   0.237   2.877 -0.4876  0.2734  0.3247
 4513SOL    HW124998   1.372   0.253   2.816  0.9166 -0.4882 -1.5130
 4513SOL    HW224999   1.396   0.265   2.955 -2.6052 -1.9356 -0.1830
 4514SOL     OW25000   1.795   0.687   0.470  0.5385  0.5465 -0.1695
 4514SOL    HW125001   1.769   0.664   0.559  1.8081  0.5167  0.1987
 4514SOL    HW225002   1.873   0.633   0.463  0.5748  0.5222  0.3596
 4515SOL     OW25003   1.764   3.327   2.745  0.0045 -0.0670  0.2901
 4515SOL    HW125004   1.794   3.305   2.657 -2.9993  0.3405 -0.8456
 4515SOL    HW225005   1.720   3.409   2.719  1.3552  0.7754  0.6874
 4516SOL     OW25006   4.556   4.290   8.181  0.3713 -0.6495  0.2520
 4516SOL    HW125007   4.602   4.371   8.162 -0.5763 -0.5947 -1.8096
 4516SOL    HW225008   4.558   4.283   8.276 -1.6358 -1.5583  0.2331
 4517SOL     OW25009   0.343   3.857   5.035  0.0096 -0.6867 -0.4372
 4517SOL    HW125010   0.412   3.792   5.030  0.5451 -0.1849  0.3266
 4517SOL    HW225011   0.292   3.822   5.108 -0.6217  0.3109 -0.4028
 4518SOL     OW25012   3.831   4.460   3.272  0.4075  0.0700  0.1176
 4518SOL    HW125013   3.843   4.539   3.221  0.7385  0.1665  0.3466
 4518SOL    HW225014   3.829   4.497   3.361 -1.6738  5.2166 -2.0691
 4519SOL     OW25015   2.624   4.279   3.956 -0.9874  0.5570  0.3554
 4519SOL    HW125016   2.580   4.247   4.035 -0.3316  0.4526  0.6769
 4519SOL    HW225017   2.687   4.338   3.996 -0.5175  0.3260 -0.0463
 4520SOL     OW25018   3.864   1.161  16.303 -0.2043  0.6049 -0.0073
 4520SOL    HW125019   3.795   1.131  16.361 -0.8699 -0.0509 -1.1318
 4520SOL    HW225020   3.812   1.221  16.249 -0.2205  1.1482  0.6192
 4521SOL     OW25021   2.195   4.511   1.174  0.3085 -0.4078  0.8691
 4521SOL    HW125022   2.211   4.591   1.125  2.5782 -1.1816  0.3226
 4521SOL    HW225023   2.130   4.542   1.237  0.1465 -0.7516  0.8728
 4522SOL     OW25024   2.653   4.716   7.633 -0.0700 -0.3674 -0.0113
 4522SOL    HW125025   2.620   0.070   7.590 -1.5671 -0.0017  1.7775
 4522SOL    HW225026   2.590   4.720   7.706 -1.1058 -0.8536 -0.8848
 4523SOL     OW25027   2.930   4.141   2.907 -0.7251 -0.0026 -0.2185
 4523SOL    HW125028   3.015   4.130   2.864 -1.3095 -0.4880 -1.2198
 4523SOL    HW225029   2.867   4.153   2.837  0.8129 -0.5695 -1.7036
 4524SOL     OW25030   3.697   0.855  15.048  0.5834 -0.5402  0.1338
 4524SOL    HW125031   3.648   0.842  14.967 -1.1953 -0.9766  1.2839
 4524SOL    HW225032   3.783   0.873  15.011  1.4045 -2.1050  1.2203
 4525SOL     OW25033   2.726   1.728   7.994 -0.1563  0.1303 -0.3219
 4525SOL    HW125034   2.715   1.821   8.016  1.4793  0.3735 -0.5640
 4525SOL    HW225035   2.651   1.686   8.036 -0.0007 -2.3388 -2.5193
 4526SOL     OW25036   1.517   0.687   4.788 -0.1674 -0.5949  0.4007
 4526SOL    HW125037   1.460   0.677   4.712 -0.4102  2.3163  0.1729
 4526SOL    HW225038   1.599   0.647   4.758 -1.4100 -3.3179  0.6745
 4527SOL     OW25039   2.609   4.197  10.269 -0.2443  0.3331 -0.4535
 4527SOL    HW125040   2.684   4.152  10.309  0.3282  2.0417  0.3657
 4527SOL    HW225041   2.541   4.131  10.279 -0.8286  0.8185 -1.2759
 4528SOL     OW25042   3.640   3.829   0.353  0.0027  0.1225 -0.5614
 4528SOL    HW125043   3.549   3.817   0.329 -0.4398  0.8887  0.7045
 4528SOL    HW225044   3.650   3.917   0.389 -0.5378 -0.8011  1.8786
 4529SOL     OW25045   4.234   2.674  17.542 -0.0506  0.7824  0.3841
 4529SOL    HW125046   4.264   2.764  17.549 -0.8142  0.9206  1.8957
 4529SOL    HW225047   4.276   2.639  17.463  1.0169  0.4747  1.0835
 4530SOL     OW25048   0.430   3.815  12.689  0.2084 -0.2076 -0.4199
 4530SOL    HW125049   0.425   3.872  12.765 -0.5048 -0.3748 -0.3445
 4530SOL    HW225050   0.346   3.770  12.699  0.2756 -0.3337 -0.4155
 4531SOL     OW25051   2.809   4.672  13.696  0.4863  0.3955 -0.1608
 4531SOL    HW125052   2.869   4.647  13.766  2.0726 -1.6973 -2.2379
 4531SOL    HW225053   2.766   0.027  13.724 -0.6019 -0.2441 -0.0152
 4532SOL     OW25054   1.300   0.229   7.626 -0.0195 -0.2430  0.4962
 4532SOL    HW125055   1.322   0.177   7.703  0.9568 -3.0419 -1.6649
 4532SOL    HW225056   1.336   0.179   7.553 -2.2950 -1.6136  0.3279
 4533SOL     OW25057   2.004   2.969   2.805 -0.2974  0.0824 -0.4721
 4533SOL    HW125058   2.003   2.886   2.758  0.9869 -0.2075  0.0061
 4533SOL    HW225059   1.955   2.945   2.884  0.0420  1.0052  0.0276
 4534SOL     OW25060   0.608   3.042   7.025  0.2226 -0.4360  0.0656
 4534SOL    HW125061   0.536   3.015   6.970  2.1107 -1.8287 -1.7147
 4534SOL    HW225062   0.667   3.067   6.954 -1.0260  0.0032 -0.8129
 4535SOL     OW25063   0.729   0.184   6.497  0.1028  0.7366  0.0664
 4535SOL    HW125064   0.743   0.254   6.433  1.3624  0.2391 -0.2044
 4535SOL    HW225065   0.718   0.232   6.579 -2.0662 -1.5199  1.1241
 4536SOL     OW25066   0.071   3.303   6.221  0.0139  0.0104  0.7685
 4536SOL    HW125067   0.065   3.383   6.273  2.7222  2.9536 -3.5100
 4536SOL    HW225068   0.166   3.309   6.219 -0.0759  1.0489 -0.7599
 4537SOL     OW25069   2.286   0.631   3.672  0.4506  0.1114  0.1273
 4537SOL    HW125070   2.371   0.665   3.643  0.5190  0.6167  0.8995
 4537SOL    HW225071   2.308   0.541   3.652  1.8559 -0.1482  2.8118
 4538SOL     OW25072   4.616   2.840  13.287  0.1184 -0.3737  0.4242
 4538SOL    HW125073   4.555   2.772  13.316  0.1528 -0.9649 -0.8930
 4538SOL    HW225074   4.561   2.913  13.316  1.0887 -0.3995  2.3071
 4539SOL     OW25075   3.748   3.929  10.961 -0.3941  0.3738 -0.0088
 4539SOL    HW125076   3.812   3.875  11.008 -0.4316  0.0814 -0.2935
 4539SOL    HW225077   3.788   3.929  10.874 -1.4835 -1.8119 -0.4906
 4540SOL     OW25078   2.819   0.933   5.410 -0.1949  0.1393  0.0136
 4540SOL    HW125079   2.782   0.910   5.325  0.7030  0.7899 -0.5556
 4540SOL    HW225080   2.911   0.916   5.388  0.1414 -0.1697  1.6945
 4541SOL     OW25081   1.962   0.419   8.568  0.3725 -0.0649  0.5248
 4541SOL    HW125082   1.996   0.376   8.490  0.5916 -1.4131  1.3615
 4541SOL    HW225083   1.981   0.352   8.635  3.7189  0.2662 -0.1092
 4542SOL     OW25084   3.426   0.801   7.979 -0.2829  0.0278 -0.1271
 4542SOL    HW125085   3.430   0.865   7.908  2.6654 -0.7312 -0.6160
 4542SOL    HW225086   3.462   0.851   8.052  0.5392 -1.1411  0.2753
 4543SOL     OW25087   1.806   4.596   8.091  0.3481  0.0879  0.0522
 4543SOL    HW125088   1.720   4.556   8.076  0.3320  0.2170 -0.1863
 4543SOL    HW225089   1.802   4.667   8.027 -2.3732 -1.2419 -1.2429
 4544SOL     OW25090   1.946   3.412   9.313  0.1457 -0.5637  0.5691
 4544SOL    HW125091   1.867   3.357   9.312 -1.7174  2.0640  1.1416
 4544SOL    HW225092   1.902   3.488   9.274  0.6858 -0.4121  0.2639
 4545SOL     OW25093   2.350   3.968   3.574  0.1618  0.0062 -0.1723
 4545SOL    HW125094   2.347   3.873   3.566 -1.9823 -0.0436  1.0336
 4545SOL    HW225095   2.425   3.975   3.634 -0.5528 -1.9589  0.9640
 4546SOL     OW25096   4.616   3.814   9.120  0.1529  0.3324 -0.6981
 4546SOL    HW125097   4.696   3.800   9.170  0.5804  1.0712 -1.1738
 4546SOL    HW225098   4.572   3.731   9.137 -2.2506  1.1904 -2.6950
 4547SOL     OW25099   1.706   4.419  14.055  0.3101  1.2284  0.4077
 4547SOL    HW125100   1.692   4.436  14.148  0.9600  0.7158  0.6014
 4547SOL    HW225101   1.784   4.363  14.051 -0.2571  0.6042 -2.0046
 4548SOL     OW25102   0.852   1.710   6.936 -0.2264  0.8535 -0.4982
 4548SOL    HW125103   0.768   1.739   6.972  1.1825  0.2109  3.3385
 4548SOL    HW225104   0.914   1.740   7.002 -0.3491  0.9541 -0.4299
 4549SOL     OW25105   0.027   4.299  10.222 -0.0208 -0.8808  0.5137
 4549SOL    HW125106   0.054   4.211  10.197  3.6443  0.9917 -2.2672
 4549SOL    HW225107   0.004   4.291  10.314 -2.6251  0.6878 -0.0123
 4550SOL     OW25108   2.964   1.305   2.564  0.7002  0.2101  1.1605
 4550SOL    HW125109   3.030   1.374   2.559  1.3287 -0.2779  2.7914
 4550SOL    HW225110   2.985   1.238   2.498 -0.9065 -0.1916  1.0625
 4551SOL     OW25111   0.765   0.342   2.530 -0.3464 -0.2379 -0.3476
 4551SOL    HW125112   0.828   0.363   2.461  3.9611 -2.7089  2.8334
 4551SOL    HW225113   0.821   0.295   2.591  0.9232  1.6462 -0.0364
 4552SOL     OW25114   2.661   2.007   4.782  0.2494  0.9089 -0.1242
 4552SOL    HW125115   2.731   1.957   4.823 -0.3899 -1.1925 -1.5887
 4552SOL    HW225116   2.710   2.076   4.738 -0.4939  0.0088 -2.3498
 4553SOL     OW25117   0.227   0.237   1.147  0.4096 -0.2074  0.7780
 4553SOL    HW125118   0.197   0.245   1.056 -1.4270 -1.8313  1.2480
 4553SOL    HW225119   0.188   0.151   1.161  0.0162 -0.0962  0.3940
 4554SOL     OW25120   0.038   3.637   6.815 -0.0445 -0.7809 -0.2948
 4554SOL    HW125121   0.116   3.607   6.860  2.1197  3.6602 -1.0708
 4554SOL    HW225122   0.077   3.695   6.750 -2.7133  0.9993 -0.3413
 4555SOL     OW25123   2.043   4.075   7.394 -0.7071  0.2076  0.5112
 4555SOL    HW125124   1.979   4.026   7.446 -1.0155 -0.7905 -0.7983
 4555SOL    HW225125   2.048   4.021   7.314  0.9753  1.5292 -0.2757
 4556SOL     OW25126   3.345   0.198   3.016 -0.5013  0.3840 -0.2541
 4556SOL    HW125127   3.380   0.140   2.949 -2.7398 -0.0811 -1.0248
 4556SOL    HW225128   3.257   0.218   2.982 -1.0790  1.2309  1.7374
 4557SOL     OW25129   2.471   0.164  10.652  0.4348 -0.2747  0.5979
 4557SOL    HW125130   2.405   0.229  10.676  0.8252 -0.1232  1.2635
 4557SOL    HW225131   2.463   0.106  10.728  2.1049 -1.7112 -0.3347
 4558SOL     OW25132   2.718   0.646   6.045  0.0986  1.0047  0.2816
 4558SOL    HW125133   2.661   0.569   6.042 -0.6020  1.4502  1.6764
 4558SOL    HW225134   2.653   0.717   6.052 -0.5205  0.4795 -0.0912
 4559SOL     OW25135   4.004   2.613  13.272  0.1758  0.1626  0.0566
 4559SOL    HW125136   3.934   2.676  13.292  0.0826 -0.0043  0.2514
 4559SOL    HW225137   3.949   2.542  13.238  0.2446 -0.2612  0.8310
 4560SOL     OW25138   4.299   2.318   9.186 -0.4807  0.4309  0.4535
 4560SOL    HW125139   4.236   2.374   9.231  0.6206  1.8071  0.2847
 4560SOL    HW225140   4.265   2.230   9.204 -1.4293  0.6504 -0.2503
 4561SOL     OW25141   4.473   0.171  16.621 -0.1588  0.1794 -0.1444
 4561SOL    HW125142   4.447   0.263  16.623 -0.6176 -0.0319  2.4405
 4561SOL    HW225143   4.562   0.196  16.597  0.1750 -0.1185  0.7975
 4562SOL     OW25144   3.467   3.952   3.061  0.2598  0.0396  0.2954
 4562SOL    HW125145   3.562   3.955   3.073  0.2816  2.2136 -0.3233
 4562SOL    HW225146   3.440   3.924   3.148  0.4409 -1.3197 -0.0757
 4563SOL     OW25147   2.156   0.070   4.147 -0.3960 -0.1791  0.0834
 4563SOL    HW125148   2.235   0.021   4.126  0.0098  0.9832 -1.0824
 4563SOL    HW225149   2.190   0.136   4.208 -1.8805 -0.4035  1.1761
 4564SOL     OW25150   3.617   2.459   6.221  0.2214  0.0877 -0.7751
 4564SOL    HW125151   3.629   2.390   6.156 -1.2926  0.7495 -1.7679
 4564SOL    HW225152   3.552   2.409   6.269 -0.5080  1.8848  0.1187
 4565SOL     OW25153   0.411   4.724  14.926  0.0537 -0.2538  0.0147
 4565SOL    HW125154   0.378   0.084  14.895 -0.7669 -0.8210 -0.6701
 4565SOL    HW225155   0.418   0.019  15.019 -1.7522  1.8408 -0.2757
 4566SOL     OW25156   1.279   3.903   3.757  0.2518 -0.1555 -0.9865
 4566SOL    HW125157   1.271   3.819   3.803 -1.4410  1.1069  1.0065
 4566SOL    HW225158   1.324   3.881   3.676  0.5630  1.1548 -1.1702
 4567SOL     OW25159   1.493   0.950   7.676 -0.4864 -0.2865  0.2140
 4567SOL    HW125160   1.468   0.960   7.584  1.9902  1.8733 -0.2324
 4567SOL    HW225161   1.569   1.009   7.676 -0.4932 -0.2776  2.1775
 4568SOL     OW25162   0.563   2.124  16.280  0.4885 -0.2662 -0.1879
 4568SOL    HW125163   0.469   2.136  16.296  0.3424  0.3491 -1.5175
 4568SOL    HW225164   0.585   2.048  16.335  0.7700  0.7797  1.1529
 4569SOL     OW25165   3.025   2.464   2.693 -0.6301 -0.6979 -0.2037
 4569SOL    HW125166   2.991   2.506   2.614  0.2191  2.2743  0.9738
 4569SOL    HW225167   3.008   2.370   2.692 -0.3137 -0.7585  0.0322
 4570SOL     OW25168   4.534   2.854   6.669 -0.9033 -0.0561 -0.3996
 4570SOL    HW125169   4.467   2.814   6.725  0.6467  0.4179  1.7967
 4570SOL    HW225170   4.491   2.915   6.610 -1.3764  0.5811  0.6054
 4571SOL     OW25171   2.729   4.613   5.947  0.3365  0.0443 -0.6135
 4571SOL    HW125172   2.655   4.584   5.893 -0.0348 -0.1585 -0.0038
 4571SOL    HW225173   2.692   4.633   6.033 -0.4556 -1.4186 -0.6063
 4572SOL     OW25174   1.530   1.407  17.390  0.0909  0.1923  0.3923
 4572SOL    HW125175   1.556   1.348  17.319  1.9431  0.9288  0.4523
 4572SOL    HW225176   1.438   1.425  17.373  0.6769 -0.5619 -3.7421
 4573SOL     OW25177   3.031   2.434   3.895  0.4004  0.2633  0.2257
 4573SOL    HW125178   2.955   2.490   3.877  2.5610  2.6834 -1.1990
 4573SOL    HW225179   3.082   2.433   3.814  1.5046  1.1007  0.9145
 4574SOL     OW25180   4.164   2.510   6.318 -0.8708  0.1662 -0.1139
 4574SOL    HW125181   4.144   2.527   6.226 -0.3529 -1.3049 -0.4881
 4574SOL    HW225182   4.155   2.596   6.359 -2.0768  1.7866 -3.7824
 4575SOL     OW25183   3.277   4.599   5.352  0.8323 -0.7160  0.3404
 4575SOL    HW125184   3.367   4.582   5.379  0.6552 -1.6008  0.3969
 4575SOL    HW225185   3.261   4.668   5.416  0.1915  0.4102 -1.0470
 4576SOL     OW25186   0.662   2.018   6.673  0.1443  0.0280 -0.0252
 4576SOL    HW125187   0.572   2.011   6.705  0.4175 -0.9484  0.5215
 4576SOL    HW225188   0.698   2.087   6.728 -0.1335  0.5577 -0.5034
 4577SOL     OW25189   2.909   2.585  10.094 -0.1654  0.4619 -0.1461
 4577SOL    HW125190   2.936   2.537  10.016  0.9030  0.1319  0.4229
 4577SOL    HW225191   2.974   2.655  10.092 -0.5979  0.9264  1.5456
 4578SOL     OW25192   1.937   0.571   1.921 -0.0234  0.2728  0.3595
 4578SOL    HW125193   1.979   0.542   1.840 -0.3486 -0.4513  0.4513
 4578SOL    HW225194   1.894   0.488   1.942  0.2641 -0.2031 -0.9233
 4579SOL     OW25195   2.476   0.591   5.790 -0.2679 -0.1711 -0.2709
 4579SOL    HW125196   2.510   0.581   5.701  0.3244  0.4946 -0.1144
 4579SOL    HW225197   2.508   0.680   5.796  0.0097 -0.1702 -1.6967
 4580SOL     OW25198   4.694   3.990   1.133 -0.5076  0.3906 -0.3042
 4580SOL    HW125199   0.058   3.960   1.117 -0.8343 -1.2873  1.0705
 4580SOL    HW225200   4.669   3.943   1.212 -0.4658 -2.6537 -2.0913
 4581SOL     OW25201   0.405   4.450   5.724 -0.0453 -0.4715  0.3974
 4581SOL    HW125202   0.441   4.432   5.811  0.3604  1.2126  0.5748
 4581SOL    HW225203   0.406   4.376   5.664  0.0803 -0.2508  0.1290
 4582SOL     OW25204   4.164   2.196   6.838 -0.3668  0.1861 -0.0415
 4582SOL    HW125205   4.082   2.237   6.811 -1.5827 -1.7086  0.7818
 4582SOL    HW225206   4.133   2.106   6.844  1.3520 -0.3641  0.4997
 4583SOL     OW25207   2.386   0.847  15.262  0.2006 -0.8719  0.5252
 4583SOL    HW125208   2.460   0.907  15.264  0.4197 -1.2029  2.0917
 4583SOL    HW225209   2.331   0.887  15.194  1.5053  2.4751  1.4577
 4584SOL     OW25210   1.010   2.810   1.605 -0.5351  0.1638 -0.7810
 4584SOL    HW125211   1.001   2.715   1.604 -0.1315  0.1113  0.4678
 4584SOL    HW225212   0.984   2.835   1.516  0.9104 -0.4747 -1.3802
 4585SOL     OW25213   3.587   2.669   5.751  0.3740 -0.0282 -0.4676
 4585SOL    HW125214   3.499   2.637   5.771 -0.0649  0.3220 -1.8384
 4585SOL    HW225215   3.598   2.620   5.669  1.4778 -0.3577 -0.1241
 4586SOL     OW25216   4.554   3.422   3.139  1.0017 -0.0939  0.0265
 4586SOL    HW125217   4.572   3.371   3.218 -0.0397 -0.3943  0.0697
 4586SOL    HW225218   4.478   3.476   3.162  1.1882 -0.5979  1.8834
 4587SOL     OW25219   2.593   3.750   1.621  0.0193 -0.0566  0.3173
 4587SOL    HW125220   2.558   3.772   1.535  0.3836  1.5836  0.5772
 4587SOL    HW225221   2.663   3.815   1.629 -0.0146  0.2447 -2.0108
 4588SOL     OW25222   2.501   4.333   2.608  0.0064  0.0622 -0.4004
 4588SOL    HW125223   2.451   4.413   2.592 -2.4715 -1.6893 -1.5502
 4588SOL    HW225224   2.457   4.287   2.679 -0.7811 -1.4986 -1.9013
 4589SOL     OW25225   1.523   1.312   3.343 -0.1220  0.4052 -0.1408
 4589SOL    HW125226   1.475   1.388   3.313 -2.0417 -1.7297 -2.4782
 4589SOL    HW225227   1.458   1.250   3.376  1.4355 -0.7645  0.7122
 4590SOL     OW25228   2.653   2.231   5.244 -0.3398 -0.4924 -0.1283
 4590SOL    HW125229   2.723   2.166   5.261 -0.4419 -0.3745  0.7335
 4590SOL    HW225230   2.581   2.219   5.306  0.6560 -2.3925  0.6825
 4591SOL     OW25231   4.308   0.804   1.478 -0.4575  0.1457  0.8439
 4591SOL    HW125232   4.256   0.764   1.408  1.5542 -1.2330  0.1386
 4591SOL    HW225233   4.338   0.731   1.532 -0.7591  0.1060  0.9565
 4592SOL     OW25234   4.358   2.948  12.230  0.1551  0.5958  0.0441
 4592SOL    HW125235   4.297   2.876  12.214  0.2420  0.0594  2.1860
 4592SOL    HW225236   4.366   3.001  12.150  1.6506  0.3273  0.0153
 4593SOL     OW25237   2.476   1.346   5.776 -0.2119 -0.0389 -0.0399
 4593SOL    HW125238   2.491   1.357   5.869  2.4573 -1.0628 -0.3451
 4593SOL    HW225239   2.416   1.420   5.767  0.4897  0.5121 -0.2431
 4594SOL     OW25240   1.774   3.674   1.852  0.0639  0.4253 -0.7355
 4594SOL    HW125241   1.744   3.593   1.812  0.3378  0.0230 -0.1204
 4594SOL    HW225242   1.868   3.662   1.835 -0.2293 -0.2981 -1.8828
 4595SOL     OW25243   0.289   2.564  13.736 -0.2442  0.4905 -0.5444
 4595SOL    HW125244   0.244   2.582  13.818  1.4334  1.1299  0.2400
 4595SOL    HW225245   0.379   2.565  13.769 -0.1582 -1.4003 -0.6942
 4596SOL     OW25246   4.137   3.451   6.707 -0.2432 -0.4611  0.5289
 4596SOL    HW125247   4.105   3.537   6.736 -0.2631 -0.7270  1.2941
 4596SOL    HW225248   4.079   3.389   6.750 -0.4780 -0.5508  0.0753
 4597SOL     OW25249   3.756   0.000  12.929 -0.2446 -0.0916 -0.1781
 4597SOL    HW125250   3.688   0.026  12.991  1.6156 -0.3071  1.9983
 4597SOL    HW225251   3.733   4.633  12.922  0.4287 -0.0939 -2.3577
 4598SOL     OW25252   2.951   1.979   3.726  0.3246 -0.0825  0.0494
 4598SOL    HW125253   2.984   1.890   3.739 -1.2565 -0.7498 -0.5016
 4598SOL    HW225254   2.880   1.968   3.662 -0.0586 -0.4306  0.5313
 4599SOL     OW25255   1.813   3.524   2.360  0.0490  0.0276  0.2092
 4599SOL    HW125256   1.858   3.556   2.282  0.1489  2.9893  1.5033
 4599SOL    HW225257   1.731   3.573   2.357  0.6422  1.0142  0.1829
 4600SOL     OW25258   0.272   2.877  14.400 -0.0318 -0.8278 -0.2269
 4600SOL    HW125259   0.326   2.956  14.409 -4.2004  1.9395  0.5395
 4600SOL    HW225260   0.328   2.813  14.356 -0.7313 -1.0654 -0.7676
 4601SOL     OW25261   3.622   2.713   0.887 -1.3747 -0.2673  0.0874
 4601SOL    HW125262   3.656   2.630   0.920  1.3915  1.1476  0.7818
 4601SOL    HW225263   3.706   2.748   0.856 -0.4246 -1.5983  1.1754
 4602SOL     OW25264   3.722   0.219   3.737 -0.0653 -0.0467 -0.0691
 4602SOL    HW125265   3.788   0.287   3.723  0.0595 -0.2569 -0.4701
 4602SOL    HW225266   3.648   0.261   3.783  0.9111  1.3132  0.2585
 4603SOL     OW25267   3.179   0.253   1.298  0.0636 -0.0019  0.8871
 4603SOL    HW125268   3.149   0.162   1.306  0.5366 -0.4556 -2.1070
 4603SOL    HW225269   3.143   0.280   1.382  0.9220 -1.4266  1.7080
 4604SOL     OW25270   1.243   0.082   1.871 -0.0541  0.1897 -0.3944
 4604SOL    HW125271   1.168   0.028   1.846 -1.3878  2.1129 -0.4733
 4604SOL    HW225272   1.258   0.130   1.789  0.8351 -0.6982 -0.7635
 4605SOL     OW25273   3.622   4.685  11.849  0.0968  0.2775 -0.1973
 4605SOL    HW125274   3.694   4.623  11.864 -0.9870 -1.0998 -0.7057
 4605SOL    HW225275   3.620   4.724  11.937  2.0336  1.3144 -0.5996
 4606SOL     OW25276   0.371   3.845   4.350 -0.3053 -0.3967 -0.0732
 4606SOL    HW125277   0.416   3.900   4.413 -2.4969  0.7186  0.4833
 4606SOL    HW225278   0.450   3.805   4.313 -0.8506  0.1906 -1.8777
 4607SOL     OW25279   1.162   0.337   0.585  0.0098  0.1390 -0.1187
 4607SOL    HW125280   1.105   0.359   0.658  0.1066  0.9022 -0.2699
 4607SOL    HW225281   1.110   0.394   0.528  1.0913 -0.7240 -1.9765
 4608SOL     OW25282   0.148   1.031   1.491 -0.0442  0.0303  0.7631
 4608SOL    HW125283   0.176   1.084   1.416 -0.9243 -0.2068  0.2692
 4608SOL    HW225284   0.238   1.008   1.515  0.1041  1.2906  1.4050
 4609SOL     OW25285   4.184   1.970   5.547 -0.7244  0.1772  0.6527
 4609SOL    HW125286   4.222   1.897   5.595 -3.3586 -2.4963 -1.3612
 4609SOL    HW225287   4.184   2.035   5.617  0.6231  0.3253  0.5148
 4610SOL     OW25288   4.639   4.269   3.154 -0.3711  0.1339 -0.5289
 4610SOL    HW125289   4.709   4.267   3.089  0.8315  2.5526  0.6829
 4610SOL    HW225290   4.556   4.250   3.110 -0.6967  0.7299 -0.1655
 4611SOL     OW25291   2.316   1.744   2.242  0.7549  0.5824 -0.3074
 4611SOL    HW125292   2.231   1.774   2.209 -0.3685 -0.4527  1.5991
 4611SOL    HW225293   2.287   1.697   2.320 -0.0183 -0.0150 -0.9494
 4612SOL     OW25294   0.273   4.330   8.866  0.8877  0.3271  0.4067
 4612SOL    HW125295   0.225   4.281   8.798  1.5814  0.3530 -0.0983
 4612SOL    HW225296   0.241   4.289   8.947 -1.4988 -0.4047 -0.9007
 4613SOL     OW25297   3.033   4.515   6.020  0.3117 -0.3963 -0.4343
 4613SOL    HW125298   3.003   4.597   5.981 -1.9177  0.2513  2.6338
 4613SOL    HW225299   3.113   4.539   6.067  0.1680 -0.4465 -0.1600
 4614SOL     OW25300   3.398   3.451   3.934 -0.1116  0.1685  0.5571
 4614SOL    HW125301   3.421   3.395   3.859 -0.9926 -0.1027  0.4923
 4614SOL    HW225302   3.485   3.480   3.962 -0.8220 -1.5809  4.6106
 4615SOL     OW25303   3.656   4.437   7.091 -0.3909 -0.0694 -0.3648
 4615SOL    HW125304   3.671   4.492   7.168  0.1784 -1.1200  0.2769
 4615SOL    HW225305   3.594   4.374   7.128 -1.5841  0.8039 -0.8939
 4616SOL     OW25306   3.209   1.115  10.748 -0.0766  0.1186  0.2078
 4616SOL    HW125307   3.140   1.087  10.809  0.0346  2.4258  1.3717
 4616SOL    HW225308   3.287   1.129  10.801 -0.2194  0.1531  0.4120
 4617SOL     OW25309   1.203   2.821   2.701  0.4875  0.1508 -0.9229
 4617SOL    HW125310   1.196   2.737   2.655 -0.0439  0.1972 -0.9315
 4617SOL    HW225311   1.121   2.868   2.684  0.1294 -0.2654 -0.3861
 4618SOL     OW25312   0.855   2.515  10.018 -0.0246  0.1616 -0.0758
 4618SOL    HW125313   0.853   2.428   9.978  0.4653 -0.5164  1.3777
 4618SOL    HW225314   0.818   2.502  10.106 -0.0280  3.5575  0.4412
 4619SOL     OW25315   2.908   4.120   3.528 -0.4503 -0.6749 -0.0613
 4619SOL    HW125316   2.834   4.127   3.467 -0.7568  1.0915  0.5276
 4619SOL    HW225317   2.951   4.204   3.513  0.6015 -0.6664  2.9993
 4620SOL     OW25318   3.903   4.228   6.610 -0.3213 -0.9487 -0.4854
 4620SOL    HW125319   3.837   4.159   6.605 -0.9813 -0.1937 -2.4445
 4620SOL    HW225320   3.929   4.223   6.702 -0.7858 -2.0820 -0.4259
 4621SOL     OW25321   1.296   2.241   3.412  0.0313  0.0146 -0.0726
 4621SOL    HW125322   1.365   2.282   3.360  0.7801  0.6367  1.3980
 4621SOL    HW225323   1.347   2.241   3.493 -0.7884 -0.5039  0.4443
 4622SOL     OW25324   0.923   2.623   0.389 -0.4351  0.0089  0.1363
 4622SOL    HW125325   0.998   2.623   0.448 -0.5541  1.3588  0.2905
 4622SOL    HW225326   0.915   2.529   0.373 -0.8578  0.1713 -0.6508
 4623SOL     OW25327   2.133   0.027  10.507 -0.2564 -0.1711  0.6583
 4623SOL    HW125328   2.180   0.029  10.590 -1.7542 -0.5341  1.5130
 4623SOL    HW225329   2.206   4.723  10.452 -0.0583 -1.6181  1.6934
 4624SOL     OW25330   1.822   0.843   1.143  0.0399  0.0425  0.0280
 4624SOL    HW125331   1.854   0.797   1.221 -0.5170 -0.2018  0.1110
 4624SOL    HW225332   1.820   0.933   1.175 -1.4721  0.5684 -1.5591
 4625SOL     OW25333   2.500   4.049  12.157  0.8356 -0.1208  0.4943
 4625SOL    HW125334   2.456   4.088  12.233 -1.0099 -0.1567 -0.5503
 4625SOL    HW225335   2.517   3.968  12.205 -0.4100  0.6212  2.1524
 4626SOL     OW25336   2.490   1.046   8.306  0.1338 -0.1985 -0.3606
 4626SOL    HW125337   2.500   1.090   8.221  0.9130 -0.6558 -0.4985
 4626SOL    HW225338   2.477   0.956   8.275 -0.8914 -0.0084 -0.4932
 4627SOL     OW25339   4.559   2.581   5.759  0.3121 -0.0180 -0.0167
 4627SOL    HW125340   4.639   2.554   5.715 -1.1238 -1.7481 -1.5718
 4627SOL    HW225341   4.590   2.647   5.821 -2.1248  1.1317  0.0106
 4628SOL     OW25342   4.647   2.606  12.994  0.2472  0.2926  0.1439
 4628SOL    HW125343   4.640   2.529  12.939  0.1480  0.6829 -0.3849
 4628SOL    HW225344   4.559   2.642  12.980 -0.1226  0.1129  1.9187
 4629SOL     OW25345   4.666   4.449   9.047 -0.1601  0.1611  0.3933
 4629SOL    HW125346   4.575   4.473   9.031  0.0200 -0.6276 -1.8184
 4629SOL    HW225347   4.719   4.451   8.967 -0.1070 -1.6160  0.3836
 4630SOL     OW25348   4.256   3.893   8.808  0.2394  0.3263 -0.1985
 4630SOL    HW125349   4.305   3.894   8.725  0.2608 -1.2110 -0.2070
 4630SOL    HW225350   4.318   3.946   8.858  0.7672  0.4358 -0.9571
 4631SOL     OW25351   3.383   4.205  10.760 -0.2029  0.1705 -0.1123
 4631SOL    HW125352   3.420   4.126  10.797 -0.5243  0.4523  0.8317
 4631SOL    HW225353   3.460   4.235  10.712  0.2075  1.4947  1.3580
 4632SOL     OW25354   3.228   3.735   6.468  0.6809 -0.5338 -0.3209
 4632SOL    HW125355   3.323   3.748   6.477  0.7394 -0.3297 -1.3015
 4632SOL    HW225356   3.236   3.643   6.443  0.2959 -0.7721  0.4440
 4633SOL     OW25357   1.586   4.548   9.349  0.0420 -0.2775  0.0071
 4633SOL    HW125358   1.589   4.575   9.257 -2.5230 -0.3976 -0.1138
 4633SOL    HW225359   1.622   4.628   9.387 -0.3393 -0.1211  0.0370
 4634SOL     OW25360   2.818   2.187  15.455 -0.6679  0.5167  0.0862
 4634SOL    HW125361   2.897   2.226  15.495  0.0510  0.5336 -1.3495
 4634SOL    HW225362   2.806   2.256  15.390 -1.1436  0.4190  0.0717
 4635SOL     OW25363   1.420   4.241   7.912  0.0707  0.1783  0.2603
 4635SOL    HW125364   1.394   4.222   8.002 -0.9606  0.2667 -0.0244
 4635SOL    HW225365   1.351   4.195   7.864  0.4945 -0.8485  0.6345
 4636SOL     OW25366   3.897   0.881   7.239 -0.5227  0.1490  0.1286
 4636SOL    HW125367   3.861   0.793   7.247  0.8602 -0.5567 -1.3925
 4636SOL    HW225368   3.816   0.930   7.235 -0.3601  0.1727 -2.5246
 4637SOL     OW25369   1.755   3.235  13.086  0.5960 -0.3239 -0.0451
 4637SOL    HW125370   1.696   3.294  13.132  1.0790 -1.0994  1.5538
 4637SOL    HW225371   1.736   3.282  13.005  1.3413  0.1989  0.0805
 4638SOL     OW25372   4.642   3.786  16.514 -0.1177  0.1766  0.2523
 4638SOL    HW125373   4.642   3.763  16.421  0.3880 -0.0975  0.3206
 4638SOL    HW225374   4.586   3.864  16.521  0.0501  0.6488 -3.7440
 4639SOL     OW25375   1.760   0.800  17.365  0.4949  0.0988 -0.1823
 4639SOL    HW125376   1.780   0.723  17.311 -0.7850  0.9181 -1.7982
 4639SOL    HW225377   1.829   0.796  17.431  0.4721 -0.8909 -0.2112
 4640SOL     OW25378   2.390   4.002  16.783  0.6055  0.1479 -0.0998
 4640SOL    HW125379   2.395   3.971  16.873 -1.9739  1.0112  0.3461
 4640SOL    HW225380   2.338   4.082  16.792 -1.4714 -1.1511 -0.5742
 4641SOL     OW25381   1.373   4.025   9.135  0.0174  0.4687 -0.4149
 4641SOL    HW125382   1.288   3.985   9.154  0.5914 -1.1522 -1.2034
 4641SOL    HW225383   1.421   3.945   9.110 -1.1402 -0.5230  0.5264
 4642SOL     OW25384   4.492   0.306  11.713  0.0438  0.1093  0.7877
 4642SOL    HW125385   4.581   0.278  11.733  1.4471  2.1171 -2.5792
 4642SOL    HW225386   4.452   0.291  11.798 -0.5686 -1.1622  0.2756
 4643SOL     OW25387   0.148   3.779   4.226  0.2549 -0.4854 -0.2314
 4643SOL    HW125388   0.195   3.756   4.146 -0.0991 -1.0714 -0.2635
 4643SOL    HW225389   0.227   3.809   4.272  0.9057  0.8567 -2.1985
 4644SOL     OW25390   0.254   1.712   4.959  0.7960 -0.5369 -0.0282
 4644SOL    HW125391   0.186   1.657   4.998 -0.9680  1.0814 -0.8221
 4644SOL    HW225392   0.210   1.797   4.968 -1.1327 -1.5684  0.3057
 4645SOL     OW25393   1.575   1.273   2.175 -0.4471  0.0852  0.0418
 4645SOL    HW125394   1.534   1.360   2.183 -2.6442 -0.7849 -1.7181
 4645SOL    HW225395   1.525   1.248   2.098  1.0171 -0.1813 -0.8153
 4646SOL     OW25396   1.177   1.591   5.084  0.4298 -0.1685 -0.5523
 4646SOL    HW125397   1.271   1.594   5.063  0.9571 -0.5362  1.7190
 4646SOL    HW225398   1.147   1.682   5.081 -0.1056 -0.3585 -0.9681
 4647SOL     OW25399   4.535   1.920   6.720 -0.7735 -0.7522 -0.5250
 4647SOL    HW125400   4.467   1.895   6.782  0.7622 -1.4217  0.8754
 4647SOL    HW225401   4.481   1.983   6.673 -1.4853 -0.0813  1.1974
 4648SOL     OW25402   4.491   0.862   9.871  0.0367  0.0209  0.0916
 4648SOL    HW125403   4.572   0.898   9.835  1.3329 -1.5283  1.4389
 4648SOL    HW225404   4.503   0.767   9.878 -0.7530 -0.0878  0.0362
 4649SOL     OW25405   0.824   0.723   3.491  0.3605 -0.0001  0.7100
 4649SOL    HW125406   0.742   0.772   3.488  0.0910 -0.4897 -0.1365
 4649SOL    HW225407   0.894   0.785   3.469  0.2766 -0.4090 -0.7094
 4650SOL     OW25408   1.425   0.194  15.771  0.4887 -0.0953 -0.1097
 4650SOL    HW125409   1.417   0.272  15.825  0.2739 -1.0056  1.1912
 4650SOL    HW225410   1.471   0.128  15.823  0.4407 -0.4574 -0.5262
 4651SOL     OW25411   0.864   0.280   8.281 -0.5709  0.2609 -0.0586
 4651SOL    HW125412   0.780   0.253   8.245 -0.4637 -1.7865  1.2309
 4651SOL    HW225413   0.875   0.369   8.247  0.2000  0.2681  0.2137
 4652SOL     OW25414   3.616   0.564   8.056 -0.5148  0.9613 -0.3642
 4652SOL    HW125415   3.545   0.619   8.023  0.3187  1.3832 -1.4757
 4652SOL    HW225416   3.692   0.618   8.034  1.1424  0.2197  3.4828
 4653SOL     OW25417   0.795   2.760   9.854  0.8518 -0.4765 -0.0534
 4653SOL    HW125418   0.797   2.689   9.918 -1.8868 -0.7821 -0.2833
 4653SOL    HW225419   0.881   2.802   9.848  0.1944  0.7731 -0.8033
 4654SOL     OW25420   2.018   0.218   8.744 -0.4719 -0.3279  0.3423
 4654SOL    HW125421   1.933   0.195   8.707  0.6240 -0.8143 -1.8121
 4654SOL    HW225422   2.083   0.166   8.698  1.9664  1.6921  1.4683
 4655SOL     OW25423   0.448   1.207   6.562 -0.4997 -0.6661 -0.3165
 4655SOL    HW125424   0.516   1.263   6.598 -1.8350  0.8513 -0.1335
 4655SOL    HW225425   0.497   1.144   6.509  0.1327 -1.2925  1.0347
 4656SOL     OW25426   0.459   1.249   7.446  0.4033 -0.1214 -0.3894
 4656SOL    HW125427   0.538   1.303   7.445 -0.7072  1.5609  1.5722
 4656SOL    HW225428   0.500   1.176   7.399  2.3833  0.7315  0.0020
 4657SOL     OW25429   4.304   4.555   2.620 -0.0423 -0.5806 -0.1576
 4657SOL    HW125430   4.296   4.486   2.686 -0.9462 -0.1925  0.1448
 4657SOL    HW225431   4.215   4.553   2.586  0.1308  0.2616 -0.6622
 4658SOL     OW25432   4.573   2.944  17.496  0.0642 -0.5545  0.4874
 4658SOL    HW125433   4.589   3.038  17.502 -1.7901 -0.1502 -1.1131
 4658SOL    HW225434   4.624   2.908  17.569  1.5919  1.0733  0.2180
 4659SOL     OW25435   0.118   3.536   5.257 -0.4362  0.2272 -0.4327
 4659SOL    HW125436   0.159   3.623   5.257  2.5197 -1.1508  0.7842
 4659SOL    HW225437   0.086   3.525   5.346 -1.5413  0.6507 -0.7710
 4660SOL     OW25438   4.397   3.756  17.683  0.0299  0.2616  0.0491
 4660SOL    HW125439   4.365   3.725   0.066  0.3240 -3.2324 -1.1293
 4660SOL    HW225440   4.473   3.698  17.682 -1.4321 -1.6586  0.5279
 4661SOL     OW25441   0.797   3.965   4.826 -0.3097 -0.0660  0.5159
 4661SOL    HW125442   0.892   3.975   4.814 -0.4104  0.3394  0.0445
 4661SOL    HW225443   0.798   3.870   4.826  0.4824 -0.0619 -0.1508
 4662SOL     OW25444   0.503   4.595   8.210  0.0936 -0.5634  0.2961
 4662SOL    HW125445   0.454   4.614   8.290 -0.5493  1.0745 -0.4971
 4662SOL    HW225446   0.439   4.541   8.164  0.8124 -1.0692 -0.1021
 4663SOL     OW25447   1.744   3.536   0.145  0.0460 -0.2385  0.2643
 4663SOL    HW125448   1.795   3.458   0.164 -1.9142 -1.5491  0.1440
 4663SOL    HW225449   1.780   3.593   0.213  1.1459 -1.7016  0.9074
 4664SOL     OW25450   3.050   0.196   8.265 -0.2217 -0.4763  0.3197
 4664SOL    HW125451   2.955   0.201   8.265 -0.3799 -3.3102 -0.1017
 4664SOL    HW225452   3.073   0.284   8.294 -0.5180 -0.5615  0.8040
 4665SOL     OW25453   0.029   4.696   8.040  0.2028 -0.3364  0.0824
 4665SOL    HW125454   4.667   4.662   8.060  2.0204 -2.7292  3.9334
 4665SOL    HW225455   0.030   4.695   7.944 -1.2963 -0.3482  0.0632
 4666SOL     OW25456   0.348   4.303  15.184  0.4321 -1.0046  0.0469
 4666SOL    HW125457   0.295   4.270  15.257  0.8489  0.0910  0.8488
 4666SOL    HW225458   0.355   4.397  15.203  0.8544 -0.8319 -0.9429
 4667SOL     OW25459   0.222   4.045   2.723 -0.0035 -0.6296 -0.1576
 4667SOL    HW125460   0.227   4.066   2.629  0.5281 -1.1373 -0.2431
 4667SOL    HW225461   0.128   4.056   2.737 -0.0567 -0.9166 -0.2829
 4668SOL     OW25462   0.696   0.299   1.086 -0.3104 -0.1101 -0.3450
 4668SOL    HW125463   0.615   0.346   1.067 -0.8551 -0.9342 -0.0535
 4668SOL    HW225464   0.659   0.212   1.106 -0.1695  0.1352  0.9837
 4669SOL     OW25465   2.664   3.970  15.865  0.1318  0.2718 -0.4662
 4669SOL    HW125466   2.583   3.961  15.915  0.2363 -0.1168 -0.3674
 4669SOL    HW225467   2.731   3.934  15.923 -2.3452 -1.5503  1.2613
 4670SOL     OW25468   2.773   3.558  10.120 -0.2026 -0.4887  0.2328
 4670SOL    HW125469   2.846   3.613  10.147  1.5404 -1.8026 -1.8086
 4670SOL    HW225470   2.811   3.470  10.112 -0.8484 -0.6072 -1.7021
 4671SOL     OW25471   2.604   4.655  17.605  0.2584 -0.2330  0.1850
 4671SOL    HW125472   2.594   4.611  17.520 -1.6977 -0.1990  0.4048
 4671SOL    HW225473   2.617   0.017  17.567 -0.4534  0.2046  0.9529
 4672SOL     OW25474   3.160   2.954   6.842  0.1625 -0.1069 -0.4934
 4672SOL    HW125475   3.151   2.862   6.864 -0.3732  0.0345 -0.1346
 4672SOL    HW225476   3.244   2.951   6.796  0.9715 -1.5424  1.0650
 4673SOL     OW25477   2.111   1.633   1.816 -0.3666  0.7661 -0.0260
 4673SOL    HW125478   2.085   1.723   1.797  0.2709  1.3682  1.9861
 4673SOL    HW225479   2.155   1.644   1.900 -1.4183 -0.3633  0.6778
 4674SOL     OW25480   2.255   0.719   3.335  0.1524  0.0598  0.6028
 4674SOL    HW125481   2.161   0.700   3.345  0.0492  0.1811 -0.1802
 4674SOL    HW225482   2.285   0.732   3.425 -1.4390  0.2421  1.1179
 4675SOL     OW25483   3.859   0.228   1.512 -0.0247 -0.3647  0.6734
 4675SOL    HW125484   3.918   0.157   1.487 -0.7255 -1.2725  1.6070
 4675SOL    HW225485   3.809   0.247   1.433  0.9202  1.5134  0.5238
 4676SOL     OW25486   1.758   2.056   6.631  0.5810  0.0651  0.3110
 4676SOL    HW125487   1.670   2.088   6.615  1.2798  2.1621  0.7466
 4676SOL    HW225488   1.736   2.014   6.715 -0.4005  1.0346  0.5371
 4677SOL     OW25489   1.634   0.389   6.531  0.2847 -0.3432  0.0711
 4677SOL    HW125490   1.633   0.304   6.487 -1.0839  0.6844 -1.8398
 4677SOL    HW225491   1.544   0.403   6.563  1.6772  0.9604  3.4297
 4678SOL     OW25492   1.437   0.120   7.127  0.0565  0.8610  0.0848
 4678SOL    HW125493   1.370   0.154   7.067  1.7952  1.8159 -1.3198
 4678SOL    HW225494   1.426   0.026   7.114 -0.8707  0.9938 -0.1446
 4679SOL     OW25495   3.293   0.136   6.024  0.3538  0.0999  0.3076
 4679SOL    HW125496   3.373   0.184   6.043  0.2920 -0.2700  1.4510
 4679SOL    HW225497   3.268   0.112   6.113  1.4235 -1.3488  0.2101
 4680SOL     OW25498   2.686   0.553  17.094 -0.4075  0.0674  0.2336
 4680SOL    HW125499   2.597   0.582  17.110  0.2805  1.1470  2.0742
 4680SOL    HW225500   2.746   0.606  17.147  1.7028 -2.2412  0.1682
 4681SOL     OW25501   1.422   1.803  14.666 -0.7839 -0.2331 -0.6012
 4681SOL    HW125502   1.409   1.750  14.745  0.7835 -0.2125 -0.3283
 4681SOL    HW225503   1.337   1.841  14.646 -0.7749 -0.1700 -0.5207
 4682SOL     OW25504   4.082   0.428  15.737  0.6529 -0.5161 -0.0955
 4682SOL    HW125505   4.104   0.356  15.679 -0.1247 -1.9551  1.4039
 4682SOL    HW225506   4.015   0.467  15.680  1.6076 -0.5527 -1.2424
 4683SOL     OW25507   0.916   2.068  17.116  0.6406 -0.2451  0.1057
 4683SOL    HW125508   1.007   2.058  17.088  1.3476  0.2121  2.2781
 4683SOL    HW225509   0.936   2.097  17.204  0.6151 -1.8985  0.6587
 4684SOL     OW25510   2.529   0.142   1.941  0.0601  0.2474 -0.4198
 4684SOL    HW125511   2.564   0.229   1.921  0.9514 -0.0411 -0.1147
 4684SOL    HW225512   2.499   0.102   1.860 -0.2801 -1.3873  0.5295
 4685SOL     OW25513   1.305   1.359   8.127 -0.4091 -0.3656 -0.7688
 4685SOL    HW125514   1.302   1.295   8.199  1.4589 -0.1603 -0.4922
 4685SOL    HW225515   1.281   1.299   8.057 -1.5436  0.4195 -1.0576
 4686SOL     OW25516   3.733   0.485   2.215  0.3511 -0.4608 -0.5796
 4686SOL    HW125517   3.816   0.449   2.247  0.7914  2.1188  1.1771
 4686SOL    HW225518   3.678   0.406   2.218  0.1289 -0.3205 -1.0716
 4687SOL     OW25519   0.549   4.061   7.728  0.6010 -0.1075 -0.2621
 4687SOL    HW125520   0.541   4.060   7.632 -0.0355 -1.0879 -0.2075
 4687SOL    HW225521   0.472   4.010   7.755  0.3924  0.2104 -0.2580
 4688SOL     OW25522   4.203   1.751   6.097  0.4088 -0.2208  0.4431
 4688SOL    HW125523   4.221   1.671   6.048  0.5832 -0.9229  1.6386
 4688SOL    HW225524   4.130   1.794   6.052 -0.4443 -0.4736  1.5535
 4689SOL     OW25525   1.888   0.069   4.844 -0.4339 -0.7041  0.2946
 4689SOL    HW125526   1.972   0.106   4.869  0.3940 -1.8990 -0.7624
 4689SOL    HW225527   1.835   0.132   4.894  0.6566 -0.1392  0.7200
 4690SOL     OW25528   4.693   1.510   4.285  0.1550 -0.0717 -0.4299
 4690SOL    HW125529   0.019   1.429   4.287  3.1062  1.7536 -3.2058
 4690SOL    HW225530   0.040   1.568   4.262  1.9422 -2.4452 -0.8364
 4691SOL     OW25531   3.713   3.524   5.399 -0.0579 -0.1273  0.4284
 4691SOL    HW125532   3.680   3.600   5.448 -0.0188 -0.9301  1.7083
 4691SOL    HW225533   3.682   3.552   5.313 -0.5770  0.1141  0.6947
 4692SOL     OW25534   0.586   0.018   4.640  0.6115  0.3030 -0.1006
 4692SOL    HW125535   0.654   4.676   4.635  0.8856  0.6873 -1.4398
 4692SOL    HW225536   0.581   0.060   4.555 -2.1765  1.5408  0.6615
 4693SOL     OW25537   3.101   1.891   3.442  0.8321  0.2150  0.3449
 4693SOL    HW125538   3.024   1.834   3.441 -1.1691  2.9744 -0.7376
 4693SOL    HW225539   3.067   1.967   3.395  2.4443  0.6182 -0.1594
 4694SOL     OW25540   0.357   3.149   3.449 -0.2302  0.0740 -0.5699
 4694SOL    HW125541   0.419   3.190   3.389 -0.7419  0.8768 -0.5493
 4694SOL    HW225542   0.288   3.214   3.435 -0.6058  0.1484  1.7498
 4695SOL     OW25543   1.727   1.442  13.158  0.0791  0.3151  0.3942
 4695SOL    HW125544   1.717   1.537  13.153  1.3393  0.5095  1.5826
 4695SOL    HW225545   1.641   1.400  13.160  0.3566 -0.3564 -2.9476
 4696SOL     OW25546   3.753   1.044  15.802  0.2900 -0.0169  0.5676
 4696SOL    HW125547   3.729   1.134  15.826  0.0146  0.4829 -1.5798
 4696SOL    HW225548   3.671   1.000  15.824 -1.2506  2.1343 -0.8366
 4697SOL     OW25549   2.580   2.107   5.773 -0.3957 -0.6906  0.4222
 4697SOL    HW125550   2.527   2.033   5.746  1.0382 -0.9689 -1.5864
 4697SOL    HW225551   2.563   2.097   5.867  1.7323  2.5754  1.1856
 4698SOL     OW25552   0.088   1.048   2.178 -0.1982  0.2969  0.3616
 4698SOL    HW125553   0.033   1.031   2.101  0.8720  1.7588 -0.7285
 4698SOL    HW225554   0.053   0.988   2.244 -1.4711  0.0607 -0.5365
 4699SOL     OW25555   2.946   0.247  11.083  0.3632  0.6886  0.3346
 4699SOL    HW125556   2.886   0.301  11.135 -0.6597  1.3435 -1.5098
 4699SOL    HW225557   3.032   0.271  11.117  0.5296  1.5208 -0.6585
 4700SOL     OW25558   1.457   0.133   9.646 -0.4312  0.0430  0.2468
 4700SOL    HW125559   1.471   0.227   9.654  0.6089  0.0765 -1.8973
 4700SOL    HW225560   1.436   0.104   9.735  0.0560  1.9071  0.9668
 4701SOL     OW25561   1.798   2.950   1.184 -0.3955 -0.1023  0.4709
 4701SOL    HW125562   1.773   2.862   1.157 -0.3559 -0.4548  1.5725
 4701SOL    HW225563   1.872   2.933   1.243  0.5699  2.0971 -0.0971
 4702SOL     OW25564   4.377   3.449   0.932 -0.3359  0.3323  0.5049
 4702SOL    HW125565   4.338   3.383   0.989 -2.3862  1.6391  0.5785
 4702SOL    HW225566   4.303   3.489   0.887 -0.3399 -1.4491 -1.0750
 4703SOL     OW25567   0.312   0.366   7.930 -0.0685  0.5236 -0.5718
 4703SOL    HW125568   0.249   0.323   7.873  0.7603 -2.2892  0.6177
 4703SOL    HW225569   0.336   0.439   7.874 -1.3884  1.6682  0.3462
 4704SOL     OW25570   1.921   2.237  12.027  0.5953  0.0110  0.8139
 4704SOL    HW125571   1.912   2.312  11.968 -3.4486 -0.7425  0.4907
 4704SOL    HW225572   1.964   2.174  11.969 -0.9528 -0.9005  0.6399
 4705SOL     OW25573   2.194   2.411  15.256 -0.4431  0.3408  0.1146
 4705SOL    HW125574   2.209   2.498  15.294  1.4677 -0.4839  1.2713
 4705SOL    HW225575   2.101   2.411  15.235 -0.4905 -1.4027  0.3692
 4706SOL     OW25576   3.249   1.444   3.368  0.1212  0.2788 -0.1025
 4706SOL    HW125577   3.273   1.510   3.434 -1.2217  0.0251  0.6272
 4706SOL    HW225578   3.295   1.367   3.401  3.6380  2.1948 -0.4604
 4707SOL     OW25579   3.208   3.619   6.906 -0.0762  0.2218  0.1868
 4707SOL    HW125580   3.284   3.640   6.959  0.5365 -1.0440 -0.1984
 4707SOL    HW225581   3.260   3.604   6.827 -0.3374 -0.0657  0.0699
 4708SOL     OW25582   0.546   3.550   0.521 -0.2337  0.7249  0.3888
 4708SOL    HW125583   0.540   3.634   0.475  1.8954  0.3861 -0.4894
 4708SOL    HW225584   0.469   3.561   0.577 -1.0294 -0.2006 -0.5230
 4709SOL     OW25585   3.213   2.539   8.258  0.2930  0.7463 -0.0801
 4709SOL    HW125586   3.158   2.463   8.278  1.2940  0.3764  1.2095
 4709SOL    HW225587   3.269   2.538   8.335  0.0215 -2.0506  0.1040
 4710SOL     OW25588   3.015   2.268   1.662  0.1819  0.5960  0.5429
 4710SOL    HW125589   3.054   2.352   1.688  0.9694  0.1985  0.6441
 4710SOL    HW225590   3.080   2.246   1.595  0.8491 -2.7590  2.2831
 4711SOL     OW25591   0.129   4.542   2.965  0.2176 -0.8270 -0.7828
 4711SOL    HW125592   0.054   4.524   2.908  1.0522 -3.4847 -1.0785
 4711SOL    HW225593   0.134   4.636   2.951  0.7757 -0.8364 -0.6753
 4712SOL     OW25594   3.306   3.858   8.728 -0.0488 -0.2662 -0.2752
 4712SOL    HW125595   3.293   3.778   8.778 -1.2955  0.8832  1.2635
 4712SOL    HW225596   3.213   3.879   8.716 -0.1048 -1.6024 -2.0966
 4713SOL     OW25597   0.053   1.133   5.525 -0.2764 -0.2574  0.4110
 4713SOL    HW125598   4.701   1.078   5.531 -1.3836  1.0793 -1.4416
 4713SOL    HW225599   0.081   1.133   5.433 -1.8377  1.6279 -0.0582
 4714SOL     OW25600   3.194   1.159   6.276  0.0840 -0.1220  0.3291
 4714SOL    HW125601   3.178   1.253   6.269 -0.2535 -0.1847  0.2403
 4714SOL    HW225602   3.172   1.125   6.190  0.3982 -1.3719  0.7390
 4715SOL     OW25603   1.549   4.629  16.166 -0.2557  0.1922  0.2643
 4715SOL    HW125604   1.596   4.679  16.232 -1.2520  1.7240 -0.1818
 4715SOL    HW225605   1.471   4.617  16.219  0.5830 -1.5367  1.1244
 4716SOL     OW25606   0.658   3.290   5.405  0.0103  0.8616  0.2377
 4716SOL    HW125607   0.614   3.207   5.423  0.0250  0.3449 -2.1597
 4716SOL    HW225608   0.632   3.342   5.481  0.3447  0.1089  0.8582
 4717SOL     OW25609   4.322   3.662  10.080  0.2189  0.2740  0.2280
 4717SOL    HW125610   4.287   3.746  10.051 -0.4704 -0.5347 -1.2699
 4717SOL    HW225611   4.251   3.599  10.092 -0.9621  1.8521  1.5735
 4718SOL     OW25612   0.121   0.800   8.676 -0.2494 -0.6311  0.0968
 4718SOL    HW125613   0.135   0.894   8.679  1.8341 -0.9575  0.5749
 4718SOL    HW225614   0.207   0.765   8.655 -0.3741 -0.7601 -0.2015
 4719SOL     OW25615   2.991   3.656  15.802  0.3345 -0.0985 -0.0117
 4719SOL    HW125616   3.065   3.708  15.770 -0.7693 -0.3618 -2.9856
 4719SOL    HW225617   2.929   3.691  15.738  0.9437 -0.7717 -0.9818
 4720SOL     OW25618   4.454   0.259   4.009 -0.1209 -0.4330 -0.1692
 4720SOL    HW125619   4.364   0.250   3.976 -0.1865  0.9291 -0.3534
 4720SOL    HW225620   4.485   0.343   3.976  1.9752 -0.2213  2.4054
 4721SOL     OW25621   0.857   4.710   9.147 -0.3327  0.1286 -0.0842
 4721SOL    HW125622   0.862   0.005   9.240 -0.8489 -3.4845  0.7270
 4721SOL    HW225623   0.774   0.022   9.117 -1.3388 -1.5610  0.6355
 4722SOL     OW25624   3.591   1.535   3.574  0.5545 -0.4649 -0.2577
 4722SOL    HW125625   3.508   1.538   3.621 -0.7173  0.3816 -2.5688
 4722SOL    HW225626   3.636   1.611   3.611 -1.3093  0.9274 -0.8528
 4723SOL     OW25627   4.627   4.646   8.428  0.1870 -0.2381 -0.2067
 4723SOL    HW125628   4.591   0.009   8.418  1.6374  0.4058  0.2355
 4723SOL    HW225629   4.581   4.609   8.353  1.5294 -2.2212 -0.0616
 4724SOL     OW25630   4.287   0.191   2.429 -0.5968  0.3321 -0.0506
 4724SOL    HW125631   4.375   0.206   2.463 -0.2415 -0.2468 -0.7064
 4724SOL    HW225632   4.263   0.269   2.380  2.2508  1.6058  0.5949
 4725SOL     OW25633   4.500   0.378   2.532  0.4017  0.4420  0.3914
 4725SOL    HW125634   4.550   0.431   2.470 -2.3781  0.7568 -1.5771
 4725SOL    HW225635   4.571   0.341   2.583 -0.6194 -1.3567  0.5117
 4726SOL     OW25636   4.680   0.999   7.252  0.1959 -0.1603 -0.0070
 4726SOL    HW125637   0.005   1.050   7.188  1.3317  0.3553  1.2697
 4726SOL    HW225638   4.673   1.065   7.321 -0.7194 -0.8229  0.5369
 4727SOL     OW25639   0.228   1.477   7.792 -0.5030  0.2666  0.3531
 4727SOL    HW125640   0.319   1.498   7.811 -0.3976  0.5251 -0.4313
 4727SOL    HW225641   0.179   1.560   7.787  0.6095  0.8717 -0.5844
 4728SOL     OW25642   2.560   3.756   3.962  0.4967  0.4568  0.0868
 4728SOL    HW125643   2.557   3.730   4.054  0.8879 -0.1099 -0.0630
 4728SOL    HW225644   2.501   3.831   3.958  1.6731  1.3000 -1.3655
 4729SOL     OW25645   2.369   1.550  11.399  0.2636  0.0830  0.2871
 4729SOL    HW125646   2.406   1.463  11.413  0.2149  0.3946  2.3694
 4729SOL    HW225647   2.300   1.554  11.466 -0.2629  0.9578 -0.3077
 4730SOL     OW25648   0.336   2.266   6.043  0.2319 -0.4588  1.0259
 4730SOL    HW125649   0.303   2.179   6.067 -2.6854  0.7881  1.6266
 4730SOL    HW225650   0.263   2.321   6.071  0.2331 -1.0226  2.1467
 4731SOL     OW25651   3.460   0.161   1.873  0.2385 -0.8385 -0.1647
 4731SOL    HW125652   3.417   0.246   1.875 -0.6584 -1.2661 -0.7296
 4731SOL    HW225653   3.431   0.119   1.792 -1.7922 -0.3631  0.2973
 4732SOL     OW25654   4.024   4.627   2.604 -0.6680 -0.1214  0.0745
 4732SOL    HW125655   3.997   4.662   2.519  2.4705 -1.0741 -1.2765
 4732SOL    HW225656   3.934   4.602   2.627 -0.6201 -0.0261  0.3674
 4733SOL     OW25657   4.299   3.049   7.198  0.5469  0.1066 -0.2142
 4733SOL    HW125658   4.391   3.075   7.205  0.4894  0.7788 -1.9025
 4733SOL    HW225659   4.301   2.953   7.196 -0.0053  0.0886  0.1927
 4734SOL     OW25660   4.233   4.111   3.604  0.4709  0.3246  0.2760
 4734SOL    HW125661   4.229   4.016   3.608 -2.4509  0.4257  0.1766
 4734SOL    HW225662   4.192   4.120   3.691  0.3910  0.8224  0.1906
 4735SOL     OW25663   3.794   2.656   5.971 -0.1361 -0.4895 -0.1809
 4735SOL    HW125664   3.726   2.697   5.918 -0.5283  1.3670  1.7526
 4735SOL    HW225665   3.831   2.590   5.912  0.7487  1.0914 -1.3900
 4736SOL     OW25666   0.616   0.401   5.888 -0.4391  0.0900 -0.0469
 4736SOL    HW125667   0.627   0.310   5.916 -1.3819 -0.8401 -2.6509
 4736SOL    HW225668   0.626   0.391   5.793  1.7700  2.9988 -0.0979
 4737SOL     OW25669   4.562   3.488   6.754  0.0901 -0.1937 -0.5094
 4737SOL    HW125670   4.628   3.556   6.771 -0.8691  0.1620  1.7158
 4737SOL    HW225671   4.600   3.447   6.676  1.8467 -0.3068  0.4063
 4738SOL     OW25672   1.147   0.030   6.365 -0.4191 -0.1162 -0.5247
 4738SOL    HW125673   1.142   0.124   6.379 -1.0044 -0.4303  1.3536
 4738SOL    HW225674   1.053   0.025   6.348 -0.5147  2.5683 -0.6807
 4739SOL     OW25675   3.876   2.399   6.384  0.2710 -0.3947 -0.4340
 4739SOL    HW125676   3.936   2.445   6.324 -0.5279  1.5394  0.2653
 4739SOL    HW225677   3.813   2.471   6.383 -1.0693 -1.5476  2.8542
 4740SOL     OW25678   4.541   1.085  13.113  0.8173  0.4001  0.6418
 4740SOL    HW125679   4.483   1.009  13.103 -0.6683  1.7550 -0.8582
 4740SOL    HW225680   4.513   1.116  13.199 -1.0675 -0.1481  0.2175
 4741SOL     OW25681   2.707   2.564  13.263  0.0493 -0.0889 -0.3883
 4741SOL    HW125682   2.776   2.512  13.221  2.1276  0.3326  2.5337
 4741SOL    HW225683   2.628   2.521  13.230 -1.0164  1.1965  0.5165
 4742SOL     OW25684   3.546   2.297   2.376  0.0407 -0.3393 -0.4333
 4742SOL    HW125685   3.571   2.209   2.349  1.2064  0.3281 -1.5206
 4742SOL    HW225686   3.630   2.336   2.400 -0.3457 -0.3283  0.9237
 4743SOL     OW25687   3.473   1.050   6.051  0.7341 -0.0401 -0.2797
 4743SOL    HW125688   3.561   1.023   6.074  0.5269  0.1551  0.7140
 4743SOL    HW225689   3.490   1.144   6.048 -0.9522  0.2891  0.1933
 4744SOL     OW25690   2.466   1.663  10.087 -0.0429  0.4146  0.2550
 4744SOL    HW125691   2.418   1.736  10.126  2.3262  3.1094 -1.9050
 4744SOL    HW225692   2.507   1.621  10.163 -1.1835  1.6742  1.5422
 4745SOL     OW25693   3.064   0.951   2.392  0.0141 -0.4490  0.2192
 4745SOL    HW125694   3.055   1.036   2.350  0.7404 -1.1634 -1.4074
 4745SOL    HW225695   2.982   0.914   2.358  0.3434  0.6260 -1.7562
 4746SOL     OW25696   3.840   0.867   3.897 -0.3953 -0.1980  0.1400
 4746SOL    HW125697   3.759   0.864   3.947 -0.1668  2.0212  0.6104
 4746SOL    HW225698   3.907   0.839   3.960 -0.1159  1.8487  0.7426
 4747SOL     OW25699   4.063   2.234  11.475 -0.0758  0.1556  0.3291
 4747SOL    HW125700   3.968   2.249  11.477 -0.3142 -1.0600 -3.3428
 4747SOL    HW225701   4.090   2.247  11.385 -0.3238  2.5099  0.5820
 4748SOL     OW25702   3.677   1.222  14.524  0.5075  0.1052  0.6969
 4748SOL    HW125703   3.653   1.169  14.448 -0.3391 -0.2269  1.1988
 4748SOL    HW225704   3.628   1.298  14.490 -0.7590 -0.4818  1.2299
 4749SOL     OW25705   3.497   4.209   0.655 -0.1631 -0.0502  0.3419
 4749SOL    HW125706   3.552   4.278   0.693 -1.3058  0.7492  0.5389
 4749SOL    HW225707   3.466   4.154   0.727  0.3684 -0.7075  0.0797
 4750SOL     OW25708   0.205   1.294   9.571 -0.7738  0.5311  0.2134
 4750SOL    HW125709   0.232   1.346   9.495  1.5859 -0.7574  0.1510
 4750SOL    HW225710   0.111   1.310   9.580 -0.2429  2.3203  2.6189
 4751SOL     OW25711   4.217   2.313   5.448 -0.1408 -0.3037 -0.3780
 4751SOL    HW125712   4.298   2.315   5.499 -0.3023 -0.4012 -0.1177
 4751SOL    HW225713   4.247   2.285   5.361 -1.4378 -3.0675  0.0651
 4752SOL     OW25714   0.264   3.714   1.588 -0.6894  0.0212  0.5746
 4752SOL    HW125715   0.301   3.669   1.511 -2.3722 -0.7188  0.2092
 4752SOL    HW225716   0.302   3.669   1.663 -1.3104 -0.4964  0.5794
 4753SOL     OW25717   0.947   1.057   5.507  0.4142  0.3741  0.1780
 4753SOL    HW125718   0.959   0.983   5.566 -0.4400 -0.7232 -0.9971
 4753SOL    HW225719   1.039   1.070   5.485 -0.0811 -0.6022 -2.6026
 4754SOL     OW25720   3.482   4.179  11.895  0.5456  0.2991  0.5270
 4754SOL    HW125721   3.419   4.244  11.925  0.9591  0.5019  0.9614
 4754SOL    HW225722   3.555   4.215  11.946 -0.1243  2.0051  0.2761
 4755SOL     OW25723   3.296   3.500   0.776 -0.1449 -0.0600  0.4245
 4755SOL    HW125724   3.327   3.589   0.793 -3.5840  1.1861  0.1496
 4755SOL    HW225725   3.335   3.454   0.850  0.9637 -0.0033 -0.1302
 4756SOL     OW25726   4.123   0.006   8.407 -0.1399 -0.0930  0.1263
 4756SOL    HW125727   4.102   0.094   8.438 -0.4043 -0.8401  2.0339
 4756SOL    HW225728   4.160   4.690   8.486  2.7130 -2.0336 -2.1902
 4757SOL     OW25729   1.238   2.594   5.460 -0.0978  0.1538 -0.3916
 4757SOL    HW125730   1.256   2.500   5.450  1.6850  0.5609 -0.9486
 4757SOL    HW225731   1.271   2.604   5.549  0.2281 -1.7762 -0.2924
 4758SOL     OW25732   3.567   4.266   6.339  0.4133  0.5769 -0.0496
 4758SOL    HW125733   3.659   4.283   6.359  0.6397  1.6158 -1.9712
 4758SOL    HW225734   3.574   4.251   6.244  1.9514 -3.1590  0.6191
 4759SOL     OW25735   1.239   4.672   6.794  0.0583 -0.4722  0.6764
 4759SOL    HW125736   1.243   4.603   6.860 -0.5605 -0.6038  0.5761
 4759SOL    HW225737   1.212   4.616   6.721 -1.7861 -0.8327  1.6389
 4760SOL     OW25738   3.045   4.058   7.375 -0.1806  0.4182  0.0489
 4760SOL    HW125739   3.051   4.090   7.285  1.8141  0.8435  0.3370
 4760SOL    HW225740   2.979   3.989   7.371  0.5506 -0.4033  1.9570
 4761SOL     OW25741   3.746   0.162  16.324  0.2595  0.6906 -0.0826
 4761SOL    HW125742   3.650   0.169  16.319  0.1602 -1.5273 -1.5778
 4761SOL    HW225743   3.767   0.198  16.238 -0.9909  0.6244 -0.4180
 4762SOL     OW25744   3.995   2.716   6.411  1.1551  0.3534  0.0056
 4762SOL    HW125745   3.933   2.713   6.338  0.5604 -0.9054  0.5664
 4762SOL    HW225746   3.944   2.757   6.480  1.5905  0.6382  0.1583
 4763SOL     OW25747   2.020   2.783  16.424 -0.7164  0.4739 -0.1329
 4763SOL    HW125748   1.996   2.694  16.400 -0.3519  0.3677 -0.1096
 4763SOL    HW225749   1.933   2.802  16.457 -0.3977  0.2367  0.8544
 4764SOL     OW25750   1.737   1.010   2.462  0.6456  0.8863  0.1089
 4764SOL    HW125751   1.651   1.011   2.420  0.7097 -0.1958 -0.0589
 4764SOL    HW225752   1.777   1.087   2.422  0.8765 -0.0728 -1.5161
 4765SOL     OW25753   1.092   3.273  12.838 -0.6165 -0.3475  0.8824
 4765SOL    HW125754   1.173   3.235  12.873  0.9620  2.1054 -0.1068
 4765SOL    HW225755   1.107   3.365  12.860  0.0227 -0.4621  0.9318
 4766SOL     OW25756   3.242   0.882   2.081  0.1287  0.3845 -0.3867
 4766SOL    HW125757   3.165   0.928   2.115  1.2076  1.8920 -0.0001
 4766SOL    HW225758   3.232   0.806   2.138  2.4032  0.2774 -0.1315
 4767SOL     OW25759   0.245   0.067  13.484  0.3259 -0.2449  0.0327
 4767SOL    HW125760   0.322   0.061  13.428  2.2311 -0.7024  2.7088
 4767SOL    HW225761   0.186   0.003  13.443  1.3157 -1.2373  0.1634
 4768SOL     OW25762   1.686   2.191   1.139  0.6681 -0.4480 -0.8309
 4768SOL    HW125763   1.639   2.240   1.208 -0.1822 -3.3681  0.6495
 4768SOL    HW225764   1.651   2.103   1.154  2.1471 -1.0432 -0.8778
 4769SOL     OW25765   0.007   0.028   6.702  0.0905 -0.5984  0.1282
 4769SOL    HW125766   4.679   0.005   6.779  0.5666 -0.6422  0.4466
 4769SOL    HW225767   4.705   0.117   6.681 -1.2447 -0.4588  2.4834
 4770SOL     OW25768   1.075   2.314   1.575  0.2741 -0.6452 -0.1108
 4770SOL    HW125769   1.029   2.380   1.522  1.7590  0.2624 -0.2736
 4770SOL    HW225770   1.035   2.233   1.541 -0.4490 -0.1164 -0.5214
 4771SOL     OW25771   1.196   1.851   7.541  0.1867  0.1154 -0.1411
 4771SOL    HW125772   1.261   1.882   7.604  1.7803 -1.7445 -0.8521
 4771SOL    HW225773   1.134   1.803   7.597 -0.9178  0.5516 -1.0075
 4772SOL     OW25774   3.153   4.210   2.365  0.2917 -0.2336 -0.7116
 4772SOL    HW125775   3.144   4.152   2.289 -0.9746 -0.3670 -0.4678
 4772SOL    HW225776   3.243   4.188   2.386 -0.3736 -0.8266  1.5298
 4773SOL     OW25777   2.267   4.699  16.311  0.2572 -0.0680 -0.2892
 4773SOL    HW125778   2.272   0.069  16.309  1.1553 -0.1015  0.3315
 4773SOL    HW225779   2.333   4.680  16.244  0.8014  1.9721 -0.3174
 4774SOL     OW25780   3.303   4.131  16.007 -0.7540 -0.5902 -0.2949
 4774SOL    HW125781   3.364   4.200  15.982 -0.2789 -1.3504 -1.2550
 4774SOL    HW225782   3.268   4.159  16.091  0.2443  1.0202 -0.4093
 4775SOL     OW25783   2.386   2.163   6.273 -0.4340  0.6295 -0.0492
 4775SOL    HW125784   2.419   2.201   6.355  1.1908 -2.4777  0.7369
 4775SOL    HW225785   2.303   2.123   6.296  0.3949 -1.0878 -0.0561
 4776SOL     OW25786   1.116   1.395   6.011  0.6991 -0.2185  0.5346
 4776SOL    HW125787   1.187   1.376   5.949 -0.6290  0.5786 -1.2022
 4776SOL    HW225788   1.049   1.434   5.956 -0.5874 -1.5023  1.1863
 4777SOL     OW25789   1.242   4.663   3.706  0.4419 -0.0283 -0.0703
 4777SOL    HW125790   1.319   4.700   3.748 -0.3508  0.9889  0.5032
 4777SOL    HW225791   1.263   4.578   3.667  0.3830 -1.0383  2.0683
 4778SOL     OW25792   1.590   0.822   2.815  0.1733  0.4192  0.3487
 4778SOL    HW125793   1.604   0.860   2.902  1.5220 -0.9184  0.6997
 4778SOL    HW225794   1.528   0.751   2.831  1.8011 -0.6902  1.7052
 4779SOL     OW25795   4.326   0.497   5.486 -0.6938  0.7115  0.4770
 4779SOL    HW125796   4.361   0.410   5.505  0.2852  0.8711 -0.5384
 4779SOL    HW225797   4.233   0.475   5.483 -0.1702 -1.4343 -0.3789
 4780SOL     OW25798   1.692   1.625   6.569  0.4270  0.3438  0.4534
 4780SOL    HW125799   1.646   1.673   6.500  0.6698  0.4511  0.3639
 4780SOL    HW225800   1.634   1.617   6.645  0.7359 -4.1132  0.1895
 4781SOL     OW25801   0.738   2.691   3.411 -0.6947 -0.2630 -0.0313
 4781SOL    HW125802   0.826   2.718   3.439 -1.1585 -0.8468  1.9762
 4781SOL    HW225803   0.720   2.760   3.347  1.5337  0.2438 -0.1188
 4782SOL     OW25804   0.490   2.488   6.009 -0.3978  0.0718 -0.5621
 4782SOL    HW125805   0.431   2.560   6.031 -1.4773 -0.2325 -2.5425
 4782SOL    HW225806   0.445   2.411   6.043  3.3492 -1.4073  1.0709
 4783SOL     OW25807   3.983   1.721   4.632 -0.6010 -0.1851  0.3225
 4783SOL    HW125808   3.959   1.788   4.569  1.4123  0.5299  0.3106
 4783SOL    HW225809   4.076   1.718   4.610 -0.2149 -0.7506  2.0113
 4784SOL     OW25810   3.043   3.307  12.325  0.8817  0.3220 -0.3277
 4784SOL    HW125811   3.060   3.259  12.406  0.0686  1.0481  0.2636
 4784SOL    HW225812   3.085   3.255  12.257  0.4711 -1.3588  0.7210
 4785SOL     OW25813   3.973   1.841  15.018 -0.6279 -0.2286 -0.3071
 4785SOL    HW125814   3.913   1.767  15.019 -1.1315  0.2180  2.1160
 4785SOL    HW225815   4.021   1.825  15.100 -0.7383  1.5210  0.1068
 4786SOL     OW25816   0.891   0.410   7.050  0.6970  0.4940 -0.2948
 4786SOL    HW125817   0.912   0.368   6.967  1.6382 -2.4887  1.4150
 4786SOL    HW225818   0.893   0.339   7.115  1.8145  0.3202 -0.5205
 4787SOL     OW25819   3.907   1.544   8.212 -0.2826  0.0857  0.2914
 4787SOL    HW125820   3.985   1.557   8.266  1.0643  2.8362 -2.2824
 4787SOL    HW225821   3.924   1.455   8.181 -0.0429  0.8548 -1.8191
 4788SOL     OW25822   2.986   4.280  14.920  0.2980 -0.6661  0.4319
 4788SOL    HW125823   3.066   4.309  14.963 -0.2220  1.3369  0.0740
 4788SOL    HW225824   3.008   4.189  14.904 -3.1616 -1.4833  0.2561
 4789SOL     OW25825   0.778   0.054   3.878  0.2276  0.0091 -0.4668
 4789SOL    HW125826   0.727   0.027   3.801 -1.7813 -0.4444  1.0281
 4789SOL    HW225827   0.856   0.086   3.832  0.8163  1.4751  1.5521
 4790SOL     OW25828   2.770   2.612   3.180  0.1636  0.2285  0.0746
 4790SOL    HW125829   2.827   2.658   3.118 -0.9101  0.0700 -1.0487
 4790SOL    HW225830   2.822   2.626   3.259  1.5818  2.2069 -1.2117
 4791SOL     OW25831   0.407   4.187   3.510 -0.4076 -0.0364 -0.0311
 4791SOL    HW125832   0.402   4.282   3.510  0.7007  0.0235  1.5311
 4791SOL    HW225833   0.470   4.180   3.582 -1.8283  1.3417  1.3324
 4792SOL     OW25834   0.923   2.703   3.792 -0.0925  0.5222 -0.7615
 4792SOL    HW125835   0.875   2.620   3.786 -0.0371  0.3832  0.8931
 4792SOL    HW225836   0.955   2.693   3.881 -1.4833  0.3090 -0.2763
 4793SOL     OW25837   2.213   4.202  12.263  0.6157  0.0981  0.2199
 4793SOL    HW125838   2.262   4.137  12.312  1.8588  0.8476 -0.0415
 4793SOL    HW225839   2.232   4.285  12.307 -1.0594  0.1974  0.7939
 4794SOL     OW25840   1.422   2.399   8.177  0.4885  0.4009  0.3870
 4794SOL    HW125841   1.452   2.433   8.093 -1.5971 -2.4682 -1.5277
 4794SOL    HW225842   1.340   2.448   8.185  0.8892  0.9318  1.2031
 4795SOL     OW25843   3.254   4.559   1.847  0.3460  0.2289 -0.3695
 4795SOL    HW125844   3.315   4.607   1.903  0.8044  0.5590 -1.1571
 4795SOL    HW225845   3.198   4.524   1.916 -0.8115 -0.1921 -1.5232
 4796SOL     OW25846   0.366   0.252   3.410  0.4329  0.1367 -0.4209
 4796SOL    HW125847   0.316   0.322   3.454 -0.7268 -0.8444 -0.1748
 4796SOL    HW225848   0.297   0.204   3.364 -1.1689  0.3047  1.7986
 4797SOL     OW25849   4.142   2.217   2.250 -0.0648 -0.2568 -1.0228
 4797SOL    HW125850   4.223   2.265   2.269 -0.0292 -0.5049 -0.5578
 4797SOL    HW225851   4.173   2.157   2.183  0.2501 -0.2828 -0.8549
 4798SOL     OW25852   0.864   0.302   6.756  0.2411  0.1004 -0.5736
 4798SOL    HW125853   0.772   0.314   6.778  0.1286 -2.5608  0.3074
 4798SOL    HW225854   0.866   0.208   6.737 -0.3785 -0.1802  0.7801
 4799SOL     OW25855   0.472   0.796  15.352 -0.4287 -0.2069 -0.4884
 4799SOL    HW125856   0.382   0.764  15.355  0.1337 -1.7651 -0.0921
 4799SOL    HW225857   0.473   0.843  15.268 -1.6346 -2.4671 -1.7753
 4800SOL     OW25858   0.017   1.197  12.027 -0.4326 -0.4400 -0.0919
 4800SOL    HW125859   4.723   1.167  12.116 -0.2412 -0.9214 -0.2131
 4800SOL    HW225860   4.675   1.148  11.980 -0.9984  0.4614 -0.2253
 4801SOL     OW25861   0.478   1.484   8.185 -0.4403 -0.3637  0.8422
 4801SOL    HW125862   0.458   1.528   8.268 -1.0438  1.1754 -0.1244
 4801SOL    HW225863   0.396   1.495   8.136 -0.1161  0.1310  0.4128
 4802SOL     OW25864   2.503   1.542   8.469  0.1231 -0.1542  0.0769
 4802SOL    HW125865   2.514   1.516   8.378 -0.5092  3.9414 -1.2050
 4802SOL    HW225866   2.521   1.458   8.509 -0.1472 -0.8576 -1.2724
 4803SOL     OW25867   3.240   0.862   0.741  0.3280 -0.3332 -0.3573
 4803SOL    HW125868   3.194   0.945   0.728 -0.8437 -0.9049  0.2003
 4803SOL    HW225869   3.163   0.805   0.736  0.2027 -0.1933  0.0025
 4804SOL     OW25870   0.283   4.394   2.543  0.4217 -0.4457  0.1195
 4804SOL    HW125871   0.331   4.393   2.461  0.7051 -0.2830  0.2861
 4804SOL    HW225872   0.198   4.364   2.511 -0.7529  0.8226  2.0356
 4805SOL     OW25873   3.765   0.582   0.508  0.3847 -0.0428  0.4529
 4805SOL    HW125874   3.814   0.629   0.576 -0.4826  0.5816  0.6397
 4805SOL    HW225875   3.769   0.491   0.535  0.5013  0.3751  1.8406
 4806SOL     OW25876   3.041   3.955   5.371  0.0103  0.3458 -0.1443
 4806SOL    HW125877   2.953   3.919   5.385  0.3835 -0.7277 -0.5655
 4806SOL    HW225878   3.092   3.889   5.419  4.3216  3.1162 -0.9298
 4807SOL     OW25879   4.569   3.454  11.347 -0.2217 -0.1449  0.5030
 4807SOL    HW125880   4.631   3.511  11.391  0.7445 -0.6290 -0.2091
 4807SOL    HW225881   4.585   3.476  11.255 -0.2675 -1.1119  0.2624
 4808SOL     OW25882   4.721   1.511   1.147 -0.3541 -0.0456  0.0623
 4808SOL    HW125883   0.005   1.586   1.088  2.4704 -0.1749  0.3139
 4808SOL    HW225884   0.047   1.443   1.103  0.7196  0.9439 -0.2338
 4809SOL     OW25885   4.283   0.295   5.123 -0.9499  0.3022  0.5191
 4809SOL    HW125886   4.333   0.291   5.205 -0.2488  1.7200  0.1621
 4809SOL    HW225887   4.345   0.345   5.070  1.2330 -0.1085  2.6328
 4810SOL     OW25888   3.945   2.712   2.676  0.2542 -0.1916 -0.6019
 4810SOL    HW125889   3.993   2.730   2.595 -2.1720  1.8934 -1.6138
 4810SOL    HW225890   3.973   2.624   2.697 -0.8977 -0.4377 -0.0696
 4811SOL     OW25891   3.639   4.323   5.000  0.1079 -0.4932 -0.5987
 4811SOL    HW125892   3.634   4.280   5.086 -1.6860 -0.0280 -0.4687
 4811SOL    HW225893   3.593   4.258   4.947 -0.7993 -1.3004  1.1619
 4812SOL     OW25894   3.071   1.829   2.380  0.0062  0.2325  0.3948
 4812SOL    HW125895   3.035   1.747   2.347  2.0370 -0.6184  0.2992
 4812SOL    HW225896   3.003   1.888   2.346  0.2221 -1.9896 -3.8830
 4813SOL     OW25897   2.972   0.007  13.972 -0.1926  0.5749 -0.5706
 4813SOL    HW125898   2.883   4.703  13.989 -0.0695  1.8501  2.1657
 4813SOL    HW225899   2.993   0.016  14.065  0.7090 -0.1298 -0.7028
 4814SOL     OW25900   2.399   3.235   6.443 -0.0950  0.3855  0.4260
 4814SOL    HW125901   2.490   3.212   6.462  0.7245  1.2995 -2.2506
 4814SOL    HW225902   2.365   3.149   6.467  0.4573 -0.3876 -1.5632
 4815SOL     OW25903   3.327   0.443   8.327  0.2983  0.4604 -0.4868
 4815SOL    HW125904   3.373   0.432   8.410  0.6427 -0.7126 -0.8364
 4815SOL    HW225905   3.348   0.362   8.281 -2.7910  0.2231 -1.5342
 4816SOL     OW25906   1.693   3.949   7.258  0.1354 -0.4204  0.8428
 4816SOL    HW125907   1.740   3.909   7.331  0.0565 -1.0392  0.5510
 4816SOL    HW225908   1.605   3.929   7.289 -1.5187  1.3570 -2.5927
 4817SOL     OW25909   2.419   1.627   0.139 -0.0715  0.2534 -0.0087
 4817SOL    HW125910   2.437   1.676   0.218 -1.8485  0.2656  0.3908
 4817SOL    HW225911   2.467   1.544   0.142  0.7450  0.7379  0.2071
 4818SOL     OW25912   4.292   3.205   6.634 -0.5293  0.3448 -0.0304
 4818SOL    HW125913   4.228   3.276   6.635 -1.0760 -0.0994 -2.2847
 4818SOL    HW225914   4.350   3.226   6.707 -0.9922 -0.9222  0.7034
 4819SOL     OW25915   4.507   1.898   7.116 -0.4384 -0.4219  0.6569
 4819SOL    HW125916   4.459   1.873   7.037 -0.7867  0.2153  0.6645
 4819SOL    HW225917   4.562   1.821   7.129 -1.2006 -0.9366  0.8398
 4820SOL     OW25918   4.692   2.087   0.578 -0.0409  0.2050  1.2371
 4820SOL    HW125919   4.679   2.051   0.490  1.4236 -0.0299  1.1213
 4820SOL    HW225920   4.608   2.129   0.596 -1.1690 -1.3532 -0.4078
 4821SOL     OW25921   1.082   2.577   4.765  0.3188  0.3801 -0.1271
 4821SOL    HW125922   1.009   2.535   4.811  0.0896  0.7160 -0.1830
 4821SOL    HW225923   1.036   2.653   4.731 -0.0802  0.7712  1.2934
 4822SOL     OW25924   1.380   1.247   6.077  0.0805  0.1253  0.0445
 4822SOL    HW125925   1.404   1.192   6.152 -4.6665 -1.6953  0.2370
 4822SOL    HW225926   1.353   1.186   6.008 -0.7178  2.1805 -1.4450
 4823SOL     OW25927   3.262   4.141  11.365 -0.4447  0.6249 -0.2703
 4823SOL    HW125928   3.256   4.119  11.272  2.7158 -1.1223 -0.0504
 4823SOL    HW225929   3.271   4.236  11.366  0.0596  0.5470  2.1152
 4824SOL     OW25930   3.194   3.044  17.095  0.0023  0.3947  0.1124
 4824SOL    HW125931   3.218   3.009  17.181 -2.2858 -2.6586 -0.4653
 4824SOL    HW225932   3.218   2.975  17.033  2.4112 -0.1750  1.6713
 4825SOL     OW25933   3.489   4.553   5.581 -0.4704 -0.4599  0.4979
 4825SOL    HW125934   3.467   4.622   5.644 -0.8347 -0.3281  0.2293
 4825SOL    HW225935   3.552   4.603   5.530 -1.9751 -0.2747 -1.1733
 4826SOL     OW25936   2.338   1.634   6.890 -0.4479  0.2503  0.5715
 4826SOL    HW125937   2.317   1.638   6.983 -2.9924 -2.7970  0.1578
 4826SOL    HW225938   2.346   1.542   6.866  1.3195  0.5375  0.0346
 4827SOL     OW25939   0.475   3.286   1.662  0.3406 -0.2995 -0.0250
 4827SOL    HW125940   0.454   3.253   1.575 -0.7829  0.7622 -0.1665
 4827SOL    HW225941   0.555   3.239   1.685 -0.8588 -1.4409  1.8367
 4828SOL     OW25942   1.430   0.807   4.349 -0.2823  0.1278 -0.2819
 4828SOL    HW125943   1.510   0.854   4.373  0.2740 -1.5840  1.2375
 4828SOL    HW225944   1.443   0.800   4.255  1.5336  0.4609 -0.0495
 4829SOL     OW25945   0.112   1.286   4.305  0.3315 -0.0533  0.4216
 4829SOL    HW125946   0.207   1.281   4.301  0.3189  0.7471 -0.8485
 4829SOL    HW225947   0.069   1.202   4.319 -3.3713  1.6118 -0.9355
 4830SOL     OW25948   1.550   0.413   1.860 -0.2225  0.1028  0.1818
 4830SOL    HW125949   1.526   0.499   1.894 -0.2677  0.2302 -0.1664
 4830SOL    HW225950   1.495   0.351   1.908  0.6959 -0.9448 -0.1397
 4831SOL     OW25951   0.341   2.887  15.140 -0.8393  0.4623 -0.2553
 4831SOL    HW125952   0.411   2.903  15.204 -0.0470 -0.8683 -0.7840
 4831SOL    HW225953   0.397   2.888  15.063 -1.1977 -0.5861 -0.5358
 4832SOL     OW25954   2.662   2.480   5.132 -0.0839  0.0634 -1.0425
 4832SOL    HW125955   2.679   2.402   5.185  1.6845  0.2324 -1.3381
 4832SOL    HW225956   2.707   2.464   5.049 -0.8664 -1.6351 -1.1254
 4833SOL     OW25957   4.137   2.926  14.019 -0.3137  0.2303 -0.0943
 4833SOL    HW125958   4.063   2.986  14.013 -1.2230 -0.8574  0.2604
 4833SOL    HW225959   4.190   2.958  13.946  0.3490  2.7229  1.4631
 4834SOL     OW25960   3.254   2.065   3.685 -0.2087  0.9388 -0.1848
 4834SOL    HW125961   3.163   2.085   3.661 -0.3720 -0.5650 -0.8701
 4834SOL    HW225962   3.256   1.970   3.670 -2.2157  1.1292 -1.8295
 4835SOL     OW25963   0.343   3.807   3.847 -0.6135  0.2394 -0.0700
 4835SOL    HW125964   0.368   3.741   3.782 -2.2880 -0.5344  0.0934
 4835SOL    HW225965   0.314   3.873   3.784  1.4461  1.2389  0.0160
 4836SOL     OW25966   0.378   1.252  17.397 -0.2130  0.1892 -0.1795
 4836SOL    HW125967   0.403   1.165  17.425 -0.4695 -0.7427 -2.8640
 4836SOL    HW225968   0.348   1.240  17.307 -0.6611 -0.7043  0.0918
 4837SOL     OW25969   3.095   0.435   2.759  0.1842 -0.0169 -0.0161
 4837SOL    HW125970   3.157   0.507   2.766 -0.9379  0.9799 -0.2252
 4837SOL    HW225971   3.028   0.466   2.821  1.3729  0.6277  0.9404
 4838SOL     OW25972   1.399   2.727   2.857  0.4504  0.3652 -0.0706
 4838SOL    HW125973   1.376   2.759   2.944 -0.9574  1.7254 -0.9354
 4838SOL    HW225974   1.340   2.777   2.800  0.1382  1.3292  1.1147
 4839SOL     OW25975   3.713   0.670   7.313 -0.0957  0.4665 -1.0306
 4839SOL    HW125976   3.650   0.730   7.351 -0.9254 -1.3494  0.4504
 4839SOL    HW225977   3.652   0.606   7.275  0.7653 -1.3468  0.6056
 4840SOL     OW25978   4.598   0.284   1.197 -0.1604  1.0218 -0.3470
 4840SOL    HW125979   4.594   0.188   1.193 -0.0316  1.0423 -0.9845
 4840SOL    HW225980   4.507   0.310   1.214 -1.0200 -2.1503 -0.0047
 4841SOL     OW25981   4.523   1.887  10.770  0.4242 -0.5090 -0.3482
 4841SOL    HW125982   4.505   1.978  10.791  1.0478  0.0041 -2.0107
 4841SOL    HW225983   4.448   1.845  10.811 -1.0703  1.0005 -1.5478
 4842SOL     OW25984   3.661   4.087   0.461  0.3171  0.3737 -0.0984
 4842SOL    HW125985   3.583   4.104   0.513  0.1725  0.8155 -0.4600
 4842SOL    HW225986   3.644   4.154   0.395 -3.1171  0.6815  1.1256
 4843SOL     OW25987   0.123   2.404   6.098  0.6657 -0.1767  0.1515
 4843SOL    HW125988   0.062   2.336   6.129 -0.0137  0.1903 -0.3753
 4843SOL    HW225989   0.058   2.473   6.110 -2.4468 -3.1096  0.3420
 4844SOL     OW25990   2.773   3.670   6.104  0.1088  0.6968  0.0769
 4844SOL    HW125991   2.704   3.603   6.099  0.7315  0.0545  0.1108
 4844SOL    HW225992   2.750   3.725   6.178  1.9000 -0.7779  1.7473
 4845SOL     OW25993   4.078   2.226   6.105 -0.7531 -0.2892 -0.0942
 4845SOL    HW125994   4.097   2.319   6.091 -1.7963 -0.2063 -0.9323
 4845SOL    HW225995   4.030   2.206   6.025  2.0118  4.5421 -2.9177
 4846SOL     OW25996   0.428   4.050   8.537  0.4192 -0.7707  0.2404
 4846SOL    HW125997   0.490   4.015   8.601  0.1821 -1.3898  0.1325
 4846SOL    HW225998   0.414   3.979   8.475 -1.1303  0.7143 -1.0934
 4847SOL     OW25999   2.429   4.393   4.875  1.2017 -0.2405 -0.2432
 4847SOL    HW126000   2.355   4.444   4.842  2.0992  2.3126  1.6994
 4847SOL    HW226001   2.448   4.451   4.948 -2.4038  2.4558 -1.4478
 4848SOL     OW26002   0.041   4.304   7.068  0.4656 -0.4917  0.3923
 4848SOL    HW126003   0.021   4.397   7.059  1.2654 -0.3754 -0.1250
 4848SOL    HW226004   0.111   4.298   7.133 -0.8907  0.2462  1.9115
 4849SOL     OW26005   0.366   3.649   4.056  0.4307 -0.0162 -0.6654
 4849SOL    HW126006   0.449   3.685   4.087  0.3983 -0.8742  0.3990
 4849SOL    HW226007   0.355   3.712   3.984  1.6508  0.9251 -0.0282
 4850SOL     OW26008   4.064   2.467   2.730 -0.2071 -0.2547 -0.3697
 4850SOL    HW126009   4.143   2.487   2.781 -0.4007  0.2576 -0.2647
 4850SOL    HW226010   4.003   2.443   2.799 -0.3572  2.0511  0.2989
 4851SOL     OW26011   1.170   0.527   5.276 -0.8942 -0.1617  0.2622
 4851SOL    HW126012   1.238   0.594   5.265 -0.6012 -0.8701 -2.0791
 4851SOL    HW226013   1.216   0.454   5.316 -2.1688 -1.6451 -1.0154
 4852SOL     OW26014   2.832   1.242   8.904 -0.0607  0.0914 -0.2507
 4852SOL    HW126015   2.921   1.208   8.910  0.1459  0.7085  0.3071
 4852SOL    HW226016   2.776   1.165   8.901 -2.2850  1.6503  1.3056
 4853SOL     OW26017   0.894   3.662  11.429  0.2681  0.2969  0.0869
 4853SOL    HW126018   0.847   3.680  11.348 -1.7087  1.5397  1.5053
 4853SOL    HW226019   0.829   3.617  11.483  0.3812  0.4554  0.3556
 4854SOL     OW26020   2.688   0.236   2.598  0.0174  0.3666 -0.5422
 4854SOL    HW126021   2.594   0.239   2.580  0.0080 -0.5441 -0.6052
 4854SOL    HW226022   2.721   0.312   2.549 -0.2343  0.0205 -1.2394
 4855SOL     OW26023   2.832   1.887   2.219 -0.0438  0.0816 -0.8545
 4855SOL    HW126024   2.867   1.829   2.150  1.0420 -1.2608  0.8179
 4855SOL    HW226025   2.763   1.929   2.168 -0.2035 -0.2659 -0.9276
 4856SOL     OW26026   1.045   1.537   3.021  0.6037 -0.3328  0.1956
 4856SOL    HW126027   0.981   1.558   3.089  1.1246 -1.1191  0.9328
 4856SOL    HW226028   1.057   1.624   2.984  0.2091 -0.1231  0.5545
 4857SOL     OW26029   1.063   3.835   1.999  0.4553  0.5553  0.1218
 4857SOL    HW126030   1.127   3.766   2.016 -0.8849 -0.9118 -0.8096
 4857SOL    HW226031   1.084   3.854   1.908 -0.3008 -1.1133 -0.4002
 4858SOL     OW26032   2.415   3.888   8.351 -0.0966 -0.1425 -0.0963
 4858SOL    HW126033   2.359   3.900   8.428  1.3394 -2.7015  1.3545
 4858SOL    HW226034   2.462   3.806   8.366 -1.9942 -1.4562 -1.2617
 4859SOL     OW26035   3.021   3.941  10.890 -0.9111 -0.0408 -0.6716
 4859SOL    HW126036   3.006   4.025  10.933 -2.1971 -0.7959  0.3806
 4859SOL    HW226037   3.051   3.955  10.801 -1.2208  0.0780 -0.7553
 4860SOL     OW26038   4.248   3.841  17.485 -0.3150  0.2282 -0.2595
 4860SOL    HW126039   4.309   3.872  17.417  1.6416 -2.8469  0.0993
 4860SOL    HW226040   4.314   3.829  17.553 -0.6215  0.4366  0.0679
 4861SOL     OW26041   2.687   4.289   1.845 -0.7314  0.6754  0.4272
 4861SOL    HW126042   2.608   4.239   1.869  0.5314 -1.6709 -0.2919
 4861SOL    HW226043   2.660   4.372   1.885 -0.4782 -0.3384  2.6807
 4862SOL     OW26044   4.458   1.131   6.436 -0.5066 -0.8538  0.4273
 4862SOL    HW126045   4.528   1.072   6.408 -1.9808 -1.0729 -2.7327
 4862SOL    HW226046   4.442   1.092   6.522 -1.3050  0.0569  0.6967
 4863SOL     OW26047   3.667   4.619   3.000 -0.4227 -0.1720  0.7661
 4863SOL    HW126048   3.702   4.577   2.922 -3.4734 -0.3578 -0.5044
 4863SOL    HW226049   3.739   4.674   3.031  2.0345 -1.1480 -3.3176
 4864SOL     OW26050   4.247   4.622   8.614 -0.3365  0.5803 -0.5626
 4864SOL    HW126051   4.330   4.648   8.654 -0.1034 -0.3315 -0.4536
 4864SOL    HW226052   4.248   4.527   8.625 -0.4040  0.6061 -0.3266
 4865SOL     OW26053   3.751   1.067   4.964  1.1520 -0.0701 -0.2391
 4865SOL    HW126054   3.840   1.046   4.935  1.3172 -0.4320  0.5150
 4865SOL    HW226055   3.711   0.986   4.933  1.8015 -1.0530  1.4751
 4866SOL     OW26056   1.949   1.147  11.880 -0.2385 -0.3105  0.3974
 4866SOL    HW126057   2.022   1.086  11.869  0.6743  0.6124  1.3663
 4866SOL    HW226058   1.928   1.165  11.788  1.1503  2.0307  0.5268
 4867SOL     OW26059   3.997   1.029  16.089 -0.7178  0.3926  0.0382
 4867SOL    HW126060   4.035   1.116  16.099 -1.2200  0.3597  2.2693
 4867SOL    HW226061   3.929   1.044  16.155 -1.0042 -0.4678 -0.0636
 4868SOL     OW26062   2.329   1.214   2.000  0.0418  0.0567 -0.0074
 4868SOL    HW126063   2.320   1.286   2.063 -0.5568  1.4027 -1.6330
 4868SOL    HW226064   2.264   1.226   1.932 -0.0637  0.1590  0.1097
 4869SOL     OW26065   3.369   1.140   0.744 -0.1434 -0.1090  0.0423
 4869SOL    HW126066   3.280   1.107   0.742  0.0447 -0.6530  0.6537
 4869SOL    HW226067   3.369   1.203   0.672  1.0952  0.9313  0.9421
 4870SOL     OW26068   0.239   2.097   0.529 -0.0006  0.3052 -0.4012
 4870SOL    HW126069   0.242   2.012   0.486 -1.3790  1.0431 -1.9610
 4870SOL    HW226070   0.146   2.116   0.523 -0.4193 -1.4786  0.5497
 4871SOL     OW26071   0.172   3.068   3.791  0.5033  0.8991 -0.1586
 4871SOL    HW126072   0.155   2.990   3.738 -0.0270  2.3155 -2.0682
 4871SOL    HW226073   0.082   3.094   3.806  0.4573  1.5492 -1.5389
 4872SOL     OW26074   0.671   4.510   7.501 -0.0439  0.1613  0.1253
 4872SOL    HW126075   0.653   4.576   7.434 -2.2987 -0.9007 -0.3110
 4872SOL    HW226076   0.731   4.563   7.554  1.3010 -2.8534  1.5659
 4873SOL     OW26077   1.782   0.361   2.007 -0.4280  0.0414  0.8128
 4873SOL    HW126078   1.701   0.371   1.957 -0.0497  1.7089  0.5335
 4873SOL    HW226079   1.801   0.271   1.983 -1.0383 -0.4176  2.0756
 4874SOL     OW26080   0.354   1.751   0.720 -0.2973 -0.0970  0.4552
 4874SOL    HW126081   0.368   1.785   0.631 -2.4526  1.4085  0.6844
 4874SOL    HW226082   0.325   1.661   0.702  2.9734 -0.7194 -1.7511
 4875SOL     OW26083   1.109   2.566   8.813  0.3989  0.1661  0.1434
 4875SOL    HW126084   1.051   2.602   8.746  0.4670  0.1824  0.0919
 4875SOL    HW226085   1.160   2.497   8.769 -0.1246 -0.0166 -0.1717
 4876SOL     OW26086   2.229   2.111   5.297  0.3796  0.7736  0.5360
 4876SOL    HW126087   2.189   2.099   5.211 -0.6023  0.1434  1.0690
 4876SOL    HW226088   2.169   2.156   5.356 -0.8410 -1.4872  1.0252
 4877SOL     OW26089   4.473   3.933   0.220  0.3447  0.1108  0.1422
 4877SOL    HW126090   4.459   3.862   0.157 -1.9964 -0.1100  0.9331
 4877SOL    HW226091   4.427   3.889   0.291  1.6832  0.3081  1.1401
 4878SOL     OW26092   1.607   4.513   4.298  0.3741 -0.7315 -0.0681
 4878SOL    HW126093   1.662   4.568   4.242 -2.2091  1.0362 -0.8669
 4878SOL    HW226094   1.535   4.507   4.235 -1.6127  1.0768  2.0150
 4879SOL     OW26095   3.024   3.670  10.173 -0.4021  0.2206  0.0559
 4879SOL    HW126096   3.034   3.627  10.258 -1.5403  2.0379  1.1030
 4879SOL    HW226097   3.056   3.757  10.196  3.3278 -0.7452 -1.3655
 4880SOL     OW26098   1.173   2.890   7.774  0.0159  0.0194 -0.7143
 4880SOL    HW126099   1.085   2.852   7.774 -0.0367  0.0999  1.1174
 4880SOL    HW226100   1.151   2.980   7.799  2.3195 -0.1023  1.7635
 4881SOL     OW26101   1.441   1.111   1.151  0.2225 -0.3821 -0.6104
 4881SOL    HW126102   1.447   1.199   1.188 -1.1359 -0.8655  0.7418
 4881SOL    HW226103   1.499   1.066   1.213 -1.4910 -1.9387 -0.1519
 4882SOL     OW26104   1.623   1.048   8.545  0.0401 -0.3052  0.2523
 4882SOL    HW126105   1.573   1.127   8.564  1.3763  0.7107 -0.5527
 4882SOL    HW226106   1.641   1.054   8.451  0.1986 -0.7354  0.2532
 4883SOL     OW26107   0.313   4.548  16.386 -0.1161  0.1607 -0.0625
 4883SOL    HW126108   0.324   4.562  16.480 -0.3582  0.0831 -0.0216
 4883SOL    HW226109   0.245   4.613  16.368 -1.8605 -1.7203 -0.3104
 4884SOL     OW26110   4.438   2.456   1.629  0.0324  0.2525 -0.1275
 4884SOL    HW126111   4.445   2.361   1.617  0.9271  0.4253 -0.9333
 4884SOL    HW226112   4.372   2.483   1.565 -0.3823  1.0775  0.6573
 4885SOL     OW26113   4.183   0.541  14.643 -0.6928  0.1911 -0.2839
 4885SOL    HW126114   4.255   0.583  14.690 -0.1400  0.6071 -1.5252
 4885SOL    HW226115   4.236   0.489  14.583 -1.0107  0.8300 -1.1110
 4886SOL     OW26116   1.640   0.578   2.539 -1.0414 -0.7210 -0.0418
 4886SOL    HW126117   1.547   0.601   2.539 -0.1608  2.6870  0.7407
 4886SOL    HW226118   1.690   0.656   2.562 -3.3706 -0.0133  2.5704
 4887SOL     OW26119   3.534   0.143   7.750 -0.0137  0.0547  0.3342
 4887SOL    HW126120   3.586   0.126   7.829  0.2635  2.1062  0.5980
 4887SOL    HW226121   3.581   0.220   7.716  1.1956 -0.0704  1.7097
 4888SOL     OW26122   4.360   3.001   3.005 -0.1644 -0.0986 -0.1129
 4888SOL    HW126123   4.368   3.023   2.912 -1.6543  0.2730 -0.1462
 4888SOL    HW226124   4.290   2.937   2.997 -0.9238  1.0621 -2.8622
 4889SOL     OW26125   4.628   0.596   7.989  0.4676 -0.3592  0.0299
 4889SOL    HW126126   4.534   0.597   7.975  0.5348 -2.6698 -0.4885
 4889SOL    HW226127   4.634   0.691   8.000 -1.9985 -0.5826  3.0209
 4890SOL     OW26128   0.089   1.229   6.257 -0.2686  0.2311  0.2024
 4890SOL    HW126129   0.080   1.315   6.299 -0.9238 -1.0738  2.6735
 4890SOL    HW226130   0.087   1.163   6.325  0.3854 -0.4158 -0.4071
 4891SOL     OW26131   2.652   2.991   6.624 -0.3235 -0.0473  0.3437
 4891SOL    HW126132   2.652   3.080   6.589 -2.6133  0.3012  1.2482
 4891SOL    HW226133   2.644   3.017   6.716 -1.1340  1.1006 -0.0522
 4892SOL     OW26134   0.573   0.969   6.459  0.5179  0.3174 -0.2877
 4892SOL    HW126135   0.501   0.919   6.499  0.9648  1.1057  1.4778
 4892SOL    HW226136   0.553   0.976   6.366 -0.3951  0.3967 -0.0841
 4893SOL     OW26137   2.943   2.577   4.610 -0.6952  0.5261  0.6664
 4893SOL    HW126138   3.026   2.530   4.614 -0.0832  1.5423 -0.3198
 4893SOL    HW226139   2.911   2.567   4.700  0.5026 -3.2660  0.6987
 4894SOL     OW26140   2.087   3.781   4.228 -0.3574  0.1999  1.0978
 4894SOL    HW126141   2.005   3.824   4.205  1.2706  2.3197 -0.7776
 4894SOL    HW226142   2.128   3.842   4.290  1.0546  0.2876  0.0947
 4895SOL     OW26143   1.713   0.507   4.677  0.6601  0.2159 -0.6678
 4895SOL    HW126144   1.650   0.441   4.648 -1.7752  2.8400 -1.3372
 4895SOL    HW226145   1.761   0.536   4.600  1.2895  2.4106  0.5435
 4896SOL     OW26146   3.205   2.273   4.429  0.5097  0.3586  0.5348
 4896SOL    HW126147   3.133   2.249   4.488 -0.0151  0.1884 -0.1842
 4896SOL    HW226148   3.282   2.248   4.481 -0.1465  0.0120  1.3362
 4897SOL     OW26149   3.040   1.251   1.421 -0.0129 -0.3623 -0.0361
 4897SOL    HW126150   3.010   1.237   1.511 -2.2471  2.0951 -0.3886
 4897SOL    HW226151   3.018   1.162   1.393 -0.2568 -0.4081  0.3057
 4898SOL     OW26152   0.847   1.042   9.384 -0.2334 -0.1633 -0.3424
 4898SOL    HW126153   0.831   1.026   9.291 -2.6258  3.8287 -0.6299
 4898SOL    HW226154   0.875   0.960   9.425 -0.2333 -0.2949 -0.6123
 4899SOL     OW26155   0.074   1.258   5.116 -0.4633  0.0596  0.5381
 4899SOL    HW126156   0.058   1.222   5.029  0.5024 -0.4426  0.5578
 4899SOL    HW226157   0.073   1.349   5.089 -0.4635  0.0447  0.4884
 4900SOL     OW26158   3.585   3.559   7.100 -0.0356 -0.8873 -0.4228
 4900SOL    HW126159   3.608   3.467   7.086 -1.5991 -1.4302  0.5470
 4900SOL    HW226160   3.490   3.552   7.109 -0.0684  1.7112  1.1411
 4901SOL     OW26161   4.556   3.532   0.560 -0.1039  0.3530  0.2591
 4901SOL    HW126162   4.571   3.546   0.653 -0.4120  0.9142  0.2237
 4901SOL    HW226163   4.640   3.509   0.521 -1.2343 -0.7658 -1.5431
 4902SOL     OW26164   4.416   1.647  14.730 -0.1138  0.5365  0.0194
 4902SOL    HW126165   4.443   1.696  14.653 -1.5161  0.4450 -0.5400
 4902SOL    HW226166   4.417   1.559  14.693  0.3705 -0.0851  1.5144
 4903SOL     OW26167   4.550   0.905   1.719 -0.1367  0.0066 -0.1644
 4903SOL    HW126168   4.520   0.983   1.671 -0.5631  0.4975  0.9019
 4903SOL    HW226169   4.467   0.863   1.744  0.2036 -1.2471 -1.0844
 4904SOL     OW26170   0.650   0.635  10.781  0.5003 -0.2290  0.1733
 4904SOL    HW126171   0.603   0.683  10.849  0.4233 -2.0422  1.3869
 4904SOL    HW226172   0.742   0.657  10.792  0.9632 -1.8769 -0.3534
 4905SOL     OW26173   4.305   3.671   2.174  0.5038 -0.0628  0.1644
 4905SOL    HW126174   4.230   3.628   2.215 -0.7472  1.5250 -0.4847
 4905SOL    HW226175   4.266   3.742   2.124 -1.0661  1.1203  3.1063
 4906SOL     OW26176   2.044   0.133   6.411  0.1793  0.6113 -0.2133
 4906SOL    HW126177   1.997   0.193   6.469  0.2872 -0.2771  0.7805
 4906SOL    HW226178   1.971   0.113   6.353  2.7431 -2.3084 -2.4344
 4907SOL     OW26179   2.747   1.533  14.198 -0.5625  0.2691 -0.3324
 4907SOL    HW126180   2.749   1.606  14.260  0.2840  0.3198 -0.4160
 4907SOL    HW226181   2.661   1.497  14.216  1.0415 -2.0949  2.4939
 4908SOL     OW26182   2.867   3.065   3.524  0.1061 -0.0015  0.0061
 4908SOL    HW126183   2.944   3.022   3.562 -0.2674 -2.1897 -1.7564
 4908SOL    HW226184   2.834   3.005   3.458  1.1831  0.2866 -0.7858
 4909SOL     OW26185   0.183   0.750   1.110  0.0240  0.2535  0.1922
 4909SOL    HW126186   0.140   0.769   1.194  0.1618  1.2110  0.0425
 4909SOL    HW226187   0.267   0.716   1.142 -0.7448 -1.7083  0.1555
 4910SOL     OW26188   3.199   0.717   9.820  0.7305 -0.2709  0.3947
 4910SOL    HW126189   3.158   0.661   9.753  2.4083 -1.4776  0.3585
 4910SOL    HW226190   3.167   0.674   9.899  0.3147 -1.3598 -0.3671
 4911SOL     OW26191   4.648   0.063   9.622  0.4071 -0.6809 -0.0367
 4911SOL    HW126192   4.721   0.067   9.684  0.1732 -0.2938  0.2134
 4911SOL    HW226193   4.616   0.152   9.606  1.0402 -0.4445  0.0235
 4912SOL     OW26194   4.030   4.458  11.165 -0.1725 -0.1506 -0.3182
 4912SOL    HW126195   3.961   4.392  11.156 -0.7085  0.6074 -1.6980
 4912SOL    HW226196   4.102   4.408  11.204 -0.7820 -2.3604 -2.0220
 4913SOL     OW26197   2.367   0.812  14.059  0.1204 -0.6899  0.1341
 4913SOL    HW126198   2.311   0.866  14.003  0.5648 -0.4096 -0.0328
 4913SOL    HW226199   2.442   0.804  14.000  0.2335 -2.9624  0.5846
 4914SOL     OW26200   0.171   3.079   2.259  0.5187 -0.0086 -0.0556
 4914SOL    HW126201   0.141   3.083   2.168 -0.6708 -1.0605  0.2868
 4914SOL    HW226202   0.163   3.172   2.282 -1.3373 -0.6061  1.6660
 4915SOL     OW26203   4.024   1.336   3.268  0.3113  0.3712 -0.0892
 4915SOL    HW126204   4.105   1.294   3.298 -0.4776 -0.0964  1.3663
 4915SOL    HW226205   4.061   1.419   3.240 -0.3664  0.7334  0.0856
 4916SOL     OW26206   4.013   1.378   5.898 -0.3415  0.0746 -0.0124
 4916SOL    HW126207   3.930   1.352   5.859  0.5032 -0.0193 -1.7432
 4916SOL    HW226208   4.008   1.350   5.989  0.3555  0.1842  0.0552
 4917SOL     OW26209   1.130   1.869   0.299  0.7649  0.2097  0.8572
 4917SOL    HW126210   1.161   1.829   0.218 -0.1192 -1.0458  1.1300
 4917SOL    HW226211   1.185   1.826   0.364 -0.5763 -2.7236  0.0844
 4918SOL     OW26212   2.712   3.962  17.511  0.6194  0.4956  0.1223
 4918SOL    HW126213   2.757   3.993  17.589  0.0097 -0.8854  1.0226
 4918SOL    HW226214   2.657   4.039  17.497 -0.2267 -0.4156 -1.7264
 4919SOL     OW26215   3.170   3.449   6.106  0.6039 -0.3327  0.4571
 4919SOL    HW126216   3.168   3.359   6.075  0.4941 -0.5440  1.0689
 4919SOL    HW226217   3.102   3.494   6.057 -0.8482 -1.3392  1.5387
 4920SOL     OW26218   2.281   1.794   6.316 -0.2956 -0.4935 -0.2149
 4920SOL    HW126219   2.348   1.758   6.258 -1.7378  0.2438 -2.3301
 4920SOL    HW226220   2.286   1.737   6.392 -0.1690  0.1061  0.2258
 4921SOL     OW26221   3.913   0.552   4.808 -0.0221  0.4849  0.2710
 4921SOL    HW126222   3.864   0.496   4.868 -0.6012  0.1382 -0.5191
 4921SOL    HW226223   3.858   0.630   4.805 -0.7204 -0.0699 -1.4373
 4922SOL     OW26224   0.935   4.397  16.242 -0.0548  0.4821  0.0345
 4922SOL    HW126225   0.847   4.373  16.213  0.1355 -0.0489 -0.0980
 4922SOL    HW226226   0.926   4.491  16.254 -0.3082  0.7863 -2.5060
 4923SOL     OW26227   2.732   3.182   0.173  0.0383 -0.4738 -0.1501
 4923SOL    HW126228   2.827   3.174   0.185  0.4324  1.8100 -1.6888
 4923SOL    HW226229   2.717   3.277   0.173 -1.3053 -0.6889 -1.1100
 4924SOL     OW26230   0.264   4.653   8.881  0.3187 -0.7748 -0.2786
 4924SOL    HW126231   0.319   4.666   8.959  0.8747 -0.2741 -0.7490
 4924SOL    HW226232   0.261   4.557   8.880  0.0660 -0.7725  0.5167
 4925SOL     OW26233   1.106   4.084   5.074 -0.1523  0.1152  0.9610
 4925SOL    HW126234   1.016   4.060   5.097 -0.0890 -0.6226  0.4521
 4925SOL    HW226235   1.094   4.169   5.032  0.6127 -0.0535  0.4016
 4926SOL     OW26236   2.931   2.722   7.546 -0.7213 -0.2144  0.3609
 4926SOL    HW126237   2.941   2.692   7.636  0.5721  0.8963  0.6019
 4926SOL    HW226238   2.836   2.726   7.549 -0.6606  0.3310  1.4341
 4927SOL     OW26239   1.093   3.269   5.137 -0.3394  0.1935  0.1827
 4927SOL    HW126240   1.157   3.294   5.071 -1.0656 -1.5818 -1.2128
 4927SOL    HW226241   1.061   3.183   5.109 -0.4982  0.5871 -0.8665
 4928SOL     OW26242   0.165   2.270  15.120 -0.1241  0.1456 -0.2385
 4928SOL    HW126243   0.135   2.213  15.048  0.2544  0.7915 -0.9117
 4928SOL    HW226244   0.095   2.253  15.183 -0.7762 -1.3837 -1.3735
 4929SOL     OW26245   3.154   0.140   5.785 -0.3713 -0.7731 -0.7309
 4929SOL    HW126246   3.176   0.127   5.877  1.0523  1.3257 -0.7617
 4929SOL    HW226247   3.063   0.113   5.798 -0.3464 -0.2046  0.6049
 4930SOL     OW26248   1.775   0.184   6.308 -0.2784  0.5231  0.0505
 4930SOL    HW126249   1.755   0.272   6.275  0.0681  1.2139  1.6611
 4930SOL    HW226250   1.770   0.132   6.228  0.9197  1.1831 -0.4435
 4931SOL     OW26251   3.589   4.120   7.855  0.2610 -0.1531 -0.5630
 4931SOL    HW126252   3.583   4.138   7.949  1.9008 -0.0123 -0.4813
 4931SOL    HW226253   3.499   4.099   7.828 -0.2671  1.2602  0.1316
 4932SOL     OW26254   4.347   0.481   2.791 -0.4272 -0.3109  0.0995
 4932SOL    HW126255   4.280   0.543   2.818 -1.6306 -1.8174  0.5719
 4932SOL    HW226256   4.310   0.460   2.705 -0.6104 -0.3225  0.1807
 4933SOL     OW26257   4.115   3.843  15.366  0.4742 -0.6836  0.6802
 4933SOL    HW126258   4.200   3.804  15.386  1.8099  0.2287 -3.3334
 4933SOL    HW226259   4.066   3.834  15.448  0.3052 -1.7408  0.4602
 4934SOL     OW26260   3.680   1.479   4.868 -0.5075  0.0294 -0.6326
 4934SOL    HW126261   3.736   1.469   4.791  1.0895 -0.2053  0.5552
 4934SOL    HW226262   3.714   1.412   4.927  0.2862 -0.5664 -1.7804
 4935SOL     OW26263   3.565   2.261   2.023 -0.0159 -0.0933  0.3057
 4935SOL    HW126264   3.532   2.187   1.973 -1.4579  0.1020  0.9470
 4935SOL    HW226265   3.491   2.283   2.080 -0.0361 -1.4537  0.7892
 4936SOL     OW26266   2.293   2.616   6.962 -0.1658  0.2955 -0.1499
 4936SOL    HW126267   2.309   2.545   6.899 -0.3807 -0.3008  0.4643
 4936SOL    HW226268   2.255   2.571   7.037 -1.3714  3.9698  1.3959
 4937SOL     OW26269   4.394   1.160   6.072 -0.8709 -0.3523  0.0748
 4937SOL    HW126270   4.483   1.189   6.054 -1.8256  2.1609 -0.5975
 4937SOL    HW226271   4.371   1.197   6.157 -0.1864 -0.1549  0.1739
 4938SOL     OW26272   2.947   1.802   9.487  0.1318  0.5137 -0.1410
 4938SOL    HW126273   2.987   1.781   9.571 -1.1450 -0.7108  0.1690
 4938SOL    HW226274   2.928   1.714   9.454 -0.3013  0.5526  0.0117
 4939SOL     OW26275   3.926   4.175   8.100  0.1729 -0.1465 -0.2892
 4939SOL    HW126276   3.990   4.181   8.171 -0.7281 -0.2615  0.5469
 4939SOL    HW226277   3.900   4.087   8.129  0.9114 -0.4650 -0.6076
 4940SOL     OW26278   1.104   0.018   0.761  0.4877 -0.0746 -0.0736
 4940SOL    HW126279   1.011   4.720   0.768  0.8186 -1.4711 -0.3191
 4940SOL    HW226280   1.098   0.079   0.688 -2.3326 -0.4005 -0.1100
 4941SOL     OW26281   0.627   1.846   2.614 -0.4995  0.1728  0.4875
 4941SOL    HW126282   0.544   1.892   2.628 -1.4744 -1.7137  0.9425
 4941SOL    HW226283   0.592   1.772   2.564 -2.2644  1.4452 -0.1875
 4942SOL     OW26284   1.448   1.929  13.526  0.2240 -0.0507  0.5031
 4942SOL    HW126285   1.511   2.001  13.534  0.5882 -0.5082  1.7577
 4942SOL    HW226286   1.477   1.877  13.601  0.4393 -2.2524 -1.1132
 4943SOL     OW26287   0.134   2.204  10.819  0.2961 -0.4230  0.3130
 4943SOL    HW126288   0.061   2.143  10.809  1.9060 -2.6667  2.3322
 4943SOL    HW226289   0.173   2.183  10.734  2.2112  1.7123  0.6950
 4944SOL     OW26290   2.739   4.672   2.501 -0.2930 -0.2386 -0.0177
 4944SOL    HW126291   2.723   4.593   2.552  1.5591  0.3357  1.4821
 4944SOL    HW226292   2.737   0.013   2.570  0.0725 -0.4185  0.1662
 4945SOL     OW26293   1.911   0.599  13.481  0.2601  0.0381  0.1599
 4945SOL    HW126294   1.980   0.661  13.505  0.8337 -1.1942  1.6681
 4945SOL    HW226295   1.837   0.661  13.478 -0.6372 -1.0092  0.7703
 4946SOL     OW26296   4.235   2.498   8.878  0.5831  0.0222  0.2413
 4946SOL    HW126297   4.156   2.552   8.875 -0.7303 -1.8760  0.7241
 4946SOL    HW226298   4.280   2.537   8.954  1.1568  1.2386 -0.7205
 4947SOL     OW26299   4.218   4.385   3.493 -0.2811  0.8952  0.1484
 4947SOL    HW126300   4.210   4.290   3.503  0.2477  1.1365  2.7383
 4947SOL    HW226301   4.271   4.420   3.565  1.9897 -0.5646 -0.8183
 4948SOL     OW26302   1.073   0.342  13.743  0.2377 -0.3337 -0.0643
 4948SOL    HW126303   1.097   0.311  13.830  1.0410 -0.2886 -0.2758
 4948SOL    HW226304   1.026   0.421  13.770  0.2626  0.0972 -1.2539
 4949SOL     OW26305   0.017   1.218  17.261 -0.1338 -0.3926 -0.5838
 4949SOL    HW126306   0.011   1.306  17.300 -0.2727 -1.6767  2.2591
 4949SOL    HW226307   4.691   1.239  17.182 -0.5174  0.9525  0.0154
 4950SOL     OW26308   2.531   4.622   2.823 -0.6915 -0.3501  0.0799
 4950SOL    HW126309   2.569   4.579   2.746 -1.4804 -0.5144 -0.2146
 4950SOL    HW226310   2.609   4.646   2.874  1.2627 -1.6795 -2.2880
 4951SOL     OW26311   2.032   4.509   5.005 -0.2341  0.0966 -0.1038
 4951SOL    HW126312   2.037   4.420   5.040 -4.4800 -0.8568 -1.8974
 4951SOL    HW226313   1.976   4.490   4.930  1.5497  1.5870 -1.7981
 4952SOL     OW26314   2.612   0.657  16.066 -0.5377 -0.1460  0.9220
 4952SOL    HW126315   2.656   0.702  16.138  0.6386 -0.3762  0.3585
 4952SOL    HW226316   2.687   0.646  16.007 -0.8679 -0.0799  0.4965
 4953SOL     OW26317   3.850   2.321   3.329  0.9347  0.0513  0.0910
 4953SOL    HW126318   3.779   2.301   3.390  1.1395 -0.2408  0.2313
 4953SOL    HW226319   3.832   2.257   3.261  0.5427 -0.4927  0.7002
 4954SOL     OW26320   3.492   0.056   9.958  0.7817 -0.2265  0.2901
 4954SOL    HW126321   3.460   0.088  10.043 -0.3706  1.5739 -0.8343
 4954SOL    HW226322   3.563   0.117   9.938  0.4077  0.6430  1.6339
 4955SOL     OW26323   2.743   1.760  17.190  0.2975  0.2435  0.1819
 4955SOL    HW126324   2.767   1.669  17.208 -1.9340  0.0327  2.1160
 4955SOL    HW226325   2.683   1.774  17.263  2.3620  0.4229  1.8493
 4956SOL     OW26326   3.557   2.379   8.782  0.2380  0.4180 -0.5172
 4956SOL    HW126327   3.595   2.366   8.868  2.5308 -0.1909 -1.6332
 4956SOL    HW226328   3.625   2.413   8.724  1.4588 -2.2755 -0.6627
 4957SOL     OW26329   2.867   2.480   6.155  0.8806 -0.0947  0.2301
 4957SOL    HW126330   2.821   2.408   6.198  0.1577 -0.9888 -2.0514
 4957SOL    HW226331   2.847   2.549   6.218 -0.9801  0.8813 -1.4445
 4958SOL     OW26332   0.058   1.006   5.874 -0.5549 -0.1543 -0.1905
 4958SOL    HW126333   0.026   0.919   5.850  0.0077 -1.1817  2.8205
 4958SOL    HW226334   0.128   1.006   5.809  0.5780 -1.3848  1.0344
 4959SOL     OW26335   3.566   3.793   3.792 -0.0005 -0.1241  0.4695
 4959SOL    HW126336   3.585   3.811   3.700 -0.7924  1.6308  0.6476
 4959SOL    HW226337   3.593   3.871   3.842  0.7562 -0.2303  0.2231
 4960SOL     OW26338   0.410   1.486   0.613 -0.2392 -0.6485 -0.5250
 4960SOL    HW126339   0.457   1.423   0.559 -0.4916 -2.4237  1.3257
 4960SOL    HW226340   0.332   1.510   0.564 -0.0392  1.1416  0.0120
 4961SOL     OW26341   2.337   3.451   0.841  0.7162 -0.0453 -0.4720
 4961SOL    HW126342   2.315   3.372   0.891  3.9318  0.3947  1.6416
 4961SOL    HW226343   2.414   3.423   0.791  0.7529  1.0326 -1.0188
 4962SOL     OW26344   0.301   1.615   2.073  0.2244 -0.4874  0.2495
 4962SOL    HW126345   0.211   1.644   2.055  0.2654  0.3129  1.2577
 4962SOL    HW226346   0.283   1.521   2.076 -0.5011 -0.4171 -2.4357
 4963SOL     OW26347   2.505   0.167   8.814  0.0040 -0.1499  0.0742
 4963SOL    HW126348   2.540   0.158   8.902  0.6678 -2.0310 -0.3815
 4963SOL    HW226349   2.418   0.198   8.840  0.4014  0.2076  0.9745
 4964SOL     OW26350   1.299   4.657   9.260  0.2747 -0.3547  0.2734
 4964SOL    HW126351   1.319   4.596   9.331  1.8025  0.7029  0.7524
 4964SOL    HW226352   1.321   0.015   9.302 -3.6594  1.3635 -1.0273
 4965SOL     OW26353   3.456   4.673   6.355  0.4115  0.4382  0.3379
 4965SOL    HW126354   3.404   0.020   6.389  0.6463  0.5157  0.5265
 4965SOL    HW226355   3.443   4.614   6.429  2.9372  0.3559  0.7149
 4966SOL     OW26356   4.408   1.125  13.383  0.4383 -0.1777 -0.4390
 4966SOL    HW126357   4.346   1.055  13.402  0.7095 -0.0437  0.9033
 4966SOL    HW226358   4.363   1.195  13.430 -1.0051  0.2473 -2.4266
 4967SOL     OW26359   1.833   1.528   7.871  0.0599 -0.1552 -0.1709
 4967SOL    HW126360   1.850   1.448   7.921  0.6258 -0.8863 -1.5293
 4967SOL    HW226361   1.760   1.565   7.921 -1.8197 -1.9588 -1.5643
 4968SOL     OW26362   4.095   4.447   2.171  0.7389 -0.4929  0.2138
 4968SOL    HW126363   4.120   4.451   2.078  1.1408  0.9777  0.4002
 4968SOL    HW226364   4.098   4.539   2.196 -0.8310  0.1213 -1.8379
 4969SOL     OW26365   2.336   3.822   9.892  0.8510 -0.4189  0.2012
 4969SOL    HW126366   2.368   3.888   9.830  4.7115  0.1809  2.8349
 4969SOL    HW226367   2.269   3.874   9.936  0.2389 -0.1835 -1.0023
 4970SOL     OW26368   0.316   1.638   2.780 -0.6507 -0.4030  0.3421
 4970SOL    HW126369   0.329   1.543   2.787  0.6826 -0.3038 -0.7519
 4970SOL    HW226370   0.385   1.665   2.720  0.3707  0.7634  2.0485
 4971SOL     OW26371   3.772   4.142   2.187  0.3974 -0.0385 -0.3136
 4971SOL    HW126372   3.822   4.160   2.107 -0.0467 -0.9286 -0.7887
 4971SOL    HW226373   3.844   4.090   2.222  0.8937  0.1584 -1.0468
 4972SOL     OW26374   2.061   4.237   6.741  0.0638  0.9202  0.3645
 4972SOL    HW126375   2.032   4.202   6.657  0.7764  1.8529 -0.2695
 4972SOL    HW226376   2.032   4.170   6.803 -0.0135  0.1310 -0.5196
 4973SOL     OW26377   2.931   3.038   7.007  0.0991 -0.2232 -0.3627
 4973SOL    HW126378   3.010   3.010   6.961  1.8685 -0.0414  2.5549
 4973SOL    HW226379   2.920   2.960   7.062  0.6126 -0.6628 -0.8793
 4974SOL     OW26380   0.917   2.176   1.160  0.3094 -0.0954  0.0097
 4974SOL    HW126381   0.891   2.091   1.126  2.2204 -0.1985 -1.1928
 4974SOL    HW226382   0.833   2.222   1.159  0.5817  0.4145  0.3885
 4975SOL     OW26383   0.997   3.760   3.810 -0.0874 -0.6640  0.1659
 4975SOL    HW126384   1.037   3.709   3.740  2.7287  0.3374  1.0176
 4975SOL    HW226385   0.983   3.837   3.755  0.1584 -1.1302 -0.5409
 4976SOL     OW26386   4.488   0.227   5.803 -0.1541 -0.0700 -0.2203
 4976SOL    HW126387   4.503   0.202   5.712  3.5054  1.8791 -0.1395
 4976SOL    HW226388   4.575   0.225   5.844  0.2372 -0.1351 -1.0623
 4977SOL     OW26389   4.119   3.461   8.160 -0.4873 -0.8372 -0.5268
 4977SOL    HW126390   4.148   3.380   8.118 -0.0566 -0.8086 -0.2856
 4977SOL    HW226391   4.092   3.422   8.243 -0.3259 -1.0347 -0.5662
 4978SOL     OW26392   4.146   0.898   7.406 -0.1727 -0.4495  0.2807
 4978SOL    HW126393   4.186   0.813   7.389 -2.5080 -1.4310 -0.2416
 4978SOL    HW226394   4.093   0.901   7.327  1.2568 -1.9034 -0.7297
 4979SOL     OW26395   2.874   3.581   7.676  0.6249  0.2313 -0.2022
 4979SOL    HW126396   2.826   3.541   7.749  1.4906  0.3556  0.4319
 4979SOL    HW226397   2.806   3.588   7.609 -0.8692 -0.2639  1.2455
 4980SOL     OW26398   0.355   4.566  15.256 -0.0745  0.0002  0.1456
 4980SOL    HW126399   0.354   4.636  15.191  0.4639 -2.4395 -2.5154
 4980SOL    HW226400   0.265   4.561  15.286  0.1382  0.9925  0.9348
 4981SOL     OW26401   1.280   3.270   3.546  0.2673 -0.0969  0.2380
 4981SOL    HW126402   1.287   3.202   3.613  0.2302 -1.8096 -1.5250
 4981SOL    HW226403   1.362   3.262   3.497  0.6336  0.8551  0.6757
 4982SOL     OW26404   2.662   3.776   8.143 -0.6048  0.1530 -0.0238
 4982SOL    HW126405   2.605   3.747   8.214 -1.3394 -0.6318 -0.9373
 4982SOL    HW226406   2.724   3.831   8.191 -1.0856  0.4792  0.2282
 4983SOL     OW26407   4.718   4.444   7.667  0.1747 -0.6226 -0.0045
 4983SOL    HW126408   0.085   4.439   7.693 -0.3295  2.7382  2.4192
 4983SOL    HW226409   4.697   4.352   7.685  2.1484 -0.9880  0.3871
 4984SOL     OW26410   1.510   0.716   6.426 -0.0204  0.4764  0.0630
 4984SOL    HW126411   1.563   0.773   6.483 -2.3773  3.5259 -0.7572
 4984SOL    HW226412   1.424   0.747   6.456 -0.1547  1.9272 -1.8267
 4985SOL     OW26413   1.898   3.430   3.165 -0.0924 -0.0894 -0.0563
 4985SOL    HW126414   1.908   3.490   3.239 -0.9030  0.5635 -0.4663
 4985SOL    HW226415   1.986   3.396   3.154 -0.9574 -1.7803 -1.7080
 4986SOL     OW26416   1.619   2.374  16.071 -0.0246 -0.1347  0.3703
 4986SOL    HW126417   1.665   2.451  16.104 -0.8463  0.9277 -0.9556
 4986SOL    HW226418   1.561   2.412  16.005 -0.2729 -1.6324 -0.2735
 4987SOL     OW26419   0.396   3.538   7.557  0.2700 -0.3072  0.1361
 4987SOL    HW126420   0.301   3.545   7.564 -0.0065 -2.6646 -1.2344
 4987SOL    HW226421   0.427   3.557   7.646  0.3997  1.4901 -0.3026
 4988SOL     OW26422   1.820   1.230   4.861 -0.0748  0.5555  0.9841
 4988SOL    HW126423   1.779   1.278   4.789 -0.8641 -0.0784  1.0166
 4988SOL    HW226424   1.885   1.176   4.817 -2.7261 -1.9490  0.1135
 4989SOL     OW26425   1.305   4.307   4.380 -0.5610 -0.5121 -0.5225
 4989SOL    HW126426   1.282   4.270   4.295  1.3467 -1.5973 -0.5684
 4989SOL    HW226427   1.347   4.226   4.409  0.5739 -0.2242 -1.3709
 4990SOL     OW26428   1.483   1.703   6.354  0.2932  0.5433  0.0119
 4990SOL    HW126429   1.456   1.629   6.300 -1.5616  1.7891 -0.7740
 4990SOL    HW226430   1.526   1.764   6.295  2.1928  0.8503  1.7003
 4991SOL     OW26431   1.617   2.548  13.884 -0.2992  0.3126  0.0306
 4991SOL    HW126432   1.613   2.642  13.900 -0.0074  0.3471 -0.0942
 4991SOL    HW226433   1.712   2.546  13.875 -0.1210  0.9513  1.8386
 4992SOL     OW26434   2.250   4.198  16.877  0.1673  0.1586  0.0634
 4992SOL    HW126435   2.273   4.281  16.835 -0.2608 -0.1762 -0.8328
 4992SOL    HW226436   2.271   4.216  16.968 -1.8853  1.1114  0.3484
 4993SOL     OW26437   0.589   4.444  12.166  0.1703 -0.1359  0.0100
 4993SOL    HW126438   0.543   4.363  12.187 -3.7135  2.4680  1.3957
 4993SOL    HW226439   0.600   4.428  12.072 -0.6985 -1.0474  0.0676
 4994SOL     OW26440   0.996   4.559   2.302  0.2158  0.0732  0.1994
 4994SOL    HW126441   1.051   4.609   2.241  0.6753 -1.4853 -0.6444
 4994SOL    HW226442   0.919   4.617   2.301 -0.1881 -0.4802 -3.0050
 4995SOL     OW26443   0.688   1.578   8.551  0.0135  0.0363 -0.2708
 4995SOL    HW126444   0.783   1.581   8.548  0.0145  1.0216  0.5683
 4995SOL    HW226445   0.671   1.488   8.523 -2.0716  0.6910 -1.1209
 4996SOL     OW26446   1.955   1.503   7.209 -0.3927 -0.1967 -0.3531
 4996SOL    HW126447   1.936   1.593   7.185  0.6808  0.6010  1.8080
 4996SOL    HW226448   1.984   1.471   7.124 -0.5531 -1.2555 -0.0105
 4997SOL     OW26449   3.401   2.396   4.878  0.2527 -0.1378 -0.4333
 4997SOL    HW126450   3.322   2.448   4.890  0.4159 -0.2513  1.1813
 4997SOL    HW226451   3.370   2.314   4.838  1.6135 -0.4721 -0.8273
 4998SOL     OW26452   2.333   1.990   9.646 -0.3566 -0.0985 -0.2104
 4998SOL    HW126453   2.403   1.963   9.586 -0.6182  0.3274 -0.7068
 4998SOL    HW226454   2.348   1.925   9.715 -0.1211 -1.2425 -1.3406
 4999SOL     OW26455   4.396   0.892   6.025  0.0813  0.2034  0.4105
 4999SOL    HW126456   4.356   0.975   6.049 -0.3830  0.0538  0.1608
 4999SOL    HW226457   4.361   0.881   5.936 -1.5889 -2.2916  1.3903
 5000SOL     OW26458   4.449   1.974   3.000  0.0121  0.3655 -0.3990
 5000SOL    HW126459   4.535   1.933   3.010 -0.3417 -0.3398 -0.2880
 5000SOL    HW226460   4.446   1.988   2.906  2.2913 -1.8365 -0.8053
 5001SOL     OW26461   3.066   1.648   7.045 -0.0636  0.0862 -0.7233
 5001SOL    HW126462   3.148   1.605   7.020 -0.7179 -2.6095  1.6883
 5001SOL    HW226463   3.004   1.623   6.976  0.3076  1.3676 -1.5071
 5002SOL     OW26464   4.039   2.693   7.248 -0.4857 -0.1554  0.1364
 5002SOL    HW126465   3.985   2.755   7.297 -1.0657  1.4042 -2.4750
 5002SOL    HW226466   3.973   2.674   7.181  0.3902  0.2410 -0.8476
 5003SOL     OW26467   0.367   4.604   4.746 -0.1465  0.8201  0.5566
 5003SOL    HW126468   0.297   4.596   4.682 -0.4336  0.1336  0.9638
 5003SOL    HW226469   0.434   4.636   4.686 -1.2985 -0.6516 -1.5016
 5004SOL     OW26470   2.082   3.257   9.490 -0.2218  0.1964 -0.1193
 5004SOL    HW126471   2.091   3.173   9.444  0.9569  1.0707 -1.4978
 5004SOL    HW226472   2.028   3.305   9.429  0.0636 -2.1743 -2.2453
 5005SOL     OW26473   1.385   2.334  14.023 -0.4912  0.5582  0.3082
 5005SOL    HW126474   1.450   2.275  14.062 -1.0207 -1.9255 -2.5222
 5005SOL    HW226475   1.302   2.287  14.020  0.0219 -0.5438  3.1145
 5006SOL     OW26476   4.090   4.492   4.497 -0.3619 -0.1749 -0.2235
 5006SOL    HW126477   4.144   4.571   4.488 -0.3305 -0.1862 -0.1326
 5006SOL    HW226478   4.099   4.456   4.585  1.8815 -0.7101 -0.6501
 5007SOL     OW26479   2.827   2.075   2.408 -0.2076  0.2601 -0.0097
 5007SOL    HW126480   2.840   2.007   2.343  1.6110 -0.9129  1.5861
 5007SOL    HW226481   2.904   2.130   2.391 -1.5110  1.2959 -2.5352
 5008SOL     OW26482   3.063   0.846   8.121  0.1723  0.0356 -0.1993
 5008SOL    HW126483   3.139   0.806   8.164 -0.8851 -1.4357  0.2852
 5008SOL    HW226484   3.018   0.772   8.081  0.0740  1.1565 -2.2000
 5009SOL     OW26485   2.721   2.790  13.434 -0.5305 -0.3945 -0.0980
 5009SOL    HW126486   2.693   2.720  13.374 -1.7351  0.8956 -1.0508
 5009SOL    HW226487   2.735   2.743  13.515 -1.7229  0.0911  0.3949
 5010SOL     OW26488   0.439   3.758  12.418  0.4266  0.6845 -0.0800
 5010SOL    HW126489   0.515   3.702  12.403  0.7512  1.1394 -0.0984
 5010SOL    HW226490   0.433   3.779  12.511 -1.5916  1.9241 -0.4734
 5011SOL     OW26491   0.736   4.518   8.338  0.2472  0.1414 -0.1341
 5011SOL    HW126492   0.665   4.560   8.289  0.0248 -0.4193 -0.3000
 5011SOL    HW226493   0.702   4.442   8.385  0.6234  0.6437  0.9462
 5012SOL     OW26494   4.528   1.378  15.523 -0.2153 -0.1218  0.2203
 5012SOL    HW126495   4.529   1.392  15.428 -0.7446 -0.3572  0.1783
 5012SOL    HW226496   4.621   1.391  15.544  0.0797  0.0371 -1.1854
 5013SOL     OW26497   0.091   2.802  15.070 -0.5410  0.1256 -0.9215
 5013SOL    HW126498   0.180   2.824  15.097 -0.4730 -0.3630 -0.7633
 5013SOL    HW226499   0.042   2.789  15.151  0.1865  0.1056 -0.4860
 5014SOL     OW26500   2.146   1.633   6.012  0.8380  0.3414 -0.3105
 5014SOL    HW126501   2.111   1.609   6.097  1.6709  0.3828  0.0391
 5014SOL    HW226502   2.073   1.609   5.954  0.3292 -0.4237  0.6596
 5015SOL     OW26503   0.293   3.480   0.686 -0.1733 -0.2972 -0.0033
 5015SOL    HW126504   0.282   3.500   0.779 -0.0952  1.0799 -0.2860
 5015SOL    HW226505   0.206   3.446   0.663 -1.6152  2.6360  1.0663
 5016SOL     OW26506   4.337   0.196   6.026 -0.2845  0.2428 -0.1143
 5016SOL    HW126507   4.421   0.163   6.057 -0.0160  1.0155 -0.0235
 5016SOL    HW226508   4.374   0.226   5.943  0.0074 -1.0175 -0.4379
 5017SOL     OW26509   4.482   3.761   0.467 -0.3234  0.0590 -0.1582
 5017SOL    HW126510   4.548   3.805   0.520 -0.8287 -1.5252  1.8165
 5017SOL    HW226511   4.489   3.670   0.497  1.2499 -0.2075 -1.3499
 5018SOL     OW26512   4.196   4.389   6.951  0.3029 -0.4293  0.1690
 5018SOL    HW126513   4.134   4.336   6.901  1.6111 -0.6128 -1.2565
 5018SOL    HW226514   4.150   4.392   7.035  0.0558  0.4953 -0.0054
 5019SOL     OW26515   4.540   4.199   5.632 -0.1366  0.8445  0.4196
 5019SOL    HW126516   4.619   4.176   5.582 -1.5755  0.5614 -1.7167
 5019SOL    HW226517   4.536   4.294   5.616  1.7807  0.6557 -1.1669
 5020SOL     OW26518   3.795   1.588   2.361  0.1243 -0.4084  0.0152
 5020SOL    HW126519   3.744   1.537   2.297 -2.0693  1.7837  0.0129
 5020SOL    HW226520   3.734   1.650   2.400 -0.8018 -1.8417  0.8678
 5021SOL     OW26521   3.345   3.730   3.540 -0.2225 -0.3866 -0.4665
 5021SOL    HW126522   3.288   3.653   3.538 -0.1271 -0.4906  0.6673
 5021SOL    HW226523   3.315   3.766   3.624 -0.5714 -0.8864 -0.3749
 5022SOL     OW26524   2.754   2.538   0.354 -0.8701 -0.0957  0.0429
 5022SOL    HW126525   2.662   2.555   0.334 -0.8098  1.4574  1.1542
 5022SOL    HW226526   2.737   2.483   0.430 -0.5871  0.3516  0.4288
 5023SOL     OW26527   1.020   1.698   1.696 -0.0078  0.3830 -1.0986
 5023SOL    HW126528   1.108   1.718   1.727 -0.1968 -0.0457 -0.2839
 5023SOL    HW226529   1.000   1.775   1.643  0.8076  0.4627 -1.2883
 5024SOL     OW26530   4.268   1.937   9.179 -0.0428 -0.5035 -0.3019
 5024SOL    HW126531   4.213   2.010   9.208  2.1889  1.9336 -2.1700
 5024SOL    HW226532   4.275   1.894   9.264 -3.6433  0.1807  0.3151
 5025SOL     OW26533   0.367   3.566   6.694 -0.0013 -0.7332  0.3468
 5025SOL    HW126534   0.319   3.516   6.761 -0.9091 -0.9021 -0.4346
 5025SOL    HW226535   0.458   3.552   6.719 -0.5319 -1.1059  2.1100
 5026SOL     OW26536   3.919   3.837   1.991  0.1838  0.1227 -0.9852
 5026SOL    HW126537   3.896   3.787   1.913  0.1752 -0.1260 -0.8239
 5026SOL    HW226538   3.901   3.929   1.971  0.2337  0.9118  2.6415
 5027SOL     OW26539   4.271   4.591  12.637 -0.4068 -0.2264  0.6256
 5027SOL    HW126540   4.346   4.604  12.579  0.4729 -1.8866  1.4182
 5027SOL    HW226541   4.284   4.651  12.711  3.0852  1.8308 -1.6348
 5028SOL     OW26542   4.567   2.257   9.203 -0.3264  0.0024 -0.3339
 5028SOL    HW126543   4.491   2.308   9.176 -1.8594 -1.4377  1.2393
 5028SOL    HW226544   4.532   2.208   9.277  0.0281  3.8118  2.3576
 5029SOL     OW26545   1.675   0.624   3.640 -0.0157 -0.2669  0.2263
 5029SOL    HW126546   1.699   0.564   3.569  3.1999 -0.7883  1.7725
 5029SOL    HW226547   1.614   0.688   3.602 -0.0908  1.0693  2.6089
 5030SOL     OW26548   1.743   4.670   4.140 -0.3490  0.0071 -0.3087
 5030SOL    HW126549   1.776   4.613   4.070  0.0936 -2.1429  1.6484
 5030SOL    HW226550   1.765   0.032   4.107  0.9005  0.8713  2.7656
 5031SOL     OW26551   2.091   4.466  10.957  0.2514  0.4059  0.0679
 5031SOL    HW126552   2.010   4.423  10.929  1.0812 -0.2743 -1.2883
 5031SOL    HW226553   2.152   4.444  10.887  1.3364 -1.0363  1.4740
 5032SOL     OW26554   1.486   4.269   4.870  0.2224 -0.3711 -0.1777
 5032SOL    HW126555   1.579   4.251   4.876  0.6510  1.3781 -1.3964
 5032SOL    HW226556   1.464   4.176   4.860 -0.9678 -0.1049 -0.0072
 5033SOL     OW26557   2.703   1.527   8.788  0.2579 -0.2085 -0.5602
 5033SOL    HW126558   2.757   1.566   8.857 -0.9538 -1.9530  1.3872
 5033SOL    HW226559   2.718   1.432   8.794 -0.8064 -0.1430  3.0293
 5034SOL     OW26560   2.832   1.520  17.260  0.1918 -0.0124 -1.0995
 5034SOL    HW126561   2.775   1.446  17.242 -0.0236 -0.1246  0.0908
 5034SOL    HW226562   2.830   1.505  17.354 -0.1021 -0.5871 -1.2003
 5035SOL     OW26563   1.960   4.191  10.375  0.1196 -0.4844 -0.4895
 5035SOL    HW126564   1.899   4.245  10.425 -0.8609 -0.7983 -1.3382
 5035SOL    HW226565   1.946   4.107  10.416  0.6683 -0.8985 -1.1451
 5036SOL     OW26566   4.166   0.431  13.914 -0.1300 -0.5224 -0.3931
 5036SOL    HW126567   4.130   0.502  13.968  1.0670 -0.3493  0.1778
 5036SOL    HW226568   4.149   0.357  13.972  0.8113  1.3986  2.3339
 5037SOL     OW26569   2.930   3.988  15.517  0.2514 -0.0232  0.1781
 5037SOL    HW126570   2.916   4.081  15.499 -1.2553 -0.3312 -0.2242
 5037SOL    HW226571   3.025   3.982  15.529  0.6745  1.8855 -2.1119
 5038SOL     OW26572   2.357   3.726  14.867 -0.2665  0.3963  0.2339
 5038SOL    HW126573   2.396   3.807  14.835 -0.4014 -0.0739 -1.0869
 5038SOL    HW226574   2.322   3.756  14.951  0.5397 -1.0444  1.0851
 5039SOL     OW26575   2.932   1.875   1.411 -0.1438 -0.1136  0.8547
 5039SOL    HW126576   2.841   1.900   1.395  0.1009  1.1888  1.5307
 5039SOL    HW226577   2.968   1.957   1.377 -0.6231  0.1301  0.9476
 5040SOL     OW26578   0.231   0.933   7.340 -0.1174 -0.4385  0.1458
 5040SOL    HW126579   0.248   0.985   7.261 -0.7640  3.6885  2.6862
 5040SOL    HW226580   0.144   0.965   7.366  0.0126  0.3291 -0.3495
 5041SOL     OW26581   3.960   3.073   6.736  0.2489 -0.1384  0.4112
 5041SOL    HW126582   4.001   3.049   6.819 -0.4569  0.7393  1.0137
 5041SOL    HW226583   3.873   3.094   6.771  0.8359  1.1472  1.0942
 5042SOL     OW26584   1.083   2.313  12.925 -0.5446 -0.2225 -0.8933
 5042SOL    HW126585   1.165   2.326  12.973 -1.2534  2.2567 -0.3738
 5042SOL    HW226586   1.102   2.240  12.866 -2.8948 -2.7030  1.4111
 5043SOL     OW26587   1.357   4.272   8.425  0.6476  0.0257 -0.5767
 5043SOL    HW126588   1.348   4.198   8.485  0.0377  0.5573  0.0066
 5043SOL    HW226589   1.272   4.312   8.444  0.8011 -0.3070  0.8276
 5044SOL     OW26590   2.032   3.960   7.119  0.1399  0.0966  0.8500
 5044SOL    HW126591   1.956   3.999   7.075  0.0032  0.9386  1.8585
 5044SOL    HW226592   2.046   3.884   7.061 -0.9017  0.5233  0.0412
 5045SOL     OW26593   0.503   4.652   6.337 -0.2582  0.3489  0.1175
 5045SOL    HW126594   0.522   0.000   6.279 -2.9711  1.7280  0.9711
 5045SOL    HW226595   0.467   4.704   6.409 -0.0678  0.7469 -0.0761
 5046SOL     OW26596   1.693   4.651  14.747 -0.2747 -0.1527 -0.2286
 5046SOL    HW126597   1.757   4.599  14.797 -0.5735  0.6902  1.0412
 5046SOL    HW226598   1.623   4.653  14.813 -1.3363  1.3711 -1.4179
 5047SOL     OW26599   3.520   1.885   8.173 -0.4068  0.8270  0.7205
 5047SOL    HW126600   3.458   1.880   8.245 -0.1320 -2.2871  0.7370
 5047SOL    HW226601   3.591   1.829   8.206 -1.1618  1.5046  3.5381
 5048SOL     OW26602   3.637   1.791   3.694  0.3305 -0.3308 -0.3219
 5048SOL    HW126603   3.688   1.860   3.652  2.2716 -1.7588 -0.3295
 5048SOL    HW226604   3.667   1.814   3.782  2.2082 -1.5259 -0.6448
 5049SOL     OW26605   1.255   2.082   1.474  0.9245  0.3182 -0.2019
 5049SOL    HW126606   1.281   2.155   1.530 -2.8600  1.5929 -0.1700
 5049SOL    HW226607   1.226   2.141   1.405  2.8411 -1.1893 -2.3110
 5050SOL     OW26608   3.705   0.055   5.108  0.0412 -0.1394 -0.5166
 5050SOL    HW126609   3.748   4.707   5.064  2.6452  1.3206 -0.3872
 5050SOL    HW226610   3.712   0.126   5.044  3.1785 -0.3837 -0.4548
 5051SOL     OW26611   0.871   0.043  16.999  0.2648 -0.6165  0.4170
 5051SOL    HW126612   0.912   4.691  17.037  1.1526 -0.1352  0.4312
 5051SOL    HW226613   0.924   0.118  17.026  0.6569 -1.0078  0.7218
 5052SOL     OW26614   1.859   4.676  12.032 -0.1791 -0.4133 -0.1918
 5052SOL    HW126615   1.860   4.583  12.012 -3.4548 -0.1138 -1.7175
 5052SOL    HW226616   1.937   4.697  11.980 -1.0414 -0.7347 -1.6159
 5053SOL     OW26617   1.010   2.463   2.798  0.0756 -0.0483 -0.4085
 5053SOL    HW126618   1.034   2.497   2.712  0.0170  0.2494 -0.3077
 5053SOL    HW226619   1.095   2.443   2.838 -0.8743 -0.3113  1.4532
 5054SOL     OW26620   3.338   1.497   6.685  0.1672 -0.7579 -0.3862
 5054SOL    HW126621   3.261   1.555   6.686  1.1732  0.5838 -0.3792
 5054SOL    HW226622   3.397   1.557   6.640  1.7663 -1.0213  1.3807
 5055SOL     OW26623   2.630   2.630   6.981  0.1163  0.0904  0.3751
 5055SOL    HW126624   2.608   2.567   6.912 -0.4983  1.3999 -0.6142
 5055SOL    HW226625   2.722   2.652   6.969 -0.5055  1.8200 -1.1122
 5056SOL     OW26626   0.290   0.556   4.115  0.6099 -0.4095  0.4870
 5056SOL    HW126627   0.341   0.585   4.190  1.9204  0.5695 -0.7965
 5056SOL    HW226628   0.334   0.473   4.096 -0.8668 -0.9257 -0.6766
 5057SOL     OW26629   0.529   4.232   3.147 -0.1893 -0.4688 -0.3670
 5057SOL    HW126630   0.548   4.324   3.165 -2.1753 -0.5328  1.9894
 5057SOL    HW226631   0.470   4.230   3.072 -0.9169  2.2365  0.1261
 5058SOL     OW26632   0.312   1.997  11.940 -0.5996 -0.3063 -0.0382
 5058SOL    HW126633   0.307   1.949  11.857 -2.7783  1.7368 -1.1079
 5058SOL    HW226634   0.373   1.944  11.990  0.6581 -0.4474 -1.7279
 5059SOL     OW26635   0.891   4.384  15.574 -0.1491 -0.3199 -0.1998
 5059SOL    HW126636   0.861   4.324  15.506 -1.2888 -0.2318  0.2243
 5059SOL    HW226637   0.881   4.471  15.535  1.6550  0.2561  0.6248
 5060SOL     OW26638   0.533   2.172   2.740 -0.0863  0.1897  0.4779
 5060SOL    HW126639   0.471   2.112   2.697 -1.0816  1.5841 -0.0337
 5060SOL    HW226640   0.479   2.248   2.760 -2.0253 -0.6091 -1.6535
 5061SOL     OW26641   1.815   1.730   2.087 -0.2654  0.0370  0.1494
 5061SOL    HW126642   1.769   1.748   2.169  0.6846 -1.5545  1.0668
 5061SOL    HW226643   1.748   1.687   2.034 -3.1212  2.7828  1.5964
 5062SOL     OW26644   1.348   0.042   4.092  0.2245  0.0918 -0.5266
 5062SOL    HW126645   1.265   0.012   4.053  0.1129 -0.0769 -0.1621
 5062SOL    HW226646   1.351   4.715   4.172  1.5017  0.2748 -0.4586
 5063SOL     OW26647   1.821   2.009   5.405  0.0587  0.0310 -0.3005
 5063SOL    HW126648   1.817   2.100   5.376  1.9664  0.6145  1.2244
 5063SOL    HW226649   1.749   2.007   5.468 -0.3393 -0.7955 -0.7762
 5064SOL     OW26650   0.448   1.734   2.260  0.4928 -0.3745 -0.2331
 5064SOL    HW126651   0.422   1.825   2.245  1.7040 -0.1991 -1.2989
 5064SOL    HW226652   0.397   1.695   2.190  0.0698 -0.8473  0.3396
 5065SOL     OW26653   3.801   2.662   7.928  0.0351  0.0970 -0.0373
 5065SOL    HW126654   3.879   2.670   7.984  0.1837  0.7580 -0.3340
 5065SOL    HW226655   3.750   2.741   7.947  2.1704  1.3791  0.4719
 5066SOL     OW26656   0.938   1.242   0.648  0.0739  0.0273  0.4327
 5066SOL    HW126657   0.867   1.237   0.712  2.0304  0.4662  2.6488
 5066SOL    HW226658   1.004   1.249   0.717 -1.4186  0.2550  1.8237
 5067SOL     OW26659   3.549   2.918   2.612 -0.0728 -0.3665 -0.1372
 5067SOL    HW126660   3.524   2.853   2.546 -1.3917 -0.6607  0.6449
 5067SOL    HW226661   3.578   2.990   2.556 -0.1013 -0.6271 -0.4878
 5068SOL     OW26662   4.106   1.064   8.168  0.0981 -0.0137  0.1351
 5068SOL    HW126663   4.199   1.083   8.172  0.1860 -1.1241  3.2437
 5068SOL    HW226664   4.093   0.999   8.237 -0.9987  0.2825  0.2239
 5069SOL     OW26665   1.177   1.891   9.529  1.2196 -0.2138 -0.0892
 5069SOL    HW126666   1.129   1.971   9.549  0.9073 -0.5223  0.3718
 5069SOL    HW226667   1.231   1.925   9.457  1.0555 -1.0035 -0.5830
 5070SOL     OW26668   4.276   1.075   3.098 -0.2431  0.1915  0.0158
 5070SOL    HW126669   4.182   1.063   3.105 -0.3580  1.0163 -0.0454
 5070SOL    HW226670   4.286   1.168   3.077 -2.1237  0.4834  0.4841
 5071SOL     OW26671   2.362   0.534  13.967 -0.6688 -0.0445  0.3584
 5071SOL    HW126672   2.321   0.470  14.026  1.6866 -0.5604  1.4153
 5071SOL    HW226673   2.373   0.611  14.023  1.7073 -0.2668  0.2054
 5072SOL     OW26674   4.119   0.283  12.165  0.6157 -0.2146 -0.2231
 5072SOL    HW126675   4.176   0.309  12.237  0.4427  1.6786 -0.7661
 5072SOL    HW226676   4.187   0.291  12.099  1.0658  0.5601  0.3320
 5073SOL     OW26677   0.440   4.204   5.424 -0.2008  0.0835 -0.4319
 5073SOL    HW126678   0.434   4.108   5.417  1.0363 -0.0769  0.6734
 5073SOL    HW226679   0.348   4.229   5.411 -0.9783 -2.0028  0.9827
 5074SOL     OW26680   2.812   0.306   7.499  0.3983 -0.3534  0.1953
 5074SOL    HW126681   2.775   0.254   7.428 -1.2103 -1.0289  1.5373
 5074SOL    HW226682   2.756   0.269   7.567 -0.9259 -2.0778 -1.8377
 5075SOL     OW26683   2.391   2.139   7.066  0.4132  1.0406 -0.8431
 5075SOL    HW126684   2.378   2.164   6.975 -0.9343 -0.2477 -1.0112
 5075SOL    HW226685   2.485   2.119   7.061  0.5606  1.0146  2.0587
 5076SOL     OW26686   4.463   1.872   7.746 -0.1581  0.2285 -0.2855
 5076SOL    HW126687   4.480   1.822   7.826  0.1837 -2.1049 -1.8335
 5076SOL    HW226688   4.382   1.921   7.763 -0.8495 -0.4137 -1.8170
 5077SOL     OW26689   3.953   3.582   4.545  0.1875 -0.0303  0.0641
 5077SOL    HW126690   4.039   3.624   4.544 -0.4772  1.3120 -0.8249
 5077SOL    HW226691   3.947   3.541   4.631 -2.6059 -0.0935 -0.1553
 5078SOL     OW26692   3.785   2.270   5.452 -0.2539  0.0057  0.2271
 5078SOL    HW126693   3.787   2.358   5.413 -1.2516 -0.1009 -0.0501
 5078SOL    HW226694   3.819   2.281   5.541  0.9290 -0.6003 -0.1569
 5079SOL     OW26695   1.098   0.888  13.107 -0.3256 -0.4079 -0.2676
 5079SOL    HW126696   1.029   0.824  13.127 -0.4228 -0.1097  0.3728
 5079SOL    HW226697   1.149   0.844  13.039  0.4521 -2.2097  1.4943
 5080SOL     OW26698   1.783   4.606   5.862 -0.0252  0.2278 -0.0183
 5080SOL    HW126699   1.687   4.607   5.871  0.0850  0.8972  1.0882
 5080SOL    HW226700   1.799   4.519   5.825 -3.6368 -0.3408 -0.2373
 5081SOL     OW26701   2.392   0.472   6.627 -0.2727  0.1483 -0.1358
 5081SOL    HW126702   2.304   0.466   6.589 -0.1399  2.7449 -0.8403
 5081SOL    HW226703   2.442   0.489   6.548 -0.4324 -2.4951 -0.8076
 5082SOL     OW26704   2.229   0.832   9.907 -0.2359 -0.2300  0.4135
 5082SOL    HW126705   2.151   0.811   9.856 -1.5565  2.8306  1.1756
 5082SOL    HW226706   2.213   0.783   9.988  0.0374 -0.1588  0.5093
 5083SOL     OW26707   1.360   0.215  14.072 -0.4780  0.2420  0.2752
 5083SOL    HW126708   1.312   0.151  14.124  1.0128 -1.6539 -0.6761
 5083SOL    HW226709   1.415   0.245  14.143 -1.7404  2.3450  0.3754
 5084SOL     OW26710   2.376   1.783  12.290  0.8822 -0.0896 -0.1430
 5084SOL    HW126711   2.421   1.867  12.298  0.7023  0.0896 -1.0384
 5084SOL    HW226712   2.296   1.816  12.249 -0.5564 -1.4314  1.5814
 5085SOL     OW26713   3.336   2.578   1.023  0.2972  0.1758  0.4882
 5085SOL    HW126714   3.372   2.516   0.960  0.7332  1.4042 -0.4840
 5085SOL    HW226715   3.271   2.527   1.072 -0.9613 -0.4536 -1.8237
 5086SOL     OW26716   3.737   3.906   7.877 -0.5773  0.3467 -0.0635
 5086SOL    HW126717   3.673   3.891   7.806  0.0214 -1.9636 -0.1360
 5086SOL    HW226718   3.718   3.999   7.879 -0.1345  0.4047  1.2433
 5087SOL     OW26719   1.657   0.418   8.314 -0.1314  0.2135 -0.0197
 5087SOL    HW126720   1.588   0.457   8.261  1.1939  1.2458 -0.9723
 5087SOL    HW226721   1.640   0.326   8.293 -1.0821  0.7100 -1.4535
 5088SOL     OW26722   2.745   1.206   5.300 -0.3549 -0.0235 -0.0515
 5088SOL    HW126723   2.676   1.248   5.353 -0.3866  0.6732 -0.6370
 5088SOL    HW226724   2.718   1.115   5.305  1.3832 -0.4717  1.1144
 5089SOL     OW26725   3.266   4.132  11.061  0.0690 -0.2934 -0.2577
 5089SOL    HW126726   3.354   4.117  11.095 -0.3002 -1.1240  0.3180
 5089SOL    HW226727   3.276   4.079  10.982  1.3025 -2.5618  1.4209
 5090SOL     OW26728   3.324   1.883   8.387  0.1374 -0.4567  0.1144
 5090SOL    HW126729   3.245   1.841   8.421  1.2367 -0.4359  2.6768
 5090SOL    HW226730   3.286   1.945   8.325  0.5575  0.7859  1.1113
 5091SOL     OW26731   1.278   3.512   4.257 -0.3209  0.6419  0.2388
 5091SOL    HW126732   1.354   3.455   4.274 -0.2945 -0.0185 -2.1317
 5091SOL    HW226733   1.234   3.506   4.342 -0.9169  0.9793 -0.0480
 5092SOL     OW26734   0.261   4.157   3.278  0.6499  0.4613 -0.1422
 5092SOL    HW126735   0.316   4.132   3.352  0.2438  0.8850  0.3041
 5092SOL    HW226736   0.298   4.240   3.247 -2.1234  1.3897 -0.9729
 5093SOL     OW26737   1.855   0.508   3.940  0.8111 -0.4293 -0.2985
 5093SOL    HW126738   1.813   0.439   3.890  0.0607  1.2602 -1.9870
 5093SOL    HW226739   1.886   0.570   3.874  2.2555  0.1308  0.9073
 5094SOL     OW26740   0.362   1.379   2.801 -0.1090 -0.4320  0.1657
 5094SOL    HW126741   0.360   1.295   2.847 -1.1696 -0.1733  0.5899
 5094SOL    HW226742   0.450   1.371   2.766 -0.1469 -1.8386  0.3749
 5095SOL     OW26743   0.168   2.927   6.199 -0.0771  0.2467  1.0503
 5095SOL    HW126744   0.143   2.910   6.290  0.2059  2.1050  1.4795
 5095SOL    HW226745   0.089   2.963   6.158  0.7549  1.5097  0.5455
 5096SOL     OW26746   3.582   2.225   7.241 -0.1023  0.3895 -0.1237
 5096SOL    HW126747   3.645   2.153   7.244  1.1806  1.4037 -2.1599
 5096SOL    HW226748   3.569   2.256   7.331  3.9962 -0.6322  0.8194
 5097SOL     OW26749   3.630   2.455   4.698  0.4818 -0.2683 -0.0411
 5097SOL    HW126750   3.553   2.440   4.754  0.4664  1.7442  0.4613
 5097SOL    HW226751   3.690   2.421   4.765  2.8579 -0.8539 -2.4833
 5098SOL     OW26752   1.718   1.683  13.653 -0.2210 -0.0905 -0.0302
 5098SOL    HW126753   1.768   1.739  13.713 -1.8917  0.8116  0.5094
 5098SOL    HW226754   1.698   1.603  13.701  0.5819 -1.5206 -2.0524
 5099SOL     OW26755   3.180   3.314   1.827 -0.3686  0.1650  0.5760
 5099SOL    HW126756   3.197   3.253   1.899 -2.0863  0.4253  1.2047
 5099SOL    HW226757   3.234   3.391   1.847 -1.0384  0.8788 -0.3346
 5100SOL     OW26758   2.001   2.706   9.534  0.2157  0.1502  0.0804
 5100SOL    HW126759   2.087   2.691   9.572  1.2286  2.4381 -1.3347
 5100SOL    HW226760   1.968   2.775   9.592 -2.5294 -0.9494 -0.1734
 5101SOL     OW26761   3.130   1.669   6.697 -0.7342 -0.2107  0.0355
 5101SOL    HW126762   3.170   1.727   6.762 -0.9521  0.2268 -0.2227
 5101SOL    HW226763   3.044   1.707   6.679 -0.9500 -1.0984 -0.7819
 5102SOL     OW26764   1.497   2.148   6.568  0.4144 -0.5069  0.1577
 5102SOL    HW126765   1.472   2.210   6.499 -0.1074 -0.7721  0.1038
 5102SOL    HW226766   1.424   2.087   6.557  0.3405 -0.5137  0.6961
 5103SOL     OW26767   4.158   4.351   7.271 -0.5093 -0.0281 -0.2511
 5103SOL    HW126768   4.197   4.346   7.358  0.4427  0.9755 -0.6209
 5103SOL    HW226769   4.107   4.429   7.251 -1.8725 -0.7748  0.3693
 5104SOL     OW26770   3.745   3.442  15.340 -0.3056  0.2745  0.4134
 5104SOL    HW126771   3.761   3.515  15.280  0.0967  1.2164  1.6711
 5104SOL    HW226772   3.775   3.361  15.297  1.8820  1.4231 -0.2306
 5105SOL     OW26773   0.034   2.942   7.374 -0.0583  0.4346  0.0846
 5105SOL    HW126774   4.672   2.980   7.380 -0.3602 -0.0840 -0.9352
 5105SOL    HW226775   0.078   3.022   7.346  0.6105  0.5285  1.4434
 5106SOL     OW26776   3.668   0.751   6.890 -0.3895  0.4108  0.0762
 5106SOL    HW126777   3.613   0.701   6.829 -0.5766  1.9032 -0.9922
 5106SOL    HW226778   3.700   0.822   6.834  0.9006 -0.6427 -0.5544
 5107SOL     OW26779   3.339   2.880   3.575 -0.2789 -0.6044 -0.2468
 5107SOL    HW126780   3.319   2.791   3.546  0.8594 -1.0491  0.3350
 5107SOL    HW226781   3.426   2.906   3.545 -0.6779 -0.3591 -1.1990
 5108SOL     OW26782   2.500   4.081   6.176 -0.0626 -0.3820  1.0561
 5108SOL    HW126783   2.575   4.120   6.130  0.3370 -1.3153  0.9138
 5108SOL    HW226784   2.482   4.143   6.247  0.7459  0.7554  0.2879
 5109SOL     OW26785   1.760   4.566   6.698  0.1650 -0.3805  0.1145
 5109SOL    HW126786   1.853   4.551   6.682  0.5006  1.1998  0.5497
 5109SOL    HW226787   1.758   4.575   6.793  2.2234  0.3288  0.0984
 5110SOL     OW26788   2.830   1.231   0.197  0.6028 -0.2346  0.1009
 5110SOL    HW126789   2.858   1.292   0.266  1.4857  0.8356 -1.2175
 5110SOL    HW226790   2.909   1.178   0.194 -0.0749 -1.2132 -0.4708
 5111SOL     OW26791   2.611   3.656   9.522 -0.4910  0.2987  0.4496
 5111SOL    HW126792   2.568   3.704   9.451 -2.1519 -0.9506  0.6060
 5111SOL    HW226793   2.532   3.632   9.570  0.1940 -0.0138  1.4133
 5112SOL     OW26794   3.619   0.119  11.290 -0.4240  0.1249 -0.4720
 5112SOL    HW126795   3.606   0.067  11.369 -0.0447  0.3521 -0.2604
 5112SOL    HW226796   3.583   0.069  11.217  1.8653  0.6431 -1.9524
 5113SOL     OW26797   1.631   3.859  16.203  0.3683  0.7374 -0.1574
 5113SOL    HW126798   1.551   3.865  16.255  2.2961  1.7940  2.7657
 5113SOL    HW226799   1.654   3.952  16.197 -0.8060  1.0457  0.1169
 5114SOL     OW26800   4.628   1.260  15.929 -0.3226 -0.3398  0.4727
 5114SOL    HW126801   4.680   1.220  15.998 -0.5643  0.1150  0.9224
 5114SOL    HW226802   4.621   1.353  15.948 -2.4787 -0.5648  0.7938
 5115SOL     OW26803   0.819   3.427   8.861 -0.1222  0.4466  0.3576
 5115SOL    HW126804   0.876   3.503   8.849 -0.9922  1.3682  2.1258
 5115SOL    HW226805   0.756   3.462   8.924 -2.2466  1.1092 -2.1456
 5116SOL     OW26806   1.127   3.782   5.391 -0.0998  0.5426 -0.1766
 5116SOL    HW126807   1.093   3.702   5.351  1.0851 -0.2095  0.3355
 5116SOL    HW226808   1.221   3.779   5.375 -0.5201 -0.3834 -2.5103
 5117SOL     OW26809   1.267   1.440  13.787 -0.0679  0.1636 -0.1077
 5117SOL    HW126810   1.341   1.397  13.746  0.4247 -1.5077  2.5327
 5117SOL    HW226811   1.195   1.442  13.724  0.4849 -0.6332 -0.7661
 5118SOL     OW26812   2.377   4.363   7.834  0.0095  0.0493  0.1057
 5118SOL    HW126813   2.427   4.284   7.814 -3.7785 -2.0550 -1.0431
 5118SOL    HW226814   2.432   4.429   7.791 -0.6142  1.0657  0.8809
 5119SOL     OW26815   1.970   2.488  14.539  0.3668  0.0236  0.3022
 5119SOL    HW126816   1.973   2.574  14.582 -1.3733  1.0268 -1.6125
 5119SOL    HW226817   2.058   2.483  14.502 -1.8729  1.5058 -5.0968
 5120SOL     OW26818   3.350   1.232   2.958 -0.1470 -0.4132  0.1121
 5120SOL    HW126819   3.348   1.232   2.862  1.5913 -2.1124  0.0648
 5120SOL    HW226820   3.287   1.301   2.978  1.6574  0.6397  2.1681
 5121SOL     OW26821   3.815   0.809  15.947  0.3140 -0.8784 -0.3179
 5121SOL    HW126822   3.784   0.837  16.033 -0.4109  0.6010 -1.0571
 5121SOL    HW226823   3.818   0.889  15.894  1.7040 -0.5849  0.2271
 5122SOL     OW26824   2.280   1.163   5.598 -0.0590 -0.3548  0.7214
 5122SOL    HW126825   2.230   1.195   5.673 -0.7026 -0.0195  0.1484
 5122SOL    HW226826   2.296   1.246   5.553  1.6085  0.4628  2.8315
 5123SOL     OW26827   4.516   4.669  15.786  0.0007 -0.3044 -0.2048
 5123SOL    HW126828   4.539   4.708  15.871  0.9888 -1.8373  0.2244
 5123SOL    HW226829   4.597   4.620  15.774  0.6332  1.0654 -1.5820
 5124SOL     OW26830   1.490   2.662   7.449 -0.0667 -0.1914 -0.1655
 5124SOL    HW126831   1.457   2.701   7.530  0.3778  0.4599 -0.2984
 5124SOL    HW226832   1.564   2.603   7.466  1.3638  1.3766 -0.9899
 5125SOL     OW26833   2.675   1.821   5.929 -0.1372  0.0312  0.0399
 5125SOL    HW126834   2.731   1.867   5.865  0.4356 -0.4693  0.1779
 5125SOL    HW226835   2.735   1.789   5.997 -1.1991 -1.6553  0.1751
 5126SOL     OW26836   1.826   2.737  10.907 -0.3283 -0.4344 -0.4457
 5126SOL    HW126837   1.753   2.795  10.883 -1.1603 -0.5692  1.7142
 5126SOL    HW226838   1.856   2.720  10.818 -2.1548 -0.5672 -1.0329
 5127SOL     OW26839   3.765   1.507  13.546 -0.0962 -0.2270 -0.4381
 5127SOL    HW126840   3.792   1.597  13.527 -0.3055  0.4024  2.2239
 5127SOL    HW226841   3.847   1.466  13.574 -1.3219 -2.1028  0.4259
 5128SOL     OW26842   3.588   0.058  10.918  0.3495 -0.0645  0.0215
 5128SOL    HW126843   3.590   0.060  10.823  1.0026 -0.3084  0.0313
 5128SOL    HW226844   3.652   0.125  10.942  0.3634 -0.1406  0.2047
 5129SOL     OW26845   1.204   0.835   7.563  0.7403  0.4259  0.1829
 5129SOL    HW126846   1.177   0.812   7.474 -4.3606 -0.1577  1.9075
 5129SOL    HW226847   1.281   0.783   7.585 -0.0972 -0.7583  0.2999
 5130SOL     OW26848   1.360   0.635   4.569  0.5252 -0.3595 -0.0395
 5130SOL    HW126849   1.268   0.653   4.550  0.3775 -0.1894  0.8354
 5130SOL    HW226850   1.398   0.634   4.481 -1.8233  0.8847 -1.0683
 5131SOL     OW26851   3.101   3.871   0.699 -1.2916  0.0290  0.7981
 5131SOL    HW126852   3.175   3.859   0.757  0.6730  0.6400 -1.5666
 5131SOL    HW226853   3.042   3.804   0.732 -0.6302 -1.4899 -1.0784
 5132SOL     OW26854   2.463   3.161   1.070  0.0873 -0.1273  0.6012
 5132SOL    HW126855   2.378   3.204   1.073  0.3936  0.4589  0.9486
 5132SOL    HW226856   2.473   3.138   1.163 -0.0827 -1.5792  0.2569
 5133SOL     OW26857   0.182   0.595   3.364 -0.5933  0.1558 -0.0505
 5133SOL    HW126858   0.258   0.649   3.386  0.9171 -2.5894  1.4800
 5133SOL    HW226859   0.187   0.521   3.425 -0.9102  0.0289 -0.1777
 5134SOL     OW26860   2.332   1.226  14.180  0.1965 -0.2224  0.0467
 5134SOL    HW126861   2.366   1.175  14.107 -1.0167 -1.5897  0.4393
 5134SOL    HW226862   2.308   1.163  14.248 -1.5894  0.4966  0.0986
 5135SOL     OW26863   3.704   2.961   5.899 -0.5018  0.0762  0.0737
 5135SOL    HW126864   3.781   2.929   5.853 -0.9899  0.6224 -1.1016
 5135SOL    HW226865   3.735   3.001   5.981  0.0193 -0.3947  0.1086
 5136SOL     OW26866   3.329   3.513   7.139 -0.1749  0.1654  0.0030
 5136SOL    HW126867   3.269   3.557   7.199  0.7436 -0.1909  1.2005
 5136SOL    HW226868   3.327   3.427   7.182 -0.0649  1.2496  2.1614
 5137SOL     OW26869   0.941   1.079   8.811  0.1427  0.1912  0.4555
 5137SOL    HW126870   0.912   1.114   8.727  1.0735 -1.5284 -0.5842
 5137SOL    HW226871   0.898   0.993   8.815 -1.7042  1.0983  0.4554
 5138SOL     OW26872   1.610   2.731   4.905 -0.0456  0.1342  0.5384
 5138SOL    HW126873   1.588   2.779   4.984  1.2824 -2.0434  2.2285
 5138SOL    HW226874   1.616   2.793   4.832  0.6090  0.2770  0.7171
 5139SOL     OW26875   1.519   2.271  13.724 -0.3634  0.4537  0.0644
 5139SOL    HW126876   1.468   2.191  13.738 -1.5919  1.1797 -0.2573
 5139SOL    HW226877   1.591   2.234  13.674 -0.1247  0.2559  0.5518
 5140SOL     OW26878   0.607   1.915   2.975  0.1152 -0.6691  0.3007
 5140SOL    HW126879   0.643   1.987   3.026 -0.2773  1.3252 -2.2793
 5140SOL    HW226880   0.567   1.957   2.899 -2.1665  0.7077  2.2851
 5141SOL     OW26881   2.197   3.073   6.148 -0.0205 -0.6622 -0.3756
 5141SOL    HW126882   2.270   3.134   6.157 -0.0195 -0.7173 -0.0066
 5141SOL    HW226883   2.243   3.005   6.099 -0.0197 -0.0638 -1.1950
 5142SOL     OW26884   0.066   2.388   0.094  0.1901 -0.2457  0.2444
 5142SOL    HW126885   4.716   2.392   0.154 -1.6441  1.2509 -2.1594
 5142SOL    HW226886   0.123   2.325   0.140  1.7240  0.9414 -0.0394
 5143SOL     OW26887   2.972   0.178  14.528 -0.3164 -0.8225  0.1657
 5143SOL    HW126888   2.899   0.234  14.498  0.2400 -0.6434 -0.8536
 5143SOL    HW226889   2.990   0.225  14.609 -1.8960  0.9396 -0.4943
 5144SOL     OW26890   1.080   0.547   7.600  0.0513 -0.1911  0.0031
 5144SOL    HW126891   1.175   0.560   7.609  0.5970 -1.8637 -3.1792
 5144SOL    HW226892   1.057   0.622   7.654  0.4501 -0.1322  0.0939
 5145SOL     OW26893   3.383   1.211   4.381  0.1231 -0.0778 -0.3689
 5145SOL    HW126894   3.435   1.291   4.376 -0.8247  0.5269 -0.6058
 5145SOL    HW226895   3.333   1.239   4.457 -2.4227  0.7052 -2.3147
 5146SOL     OW26896   3.124   2.013   7.173  0.1510  0.2951 -0.0512
 5146SOL    HW126897   3.132   1.958   7.251  0.8555  0.1281 -0.2390
 5146SOL    HW226898   3.164   2.090   7.214 -0.4352  1.1534 -1.0974
 5147SOL     OW26899   0.774   0.905  13.756  0.2585  0.1570 -0.0379
 5147SOL    HW126900   0.726   0.983  13.783  1.8783  1.2085 -0.2034
 5147SOL    HW226901   0.710   0.875  13.691  1.5457  2.2563 -2.2786
 5148SOL     OW26902   0.303   0.467  15.915 -0.3111  0.5713  0.1474
 5148SOL    HW126903   0.340   0.512  15.839  0.2689 -2.0440 -1.1335
 5148SOL    HW226904   0.211   0.492  15.909 -0.5894 -0.1971  1.0989
 5149SOL     OW26905   3.480   1.594  12.276 -0.0996 -0.2583 -0.6361
 5149SOL    HW126906   3.551   1.530  12.272  0.7388  0.6205  0.3695
 5149SOL    HW226907   3.422   1.552  12.339  1.9289 -2.0721  0.0359
 5150SOL     OW26908   2.454   3.913   0.022 -0.3725  0.6530 -0.0585
 5150SOL    HW126909   2.404   3.860   0.083 -3.2238  0.9101 -2.2037
 5150SOL    HW226910   2.541   3.876   0.040  0.3205  1.4995 -1.6476
 5151SOL     OW26911   3.644   2.390  14.769  0.0134 -0.2433 -0.8858
 5151SOL    HW126912   3.721   2.336  14.751  0.9277  0.1730  1.6865
 5151SOL    HW226913   3.590   2.346  14.834  0.9792  3.7702  2.6822
 5152SOL     OW26914   3.990   2.074  11.981 -0.2521 -0.0851  0.0710
 5152SOL    HW126915   3.903   2.105  12.007 -0.6389 -0.0547 -1.2575
 5152SOL    HW226916   4.023   2.133  11.914 -0.7917  1.0087  0.7755
 5153SOL     OW26917   3.521   3.709   6.846  0.2532  0.4303  0.1535
 5153SOL    HW126918   3.575   3.693   6.923 -0.6818 -0.2074  0.6798
 5153SOL    HW226919   3.505   3.620   6.813  1.0643  0.9992 -1.7836
 5154SOL     OW26920   3.594   0.149   4.652 -0.0118 -0.4174  0.1335
 5154SOL    HW126921   3.585   0.154   4.557  0.7221  2.7736  0.2391
 5154SOL    HW226922   3.665   0.211   4.667 -0.3369  0.1634 -0.7649
 5155SOL     OW26923   4.363   3.133  15.922  0.1108 -0.4700 -0.1035
 5155SOL    HW126924   4.451   3.166  15.902 -0.4494  0.0471 -1.6784
 5155SOL    HW226925   4.315   3.199  15.871  0.4963  0.2021  0.4003
 5156SOL     OW26926   0.690   0.506   4.539 -0.1912 -0.5211  0.2742
 5156SOL    HW126927   0.615   0.494   4.481 -0.1079 -2.0120  0.4770
 5156SOL    HW226928   0.758   0.470   4.483  1.0637  1.8953  0.2662
 5157SOL     OW26929   4.095   2.364   8.281  0.2520  0.0081 -0.2569
 5157SOL    HW126930   4.140   2.280   8.286 -0.0226 -0.1177  0.1717
 5157SOL    HW226931   4.152   2.418   8.226 -0.9247  2.0975  0.5476
 5158SOL     OW26932   0.872   0.013   6.349 -0.2062  0.6133 -0.1349
 5158SOL    HW126933   0.842   4.647   6.353 -0.1372  0.6264  0.5509
 5158SOL    HW226934   0.823   0.053   6.420 -0.0275 -0.9677  0.8550
 5159SOL     OW26935   2.363   0.686   2.114 -0.1919 -0.1254 -0.2263
 5159SOL    HW126936   2.406   0.626   2.052  4.0609  0.2725  2.3639
 5159SOL    HW226937   2.270   0.667   2.102  0.3906 -1.8447 -1.9810
 5160SOL     OW26938   1.660   0.165   8.223  0.4022 -0.0808 -0.3124
 5160SOL    HW126939   1.755   0.152   8.220  0.1044 -1.6449 -3.1809
 5160SOL    HW226940   1.624   0.080   8.248  1.3077 -0.2337  0.4567
 5161SOL     OW26941   2.331   0.679  10.723  0.1196 -0.0792  0.0146
 5161SOL    HW126942   2.251   0.716  10.760  0.1656  2.0229 -2.0119
 5161SOL    HW226943   2.364   0.624  10.794  0.6204 -0.8259 -0.7995
 5162SOL     OW26944   4.278   0.073   3.595  0.1537  0.2075 -0.4143
 5162SOL    HW126945   4.209   0.063   3.531 -1.2768  1.7933  0.8895
 5162SOL    HW226946   4.239   0.135   3.657 -1.2003 -1.3508  0.2807
 5163SOL     OW26947   1.593   3.171   2.430 -0.1506 -0.2120 -0.1103
 5163SOL    HW126948   1.671   3.226   2.438 -1.5360  1.3195  2.9049
 5163SOL    HW226949   1.592   3.177   2.334  3.4984  0.5991 -0.0713
 5164SOL     OW26950   4.042   3.341  10.024 -0.1178 -0.1621 -0.3070
 5164SOL    HW126951   4.070   3.328  10.114  0.5824 -2.3489 -0.8288
 5164SOL    HW226952   4.045   3.436  10.012  1.5810 -0.3824 -1.6653
 5165SOL     OW26953   1.528   3.528   7.790  0.2430 -0.0280 -0.1202
 5165SOL    HW126954   1.542   3.551   7.698  0.3150  0.9538  0.1341
 5165SOL    HW226955   1.488   3.601   7.837 -2.1274 -1.5952  0.3024
 5166SOL     OW26956   1.953   1.402   3.787 -0.2019 -0.0039  0.0037
 5166SOL    HW126957   2.031   1.372   3.740 -1.6243  1.0162 -3.0350
 5166SOL    HW226958   1.988   1.423   3.873 -0.9959  1.1265  0.0512
 5167SOL     OW26959   4.009   4.234  11.791  0.3373 -0.4268  0.0159
 5167SOL    HW126960   4.084   4.203  11.841  2.0402  0.8968 -1.7083
 5167SOL    HW226961   4.047   4.316  11.758  0.3181  0.3737  2.0001
 5168SOL     OW26962   0.112   2.367   0.447 -0.1609 -0.1558 -0.3166
 5168SOL    HW126963   0.028   2.363   0.402  1.9161  2.3225 -4.4611
 5168SOL    HW226964   0.156   2.290   0.410 -1.2026 -0.2444 -1.3555
 5169SOL     OW26965   2.532   0.152   5.593 -0.7015  0.4241 -0.4503
 5169SOL    HW126966   2.514   0.139   5.500  0.7319  0.9306 -0.7911
 5169SOL    HW226967   2.627   0.164   5.591 -0.8144  1.1389 -1.7181
 5170SOL     OW26968   0.810   1.021   3.604 -0.3191  0.1135 -0.3882
 5170SOL    HW126969   0.777   1.090   3.546 -0.0568  1.2357  0.7834
 5170SOL    HW226970   0.873   1.072   3.655  0.1341 -1.7767  0.9355
 5171SOL     OW26971   2.772   0.408  11.237  0.0828  1.1615  0.1924
 5171SOL    HW126972   2.755   0.468  11.309  1.6975 -0.0365  1.5590
 5171SOL    HW226973   2.705   0.446  11.180 -0.6741 -1.2228 -0.5031
 5172SOL     OW26974   1.936   4.152  13.506  0.3792 -0.0237  0.3331
 5172SOL    HW126975   1.929   4.093  13.431  1.2552 -0.0620  0.2858
 5172SOL    HW226976   2.010   4.206  13.479 -0.1034  1.0483  1.1424
 5173SOL     OW26977   0.016   2.522   2.227 -0.0644  0.1641  0.0992
 5173SOL    HW126978   0.026   2.524   2.132  0.2415 -0.8751  0.1125
 5173SOL    HW226979   4.679   2.594   2.237  0.7590  0.7837  0.8483
 5174SOL     OW26980   0.716   1.313  17.223 -0.3382  0.9571 -0.1880
 5174SOL    HW126981   0.750   1.393  17.184 -1.5467  1.7279  0.3594
 5174SOL    HW226982   0.624   1.318  17.196 -1.3236 -0.3008  2.9747
 5175SOL     OW26983   4.644   1.251   4.612 -0.6483  0.0456 -0.4707
 5175SOL    HW126984   4.711   1.319   4.602 -0.8828  0.1887 -1.0439
 5175SOL    HW226985   4.665   1.181   4.551  1.5496 -0.5118  0.9244
 5176SOL     OW26986   2.995   0.520   3.002 -0.1628 -0.1295 -0.1941
 5176SOL    HW126987   2.942   0.598   3.020 -0.4208 -0.1136 -1.0110
 5176SOL    HW226988   2.965   0.462   3.072  0.1066  0.0705  0.0867
 5177SOL     OW26989   0.265   3.464   1.005  0.1313  0.0842 -0.1220
 5177SOL    HW126990   0.351   3.429   0.984 -0.7678 -1.4244 -1.2420
 5177SOL    HW226991   0.209   3.387   0.996 -1.8108  1.8411 -3.3135
 5178SOL     OW26992   1.716   0.200   6.987  0.4096  0.2342 -0.4084
 5178SOL    HW126993   1.686   0.114   6.959  0.7690 -0.3776  1.1162
 5178SOL    HW226994   1.628   0.238   6.993  0.4109  0.4684 -1.7550
 5179SOL     OW26995   0.329   0.172   5.944 -0.2750  0.0165 -0.0755
 5179SOL    HW126996   0.334   0.266   5.925  0.6109  0.5341  2.6189
 5179SOL    HW226997   0.368   0.142   5.862  1.2025 -0.1304  0.6623
 5180SOL     OW26998   2.901   0.261   4.009  0.0115  0.1652  0.6095
 5180SOL    HW126999   2.959   0.196   3.970 -4.2143 -1.2311 -3.3054
 5180SOL    HW227000   2.969   0.329   4.014 -0.1284  0.5938 -3.1762
 5181SOL     OW27001   4.693   2.064   3.220 -0.3943  0.1563  0.2052
 5181SOL    HW127002   4.656   2.127   3.158 -1.0367  0.1844  0.6090
 5181SOL    HW227003   0.010   2.126   3.279  2.6547 -1.9170  0.2170
 5182SOL     OW27004   3.475   3.913  12.009  0.3500  0.3224 -0.5031
 5182SOL    HW127005   3.468   4.003  11.976  0.0640  0.1308 -0.9731
 5182SOL    HW227006   3.394   3.875  11.975  0.3561  1.0573 -1.3568
 5183SOL     OW27007   2.555   2.518   8.499 -0.7443  1.1196 -0.3933
 5183SOL    HW127008   2.638   2.470   8.500 -0.4409  1.6808  0.5670
 5183SOL    HW227009   2.582   2.581   8.433 -2.4179  2.3482  0.1142
 5184SOL     OW27010   1.327   3.570   3.201  0.1487  0.4404 -0.2127
 5184SOL    HW127011   1.238   3.583   3.232  0.0625  0.3714 -0.4302
 5184SOL    HW227012   1.302   3.507   3.133  0.9005  1.4440 -1.4347
 5185SOL     OW27013   1.615   2.103   7.959 -0.1826  0.3906 -0.0208
 5185SOL    HW127014   1.688   2.044   7.978 -1.5906 -1.2713  0.2546
 5185SOL    HW227015   1.588   2.129   8.047 -1.6492 -1.7681  0.1849
 5186SOL     OW27016   3.840   2.621   2.350  0.0423  0.3620  0.0403
 5186SOL    HW127017   3.812   2.564   2.421  1.5311  0.8220  1.0043
 5186SOL    HW227018   3.927   2.641   2.386 -0.0611 -0.7105  0.8891
 5187SOL     OW27019   0.945   2.534   4.462  0.0436  0.4306  0.2093
 5187SOL    HW127020   0.868   2.482   4.481  0.5847 -0.0112  1.1643
 5187SOL    HW227021   0.962   2.580   4.544  1.4901  1.6714 -0.7678
 5188SOL     OW27022   2.637   2.783   3.611 -0.1600 -0.1885  0.2378
 5188SOL    HW127023   2.564   2.806   3.669  0.7801  1.1339  0.8692
 5188SOL    HW227024   2.598   2.709   3.564 -1.5511  0.5617  0.1984
 5189SOL     OW27025   0.502   4.285   5.936 -0.1496 -0.2466 -0.0665
 5189SOL    HW127026   0.550   4.315   6.014  1.5289  0.8888 -1.5461
 5189SOL    HW227027   0.564   4.267   5.865 -0.2716  0.3278 -0.3170
 5190SOL     OW27028   1.307   0.969   3.712 -0.3650 -0.1039  0.0569
 5190SOL    HW127029   1.306   1.042   3.774 -0.3359  0.8375 -1.0442
 5190SOL    HW227030   1.297   0.895   3.772  0.8601 -0.0099  0.3914
 5191SOL     OW27031   1.285   3.159   9.668 -0.0937  0.1826  0.5304
 5191SOL    HW127032   1.237   3.093   9.618  0.5840 -0.0758  0.2315
 5191SOL    HW227033   1.318   3.097   9.733  0.8373  0.0345 -0.0841
 5192SOL     OW27034   1.245   2.331   6.891 -0.1904  0.0220 -0.3112
 5192SOL    HW127035   1.284   2.249   6.920  0.4177  0.0988 -0.9136
 5192SOL    HW227036   1.293   2.339   6.809  0.0668  0.2467 -0.1426
 5193SOL     OW27037   3.902   1.402   6.908 -0.2921  0.3421 -0.3807
 5193SOL    HW127038   3.939   1.468   6.849 -2.6913  0.7271 -1.5011
 5193SOL    HW227039   3.867   1.452   6.981 -0.7715 -1.7031  0.7938
 5194SOL     OW27040   1.701   3.431   7.977 -0.7056  0.4318  0.4445
 5194SOL    HW127041   1.640   3.469   7.913 -0.2791 -2.3765 -1.6541
 5194SOL    HW227042   1.781   3.461   7.934 -1.3841 -0.1129 -1.1962
 5195SOL     OW27043   1.256   4.713  14.193  0.0057 -0.0988  0.1647
 5195SOL    HW127044   1.179   0.007  14.247 -0.4665  1.9899 -1.2366
 5195SOL    HW227045   1.281   4.630  14.233  1.9796  0.8480  0.8726
 5196SOL     OW27046   0.141   3.268  16.625 -0.4051  0.0203 -0.2378
 5196SOL    HW127047   0.156   3.334  16.557 -0.0894 -0.3066 -0.4880
 5196SOL    HW227048   0.060   3.297  16.666  0.8887  3.7101 -0.2156
 5197SOL     OW27049   2.571   0.882   4.874 -0.3269  0.0091 -0.2350
 5197SOL    HW127050   2.606   0.817   4.813  1.4438 -0.3808  1.2297
 5197SOL    HW227051   2.511   0.933   4.819 -1.4534 -1.8042 -0.7091
 5198SOL     OW27052   2.330   4.062   7.232 -0.6655  0.2467  0.0982
 5198SOL    HW127053   2.284   3.997   7.179  0.1640 -0.8129  0.6749
 5198SOL    HW227054   2.330   4.140   7.177 -1.3251  0.8079  0.8940
 5199SOL     OW27055   2.453   3.888   2.371  0.3899  0.0659  0.0093
 5199SOL    HW127056   2.362   3.885   2.399  0.7081  1.4462  1.1845
 5199SOL    HW227057   2.492   3.804   2.398  0.5051  0.5110  1.2327
 5200SOL     OW27058   4.714   3.668  17.385 -0.5473 -0.4456 -0.3504
 5200SOL    HW127059   0.030   3.622  17.458 -1.5521  0.7112  0.9528
 5200SOL    HW227060   0.026   3.617  17.314 -1.3882 -2.2208  0.4844
 5201SOL     OW27061   1.217   1.160   1.556  0.5163 -0.1822  0.5990
 5201SOL    HW127062   1.287   1.215   1.521 -0.1302 -0.2200 -0.7672
 5201SOL    HW227063   1.139   1.216   1.552  1.3622  0.9552  0.1181
 5202SOL     OW27064   0.971   4.250   5.900  0.0323  0.1812  0.2461
 5202SOL    HW127065   0.988   4.330   5.852 -0.9829  0.4564  0.3324
 5202SOL    HW227066   1.030   4.190   5.854 -0.3095 -2.0108  2.6175
 5203SOL     OW27067   1.728   3.165   7.891 -0.2877  0.0831 -0.6449
 5203SOL    HW127068   1.718   3.253   7.927  1.1777  0.2428 -0.6484
 5203SOL    HW227069   1.786   3.182   7.817 -0.9745 -0.3770 -1.2982
 5204SOL     OW27070   1.140   1.747   1.034 -0.8232  0.0329  0.0124
 5204SOL    HW127071   1.193   1.810   1.082 -2.5928  0.3789  1.4909
 5204SOL    HW227072   1.097   1.797   0.965 -0.0461  1.5334  0.6090
 5205SOL     OW27073   1.460   3.439  11.999 -0.9246  0.0101 -0.4125
 5205SOL    HW127074   1.408   3.482  12.066 -1.8096 -1.1759 -0.3475
 5205SOL    HW227075   1.413   3.355  11.999 -1.7712  0.4900 -1.7703
 5206SOL     OW27076   0.968   1.021   2.043 -0.0680 -0.0411 -0.1851
 5206SOL    HW127077   0.930   0.955   1.985  0.8433  1.9317 -3.0310
 5206SOL    HW227078   0.894   1.078   2.063 -1.2868 -2.4362  2.0476
 5207SOL     OW27079   1.400   3.279   7.680  0.9096  0.3750  0.2472
 5207SOL    HW127080   1.361   3.347   7.735 -1.0852  0.0715 -0.7744
 5207SOL    HW227081   1.479   3.264   7.731  1.4605 -0.0817 -0.7398
 5208SOL     OW27082   0.735   1.522   2.696  0.2937  0.1689 -0.1495
 5208SOL    HW127083   0.790   1.468   2.752  0.8370  1.9753  1.0444
 5208SOL    HW227084   0.693   1.568   2.768 -0.2733 -0.3461 -0.1477
 5209SOL     OW27085   1.767   1.028   6.262 -0.2031 -0.2999 -0.9183
 5209SOL    HW127086   1.809   0.953   6.306  0.8751  0.2696 -0.9912
 5209SOL    HW227087   1.678   1.031   6.297  0.6119 -0.2173  1.1704
 5210SOL     OW27088   2.343   4.690   2.131 -0.3044 -0.0274 -0.4978
 5210SOL    HW127089   2.372   0.008   2.212  0.6203 -0.3553 -0.6594
 5210SOL    HW227090   2.408   4.717   2.066  1.0385  1.0265  1.2587
 5211SOL     OW27091   2.763   3.890   0.330 -0.1333 -0.5238 -0.1711
 5211SOL    HW127092   2.708   3.843   0.393 -1.1661  0.2227 -0.5232
 5211SOL    HW227093   2.833   3.918   0.389  1.2181 -2.7104 -0.7298
 5212SOL     OW27094   1.312   3.112   2.221 -0.0531  0.3119 -0.1276
 5212SOL    HW127095   1.346   3.197   2.249  1.0450 -0.0814 -0.2317
 5212SOL    HW227096   1.387   3.068   2.180  0.1858  0.0895  0.5386
 5213SOL     OW27097   1.054   2.300   9.286 -0.2527 -0.0696 -0.1694
 5213SOL    HW127098   0.987   2.298   9.217  0.5528 -0.9252 -0.9284
 5213SOL    HW227099   1.122   2.357   9.251 -1.0938  0.8217 -0.3815
 5214SOL     OW27100   1.327   3.416  12.571 -0.0509 -0.1069  0.4282
 5214SOL    HW127101   1.240   3.454  12.586 -0.1471  0.7588 -2.2601
 5214SOL    HW227102   1.380   3.487  12.535  1.1079 -0.7272  0.9378
 5215SOL     OW27103   1.660   4.012   0.301 -0.1327  0.4934 -0.2698
 5215SOL    HW127104   1.589   3.976   0.354 -0.5465 -1.4553 -2.1726
 5215SOL    HW227105   1.737   4.005   0.358  1.5601 -0.1596 -2.6709
 5216SOL     OW27106   4.498   0.408   1.693 -0.6199 -0.0797  0.1260
 5216SOL    HW127107   4.479   0.471   1.623  1.4418  0.6644  0.2214
 5216SOL    HW227108   4.585   0.375   1.672  0.3744  1.2433  2.1897
 5217SOL     OW27109   3.782   2.368   3.793 -0.1884  0.1898  0.6525
 5217SOL    HW127110   3.780   2.287   3.845  0.1099  0.1821  0.6556
 5217SOL    HW227111   3.713   2.409   3.844 -2.4464 -3.2087  0.3585
 5218SOL     OW27112   1.813   0.050   7.900  0.1288 -0.3196  0.5611
 5218SOL    HW127113   1.750   0.065   7.829  0.7866  1.0612  0.2590
 5218SOL    HW227114   1.881   0.023   7.838  0.4595  1.1106  0.3009
 5219SOL     OW27115   0.634   2.786   8.039  0.3249  0.5111  0.5455
 5219SOL    HW127116   0.681   2.725   8.096  0.0438  0.0389  0.2700
 5219SOL    HW227117   0.661   2.758   7.952  1.8635  0.8918  0.8833
 5220SOL     OW27118   4.566   2.968  12.726  0.5424  0.2553 -0.3214
 5220SOL    HW127119   4.554   3.057  12.694 -0.0251  0.3545  0.1616
 5220SOL    HW227120   4.567   2.916  12.645  1.0380  0.4488 -0.4407
 5221SOL     OW27121   3.663   0.368   7.654 -0.2772  0.5377  0.5466
 5221SOL    HW127122   3.623   0.355   7.567 -2.2634 -1.1164  1.6930
 5221SOL    HW227123   3.627   0.453   7.679 -0.3128  1.2092 -1.7623
 5222SOL     OW27124   3.229   2.314   8.557 -0.0466  0.0579 -0.3815
 5222SOL    HW127125   3.224   2.221   8.578 -0.1812  0.1294 -0.1000
 5222SOL    HW227126   3.161   2.316   8.490 -0.8298  4.1270  0.5294
 5223SOL     OW27127   1.225   1.822   6.076 -0.4121 -0.2363 -0.6543
 5223SOL    HW127128   1.233   1.749   6.138 -0.9713 -1.5829 -2.1916
 5223SOL    HW227129   1.300   1.790   6.026  0.8027 -1.2091  1.7787
 5224SOL     OW27130   3.593   1.669   4.511 -0.7586  0.1617 -0.4705
 5224SOL    HW127131   3.645   1.616   4.572 -0.2968 -2.4852 -3.1707
 5224SOL    HW227132   3.642   1.674   4.430  0.9424  0.8968  0.6150
 5225SOL     OW27133   3.156   3.933  17.596 -0.1056  0.4432 -0.4167
 5225SOL    HW127134   3.209   3.930  17.517  0.1931 -2.0029 -0.1219
 5225SOL    HW227135   3.136   4.026  17.604 -0.1688  0.7477 -4.4651
 5226SOL     OW27136   4.558   0.939   5.418 -0.5844  0.2958  0.1835
 5226SOL    HW127137   4.521   0.893   5.494 -1.4390  0.7634  0.0411
 5226SOL    HW227138   4.585   0.862   5.367  1.2279 -0.0588  1.6499
 5227SOL     OW27139   3.246   3.664  12.489  0.0564  0.1988  0.0804
 5227SOL    HW127140   3.317   3.714  12.448 -0.0843  0.3374  0.0052
 5227SOL    HW227141   3.173   3.725  12.476  0.8837  0.9800 -0.8395
 5228SOL     OW27142   3.032   2.703   9.832  0.1188 -0.0645  0.4713
 5228SOL    HW127143   3.000   2.793   9.839 -0.2801 -0.0071 -2.1301
 5228SOL    HW227144   3.062   2.695   9.923 -0.5766 -0.0454  0.7051
 5229SOL     OW27145   4.414   0.270   4.356  0.4880  0.1955  0.3597
 5229SOL    HW127146   4.357   0.272   4.432  1.3330 -0.0447  0.9899
 5229SOL    HW227147   4.492   0.306   4.398  0.8343  0.4603 -0.4885
 5230SOL     OW27148   0.496   3.659   7.035 -0.2339  0.1854  0.5343
 5230SOL    HW127149   0.499   3.564   7.025 -3.5555  0.0006  1.2047
 5230SOL    HW227150   0.522   3.670   7.126 -1.0643  3.8706  0.3463
 5231SOL     OW27151   0.874   3.062   7.544 -0.3906  0.0558 -0.0685
 5231SOL    HW127152   0.791   3.018   7.566  0.5770 -1.8446 -0.2630
 5231SOL    HW227153   0.919   2.999   7.487 -2.8943 -1.9251  0.1023
 5232SOL     OW27154   4.162   0.351   1.576  0.2598  0.4329 -0.0941
 5232SOL    HW127155   4.103   0.278   1.556 -1.9079  2.5477 -1.4600
 5232SOL    HW227156   4.195   0.377   1.490  1.4134  1.7149  0.7449
 5233SOL     OW27157   0.153   0.348  14.931 -0.2786 -0.9148 -0.3308
 5233SOL    HW127158   0.112   0.403  14.865  1.1812  2.4679  1.5801
 5233SOL    HW227159   0.245   0.376  14.934 -0.0458 -1.5424 -1.7067
 5234SOL     OW27160   0.014   0.856  13.745 -0.1471 -0.5211  0.6785
 5234SOL    HW127161   4.717   0.764  13.731 -0.9736 -0.2457  0.1614
 5234SOL    HW227162   4.708   0.908  13.670 -0.6484 -2.3529 -0.3902
 5235SOL     OW27163   1.717   3.623   4.287 -0.0230  0.2771 -0.1130
 5235SOL    HW127164   1.777   3.634   4.361 -1.1573  1.0640  0.6924
 5235SOL    HW227165   1.731   3.713   4.260 -0.4429  0.2131 -0.5502
 5236SOL     OW27166   2.685   0.829   9.034 -0.2385 -0.3806  0.2160
 5236SOL    HW127167   2.696   0.741   9.000  0.3926  0.5554 -2.0250
 5236SOL    HW227168   2.725   0.818   9.120  1.1469 -1.0787 -0.5306
 5237SOL     OW27169   1.283   2.060   2.235 -0.0501 -0.0849 -0.0480
 5237SOL    HW127170   1.295   1.997   2.164 -0.2960 -0.1228 -0.0571
 5237SOL    HW227171   1.211   2.112   2.200 -1.5364 -1.9972  0.0978
 5238SOL     OW27172   0.708   3.433   3.116 -0.4710 -0.2859  0.3038
 5238SOL    HW127173   0.657   3.486   3.054  1.4796 -0.0104 -1.0685
 5238SOL    HW227174   0.800   3.456   3.098  0.4164 -2.6292  1.9504
 5239SOL     OW27175   0.896   2.284   4.191 -0.0254 -0.4594 -0.0341
 5239SOL    HW127176   0.820   2.242   4.230 -1.0669  2.6844  1.2992
 5239SOL    HW227177   0.956   2.289   4.266 -1.4835  2.2721  0.9147
 5240SOL     OW27178   2.039   0.755   6.562 -0.2520 -0.1272 -0.1122
 5240SOL    HW127179   2.129   0.762   6.594 -0.3445 -0.9695  0.3527
 5240SOL    HW227180   2.003   0.676   6.603  0.0402  0.0421  0.4743
 5241SOL     OW27181   2.434   3.662   5.886 -0.5440 -0.0442  0.0409
 5241SOL    HW127182   2.359   3.722   5.882 -0.7865 -0.2541  1.3565
 5241SOL    HW227183   2.432   3.620   5.972  0.2060  0.5453  0.3549
 5242SOL     OW27184   1.276   2.362   2.688  0.2934  0.3759 -0.9778
 5242SOL    HW127185   1.333   2.287   2.669 -1.1040 -0.6166 -1.3162
 5242SOL    HW227186   1.324   2.404   2.759 -0.9537  0.2445 -0.0455
 5243SOL     OW27187   1.448   0.366   4.660 -0.0500  0.0326  0.2274
 5243SOL    HW127188   1.401   0.438   4.619 -0.7776  0.0935  1.1688
 5243SOL    HW227189   1.393   0.295   4.628 -0.0741  0.0419  0.2480
 5244SOL     OW27190   0.597   4.540   6.698  0.1950 -0.0147  0.1189
 5244SOL    HW127191   0.505   4.532   6.672 -0.3023  3.1748  0.9040
 5244SOL    HW227192   0.592   4.603   6.770  4.2907  2.1632 -1.5192
 5245SOL     OW27193   4.527   2.451  10.795  0.0254  0.2639 -0.2882
 5245SOL    HW127194   4.567   2.529  10.835 -0.8927  0.9851 -0.7721
 5245SOL    HW227195   4.436   2.478  10.785  0.5335  1.8587 -0.7511
 5246SOL     OW27196   4.373   3.605   4.968  0.2274 -1.0529 -0.2752
 5246SOL    HW127197   4.436   3.556   4.914  0.6282 -0.4786 -0.3253
 5246SOL    HW227198   4.422   3.617   5.050 -2.5817  2.6212  0.8552
 5247SOL     OW27199   0.292   4.016   0.492  0.0017 -0.0898  0.4670
 5247SOL    HW127200   0.348   4.089   0.517  1.1256 -1.4736  2.0012
 5247SOL    HW227201   0.259   4.042   0.406 -0.4618 -1.2529  0.2888
 5248SOL     OW27202   4.516   3.848   6.704 -0.3267 -0.3647  0.3095
 5248SOL    HW127203   4.553   3.932   6.729  0.0142  0.1515 -1.9408
 5248SOL    HW227204   4.505   3.811   6.792 -0.6280  1.4532  1.0428
 5249SOL     OW27205   1.903   0.676   5.054  0.4881  0.0651  0.0383
 5249SOL    HW127206   1.998   0.690   5.049  0.8037 -1.6060  1.3618
 5249SOL    HW227207   1.904   0.632   5.139  2.6856  0.7218  0.3561
 5250SOL     OW27208   0.281   3.229   9.500 -0.2278  0.0572 -0.3213
 5250SOL    HW127209   0.366   3.245   9.460  0.4881  0.6911  1.4279
 5250SOL    HW227210   0.288   3.290   9.573  0.2655 -0.4962  0.0910
 5251SOL     OW27211   3.622   0.163   8.732 -0.2108 -0.3659 -0.1879
 5251SOL    HW127212   3.567   0.128   8.803  1.0247  1.4598  1.6445
 5251SOL    HW227213   3.709   0.170   8.769  0.2856 -1.9095 -1.0620
 5252SOL     OW27214   2.684   1.211   8.062 -0.2920  0.5481  0.5280
 5252SOL    HW127215   2.682   1.255   7.977 -1.8079 -1.5311 -0.5082
 5252SOL    HW227216   2.728   1.127   8.046 -3.6197 -1.0424 -0.2560
 5253SOL     OW27217   2.762   4.456   6.791  0.3170  0.2041 -0.2537
 5253SOL    HW127218   2.763   4.493   6.880 -1.0651 -0.2494 -0.0406
 5253SOL    HW227219   2.667   4.459   6.776  0.6307 -1.8461 -2.5874
 5254SOL     OW27220   3.336   1.503   8.705 -0.4239 -0.6067 -0.0480
 5254SOL    HW127221   3.396   1.577   8.706 -1.1803 -0.0181  0.9926
 5254SOL    HW227222   3.249   1.543   8.711  0.6988  1.8775 -0.4518
 5255SOL     OW27223   0.231   0.793   1.793 -0.0926  0.6333  0.3242
 5255SOL    HW127224   0.259   0.885   1.798  0.0843  0.7904 -3.5445
 5255SOL    HW227225   0.282   0.770   1.715 -2.1437 -0.8301 -0.5791
 5256SOL     OW27226   4.651   4.409   4.396 -0.1433 -0.3618  0.6994
 5256SOL    HW127227   4.640   4.329   4.446  0.1412  0.0016  1.3364
 5256SOL    HW227228   0.020   4.427   4.396 -0.0734 -0.6801 -1.0271
 5257SOL     OW27229   3.193   1.074   6.012  0.0990  0.1123 -0.0748
 5257SOL    HW127230   3.284   1.052   6.032 -0.1678 -0.4779  0.4984
 5257SOL    HW227231   3.196   1.057   5.918 -0.6662 -3.2469  0.5194
 5258SOL     OW27232   1.693   0.501   8.574  0.2632 -0.7652  0.2469
 5258SOL    HW127233   1.691   0.456   8.490  0.4909  1.4266 -0.9179
 5258SOL    HW227234   1.777   0.463   8.600 -0.2433 -1.5106  0.8071
 5259SOL     OW27235   2.194   0.809   4.126 -0.2813 -0.1694  0.2083
 5259SOL    HW127236   2.267   0.759   4.163  0.0371  0.4290  0.3942
 5259SOL    HW227237   2.188   0.776   4.036 -1.1132  2.2038 -0.6166
 5260SOL     OW27238   4.341   3.864   2.366 -0.1060  0.4452  0.5573
 5260SOL    HW127239   4.297   3.888   2.284 -2.1264  0.2414  1.5664
 5260SOL    HW227240   4.375   3.780   2.335 -1.4225 -0.3228  1.1896
 5261SOL     OW27241   1.369   2.997   0.635  0.2669 -0.6785  0.4374
 5261SOL    HW127242   1.398   2.926   0.691  2.2892  1.1801  1.7556
 5261SOL    HW227243   1.341   2.951   0.556 -0.0147  0.4754 -0.1456
 5262SOL     OW27244   4.339   0.688  16.909  0.7243  0.4306  0.2162
 5262SOL    HW127245   4.290   0.609  16.932  0.9628  0.3480  0.4270
 5262SOL    HW227246   4.268   0.749  16.929  2.4226  2.8899 -1.2129
 5263SOL     OW27247   3.375   0.842   2.991 -0.4403  0.0926 -0.0936
 5263SOL    HW127248   3.297   0.828   3.045  0.4795  2.5836  1.9068
 5263SOL    HW227249   3.427   0.908   3.038 -3.0838  2.1172 -0.0076
 5264SOL     OW27250   3.024   0.504   9.362 -0.2040 -0.0571 -0.0402
 5264SOL    HW127251   3.083   0.514   9.287  0.4444 -0.8300  0.3710
 5264SOL    HW227252   2.988   0.420   9.335 -3.3792  1.0541  0.7409
 5265SOL     OW27253   0.360   2.990  14.060  0.0023 -0.2236 -0.2470
 5265SOL    HW127254   0.281   2.983  14.006 -0.6125  0.5503  0.5628
 5265SOL    HW227255   0.339   3.068  14.112  2.7613  0.1865  0.2785
 5266SOL     OW27256   2.696   4.166   3.384  0.4263  0.0158 -0.2737
 5266SOL    HW127257   2.613   4.199   3.418  0.0468 -1.2500  0.0243
 5266SOL    HW227258   2.668   4.101   3.320 -2.1596  1.4258 -0.5727
 5267SOL     OW27259   4.518   3.977  12.118 -0.4300  0.3008  0.2658
 5267SOL    HW127260   4.521   3.901  12.060 -0.8432 -0.2228  0.9256
 5267SOL    HW227261   4.611   4.002  12.120 -0.9758  2.5389 -2.6076
 5268SOL     OW27262   2.695   0.799   7.612 -0.0977 -0.0833 -0.0595
 5268SOL    HW127263   2.720   0.890   7.596 -0.7989  0.1226  0.0275
 5268SOL    HW227264   2.678   0.764   7.524  1.4128 -2.3080  0.5246
 5269SOL     OW27265   4.364   3.676   1.189 -0.1343  0.0714  0.1670
 5269SOL    HW127266   4.445   3.692   1.140 -1.2215  2.4579 -0.8763
 5269SOL    HW227267   4.332   3.766   1.186  3.0697  1.1643 -2.1797
 5270SOL     OW27268   1.803   2.298   5.685  0.2217 -0.0032  0.8789
 5270SOL    HW127269   1.823   2.392   5.685  1.0840 -0.1934  2.4553
 5270SOL    HW227270   1.806   2.294   5.780 -0.9988  0.2433  0.9208
 5271SOL     OW27271   0.743   0.206   1.462 -0.2826  0.1662 -0.2116
 5271SOL    HW127272   0.693   0.273   1.509 -2.3008 -1.4490 -0.0557
 5271SOL    HW227273   0.790   0.272   1.411  1.5548 -0.6500  0.4387
 5272SOL     OW27274   1.271   4.301   5.658  0.5739  0.0202  0.3506
 5272SOL    HW127275   1.216   4.225   5.679 -0.1959 -0.1039 -2.2246
 5272SOL    HW227276   1.303   4.275   5.572  2.4717  2.0784  0.4563
 5273SOL     OW27277   1.103   3.187   4.698 -0.7629 -0.1349  0.1215
 5273SOL    HW127278   1.023   3.143   4.671 -1.5095  2.4243 -1.8373
 5273SOL    HW227279   1.076   3.279   4.701 -0.2564 -0.0452  1.9408
 5274SOL     OW27280   0.729   3.971   4.298 -0.3206 -0.0194  0.2330
 5274SOL    HW127281   0.736   4.007   4.210  0.8455  0.2481  0.4349
 5274SOL    HW227282   0.647   4.011   4.328  1.8041  1.4641  4.0586
 5275SOL     OW27283   1.214   3.539   4.751 -0.0830  0.2217  0.0618
 5275SOL    HW127284   1.136   3.495   4.717 -0.0019 -0.8602  1.2834
 5275SOL    HW227285   1.227   3.614   4.693 -0.5334  1.8135  2.0078
 5276SOL     OW27286   0.219   3.790   6.698 -0.0764  0.1702  0.1730
 5276SOL    HW127287   0.272   3.711   6.683  0.9896  0.2915  3.3815
 5276SOL    HW227288   0.240   3.846   6.623 -0.8198  1.3172  0.8282
 5277SOL     OW27289   3.289   3.613  17.145 -0.3148 -0.1074  0.0727
 5277SOL    HW127290   3.337   3.631  17.226 -1.2107 -3.4385  1.3496
 5277SOL    HW227291   3.256   3.525  17.162  1.3294 -0.4606  1.5062
 5278SOL     OW27292   3.984   3.606   7.988 -0.0539 -0.3151 -0.1403
 5278SOL    HW127293   3.911   3.597   8.049  0.3098 -2.2347  0.0040
 5278SOL    HW227294   4.044   3.548   8.034 -1.1122 -0.5850  0.9215
 5279SOL     OW27295   1.973   3.198   6.854  0.1742 -0.3510  0.7753
 5279SOL    HW127296   1.895   3.143   6.847 -1.5169  2.2251 -0.6836
 5279SOL    HW227297   2.036   3.133   6.887 -0.3237 -2.1645 -1.9066
 5280SOL     OW27298   1.124   3.569   2.341  0.0877 -0.4359  0.2592
 5280SOL    HW127299   1.107   3.605   2.427 -0.3367 -0.6312  0.2560
 5280SOL    HW227300   1.039   3.532   2.317  0.0174  0.7501 -1.3122
 5281SOL     OW27301   1.910   2.073   9.277 -0.5998  0.5750 -0.0292
 5281SOL    HW127302   1.998   2.036   9.271  0.1368  2.2401  0.3893
 5281SOL    HW227303   1.866   1.998   9.317  2.1703 -1.3326 -0.5977
 5282SOL     OW27304   0.566   1.381  14.556  0.5755 -0.1649 -0.0606
 5282SOL    HW127305   0.590   1.471  14.531 -1.5046  0.0411 -1.2575
 5282SOL    HW227306   0.614   1.337  14.486 -0.3195 -1.8934  0.4305
 5283SOL     OW27307   4.215   2.488   6.820  0.2991  0.6284 -0.1811
 5283SOL    HW127308   4.176   2.479   6.907  1.3037  2.1256  0.4199
 5283SOL    HW227309   4.179   2.408   6.782  0.6660  0.3973 -0.0392
 5284SOL     OW27310   3.674   0.593   8.318  0.1429 -0.5800  0.4350
 5284SOL    HW127311   3.682   0.500   8.337 -2.3267 -0.3909  2.4266
 5284SOL    HW227312   3.671   0.582   8.223 -0.6094 -0.9829  0.5056
 5285SOL     OW27313   3.269   2.693   9.677  0.3832 -0.0096 -0.4097
 5285SOL    HW127314   3.182   2.687   9.716  0.0388  0.1540 -1.1456
 5285SOL    HW227315   3.325   2.654   9.744  0.5953  0.2284 -0.4482
 5286SOL     OW27316   3.228   4.070   5.161 -0.4590  0.1791 -0.7395
 5286SOL    HW127317   3.248   4.154   5.202 -2.7413  0.4583 -0.2049
 5286SOL    HW227318   3.162   4.040   5.224  0.7658 -1.3155 -0.1590
 5287SOL     OW27319   0.049   0.656  12.266 -0.6307  0.2922  0.8868
 5287SOL    HW127320   0.057   0.697  12.352  2.4808 -2.1355  1.7311
 5287SOL    HW227321   4.686   0.686  12.244 -0.5825  1.9123  2.8616
 5288SOL     OW27322   0.156   1.612  11.372 -0.0799  0.2529  0.2571
 5288SOL    HW127323   0.121   1.675  11.435  2.0312  2.2779 -0.6109
 5288SOL    HW227324   0.177   1.672  11.300 -1.2780  0.2763 -0.0785
 5289SOL     OW27325   2.279   1.751  15.443  0.0221  0.2115 -0.4339
 5289SOL    HW127326   2.322   1.832  15.416  0.2560  1.1898  2.8799
 5289SOL    HW227327   2.354   1.692  15.455  0.1749  0.2991 -0.9959
 5290SOL     OW27328   2.247   2.141   1.157  0.1913 -0.3277  0.2406
 5290SOL    HW127329   2.162   2.115   1.122  0.3668  0.1686 -0.5442
 5290SOL    HW227330   2.260   2.219   1.103 -1.7151  0.9194  1.5794
 5291SOL     OW27331   0.181   3.790   5.260 -0.3038 -0.1665  0.1763
 5291SOL    HW127332   0.195   3.775   5.353  2.4438  0.6337 -0.0926
 5291SOL    HW227333   0.101   3.841   5.257  0.7520  1.6168  2.9198
 5292SOL     OW27334   3.485   3.914   4.460  0.5907 -0.3095  0.1679
 5292SOL    HW127335   3.499   3.823   4.433  1.6835 -0.4189  1.1030
 5292SOL    HW227336   3.504   3.915   4.554  0.6574  2.0308  0.1427
 5293SOL     OW27337   1.371   1.842   7.338  0.7963 -0.5273  0.0138
 5293SOL    HW127338   1.298   1.809   7.391  1.8346 -1.1789  1.0337
 5293SOL    HW227339   1.399   1.918   7.389 -0.0712 -0.3017  0.1611
 5294SOL     OW27340   4.134   0.816   0.954  0.3400 -0.4178  0.0393
 5294SOL    HW127341   4.040   0.819   0.969  0.1189 -1.0632 -1.1766
 5294SOL    HW227342   4.139   0.864   0.872 -1.2866 -0.9453 -0.3527
 5295SOL     OW27343   2.053   1.480   6.201 -0.4527 -0.6204  0.7466
 5295SOL    HW127344   1.957   1.474   6.192 -0.1285 -2.0018 -1.7112
 5295SOL    HW227345   2.064   1.517   6.289 -2.2720  0.0196  0.6999
 5296SOL     OW27346   4.184   4.153   5.808  0.3034 -0.5138 -0.4518
 5296SOL    HW127347   4.116   4.087   5.823  0.2871 -0.7819 -1.7179
 5296SOL    HW227348   4.266   4.108   5.829  1.4919  1.8798  0.0252
 5297SOL     OW27349   3.072   3.339   2.470  0.0085 -0.6045  0.8722
 5297SOL    HW127350   3.043   3.253   2.500  1.3798 -1.3305  0.0833
 5297SOL    HW227351   2.998   3.391   2.502 -0.1452  0.4038 -1.1473
 5298SOL     OW27352   3.253   2.217   5.975 -0.2138 -0.0384 -0.8277
 5298SOL    HW127353   3.265   2.202   5.882  1.4153 -1.7444 -0.3409
 5298SOL    HW227354   3.176   2.273   5.985  0.3122  0.5214  0.1179
 5299SOL     OW27355   3.788   2.262  11.491 -0.4997  0.3174  0.6813
 5299SOL    HW127356   3.695   2.265  11.514 -0.4943 -0.9906  0.8962
 5299SOL    HW227357   3.771   2.218  11.407 -0.5119 -0.8260  1.2760
 5300SOL     OW27358   4.397   0.335  10.792  0.5422 -0.0384  0.1782
 5300SOL    HW127359   4.484   0.341  10.752  0.6257 -0.3869  0.3069
 5300SOL    HW227360   4.360   0.267  10.736  1.6452 -1.1160  0.7507
 5301SOL     OW27361   0.230   0.859   6.774 -0.1575 -0.1188  0.0844
 5301SOL    HW127362   0.205   0.905   6.854 -3.0952  0.1627 -0.9927
 5301SOL    HW227363   0.195   0.772   6.792 -0.4647  0.2432  1.2029
 5302SOL     OW27364   3.269   1.758  12.174  0.2000  0.6061  0.0647
 5302SOL    HW127365   3.257   1.830  12.235 -0.1057  0.8263 -0.2536
 5302SOL    HW227366   3.357   1.728  12.199  0.4594  0.9858 -0.3938
 5303SOL     OW27367   3.595   0.050   3.591  0.6134  0.5642  0.2898
 5303SOL    HW127368   3.577   4.709   3.658  3.0341  0.3806  0.7673
 5303SOL    HW227369   3.652   0.097   3.652  2.5990 -0.6962 -0.6089
 5304SOL     OW27370   2.572   2.758  15.203 -0.4925  0.2427 -0.1165
 5304SOL    HW127371   2.517   2.836  15.213 -0.3628  0.4768 -1.3163
 5304SOL    HW227372   2.635   2.765  15.276 -0.9207 -1.6824  0.4197
 5305SOL     OW27373   0.577   3.081   4.855 -0.0260  0.5849 -0.0030
 5305SOL    HW127374   0.510   3.098   4.922  1.6061  1.3821  1.4276
 5305SOL    HW227375   0.536   3.120   4.778 -1.8339 -2.1683 -0.4245
 5306SOL     OW27376   2.401   2.802  15.515 -0.0974 -0.3566 -0.1361
 5306SOL    HW127377   2.468   2.857  15.473 -0.4910  0.2577  0.0328
 5306SOL    HW227378   2.376   2.846  15.596 -2.1876  1.4987 -1.7718
 5307SOL     OW27379   0.870   3.023  13.890 -0.1711  0.4090 -0.1218
 5307SOL    HW127380   0.779   3.048  13.902 -0.3693 -0.1794 -0.4469
 5307SOL    HW227381   0.900   3.062  13.808 -1.4320  1.2236 -0.1928
 5308SOL     OW27382   0.195   1.636   1.716  0.0064 -0.1950 -0.0381
 5308SOL    HW127383   0.214   1.729   1.701 -1.8645  0.2699  0.3693
 5308SOL    HW227384   0.280   1.614   1.752 -0.4514  0.6408  1.5734
 5309SOL     OW27385   2.425   4.404   8.988  0.0511  0.3379  0.6108
 5309SOL    HW127386   2.463   4.466   8.925 -0.2364  0.5143  0.6108
 5309SOL    HW227387   2.416   4.451   9.071 -0.0629  1.3858  0.0005
 5310SOL     OW27388   0.973   1.025   4.025 -0.0607 -0.6553 -0.0469
 5310SOL    HW127389   1.060   1.038   3.986 -0.2214  1.3589  0.2415
 5310SOL    HW227390   0.985   1.097   4.088 -2.9963 -0.9277  0.8027
 5311SOL     OW27391   0.145   3.956  16.555 -0.0690 -0.4674 -0.1492
 5311SOL    HW127392   0.213   3.898  16.588 -0.4503 -0.9649 -0.2402
 5311SOL    HW227393   0.076   3.891  16.541 -0.7455 -0.5499  3.6427
 5312SOL     OW27394   4.389   2.647   3.960  0.5094  0.0643 -0.9433
 5312SOL    HW127395   4.371   2.741   3.964 -0.3828 -0.0705 -1.6540
 5312SOL    HW227396   4.371   2.634   3.867 -0.9028  0.2722 -0.6971
 5313SOL     OW27397   1.810   0.379   9.470  0.1649  0.5247  0.0192
 5313SOL    HW127398   1.839   0.462   9.508 -0.5085  0.4755  0.6458
 5313SOL    HW227399   1.806   0.406   9.379  0.2607 -0.6590 -0.3395
 5314SOL     OW27400   0.797   2.797   0.570 -0.5634  0.0183  0.1482
 5314SOL    HW127401   0.714   2.760   0.601 -0.3271 -0.5982  0.0368
 5314SOL    HW227402   0.834   2.735   0.508  0.8426  0.6103  0.4040
 5315SOL     OW27403   2.083   3.286  11.087  0.2597  0.4660  0.3896
 5315SOL    HW127404   2.087   3.316  10.997  1.3813  4.6531  1.8163
 5315SOL    HW227405   2.159   3.229  11.087  0.4759  0.7542  1.7099
 5316SOL     OW27406   3.754   0.438   5.011  0.8464 -0.2260  0.2360
 5316SOL    HW127407   3.692   0.375   4.974  0.5631  1.4738 -2.2292
 5316SOL    HW227408   3.705   0.477   5.084  0.1330  3.3559 -2.1518
 5317SOL     OW27409   0.510   3.364  11.648  0.4136 -0.0843  0.1424
 5317SOL    HW127410   0.569   3.428  11.607  0.1791  0.5057  0.7398
 5317SOL    HW227411   0.554   3.357  11.732 -1.1809  2.2081  1.1683
 5318SOL     OW27412   0.705   1.527   5.543  0.1835  0.1791 -0.3974
 5318SOL    HW127413   0.684   1.617   5.566 -1.2163  0.3596 -2.3486
 5318SOL    HW227414   0.799   1.535   5.530  0.1533 -2.1192 -2.1148
 5319SOL     OW27415   0.234   0.562  11.531  0.0652  0.1576  0.1205
 5319SOL    HW127416   0.191   0.584  11.448 -0.3328  0.2685  0.3573
 5319SOL    HW227417   0.207   0.641  11.578  0.4087  0.6342 -0.4794
 5320SOL     OW27418   0.044   0.532   7.760  0.4085  0.1381  0.3013
 5320SOL    HW127419   0.128   0.570   7.785  0.0299  1.9970 -1.2149
 5320SOL    HW227420   4.713   0.565   7.830  1.4086  2.7527 -0.1571
 5321SOL     OW27421   1.376   4.473  14.299 -0.1358  0.3983  0.1453
 5321SOL    HW127422   1.369   4.382  14.327  0.4085 -0.0267 -1.0936
 5321SOL    HW227423   1.465   4.500  14.323  1.6864 -5.1220 -0.2219
 5322SOL     OW27424   2.287   4.246   1.896 -0.2504  0.3414 -0.3937
 5322SOL    HW127425   2.303   4.204   1.811  0.0543 -0.4507  0.0593
 5322SOL    HW227426   2.195   4.272   1.895 -0.2356  0.4361  0.4763
 5323SOL     OW27427   3.699   0.509  13.316  0.2540  0.3359 -0.4891
 5323SOL    HW127428   3.657   0.449  13.254  0.0597  2.1316 -2.1003
 5323SOL    HW227429   3.621   0.524  13.369 -1.0655 -2.3647 -1.6797
 5324SOL     OW27430   1.867   1.092   2.064 -0.2810 -0.3119 -0.1023
 5324SOL    HW127431   1.915   1.012   2.041  1.5338  1.5212 -2.6632
 5324SOL    HW227432   1.815   1.092   1.984  0.3729 -0.9187 -0.5263
 5325SOL     OW27433   0.598   4.502  13.124  0.4597  0.1068 -0.2598
 5325SOL    HW127434   0.617   4.592  13.099 -1.3344  0.6662  0.4115
 5325SOL    HW227435   0.566   4.519  13.213  1.4656  0.3886  0.0537
 5326SOL     OW27436   1.974   2.104   1.481  0.2519  0.5295  0.3440
 5326SOL    HW127437   1.889   2.142   1.458  0.8754  1.5183 -0.3322
 5326SOL    HW227438   2.022   2.128   1.402 -1.1100  0.2461 -0.5691
 5327SOL     OW27439   3.352   0.951   2.424  0.5839  0.7335 -0.7379
 5327SOL    HW127440   3.342   0.981   2.514  1.5914  0.3703 -0.5121
 5327SOL    HW227441   3.259   0.937   2.403  0.8910 -0.8688 -1.0376
 5328SOL     OW27442   0.742   2.521   5.927  0.1994 -0.3223  0.6599
 5328SOL    HW127443   0.651   2.519   5.957  0.3402 -2.5108  0.8820
 5328SOL    HW227444   0.748   2.454   5.860  0.9883  2.6291 -2.2195
 5329SOL     OW27445   3.939   3.751  13.373 -0.5562  0.2126  0.2663
 5329SOL    HW127446   4.005   3.755  13.304 -0.2622 -0.0370  0.5330
 5329SOL    HW227447   3.860   3.788  13.334 -1.7620  0.5847  3.0328
 5330SOL     OW27448   2.190   4.573   8.713  0.0911 -0.0488 -0.5170
 5330SOL    HW127449   2.159   4.580   8.803  0.5047  1.5407 -0.4941
 5330SOL    HW227450   2.280   4.543   8.719  0.4962  0.9701 -1.4016
 5331SOL     OW27451   2.096   4.465  16.204  0.4517  0.1525  0.0249
 5331SOL    HW127452   2.125   4.544  16.250 -1.8279  0.1779  1.4293
 5331SOL    HW227453   2.168   4.459  16.142 -0.9632  0.9490 -1.7114
 5332SOL     OW27454   3.874   3.547   7.513  0.1997 -0.3534  0.1127
 5332SOL    HW127455   3.888   3.573   7.604 -0.2290 -0.1536  0.1249
 5332SOL    HW227456   3.779   3.555   7.502  0.1364 -1.1386  0.0644
 5333SOL     OW27457   1.531   4.671   0.646 -0.1895  0.3386 -0.2259
 5333SOL    HW127458   1.574   4.633   0.723 -2.2220 -0.1663  0.6626
 5333SOL    HW227459   1.580   0.027   0.632  0.2586  0.5616  2.5769
 5334SOL     OW27460   2.695   1.099   3.780  0.4689 -0.3989 -0.1058
 5334SOL    HW127461   2.769   1.103   3.720  0.2624  0.6476 -0.2981
 5334SOL    HW227462   2.702   1.178   3.834 -1.8205 -0.9795  1.0642
 5335SOL     OW27463   1.974   0.997  14.583  0.1483 -0.0436  0.4250
 5335SOL    HW127464   2.009   1.015  14.496 -1.4699  0.1483 -0.1792
 5335SOL    HW227465   1.901   0.938  14.564 -1.4988  2.1429  0.0899
 5336SOL     OW27466   2.845   3.924  13.027 -0.1583 -0.5412 -0.1316
 5336SOL    HW127467   2.843   3.917  12.931  0.4171  1.9334 -0.3336
 5336SOL    HW227468   2.767   3.882  13.064 -2.7684  3.4787 -1.1267
 5337SOL     OW27469   1.744   0.255   3.378 -1.0511  0.0137 -0.0290
 5337SOL    HW127470   1.782   0.342   3.361 -1.5432  0.1018 -0.6606
 5337SOL    HW227471   1.664   0.269   3.328 -0.4679  0.9048 -0.7111
 5338SOL     OW27472   0.410   2.880   3.431  0.1242 -1.0236 -0.3713
 5338SOL    HW127473   0.474   2.840   3.489  1.2042  0.7586 -0.3229
 5338SOL    HW227474   0.404   2.971   3.462  0.4739 -1.1667  0.1075
 5339SOL     OW27475   0.908   2.413  12.069  0.4157  0.0292  0.3302
 5339SOL    HW127476   0.923   2.470  12.145  1.6826 -1.8409  1.4991
 5339SOL    HW227477   0.837   2.366  12.112  1.1537 -0.0196  1.5172
 5340SOL     OW27478   2.122   4.120   2.224  0.0390  0.2405  0.1249
 5340SOL    HW127479   2.081   4.041   2.191  0.0548 -0.0150  0.7099
 5340SOL    HW227480   2.085   4.190   2.170  0.8435 -0.1054 -0.8724
 5341SOL     OW27481   2.547   1.478   3.628  0.0126 -0.1037 -0.1937
 5341SOL    HW127482   2.531   1.431   3.709  1.0469 -0.6311 -0.3023
 5341SOL    HW227483   2.641   1.468   3.614 -0.0173 -0.7335  0.0804
 5342SOL     OW27484   2.381   0.300  14.723 -0.0562 -0.1323 -0.4162
 5342SOL    HW127485   2.363   0.207  14.719  0.5505 -0.2306 -0.8458
 5342SOL    HW227486   2.441   0.312  14.797  0.7014  2.2884 -1.4210
 5343SOL     OW27487   3.950   2.053   7.895 -0.2575  0.4530  0.0192
 5343SOL    HW127488   3.925   2.017   7.980  1.8332 -1.4741 -0.1968
 5343SOL    HW227489   3.933   2.145   7.917 -0.7023  0.4675 -0.3793
 5344SOL     OW27490   0.331   4.016   6.581 -0.4559 -0.3100 -0.2987
 5344SOL    HW127491   0.423   4.021   6.607 -0.8806 -0.4474  1.1845
 5344SOL    HW227492   0.307   4.108   6.590  0.6678 -0.3054  2.4219
 5345SOL     OW27493   2.654   2.926  16.113 -0.8583  0.1778  0.0198
 5345SOL    HW127494   2.653   3.021  16.106  1.8003  0.1945  0.0616
 5345SOL    HW227495   2.700   2.921  16.197 -1.5812 -1.3564  0.3334
 5346SOL     OW27496   2.174   1.402  14.055  0.1179  0.6566  0.3536
 5346SOL    HW127497   2.166   1.379  13.962  0.3619 -0.5802  0.6376
 5346SOL    HW227498   2.212   1.322  14.091  1.5643  0.5550 -1.3883
 5347SOL     OW27499   4.503   0.856   1.240  0.1468  0.3263 -0.3415
 5347SOL    HW127500   4.596   0.847   1.262 -0.5051 -2.1656  1.4264
 5347SOL    HW227501   4.464   0.867   1.327  0.0962 -1.8918 -0.0704
 5348SOL     OW27502   2.432   2.318   3.000  0.3765  0.1806 -0.5842
 5348SOL    HW127503   2.437   2.391   3.061  1.3733 -0.9182  0.6761
 5348SOL    HW227504   2.432   2.364   2.917  0.9489 -1.2093 -1.3644
 5349SOL     OW27505   0.772   3.575   5.626 -0.2733 -0.3602 -0.2126
 5349SOL    HW127506   0.835   3.504   5.638  2.0715  1.6165 -0.7968
 5349SOL    HW227507   0.691   3.525   5.631 -0.3868 -0.1475  0.0550
 5350SOL     OW27508   1.157   2.872   2.193 -0.0128  0.3492  0.0214
 5350SOL    HW127509   1.124   2.911   2.111 -0.1922 -0.7804 -0.4472
 5350SOL    HW227510   1.216   2.942   2.219  2.9357 -1.8106 -0.9117
 5351SOL     OW27511   2.275   0.315  11.653 -0.5427  0.1123  0.0852
 5351SOL    HW127512   2.244   0.250  11.590 -1.1140  0.8238 -0.3691
 5351SOL    HW227513   2.222   0.393  11.638  0.1416  0.5889  0.1281
 5352SOL     OW27514   1.525   3.156   5.759 -0.2858 -0.0942 -0.0725
 5352SOL    HW127515   1.542   3.087   5.824 -1.5013  2.5433  3.0629
 5352SOL    HW227516   1.556   3.103   5.686 -1.3688 -2.6618  1.3155
 5353SOL     OW27517   1.863   4.153   9.274 -0.3092 -0.0654  0.0328
 5353SOL    HW127518   1.828   4.146   9.363  0.8166 -0.3387  0.4472
 5353SOL    HW227519   1.950   4.116   9.284 -0.0865  0.3445 -0.3700
 5354SOL     OW27520   0.213   3.330  10.963 -0.0265 -0.2086 -0.1584
 5354SOL    HW127521   0.149   3.400  10.957 -0.1791 -0.2685  0.8093
 5354SOL    HW227522   0.302   3.366  10.954 -0.4967  1.4863  2.1253
 5355SOL     OW27523   0.457   3.578   1.753 -0.2716  0.3975 -0.4218
 5355SOL    HW127524   0.525   3.596   1.687  1.6848  0.8392  1.7181
 5355SOL    HW227525   0.458   3.483   1.746  1.3051  0.2081  2.2891
 5356SOL     OW27526   3.669   4.041   6.664 -0.0893 -0.4373  0.3133
 5356SOL    HW127527   3.668   4.092   6.745 -1.0947  0.1757 -0.0755
 5356SOL    HW227528   3.583   4.053   6.623  0.3027 -1.1390 -0.7060
 5357SOL     OW27529   4.349   2.575   5.955 -0.2090  0.5173 -0.3256
 5357SOL    HW127530   4.382   2.492   5.990 -0.5455  0.4510 -0.1738
 5357SOL    HW227531   4.408   2.579   5.879  1.4012 -0.3580  0.8699
 5358SOL     OW27532   1.447   4.634   2.026 -0.1778 -0.4503 -0.2055
 5358SOL    HW127533   1.421   4.700   1.962 -2.4375  0.6908  1.9032
 5358SOL    HW227534   1.365   4.586   2.025 -0.5244  0.1455 -1.2773
 5359SOL     OW27535   0.574   2.211   8.496 -0.0809  0.2462  0.1559
 5359SOL    HW127536   0.656   2.163   8.493  0.4968  1.3317 -1.5835
 5359SOL    HW227537   0.569   2.232   8.403 -0.2701  0.8898  0.3101
 5360SOL     OW27538   0.882   3.416  12.689  0.1558  0.1481  0.6480
 5360SOL    HW127539   0.791   3.415  12.717  0.3530 -0.2079  1.2909
 5360SOL    HW227540   0.923   3.351  12.746  1.2695  0.8110  0.6005
 5361SOL     OW27541   2.392   1.650   4.168  0.1449 -0.0089  0.2068
 5361SOL    HW127542   2.348   1.580   4.216  0.1185  0.6728  1.1889
 5361SOL    HW227543   2.387   1.727   4.225  0.4948 -1.8534  2.7021
 5362SOL     OW27544   2.286   0.948  10.207  0.3012 -0.4813 -0.1253
 5362SOL    HW127545   2.253   0.875  10.259 -3.8501  1.5242  0.0438
 5362SOL    HW227546   2.376   0.915  10.215  0.1839 -0.9722 -0.8195
 5363SOL     OW27547   4.039   3.981   3.409  0.3148  0.0738  0.3598
 5363SOL    HW127548   4.015   3.945   3.323  1.1104 -1.0042  0.5889
 5363SOL    HW227549   4.086   4.060   3.383 -0.0677  0.3307  0.4558
 5364SOL     OW27550   4.403   2.927   5.878  0.1191  0.0137  0.3430
 5364SOL    HW127551   4.334   2.889   5.823  0.2901  1.0221 -0.5587
 5364SOL    HW227552   4.365   2.978   5.949 -1.5104  2.7262 -2.4588
 5365SOL     OW27553   0.800   1.229   8.377  0.4930 -0.3019 -0.7621
 5365SOL    HW127554   0.742   1.158   8.404 -2.5230  2.5754  0.2173
 5365SOL    HW227555   0.823   1.265   8.462 -1.6328 -0.1922 -0.2527
 5366SOL     OW27556   2.952   2.866  15.745  0.8866  0.5351 -0.0072
 5366SOL    HW127557   2.898   2.936  15.781  1.4194  1.1542 -0.4219
 5366SOL    HW227558   3.037   2.907  15.731  1.0510  0.4642  0.7598
 5367SOL     OW27559   1.685   2.204   6.978  0.4868 -0.2882 -0.2385
 5367SOL    HW127560   1.770   2.189   7.020  0.4427  2.0056  0.6720
 5367SOL    HW227561   1.636   2.259   7.039  0.2820  0.9080 -1.4819
 5368SOL     OW27562   3.013   2.109   3.310 -0.1051 -0.2383 -0.0866
 5368SOL    HW127563   2.947   2.092   3.242 -0.4401 -0.9003  0.4026
 5368SOL    HW227564   3.082   2.153   3.261  0.4847 -2.5650 -1.3126
 5369SOL     OW27565   4.624   4.392  10.448 -0.3749  0.2990  0.6653
 5369SOL    HW127566   4.604   4.466  10.505 -0.1249  0.5102  0.4758
 5369SOL    HW227567   4.548   4.334  10.452 -2.8423  3.3317 -2.3840
 5370SOL     OW27568   3.229   3.755   4.651  0.1236 -0.0046 -0.0476
 5370SOL    HW127569   3.236   3.685   4.586 -0.1262 -0.0632 -0.0108
 5370SOL    HW227570   3.320   3.768   4.680 -0.4787 -0.4643  1.9741
 5371SOL     OW27571   1.910   2.471   3.054 -0.6057 -0.0897  0.0031
 5371SOL    HW127572   1.954   2.549   3.087  2.1470 -0.5837 -2.5202
 5371SOL    HW227573   1.911   2.424   3.137  0.3802 -0.3250 -0.1368
 5372SOL     OW27574   2.472   1.002   3.074 -0.1911  0.2478 -0.0145
 5372SOL    HW127575   2.388   0.957   3.074 -0.7156  1.2218 -2.2202
 5372SOL    HW227576   2.493   1.022   2.983  0.1514 -1.9843 -0.4215
 5373SOL     OW27577   3.069   1.867   5.553  0.8655  0.0121  0.1579
 5373SOL    HW127578   3.009   1.798   5.579 -0.1802  0.8709  0.0292
 5373SOL    HW227579   3.018   1.948   5.551 -0.1607 -0.6451  0.0548
 5374SOL     OW27580   4.602   4.585   3.774  0.4017 -0.2630 -0.1816
 5374SOL    HW127581   4.610   4.614   3.864 -0.8728 -1.0858  0.1952
 5374SOL    HW227582   4.687   4.613   3.738  0.6594 -2.8160 -1.5584
 5375SOL     OW27583   0.489   4.470   8.517  0.0519 -0.5383 -0.7546
 5375SOL    HW127584   0.420   4.537   8.518  1.0726  0.5551 -2.8016
 5375SOL    HW227585   0.490   4.444   8.609  1.5952  0.3297 -0.5390
 5376SOL     OW27586   1.626   4.378   5.169 -0.4152 -0.1403 -0.6366
 5376SOL    HW127587   1.690   4.357   5.100 -1.5105  0.6412 -1.8701
 5376SOL    HW227588   1.667   4.462   5.189 -1.0420 -0.1775  0.7978
 5377SOL     OW27589   4.349   1.091  10.334 -0.3230  0.2506 -0.2945
 5377SOL    HW127590   4.360   1.173  10.286 -0.7041 -1.0448 -2.5946
 5377SOL    HW227591   4.356   1.018  10.272  1.5020 -1.6911  2.2040
 5378SOL     OW27592   1.633   0.006   2.774 -0.5870 -0.2621 -0.0868
 5378SOL    HW127593   1.649   0.005   2.868  0.1627  1.9023 -0.1941
 5378SOL    HW227594   1.548   0.050   2.769 -0.8783 -0.8264 -0.1584
 5379SOL     OW27595   4.692   4.622   5.658 -0.5065  0.2529 -0.1859
 5379SOL    HW127596   4.706   4.558   5.727 -0.4778  0.4725  0.0098
 5379SOL    HW227597   0.057   4.644   5.636 -0.0715  1.2698  2.6499
 5380SOL     OW27598   0.319   4.125   4.942  0.1697 -0.3876 -0.4019
 5380SOL    HW127599   0.393   4.163   4.989  0.3645 -0.0031 -1.0261
 5380SOL    HW227600   0.309   4.049   5.000 -0.2508 -0.2183 -0.2485
 5381SOL     OW27601   3.607   0.205   4.384  0.0024  0.3214  0.2597
 5381SOL    HW127602   3.567   0.289   4.360  0.8877  0.8947  0.8114
 5381SOL    HW227603   3.637   0.172   4.300  0.7086  0.6473  0.3850
 5382SOL     OW27604   0.133   2.184   0.844  0.1449 -0.2568  0.1222
 5382SOL    HW127605   0.088   2.126   0.783  0.8668  0.4055 -1.0404
 5382SOL    HW227606   0.197   2.120   0.874 -0.2092 -1.3595 -1.4559
 5383SOL     OW27607   1.355   4.455   5.120  0.4044  0.2646  0.2273
 5383SOL    HW127608   1.427   4.399   5.090 -0.3650 -1.7448  2.1161
 5383SOL    HW227609   1.381   4.483   5.207 -0.2845 -2.1314  1.2064
 5384SOL     OW27610   0.033   4.127   0.710 -0.3200 -0.2957  0.2350
 5384SOL    HW127611   0.104   4.170   0.757 -0.3998  0.7107 -0.5511
 5384SOL    HW227612   4.679   4.169   0.743 -0.7741 -2.2987  1.6385
 5385SOL     OW27613   1.977   0.544  10.184  0.5223  0.0345 -0.1038
 5385SOL    HW127614   2.063   0.581  10.167  0.5834 -0.2678 -0.4552
 5385SOL    HW227615   1.968   0.482  10.112 -1.5612  0.5934 -0.3194
 5386SOL     OW27616   3.295   0.283  13.691 -0.3302  0.2283 -0.2212
 5386SOL    HW127617   3.222   0.230  13.722  1.3182 -2.0030 -0.1186
 5386SOL    HW227618   3.277   0.365  13.738 -2.7104 -1.1694  1.2718
 5387SOL     OW27619   2.027   3.833   1.844  0.0522 -0.4304 -0.1995
 5387SOL    HW127620   1.983   3.911   1.810 -0.7291 -1.2401 -1.0664
 5387SOL    HW227621   2.050   3.791   1.761 -1.0255 -0.2231 -0.6072
 5388SOL     OW27622   2.899   0.015  14.265 -0.2268  0.2015 -0.0901
 5388SOL    HW127623   2.832   4.707  14.325  0.4415  0.2627  0.7001
 5388SOL    HW227624   2.979   0.021  14.318  0.3778  1.1712 -1.0911
 5389SOL     OW27625   0.717   3.201   9.574  0.5563  0.1882 -0.0583
 5389SOL    HW127626   0.702   3.111   9.605  2.9667 -0.3635 -0.4633
 5389SOL    HW227627   0.689   3.255   9.647  0.5745 -0.1479  0.1972
 5390SOL     OW27628   4.088   0.188   6.619 -0.2452 -0.4467  0.1986
 5390SOL    HW127629   4.044   0.273   6.606  2.5849  1.0885  0.5902
 5390SOL    HW227630   4.124   0.175   6.531 -0.2862  0.6697  0.0039
 5391SOL     OW27631   0.748   1.248   3.165  0.4335 -0.2574 -0.0088
 5391SOL    HW127632   0.727   1.168   3.116  0.9749 -0.7228  0.5061
 5391SOL    HW227633   0.668   1.297   3.147  0.9430  0.5682 -0.0071
 5392SOL     OW27634   3.368   0.891  10.361  0.5412  0.5675 -0.3112
 5392SOL    HW127635   3.318   0.970  10.337 -1.5669 -0.2445  1.4485
 5392SOL    HW227636   3.311   0.819  10.335 -1.1304  1.8761 -0.2891
 5393SOL     OW27637   2.071   4.706   8.021  0.0145 -0.4063  0.8236
 5393SOL    HW127638   1.998   4.648   8.045 -2.5757  2.1883 -0.7099
 5393SOL    HW227639   2.137   4.637   8.013  0.6147  0.2176  0.4117
 5394SOL     OW27640   3.186   1.448   5.382  0.0362  0.8439 -0.0427
 5394SOL    HW127641   3.272   1.478   5.352  0.2611 -3.3222 -3.4973
 5394SOL    HW227642   3.193   1.357   5.353  0.2164  1.0418 -0.6059
 5395SOL     OW27643   0.051   2.311  13.155  0.2774  0.1444 -0.4866
 5395SOL    HW127644   0.099   2.379  13.203  1.3320 -1.8543  1.2735
 5395SOL    HW227645   4.689   2.349  13.150 -0.0348 -0.4158  0.8311
 5396SOL     OW27646   2.828   1.392   0.435 -0.4541  0.2267  0.3372
 5396SOL    HW127647   2.866   1.479   0.442 -0.4067  0.2020  0.3855
 5396SOL    HW227648   2.738   1.425   0.440  0.2296  1.9076  1.5829
 5397SOL     OW27649   3.489   2.908  14.631 -0.5172 -0.3839  0.6622
 5397SOL    HW127650   3.527   2.842  14.573 -0.2316  1.6349 -1.4689
 5397SOL    HW227651   3.410   2.856  14.647 -1.0180 -0.4520 -1.9455
 5398SOL     OW27652   1.916   0.880   3.172 -0.1208  0.1230 -0.3969
 5398SOL    HW127653   1.959   0.803   3.136 -0.2435  0.7509 -1.8727
 5398SOL    HW227654   1.941   0.868   3.264 -1.3945 -0.0802 -0.0794
 5399SOL     OW27655   4.274   0.305   8.890 -0.6554  0.5091  0.5554
 5399SOL    HW127656   4.230   0.222   8.872 -0.2805  0.1394  1.2967
 5399SOL    HW227657   4.268   0.346   8.804  1.1792 -0.6280 -0.1245
 5400SOL     OW27658   4.024   4.245   4.372  0.1322 -0.5366  0.2139
 5400SOL    HW127659   4.112   4.251   4.337 -0.1752  2.6249 -0.0212
 5400SOL    HW227660   4.033   4.330   4.415  1.1995 -0.1974 -0.6968
 5401SOL     OW27661   3.240   0.567   9.105 -0.0095 -0.0440 -0.0127
 5401SOL    HW127662   3.295   0.619   9.163  0.6937 -1.5601  0.6770
 5401SOL    HW227663   3.298   0.548   9.031  1.5565  0.6988  1.0381
 5402SOL     OW27664   3.413   3.930  11.478  0.1451  0.1388  0.1329
 5402SOL    HW127665   3.501   3.964  11.465 -0.1405  0.5104 -0.8761
 5402SOL    HW227666   3.354   4.000  11.449 -1.1819 -1.2854 -0.6384
 5403SOL     OW27667   1.998   4.297   2.465 -0.7507  0.2449 -0.1656
 5403SOL    HW127668   1.998   4.251   2.381  0.5931 -0.2855  0.1390
 5403SOL    HW227669   2.080   4.274   2.508  0.1011  0.2597 -1.7949
 5404SOL     OW27670   1.639   0.909   1.737 -0.5484 -0.3533 -0.0546
 5404SOL    HW127671   1.627   0.814   1.733  2.4735 -0.6205 -2.9122
 5404SOL    HW227672   1.668   0.923   1.647 -0.4319  0.6391  0.1379
 5405SOL     OW27673   0.493   0.529   9.584  0.2342 -1.0615 -0.0619
 5405SOL    HW127674   0.575   0.550   9.628  0.3589 -0.7145 -0.4554
 5405SOL    HW227675   0.430   0.539   9.655 -0.5516  0.7292 -1.0196
 5406SOL     OW27676   2.985   4.539   2.048 -0.4376 -0.3250  0.2440
 5406SOL    HW127677   3.005   4.596   2.122  1.0931 -0.4801 -0.0416
 5406SOL    HW227678   2.891   4.555   2.040 -0.5754 -0.3281  1.7928
 5407SOL     OW27679   0.813   2.602   3.111  0.2773  0.2355  0.4454
 5407SOL    HW127680   0.724   2.628   3.135  0.0954 -2.2469  2.4707
 5407SOL    HW227681   0.812   2.662   3.037  1.9720 -2.3687 -1.6715
 5408SOL     OW27682   3.280   3.988   4.303 -0.2182 -0.1033  0.3269
 5408SOL    HW127683   3.302   3.957   4.215 -2.7183 -2.7311  0.6322
 5408SOL    HW227684   3.343   3.934   4.352 -1.1031 -0.4540  1.0720
 5409SOL     OW27685   1.760   2.218  16.296  0.3855  0.1404  0.0805
 5409SOL    HW127686   1.746   2.126  16.275  1.3576 -0.2179  0.9996
 5409SOL    HW227687   1.699   2.257  16.234 -0.0604  0.2211  0.5668
 5410SOL     OW27688   4.533   4.131  10.488  0.1435 -0.1800  0.2449
 5410SOL    HW127689   4.598   4.071  10.524  0.9480  0.7209  0.3057
 5410SOL    HW227690   4.458   4.085  10.524  0.7893 -2.2325 -1.0739
 5411SOL     OW27691   4.350   1.384   8.647 -0.0105  0.0762 -0.1068
 5411SOL    HW127692   4.316   1.308   8.695 -2.7468 -0.3664 -2.7718
 5411SOL    HW227693   4.439   1.353   8.628  0.0079  0.2903 -0.3727
 5412SOL     OW27694   0.480   0.350   9.359 -0.0506 -0.1196  0.0848
 5412SOL    HW127695   0.453   0.389   9.442  0.6487 -0.0978  0.3006
 5412SOL    HW227696   0.544   0.284   9.387 -0.1814 -0.5725 -0.6743
 5413SOL     OW27697   1.552   3.362   3.845  0.0282 -0.0185 -0.2095
 5413SOL    HW127698   1.461   3.349   3.874  0.0376 -0.5669 -0.4245
 5413SOL    HW227699   1.569   3.298   3.776 -0.3019  0.4769 -0.7472
 5414SOL     OW27700   0.043   4.421   5.823  0.4053 -0.2194 -0.3257
 5414SOL    HW127701   0.040   4.325   5.829 -0.1284 -0.2108 -0.4672
 5414SOL    HW227702   0.110   4.438   5.890  2.5607  0.9758 -2.8128
 5415SOL     OW27703   2.150   1.293   4.552 -0.1058 -0.2231  0.2789
 5415SOL    HW127704   2.179   1.264   4.466 -0.4712 -2.0271  0.7598
 5415SOL    HW227705   2.073   1.342   4.522 -0.1872 -0.4986  0.0465
 5416SOL     OW27706   3.779   1.211   9.778  0.0898 -0.8454  0.1087
 5416SOL    HW127707   3.728   1.137   9.744 -0.7504 -0.3876  0.3743
 5416SOL    HW227708   3.823   1.169   9.852  0.1951  0.3008  0.7042
 5417SOL     OW27709   0.443   1.350  17.103 -0.1627 -0.3727 -0.4076
 5417SOL    HW127710   0.406   1.425  17.055 -2.1109 -1.2675 -0.2825
 5417SOL    HW227711   0.401   1.271  17.069  0.0813 -1.2998  1.4593
 5418SOL     OW27712   4.237   4.010  12.229  0.6569 -0.0450  0.1998
 5418SOL    HW127713   4.330   4.007  12.252  1.2218 -1.9585 -2.4143
 5418SOL    HW227714   4.204   4.085  12.279 -3.4486 -3.0095  1.9606
 5419SOL     OW27715   3.772   4.527   2.728  0.2036  0.1195 -0.3389
 5419SOL    HW127716   3.696   4.544   2.671 -1.1735  0.0932  1.4814
 5419SOL    HW227717   3.773   4.431   2.723 -0.4554  0.2522 -3.2682
 5420SOL     OW27718   4.321   4.626   4.201 -0.1684 -0.5519 -0.2697
 5420SOL    HW127719   4.250   4.635   4.138  0.8332  1.2477 -1.1433
 5420SOL    HW227720   4.394   4.670   4.157  0.2992  0.5450  1.6160
 5421SOL     OW27721   4.413   3.209   4.196 -1.1888  0.0620 -0.2283
 5421SOL    HW127722   4.391   3.293   4.156  3.3935  1.2142 -0.2724
 5421SOL    HW227723   4.330   3.185   4.238 -0.2399  0.0089  1.5850
 5422SOL     OW27724   0.551   4.716   2.670  0.0924 -0.2002 -0.0454
 5422SOL    HW127725   0.564   0.012   2.762  2.1671  0.6883 -0.5629
 5422SOL    HW227726   0.524   4.624   2.682  0.2821 -0.1973  0.3607
 5423SOL     OW27727   4.706   0.715   1.620 -0.1029  0.2706  0.3243
 5423SOL    HW127728   0.054   0.735   1.678 -0.0771 -1.1870  0.8063
 5423SOL    HW227729   4.660   0.792   1.651  2.0338  0.2006  3.6675
 5424SOL     OW27730   0.204   0.101   3.267  0.0785  0.1513 -0.2210
 5424SOL    HW127731   0.201   0.006   3.259  0.4318  0.4016 -3.2797
 5424SOL    HW227732   0.124   0.125   3.221  0.1216  0.8344  0.0472
 5425SOL     OW27733   1.190   1.456   7.767  0.5159  1.0099  0.1764
 5425SOL    HW127734   1.198   1.511   7.845 -0.1487 -0.9669  1.6142
 5425SOL    HW227735   1.260   1.394   7.787 -0.4682 -0.8397 -2.1246
 5426SOL     OW27736   0.927   3.275   0.010 -0.4940 -0.3262 -0.3054
 5426SOL    HW127737   0.996   3.226   0.054 -1.3538  0.0854  1.4990
 5426SOL    HW227738   0.899   3.329   0.084 -0.1339  1.4812 -1.4978
 5427SOL     OW27739   2.115   1.396   5.020  0.2456 -0.2774  0.1452
 5427SOL    HW127740   2.056   1.366   4.951  0.9193  1.4094 -1.1588
 5427SOL    HW227741   2.198   1.395   4.973  1.2878 -0.4726  1.9820
 5428SOL     OW27742   0.375   0.257   0.418 -0.1717  0.2083  0.0184
 5428SOL    HW127743   0.314   0.183   0.411  0.2634 -0.3029  1.5516
 5428SOL    HW227744   0.449   0.211   0.458  0.0361  0.3616 -0.1939
 5429SOL     OW27745   1.359   2.921   8.364 -0.2924  0.2215  0.0785
 5429SOL    HW127746   1.348   3.016   8.360  0.6979  0.3549  0.5487
 5429SOL    HW227747   1.368   2.900   8.271  0.0249  1.6100 -0.2098
 5430SOL     OW27748   1.631   3.166   2.142  0.0939  0.4093  0.5000
 5430SOL    HW127749   1.576   3.098   2.102  0.2263  1.6747 -1.7750
 5430SOL    HW227750   1.702   3.160   2.079 -0.6682 -2.3058 -0.1373
 5431SOL     OW27751   3.038   4.002   8.854 -0.2603 -0.0232 -0.3180
 5431SOL    HW127752   2.956   4.020   8.899  0.8914 -0.0196  1.7893
 5431SOL    HW227753   3.103   4.029   8.919  0.1679  0.0466 -0.7656
 5432SOL     OW27754   0.861   4.510   4.918 -0.3630 -0.2027  0.0411
 5432SOL    HW127755   0.770   4.542   4.926 -0.3325  0.3294 -1.8716
 5432SOL    HW227756   0.904   4.587   4.879 -0.0685  0.1513  1.0593
 5433SOL     OW27757   3.740   0.043  17.013 -0.0810 -0.4877  0.1790
 5433SOL    HW127758   3.677   4.711  17.057  0.0227 -1.5002 -0.9728
 5433SOL    HW227759   3.707   0.123  17.052 -0.1022 -0.2037 -0.4211
 5434SOL     OW27760   0.111   2.872   7.091  0.4992 -0.3700 -0.6869
 5434SOL    HW127761   0.153   2.790   7.118  0.3964  0.5574  2.3287
 5434SOL    HW227762   0.138   2.931   7.161 -0.4740  0.4485 -0.9989
 5435SOL     OW27763   3.586   1.510   2.176 -0.6318  0.2100 -0.0256
 5435SOL    HW127764   3.510   1.465   2.141  0.1504 -1.1524  0.0193
 5435SOL    HW227765   3.558   1.598   2.152  1.0308  0.9207  0.6174
 5436SOL     OW27766   1.542   0.324   7.340 -0.0806  1.0368 -0.1574
 5436SOL    HW127767   1.524   0.416   7.322  0.7848  1.4297  0.9560
 5436SOL    HW227768   1.494   0.277   7.272  1.0647  0.3004 -0.4534
 5437SOL     OW27769   2.231   3.182   5.563 -0.0709  0.0286 -0.4602
 5437SOL    HW127770   2.224   3.271   5.528  1.1944  1.4220  2.7549
 5437SOL    HW227771   2.157   3.186   5.624 -0.1062  3.3282 -0.6972
 5438SOL     OW27772   4.556   4.589   2.765  0.0326 -0.1387 -0.0434
 5438SOL    HW127773   4.621   4.645   2.722  0.5711 -0.6236  0.1453
 5438SOL    HW227774   4.504   4.552   2.695 -0.5358  1.0907 -0.2761
 5439SOL     OW27775   3.856   3.114  15.587  0.2451  0.0628 -0.4432
 5439SOL    HW127776   3.855   3.019  15.598  1.4572 -0.1963 -2.4949
 5439SOL    HW227777   3.855   3.144  15.678 -1.7824 -1.0051 -0.1102
 5440SOL     OW27778   4.616   0.031  16.007 -0.2786 -0.3891 -0.6931
 5440SOL    HW127779   4.592   0.101  16.068  0.3027 -1.5674  0.9011
 5440SOL    HW227780   4.711   0.043  16.007 -0.0820 -2.0598 -1.2227
 5441SOL     OW27781   3.901   4.168   9.851 -0.1177 -0.6850  0.2086
 5441SOL    HW127782   3.886   4.101   9.784  3.9239 -0.1222 -1.2461
 5441SOL    HW227783   3.996   4.179   9.847  0.0194 -1.4757  1.3745
 5442SOL     OW27784   1.856   0.010   4.566  0.0426  0.8944 -0.1633
 5442SOL    HW127785   1.774   4.696   4.596 -0.9378  2.9649 -0.1445
 5442SOL    HW227786   1.895   0.037   4.650 -0.1842  0.8594 -0.0476
 5443SOL     OW27787   1.440   2.536   8.958 -0.2700  0.4857 -0.1679
 5443SOL    HW127788   1.432   2.510   9.049  0.1308  1.9957  0.3046
 5443SOL    HW227789   1.372   2.604   8.963 -1.3648 -0.4901 -1.7711
 5444SOL     OW27790   3.407   3.150   4.363  0.2305  0.0674  0.4863
 5444SOL    HW127791   3.345   3.097   4.414  2.2928 -3.0642 -0.2731
 5444SOL    HW227792   3.471   3.176   4.429 -0.1456  1.8353  0.1618
 5445SOL     OW27793   1.352   0.629   2.838  0.5037  0.1258 -0.3258
 5445SOL    HW127794   1.352   0.619   2.743 -1.2339 -2.7598 -0.0242
 5445SOL    HW227795   1.291   0.697   2.867  1.2161  0.1957  0.9802
 5446SOL     OW27796   2.998   1.503   5.112 -0.2126  0.0911 -0.4162
 5446SOL    HW127797   3.033   1.427   5.157 -1.6706  0.5100  1.4281
 5446SOL    HW227798   2.995   1.551   5.195 -0.1371 -1.1565  0.3120
 5447SOL     OW27799   4.193   1.948   7.449 -0.9703  1.1161 -0.5172
 5447SOL    HW127800   4.237   1.950   7.534  0.9729  0.5473 -1.5184
 5447SOL    HW227801   4.265   1.971   7.390 -1.1199 -0.2724 -1.2376
 5448SOL     OW27802   3.862   3.755   9.709 -0.4691  0.0636  0.0026
 5448SOL    HW127803   3.785   3.778   9.762  0.0201  1.0097  0.2967
 5448SOL    HW227804   3.828   3.765   9.621 -0.6823 -2.0261 -0.1553
 5449SOL     OW27805   4.582   1.085   1.476  0.0257  0.6434  0.3287
 5449SOL    HW127806   4.669   1.052   1.498 -0.4043 -0.5529  0.2018
 5449SOL    HW227807   4.607   1.143   1.405  0.6759  1.0539  0.8931
 5450SOL     OW27808   2.360   4.711   3.395  0.0493  0.8517 -0.1538
 5450SOL    HW127809   2.322   4.676   3.314  0.0638 -3.5507  1.7444
 5450SOL    HW227810   2.289   4.703   3.459  0.0445 -1.8717 -0.5034
 5451SOL     OW27811   1.318   3.387  13.332 -0.0317  0.6130 -0.2071
 5451SOL    HW127812   1.344   3.395  13.423  3.3312 -0.6432 -1.0228
 5451SOL    HW227813   1.317   3.291  13.331  1.2971  0.5950 -1.1800
 5452SOL     OW27814   3.347   0.860  13.635 -0.1962  0.3398  0.0085
 5452SOL    HW127815   3.269   0.882  13.584 -1.9595 -0.6565  2.2652
 5452SOL    HW227816   3.369   0.786  13.579  2.8156  0.2173  1.3007
 5453SOL     OW27817   3.787   0.983   6.746 -0.4149  0.2331  0.3166
 5453SOL    HW127818   3.882   0.975   6.737 -0.4575  0.4412 -0.3303
 5453SOL    HW227819   3.755   0.989   6.656 -1.2990  0.9417  0.6749
 5454SOL     OW27820   2.088   1.913   3.952 -0.9634  0.6798  0.3869
 5454SOL    HW127821   2.053   1.856   3.884  1.4399  1.8182 -1.8255
 5454SOL    HW227822   2.146   1.854   4.000 -0.6052  1.7280  1.2398
 5455SOL     OW27823   3.704   4.327  17.675  0.1986  0.1105  0.3499
 5455SOL    HW127824   3.773   4.372   0.022 -1.0402  2.1582  0.2186
 5455SOL    HW227825   3.755   4.260  17.629 -1.5487 -0.0960 -1.2828
 5456SOL     OW27826   1.111   3.107   0.106  0.1486 -0.2623  0.3203
 5456SOL    HW127827   1.131   3.069   0.192  0.2062  0.3619  0.5847
 5456SOL    HW227828   1.093   3.034   0.047  3.3924 -1.0630  0.3220
 5457SOL     OW27829   0.814   3.945   6.500 -0.2768  0.3746  0.3323
 5457SOL    HW127830   0.806   3.881   6.570 -0.6003  1.2499  1.0944
 5457SOL    HW227831   0.908   3.954   6.490 -0.4628  1.8711 -0.1222
 5458SOL     OW27832   1.232   2.855  12.602 -0.0267  0.3454 -0.3404
 5458SOL    HW127833   1.296   2.785  12.611 -0.5741  0.1849  2.1786
 5458SOL    HW227834   1.276   2.911  12.538 -0.6457  0.5232 -0.6056
 5459SOL     OW27835   1.240   0.350   0.252 -0.0198  0.5223  1.0957
 5459SOL    HW127836   1.297   0.297   0.307  1.3118  0.7364 -0.0823
 5459SOL    HW227837   1.195   0.412   0.309 -0.7064 -0.4334  1.5900
 5460SOL     OW27838   2.434   1.387   6.054 -0.0964 -0.1230  0.1892
 5460SOL    HW127839   2.367   1.350   6.111 -0.4209  0.2029  0.0171
 5460SOL    HW227840   2.510   1.334   6.080  1.8739  1.4157 -2.4261
 5461SOL     OW27841   3.834   3.288  11.066  0.2731  0.1868 -0.4878
 5461SOL    HW127842   3.877   3.326  11.143  1.6255  1.0381 -1.6566
 5461SOL    HW227843   3.743   3.292  11.094  0.9889 -0.8877  1.9635
 5462SOL     OW27844   4.567   2.133   2.195 -0.1893  0.3562  0.3175
 5462SOL    HW127845   4.648   2.111   2.242 -0.7883  0.6210  1.4782
 5462SOL    HW227846   4.585   2.200   2.130 -0.5405  0.4588  0.3283
 5463SOL     OW27847   4.222   1.607   0.257 -0.1107 -0.2584  0.4422
 5463SOL    HW127848   4.132   1.591   0.286 -0.6812 -1.7514 -2.1498
 5463SOL    HW227849   4.255   1.518   0.245 -0.8469 -0.4696 -0.0267
 5464SOL     OW27850   4.030   1.021  12.370  0.4963 -0.1090  0.0114
 5464SOL    HW127851   3.964   0.954  12.387  0.8015 -0.2021  0.8260
 5464SOL    HW227852   4.028   1.059  12.458 -0.3482  2.8186 -1.2558
 5465SOL     OW27853   0.082   3.252   0.999 -0.8165 -0.3364 -0.0796
 5465SOL    HW127854   0.021   3.325   0.985  2.3971  2.3423 -0.0340
 5465SOL    HW227855   0.049   3.207   1.076  0.8933 -0.7461  0.4096
 5466SOL     OW27856   0.502   3.633  11.280  0.5410 -0.3670 -0.5394
 5466SOL    HW127857   0.443   3.648  11.207  0.3357 -1.4678 -0.5968
 5466SOL    HW227858   0.585   3.620  11.233  1.3592 -0.3757  0.9059
 5467SOL     OW27859   4.367   1.592   1.653 -0.0775 -0.4609  0.0170
 5467SOL    HW127860   4.394   1.531   1.721  1.1577  0.2335  0.1652
 5467SOL    HW227861   4.336   1.532   1.586 -2.2902 -0.1439  0.7595
 5468SOL     OW27862   4.502   0.140   3.012  0.7510  0.6257  0.2326
 5468SOL    HW127863   4.472   0.058   3.051  0.2894  0.3512 -0.7117
 5468SOL    HW227864   4.503   0.128   2.917 -3.0827  2.4092 -0.0404
 5469SOL     OW27865   0.627   2.089  10.988  0.2701  0.1290  0.0646
 5469SOL    HW127866   0.533   2.102  10.998  0.2288  0.7614 -1.0774
 5469SOL    HW227867   0.652   2.105  11.079 -1.5088  0.9005  0.4100
 5470SOL     OW27868   1.020   3.757   8.144  0.2712 -0.1671 -0.5530
 5470SOL    HW127869   0.926   3.753   8.126 -0.4667  1.2210  2.8382
 5470SOL    HW227870   1.047   3.789   8.058  0.4295  0.0713 -0.4146
 5471SOL     OW27871   0.317   2.967   8.630 -0.6928 -0.1345 -0.7432
 5471SOL    HW127872   0.301   3.034   8.696  0.0645 -0.3971 -0.2983
 5471SOL    HW227873   0.362   3.014   8.560  2.7637  0.2808  1.7888
 5472SOL     OW27874   0.629   2.628   6.296  0.0418 -0.1461 -0.3796
 5472SOL    HW127875   0.564   2.648   6.363 -0.1668  0.9730 -0.9074
 5472SOL    HW227876   0.649   2.535   6.306 -0.0970 -0.1781 -0.3959
 5473SOL     OW27877   0.780   2.721  13.732 -0.4284  0.0140  0.5245
 5473SOL    HW127878   0.701   2.769  13.757 -0.6419 -0.8734  1.5905
 5473SOL    HW227879   0.781   2.719  13.637  0.1372 -2.0048  0.5559
 5474SOL     OW27880   1.424   3.873  17.520 -0.0714 -0.6165 -0.0047
 5474SOL    HW127881   1.466   3.860  17.605  0.8737  0.1455 -0.3589
 5474SOL    HW227882   1.370   3.950  17.537 -1.2658 -1.1912 -1.2083
 5475SOL     OW27883   0.969   0.863  14.501 -0.0332  0.2265 -0.4024
 5475SOL    HW127884   1.050   0.849  14.550 -0.8565  0.9729  1.1693
 5475SOL    HW227885   0.961   0.958  14.499 -0.0120  0.2575  1.4115
 5476SOL     OW27886   1.705   1.793   7.622 -0.2722 -0.1513 -0.6713
 5476SOL    HW127887   1.716   1.718   7.564 -1.4931 -0.3938 -0.5990
 5476SOL    HW227888   1.679   1.739   7.697  1.1994 -0.0011 -0.0468
 5477SOL     OW27889   1.460   0.385   1.589  0.7596  0.0966  0.1497
 5477SOL    HW127890   1.523   0.319   1.562 -0.7760 -1.4655  0.3809
 5477SOL    HW227891   1.470   0.399   1.683  1.3644  1.9933 -0.1865
 5478SOL     OW27892   1.414   3.595   9.420  0.2663  0.1173  0.7149
 5478SOL    HW127893   1.393   3.520   9.476 -2.2111  1.3665  1.4690
 5478SOL    HW227894   1.500   3.621   9.455 -0.3691  0.4631  2.0362
 5479SOL     OW27895   3.865   0.321  14.155 -0.2548  0.7152 -0.0721
 5479SOL    HW127896   3.947   0.295  14.196 -0.6084  0.2959  0.3651
 5479SOL    HW227897   3.853   0.410  14.188  1.4177  0.3076  1.6133
 5480SOL     OW27898   2.195   4.167  11.487 -0.1344 -0.2115  0.0907
 5480SOL    HW127899   2.254   4.128  11.552  0.1929  3.1460  1.8114
 5480SOL    HW227900   2.203   4.254  11.525  0.3903  0.5221 -1.7083
 5481SOL     OW27901   1.255   0.078   5.847 -0.4312 -0.1705  0.1744
 5481SOL    HW127902   1.253   4.722   5.897 -0.0110 -0.5013 -0.3517
 5481SOL    HW227903   1.162   0.097   5.832 -0.7962 -1.0661  1.2359
 5482SOL     OW27904   3.478   1.238  12.318 -0.0809  0.2853  0.4946
 5482SOL    HW127905   3.395   1.237  12.271  0.5601 -0.7274 -0.6087
 5482SOL    HW227906   3.453   1.257  12.409  0.2831  0.6286  0.5231
 5483SOL     OW27907   1.730   3.250   4.801  0.1422 -0.5864  0.1679
 5483SOL    HW127908   1.671   3.257   4.876 -0.9798 -3.5061 -0.4546
 5483SOL    HW227909   1.788   3.325   4.815  0.5010 -1.0041  0.8798
 5484SOL     OW27910   2.351   0.253  16.349  0.3091  0.3202 -0.2890
 5484SOL    HW127911   2.389   0.324  16.299  0.4580  1.2079  1.0889
 5484SOL    HW227912   2.293   0.307  16.403  0.1340  1.2772 -1.4391
 5485SOL     OW27913   1.068   2.107   5.721 -0.0092  0.2500 -0.3646
 5485SOL    HW127914   1.012   2.160   5.778 -3.0718 -2.2966 -0.9530
 5485SOL    HW227915   1.089   2.172   5.655 -1.4231  0.6633 -0.4158
 5486SOL     OW27916   2.718   0.191   3.623 -0.0350 -0.6881  0.0920
 5486SOL    HW127917   2.683   0.102   3.635 -1.4460 -0.1899 -0.2466
 5486SOL    HW227918   2.803   0.173   3.583 -0.3635  0.0400 -0.9068
 5487SOL     OW27919   2.635   4.555   1.938 -0.3599  0.0983  0.0412
 5487SOL    HW127920   2.677   4.587   1.858  0.7132  0.9260  0.9307
 5487SOL    HW227921   2.541   4.565   1.922 -0.1158 -0.2422 -1.5697
 5488SOL     OW27922   3.689   2.721   4.646 -0.3185 -0.1666 -0.3316
 5488SOL    HW127923   3.702   2.702   4.554 -2.6601  2.0711 -1.1069
 5488SOL    HW227924   3.684   2.630   4.676  0.7676 -0.5233 -1.2512
 5489SOL     OW27925   1.063   2.069   8.338  0.9679 -0.9612 -0.2828
 5489SOL    HW127926   1.140   2.056   8.282  1.9591 -0.0486  0.8650
 5489SOL    HW227927   1.040   2.161   8.321  0.4787 -0.6408  2.2046
 5490SOL     OW27928   2.177   1.583   2.419  0.1674  0.2562  0.5463
 5490SOL    HW127929   2.114   1.564   2.489  0.3858 -0.6569  0.4896
 5490SOL    HW227930   2.258   1.591   2.470  0.2633 -0.4852  0.5085
 5491SOL     OW27931   3.121   3.616   7.298  0.0449 -0.4417  0.3142
 5491SOL    HW127932   3.045   3.573   7.337 -0.4649  0.7089  0.6043
 5491SOL    HW227933   3.119   3.708   7.327  0.6450 -0.0240 -0.9866
 5492SOL     OW27934   4.623   1.439   3.968  0.0195 -0.0061  0.4837
 5492SOL    HW127935   4.632   1.388   4.049 -0.5867  1.2006  1.3069
 5492SOL    HW227936   4.681   1.392   3.908 -1.6786 -0.8176 -0.4990
 5493SOL     OW27937   3.042   4.064   4.967 -0.2619  0.0674 -0.1997
 5493SOL    HW127938   3.120   4.051   5.022  0.1367 -1.3951 -1.0973
 5493SOL    HW227939   3.086   4.040   4.885  0.4833  1.7436 -0.2906
 5494SOL     OW27940   0.998   0.207   7.955  0.2193  0.5146 -0.0510
 5494SOL    HW127941   1.017   0.194   7.863  1.9895 -3.3857  0.8886
 5494SOL    HW227942   0.903   0.191   7.952 -0.0523  2.2395 -0.4905
 5495SOL     OW27943   0.027   1.682   3.854 -0.0830  0.1410 -0.1698
 5495SOL    HW127944   4.689   1.687   3.926  0.3891 -2.6016  0.4404
 5495SOL    HW227945   0.092   1.632   3.904 -0.0188 -0.7132 -1.1054
 5496SOL     OW27946   0.415   2.655   6.475  0.7739 -0.7753  0.5141
 5496SOL    HW127947   0.345   2.645   6.410 -0.2317  0.6296  1.3705
 5496SOL    HW227948   0.364   2.666   6.555 -0.6312  2.2094 -0.7700
 5497SOL     OW27949   3.722   1.195   2.616 -0.5268  0.0852  0.9734
 5497SOL    HW127950   3.760   1.175   2.530 -0.3294  0.5344  0.9521
 5497SOL    HW227951   3.704   1.287   2.594 -1.8951 -0.2795  0.5572
 5498SOL     OW27952   1.538   1.363   7.162  0.1534 -0.0294  0.3461
 5498SOL    HW127953   1.533   1.458   7.152  2.0329 -0.0399 -0.7225
 5498SOL    HW227954   1.462   1.344   7.108 -0.0889  0.8459  0.3734
 5499SOL     OW27955   4.489   3.570  16.597 -0.0028 -0.0728  0.5693
 5499SOL    HW127956   4.397   3.590  16.581  0.5199  0.5709 -1.6507
 5499SOL    HW227957   4.524   3.652  16.561 -2.5420  0.9759  0.4667
 5500SOL     OW27958   1.082   4.667   7.202  0.2612 -0.6553 -0.0686
 5500SOL    HW127959   1.144   4.622   7.259  1.5930 -1.7558 -2.4158
 5500SOL    HW227960   1.066   4.601   7.135 -2.6992 -0.1962  0.1820
 5501SOL     OW27961   2.409   1.927   5.699 -0.2009 -0.6217 -0.4085
 5501SOL    HW127962   2.404   1.890   5.787  0.6971 -0.3708 -0.2479
 5501SOL    HW227963   2.319   1.913   5.672 -0.6867 -1.0498  1.4531
 5502SOL     OW27964   0.002   1.061   8.475  0.4084 -0.6918 -0.2292
 5502SOL    HW127965   4.641   1.084   8.508 -0.2119 -0.4117 -2.0842
 5502SOL    HW227966   0.061   1.053   8.550  2.1915  1.4717 -1.4014
 5503SOL     OW27967   2.654   2.746   4.505  0.3697 -0.0489 -0.2344
 5503SOL    HW127968   2.575   2.774   4.458 -0.0572 -1.2927 -0.2656
 5503SOL    HW227969   2.616   2.704   4.582  1.3568 -0.3106  0.1061
 5504SOL     OW27970   2.695   2.270   5.573  0.0879 -0.6350  0.0185
 5504SOL    HW127971   2.619   2.239   5.622  0.3917  0.7125  1.3421
 5504SOL    HW227972   2.645   2.303   5.498 -0.4169  0.5788  0.8806
 5505SOL     OW27973   3.154   1.366  16.677 -0.4612 -0.1596 -0.1839
 5505SOL    HW127974   3.125   1.277  16.698 -1.4361  0.4017  0.8620
 5505SOL    HW227975   3.078   1.403  16.633 -0.7937  0.3784  0.8397
 5506SOL     OW27976   1.010   3.583   1.681 -0.4036 -0.1107 -0.3148
 5506SOL    HW127977   0.976   3.648   1.620  0.8040  0.6563 -0.1599
 5506SOL    HW227978   1.000   3.503   1.629  2.2720  0.4749 -1.6890
 5507SOL     OW27979   1.448   1.280  13.668  0.0612 -0.5270  0.2149
 5507SOL    HW127980   1.508   1.270  13.593 -2.2806 -0.4772 -1.6638
 5507SOL    HW227981   1.387   1.207  13.661 -0.6605 -0.0513  1.6525
 5508SOL     OW27982   1.981   1.335   6.979 -0.3075 -0.4587  0.4492
 5508SOL    HW127983   2.071   1.348   7.008 -0.3580  0.3708  0.2639
 5508SOL    HW227984   1.974   1.240   6.976 -3.5302 -0.2036  0.0017
 5509SOL     OW27985   2.844   1.589   4.906 -0.8940  0.5386 -0.2315
 5509SOL    HW127986   2.766   1.599   4.960 -2.4589  1.3385 -2.6891
 5509SOL    HW227987   2.899   1.540   4.968 -0.3369  0.9768 -0.3848
 5510SOL     OW27988   0.727   3.489   7.951 -0.2529 -0.3254  0.0892
 5510SOL    HW127989   0.737   3.492   7.855 -4.0707 -1.5489 -0.3388
 5510SOL    HW227990   0.658   3.425   7.967 -0.7779 -0.4230 -2.5927
 5511SOL     OW27991   0.521   2.653   8.491 -1.0189  0.4546  0.5541
 5511SOL    HW127992   0.461   2.580   8.474  0.6593 -0.8448  0.1284
 5511SOL    HW227993   0.495   2.659   8.583  0.4174  2.2623  0.8309
 5512SOL     OW27994   4.461   2.214   0.581  0.3407  0.5021 -0.1566
 5512SOL    HW127995   4.406   2.234   0.505  0.3653  1.7575  0.1512
 5512SOL    HW227996   4.390   2.195   0.643  1.1501 -0.7011  0.3915
 5513SOL     OW27997   4.340   1.646   2.513  0.5277 -0.7070  0.2696
 5513SOL    HW127998   4.399   1.632   2.587 -0.4670  1.9233  1.5727
 5513SOL    HW227999   4.265   1.594   2.542 -0.3636  1.3759  1.7592
 5514SOL     OW28000   0.200   1.108   3.979 -0.5665 -0.1239 -0.0381
 5514SOL    HW128001   0.235   1.053   3.909  0.9337 -0.5062  1.0164
 5514SOL    HW228002   0.161   1.176   3.923 -0.5462  0.8496  1.1192
 5515SOL     OW28003   0.573   0.866   3.150 -0.3215 -0.6943 -0.1310
 5515SOL    HW128004   0.604   0.927   3.083  0.2996  0.6874  1.4105
 5515SOL    HW228005   0.655   0.820   3.168 -0.8022 -2.2209 -1.8330
 5516SOL     OW28006   0.988   1.295   8.192 -0.9168 -0.3571 -0.4542
 5516SOL    HW128007   0.931   1.261   8.260  0.3399 -1.8956 -0.1909
 5516SOL    HW228008   1.067   1.242   8.201 -0.1148  1.0390  0.7786
 5517SOL     OW28009   3.959   0.999   1.218 -0.7356  0.4065  0.4614
 5517SOL    HW128010   3.921   0.999   1.130  0.1446  2.6480  0.0838
 5517SOL    HW228011   3.918   0.922   1.259  1.0452  0.5248  2.4559
 5518SOL     OW28012   1.983   4.531   8.343  0.1454  1.0633 -0.2115
 5518SOL    HW128013   1.971   4.470   8.270 -1.0402  0.3869  0.5336
 5518SOL    HW228014   2.050   4.481   8.390 -1.4509 -2.5134 -1.6915
 5519SOL     OW28015   2.578   0.673   7.360  0.3795 -0.3337 -0.1497
 5519SOL    HW128016   2.484   0.660   7.377  0.6279 -1.5013  0.3309
 5519SOL    HW228017   2.609   0.592   7.320  0.8498 -0.2305  0.0087
 5520SOL     OW28018   4.170   1.054   0.201 -0.3040 -0.3041 -0.2480
 5520SOL    HW128019   4.142   0.984   0.260  0.5770  0.8147  1.5080
 5520SOL    HW228020   4.087   1.071   0.157 -1.0064  1.2109  1.7122
 5521SOL     OW28021   1.920   1.947   7.644 -0.3519  0.2714  0.4830
 5521SOL    HW128022   1.955   1.881   7.704  1.0063  1.3277  0.8480
 5521SOL    HW228023   1.834   1.913   7.618  0.2052 -1.3622  0.7505
 5522SOL     OW28024   2.404   2.217   7.568  0.3751 -0.1868  0.2589
 5522SOL    HW128025   2.382   2.224   7.660  1.7601  0.2747  0.5676
 5522SOL    HW228026   2.316   2.202   7.535  0.3966  0.0766  0.0734
 5523SOL     OW28027   0.190   0.892  13.956  0.0428 -0.4284 -0.0946
 5523SOL    HW128028   0.191   0.821  14.020  0.0702  1.2481  1.7666
 5523SOL    HW228029   0.133   0.855  13.889  1.4741  0.4455 -1.8223
 5524SOL     OW28030   1.963   2.522   6.217 -0.2501 -0.0642 -0.0195
 5524SOL    HW128031   1.986   2.428   6.218 -0.2132 -0.0426  2.3733
 5524SOL    HW228032   1.884   2.526   6.271 -0.6255  0.4651 -0.6232
 5525SOL     OW28033   4.542   4.591   3.041  0.0258 -0.2969 -0.5328
 5525SOL    HW128034   4.554   4.552   2.955 -0.0354 -0.5851 -0.4094
 5525SOL    HW228035   4.501   4.522   3.093 -0.6102 -2.7520 -4.3193
 5526SOL     OW28036   0.642   0.268   8.144 -0.4125 -0.1223  0.5056
 5526SOL    HW128037   0.602   0.354   8.162  0.0665  0.5503 -1.7028
 5526SOL    HW228038   0.568   0.212   8.123 -0.3885  0.2390 -0.5368
 5527SOL     OW28039   1.459   0.245   3.927 -0.9144 -0.1214  0.1627
 5527SOL    HW128040   1.442   0.157   3.960 -3.0842 -0.0547 -0.7920
 5527SOL    HW228041   1.534   0.280   3.974 -2.4534  0.2997  2.2949
 5528SOL     OW28042   2.701   2.439  15.722  0.2835  0.5068 -0.3355
 5528SOL    HW128043   2.673   2.530  15.711  0.9888  0.5624 -1.6485
 5528SOL    HW228044   2.795   2.438  15.742  0.5201 -1.9297 -1.5700
 5529SOL     OW28045   0.378   1.902   5.243  0.4530 -0.3418 -0.4749
 5529SOL    HW128046   0.296   1.923   5.199  0.9582 -0.2521 -1.3796
 5529SOL    HW228047   0.347   1.911   5.333  0.8571 -0.0484 -0.3618
 5530SOL     OW28048   0.338   1.320   7.165  0.4115  0.0242 -0.2215
 5530SOL    HW128049   0.347   1.284   7.253 -1.8140 -0.6378 -0.2783
 5530SOL    HW228050   0.310   1.238   7.126 -0.0793  0.7396 -1.3971
 5531SOL     OW28051   0.717   2.386   5.700 -0.4823  0.4929 -1.2024
 5531SOL    HW128052   0.806   2.363   5.725 -1.2627 -0.4467  0.8001
 5531SOL    HW228053   0.731   2.368   5.607 -0.7787 -0.8681 -0.9818
 5532SOL     OW28054   3.510   4.608   4.692  0.0205 -0.4282  0.3560
 5532SOL    HW128055   3.532   4.691   4.650  1.8692 -1.2080 -0.1926
 5532SOL    HW228056   3.576   4.613   4.761  0.0375 -1.9256  0.4398
 5533SOL     OW28057   4.539   4.318   2.444  0.3667  0.1549 -0.2117
 5533SOL    HW128058   4.459   4.322   2.392 -0.2199  0.8811  0.7387
 5533SOL    HW228059   4.527   4.229   2.476 -2.0527  1.1090  1.5745
 5534SOL     OW28060   1.346   3.698  10.793  0.7332  0.3027  0.1762
 5534SOL    HW128061   1.289   3.689  10.869 -1.7676 -0.8629 -1.8133
 5534SOL    HW228062   1.309   3.635  10.730  0.7252 -0.6721  1.1485
 5535SOL     OW28063   3.010   4.556   4.607 -0.0388  0.3696 -0.6322
 5535SOL    HW128064   2.927   4.579   4.649 -0.6359 -0.5417 -1.3244
 5535SOL    HW228065   3.044   4.637   4.568 -0.0110  0.9071  0.4881
 5536SOL     OW28066   4.563   1.143  12.276 -0.3569  0.2493 -1.1339
 5536SOL    HW128067   4.480   1.099  12.295 -0.5927  0.8582 -0.7551
 5536SOL    HW228068   4.573   1.179  12.364 -1.6064  0.3980 -1.0497
 5537SOL     OW28069   1.073   3.962   8.347  0.3618 -0.6729 -0.3695
 5537SOL    HW128070   1.138   3.986   8.281 -0.2982  1.8142 -0.0991
 5537SOL    HW228071   1.043   3.878   8.312  1.2645 -1.0687 -0.2024
 5538SOL     OW28072   3.026   2.966  14.019 -0.1376  0.1236 -0.0325
 5538SOL    HW128073   2.963   3.004  13.957  0.2509  1.0925  0.1717
 5538SOL    HW228074   3.067   2.902  13.961  1.1366  1.3648 -0.5050
 5539SOL     OW28075   3.616   3.900   7.411 -0.8841 -0.2858  0.5499
 5539SOL    HW128076   3.678   3.831   7.385 -0.9731  0.3473 -1.3467
 5539SOL    HW228077   3.657   3.983   7.389  1.5698 -2.0536 -1.6340
 5540SOL     OW28078   2.752   4.317  17.697  0.4318  0.5144 -0.4240
 5540SOL    HW128079   2.834   4.346  17.659  0.3258  1.4500  0.0560
 5540SOL    HW228080   2.771   4.229   0.027 -0.3651  0.2799 -0.5879
 5541SOL     OW28081   3.616   0.693  15.244 -0.2382 -0.1628 -0.5296
 5541SOL    HW128082   3.539   0.746  15.263 -0.1905 -0.0846 -0.5543
 5541SOL    HW228083   3.653   0.746  15.174 -0.7069  1.2472  0.2882
 5542SOL     OW28084   2.313   1.121   6.636  0.0579  0.1521 -0.5684
 5542SOL    HW128085   2.319   1.128   6.731 -0.9173  3.0720 -0.7084
 5542SOL    HW228086   2.227   1.162   6.621 -0.2544  0.3433  1.7379
 5543SOL     OW28087   0.265   4.630   0.662 -0.4464 -0.4546  0.2114
 5543SOL    HW128088   0.315   4.577   0.724  1.4097  1.0557  0.0087
 5543SOL    HW228089   0.175   4.620   0.694 -0.6963  0.2560 -0.2790
 5544SOL     OW28090   3.901   1.038   4.417 -0.1714 -0.1004  0.5359
 5544SOL    HW128091   3.858   0.954   4.432  0.7990 -0.8589 -0.9194
 5544SOL    HW228092   3.993   1.013   4.431  0.2718  0.5262 -1.2351
 5545SOL     OW28093   3.980   1.145   2.674  0.5677 -0.4194  0.0402
 5545SOL    HW128094   3.983   1.160   2.768  0.8899 -1.0344  0.1307
 5545SOL    HW228095   3.895   1.183   2.652  0.0679 -0.1987  2.4096
 5546SOL     OW28096   0.241   3.924   1.906 -0.5369  0.0284  0.0168
 5546SOL    HW128097   0.171   3.930   1.841 -0.4181 -0.4961 -0.1532
 5546SOL    HW228098   0.208   3.923   1.996 -1.6553 -1.9846 -0.4244
 5547SOL     OW28099   0.352   2.531   4.435  0.2031 -0.1660  0.2166
 5547SOL    HW128100   0.340   2.623   4.410  1.8639  0.2617  0.9950
 5547SOL    HW228101   0.318   2.529   4.525 -0.5794 -0.7823 -0.0955
 5548SOL     OW28102   1.993   4.151   8.349  0.5137  0.0199 -0.3017
 5548SOL    HW128103   1.990   4.230   8.294  2.2338  0.4729  0.2737
 5548SOL    HW228104   2.051   4.093   8.301  0.4805 -0.1384 -0.1501
 5549SOL     OW28105   1.848   1.471   8.300 -0.1542 -0.2445  0.2614
 5549SOL    HW128106   1.784   1.443   8.234  1.2629 -2.4351 -0.1791
 5549SOL    HW228107   1.806   1.438   8.380 -1.8944  0.6297 -0.2843
 5550SOL     OW28108   1.494   2.794   7.216  0.1472  0.7236 -0.3270
 5550SOL    HW128109   1.403   2.823   7.207  0.2826  1.4844  0.7531
 5550SOL    HW228110   1.493   2.747   7.300 -1.7776  1.3063 -0.0355
 5551SOL     OW28111   0.906   1.628   4.274 -0.2543  0.0331  0.6117
 5551SOL    HW128112   0.902   1.714   4.232 -1.8723  0.4514  1.6422
 5551SOL    HW228113   0.990   1.635   4.319  0.2133 -1.2646 -0.0599
 5552SOL     OW28114   3.845   0.337  11.507  0.2870  0.3910 -0.4097
 5552SOL    HW128115   3.834   0.318  11.601 -1.2676  0.8346 -0.4981
 5552SOL    HW228116   3.878   0.427  11.507  0.1024  0.4603 -0.0386
 5553SOL     OW28117   2.756   2.303   7.215 -0.3461 -0.0146 -0.4816
 5553SOL    HW128118   2.751   2.327   7.123 -0.6521 -0.7157 -0.6508
 5553SOL    HW228119   2.794   2.215   7.204 -2.9736 -1.2144  0.0711
 5554SOL     OW28120   2.221   1.311   3.725 -0.3535 -0.1841 -0.2659
 5554SOL    HW128121   2.225   1.218   3.705  0.7016 -0.7241  2.4010
 5554SOL    HW228122   2.271   1.339   3.649  1.4438  0.6553  1.2218
 5555SOL     OW28123   4.196   3.454   3.503 -1.0409  0.7938 -0.2244
 5555SOL    HW128124   4.139   3.441   3.579  1.7101  1.2458  1.8799
 5555SOL    HW228125   4.275   3.411   3.535 -0.1891  2.8444  0.4502
 5556SOL     OW28126   3.343   3.372  12.476 -0.2670 -0.2185  0.7478
 5556SOL    HW128127   3.272   3.353  12.537 -1.1838 -0.1612 -0.2993
 5556SOL    HW228128   3.364   3.464  12.496  0.4522 -0.3012  0.3686
 5557SOL     OW28129   1.268   4.532   7.406 -0.4994 -0.4323 -0.1833
 5557SOL    HW128130   1.330   4.520   7.478 -0.7348  0.6762  0.2037
 5557SOL    HW228131   1.187   4.536   7.456  1.2655 -0.0240  2.6557
 5558SOL     OW28132   3.009   1.219   2.314 -0.8159 -0.2515 -0.1299
 5558SOL    HW128133   2.939   1.205   2.251 -2.5860 -1.0344  1.9882
 5558SOL    HW228134   3.072   1.271   2.264 -1.8400 -0.7511 -1.9301
 5559SOL     OW28135   3.494   2.834  10.420 -0.0005  0.5441 -0.5675
 5559SOL    HW128136   3.493   2.779  10.499  3.1410 -0.1758 -1.0178
 5559SOL    HW228137   3.484   2.917  10.466 -0.4941 -0.1106  0.5006
 5560SOL     OW28138   1.083   3.389  13.166 -0.1672  0.4572  0.2100
 5560SOL    HW128139   1.167   3.418  13.202  0.2637 -1.2749  0.5821
 5560SOL    HW228140   1.053   3.463  13.112  0.6997  0.1995 -0.6194
 5561SOL     OW28141   0.167   2.294   6.570 -0.1006  0.7572 -0.9461
 5561SOL    HW128142   0.117   2.350   6.629  1.1833 -0.2503  1.0872
 5561SOL    HW228143   0.120   2.212   6.556 -0.1118  0.2442  2.1317
 5562SOL     OW28144   0.013   2.752   8.037 -0.0317 -0.0092  0.1199
 5562SOL    HW128145   4.716   2.689   8.105  0.6662 -0.7297 -0.3248
 5562SOL    HW228146   0.051   2.703   7.964  0.1868  0.3780 -0.0315
 5563SOL     OW28147   0.133   4.228  15.039 -1.5090  0.4220 -0.3094
 5563SOL    HW128148   0.226   4.228  15.065 -1.5034  1.0589 -0.3142
 5563SOL    HW228149   0.136   4.167  14.965  1.2637 -2.1031  1.8893
 5564SOL     OW28150   1.910   1.774   5.899 -0.3133 -0.1547  0.1067
 5564SOL    HW128151   1.846   1.828   5.855  0.5915 -1.3822 -2.6868
 5564SOL    HW228152   1.946   1.835   5.964 -1.3876  1.0806 -0.4703
 5565SOL     OW28153   4.722   0.335   5.880  0.5725  0.2252  0.5201
 5565SOL    HW128154   0.093   0.336   5.890  0.8104  1.5178 -1.7902
 5565SOL    HW228155   4.718   0.311   5.787  0.9353  1.5525  0.1650
 5566SOL     OW28156   2.429   3.646   2.492  0.3967 -0.2506 -0.3157
 5566SOL    HW128157   2.411   3.577   2.557 -0.6437  1.2021  0.9308
 5566SOL    HW228158   2.341   3.661   2.457 -0.4521 -0.3460  1.7494
 5567SOL     OW28159   0.262   0.016   1.767 -0.5042  0.4482  0.7116
 5567SOL    HW128160   0.305   4.661   1.738  2.0267  1.5287  1.4859
 5567SOL    HW228161   0.168   4.725   1.763 -0.3570  0.2704 -2.0871
 5568SOL     OW28162   3.274   2.107  11.517  0.3442 -0.2912  0.1028
 5568SOL    HW128163   3.223   2.093  11.597  1.0918  4.4381  1.4155
 5568SOL    HW228164   3.208   2.148  11.461  3.4132  1.7070 -2.0101
 5569SOL     OW28165   3.527   1.709   4.874  0.1796  0.3059  0.6739
 5569SOL    HW128166   3.590   1.637   4.871 -1.7123 -1.3904  2.0071
 5569SOL    HW228167   3.472   1.681   4.948 -0.7836  0.1018 -0.1238
 5570SOL     OW28168   0.623   2.901   7.256 -0.4496 -0.2501  0.1482
 5570SOL    HW128169   0.594   2.932   7.170 -1.0293  0.7494  0.7005
 5570SOL    HW228170   0.592   2.811   7.256 -1.2733  0.0318  0.4455
 5571SOL     OW28171   0.763   2.303   2.350 -0.4647 -0.3876  0.2852
 5571SOL    HW128172   0.748   2.361   2.425 -2.3945  0.6877 -0.9217
 5571SOL    HW228173   0.850   2.269   2.366 -0.4820  0.1791  1.5745
 5572SOL     OW28174   2.964   0.799   6.077  0.3958  0.5631 -0.1745
 5572SOL    HW128175   2.884   0.748   6.061 -1.0449  2.8435 -0.2041
 5572SOL    HW228176   2.976   0.812   6.171  1.1714 -2.0735  0.0855
 5573SOL     OW28177   4.363   4.074   6.143  0.2854 -0.4264 -0.2101
 5573SOL    HW128178   4.349   4.159   6.184  0.7430 -0.5230  0.1425
 5573SOL    HW228179   4.385   4.099   6.053  3.0410  0.8401  0.8153
 5574SOL     OW28180   2.400   4.028  13.032  0.5181 -0.0410  0.1838
 5574SOL    HW128181   2.486   3.991  13.051  0.4063 -0.7892 -0.7888
 5574SOL    HW228182   2.429   4.119  13.020 -1.1958  0.5144  0.1866
 5575SOL     OW28183   2.193   0.292   7.732 -0.5631 -0.3048 -0.2822
 5575SOL    HW128184   2.274   0.312   7.686  0.4790 -3.6818  0.0639
 5575SOL    HW228185   2.175   0.201   7.708  0.6528 -1.1298  1.9660
 5576SOL     OW28186   1.350   1.762   5.481 -0.0582 -0.2355  0.6442
 5576SOL    HW128187   1.309   1.774   5.395  1.0183  2.0810  0.4614
 5576SOL    HW228188   1.391   1.676   5.476 -0.2567 -0.1291 -2.9978
 5577SOL     OW28189   0.207   1.634   0.193 -0.5240 -0.1957 -0.1547
 5577SOL    HW128190   0.198   1.543   0.165  0.0492 -0.2442 -0.1933
 5577SOL    HW228191   0.299   1.633   0.219 -0.9661 -0.6972  1.4077
 5578SOL     OW28192   3.679   3.449   2.118 -0.0957  0.2872  0.4804
 5578SOL    HW128193   3.656   3.365   2.159 -0.9650 -0.3195 -1.2326
 5578SOL    HW228194   3.737   3.424   2.046  0.0889  0.3097  0.6228
 5579SOL     OW28195   4.058   2.816   3.535 -0.3960 -0.3414 -0.0220
 5579SOL    HW128196   4.049   2.721   3.549  0.4608 -0.6091 -1.2750
 5579SOL    HW228197   4.053   2.814   3.440 -0.4954  0.2338 -0.0263
 5580SOL     OW28198   1.176   2.089  12.779 -0.0273 -0.3219  0.6228
 5580SOL    HW128199   1.251   2.061  12.726 -1.4067 -0.5057 -1.1989
 5580SOL    HW228200   1.109   2.079  12.712  0.7836 -1.0223 -0.0883
 5581SOL     OW28201   0.205   3.074  14.649 -0.1969  0.3979 -0.0935
 5581SOL    HW128202   0.166   3.132  14.714  1.0145 -0.4640  1.4157
 5581SOL    HW228203   0.223   3.136  14.579 -1.6780  1.6380  0.6156
 5582SOL     OW28204   0.481   0.492  11.626  0.2835 -0.1507 -0.7495
 5582SOL    HW128205   0.522   0.571  11.590 -0.2796  1.4543  2.1547
 5582SOL    HW228206   0.389   0.504  11.605 -0.1520  0.8050  1.7074
 5583SOL     OW28207   0.506   4.173   4.318  0.4688  0.0702 -0.3286
 5583SOL    HW128208   0.439   4.220   4.269 -0.1439  0.2941  0.7475
 5583SOL    HW228209   0.476   4.188   4.407 -0.4532  0.4823 -0.7059
 5584SOL     OW28210   0.234   0.166   2.011 -0.1430  0.2818 -0.6979
 5584SOL    HW128211   0.244   0.136   1.920 -1.4357  0.8110 -1.0039
 5584SOL    HW228212   0.231   0.083   2.058 -0.3440  0.4012 -0.5003
 5585SOL     OW28213   1.284   3.848   7.117  0.4445 -0.3860 -0.0617
 5585SOL    HW128214   1.258   3.759   7.138 -0.9024  0.1423  0.5466
 5585SOL    HW228215   1.278   3.841   7.022  0.1238  0.4866 -0.1110
 5586SOL     OW28216   2.937   0.013   9.230 -0.5247  0.7249  0.0692
 5586SOL    HW128217   2.856   4.704   9.269 -0.1308  0.5538  0.7385
 5586SOL    HW228218   3.001   4.697   9.289  1.0190  0.5033 -1.7824
 5587SOL     OW28219   0.720   2.663   9.614  0.0122 -0.5448  0.3324
 5587SOL    HW128220   0.807   2.643   9.647  0.1901  1.4947  1.1108
 5587SOL    HW228221   0.687   2.710   9.691  0.5465 -0.2793  0.4015
 5588SOL     OW28222   1.794   1.890   3.019 -0.1843 -0.1019 -0.1276
 5588SOL    HW128223   1.864   1.866   3.079  1.0398  0.7302 -1.2107
 5588SOL    HW228224   1.721   1.913   3.077  1.0347  1.5338  0.7499
 5589SOL     OW28225   1.191   4.264   2.143 -0.3615  0.2725  0.2371
 5589SOL    HW128226   1.239   4.182   2.139  0.5402  0.7230  1.6909
 5589SOL    HW228227   1.258   4.323   2.179  1.2548 -0.2030 -1.9753
 5590SOL     OW28228   2.498   2.358   7.348 -0.1579 -0.3359  0.0824
 5590SOL    HW128229   2.493   2.285   7.410  1.9065  1.1669  2.0369
 5590SOL    HW228230   2.580   2.346   7.300 -0.0436  0.1027  0.1647
 5591SOL     OW28231   4.610   0.419  15.664  0.1345 -0.0682  0.2161
 5591SOL    HW128232   4.570   0.448  15.582  1.0152 -1.4597 -0.7132
 5591SOL    HW228233   4.552   0.344  15.674  2.5279 -1.8746  0.4846
 5592SOL     OW28234   3.538   1.238   4.741  0.1363  0.0925 -0.3167
 5592SOL    HW128235   3.585   1.227   4.658 -1.6042  0.3916 -1.3446
 5592SOL    HW228236   3.576   1.317   4.778  0.6870 -0.2043 -0.2580
 5593SOL     OW28237   0.834   2.566   9.110  0.2183 -0.1400 -0.2265
 5593SOL    HW128238   0.805   2.564   9.201  0.7309  1.4721 -0.0211
 5593SOL    HW228239   0.884   2.647   9.123 -0.6979  0.3814  0.0147
 5594SOL     OW28240   0.308   4.483  17.301 -0.0320  0.4851  0.0273
 5594SOL    HW128241   0.362   4.495  17.222  2.5772  0.4696  1.8034
 5594SOL    HW228242   0.366   4.517  17.370  0.4480 -0.4109  0.0618
 5595SOL     OW28243   1.257   0.525   4.989  0.3313  0.1266 -0.2258
 5595SOL    HW128244   1.308   0.538   5.069  1.1148  0.8100 -0.8491
 5595SOL    HW228245   1.245   0.615   4.961  2.1562 -0.2997 -2.3695
 5596SOL     OW28246   1.323   1.317  11.435  0.8462  0.3385 -0.2946
 5596SOL    HW128247   1.338   1.236  11.483 -1.7578  0.0728  0.0712
 5596SOL    HW228248   1.392   1.318  11.368 -0.9446 -2.5079 -2.1568
 5597SOL     OW28249   2.475   0.988   9.196 -0.2170 -0.2661 -0.3162
 5597SOL    HW128250   2.556   0.961   9.152  0.1740  1.6123 -0.7576
 5597SOL    HW228251   2.514   1.030   9.272 -0.0307  0.0312 -0.5759
 5598SOL     OW28252   3.046   2.216   2.292 -0.6271  0.5122  0.1881
 5598SOL    HW128253   3.104   2.277   2.338 -1.3294  0.7410  0.7725
 5598SOL    HW228254   3.107   2.195   2.222  2.3143  2.0158  2.3295
 5599SOL     OW28255   2.009   4.462  10.643 -0.1193  0.4740 -0.3058
 5599SOL    HW128256   1.933   4.450  10.585  1.0790 -1.5770 -1.4694
 5599SOL    HW228257   2.003   4.556  10.659 -1.2502 -0.0351  2.1841
 5600SOL     OW28258   2.688   4.471   3.439 -0.8103 -0.0942 -0.1455
 5600SOL    HW128259   2.596   4.469   3.466 -0.4491 -1.0797  1.0008
 5600SOL    HW228260   2.702   4.377   3.450 -1.8346 -0.3905 -1.4790
 5601SOL     OW28261   3.398   1.022   7.651  0.1861 -0.1924 -0.1440
 5601SOL    HW128262   3.337   0.950   7.664 -1.6670  0.5491 -4.7222
 5601SOL    HW228263   3.418   1.010   7.558 -0.2271  0.4744 -0.3100
 5602SOL     OW28264   3.158   0.362   4.704  0.2531  0.2771  0.1681
 5602SOL    HW128265   3.208   0.281   4.702  1.5341  1.0612  0.0709
 5602SOL    HW228266   3.189   0.406   4.783  0.4801 -2.1267  1.4162
 5603SOL     OW28267   1.215   0.818   1.793  0.3375 -0.4215  0.0708
 5603SOL    HW128268   1.225   0.864   1.710  0.4773  1.8093  1.3134
 5603SOL    HW228269   1.144   0.872   1.828  1.1415  0.5469  0.2249
 5604SOL     OW28270   0.254   1.118  17.174 -0.1559  0.3101 -0.1250
 5604SOL    HW128271   0.215   1.086  17.092 -0.9561 -1.6425  1.0279
 5604SOL    HW228272   0.178   1.156  17.217 -0.6315 -3.3753  2.2342
 5605SOL     OW28273   3.014   3.645  16.121  0.8103 -0.0314  0.2608
 5605SOL    HW128274   3.097   3.685  16.098  0.8621  1.3438  2.8370
 5605SOL    HW228275   3.032   3.616  16.210 -3.5823 -0.5745  0.9728
 5606SOL     OW28276   0.307   1.296  13.313 -0.3028  0.2795 -0.1679
 5606SOL    HW128277   0.215   1.281  13.333 -0.6612  0.7901 -1.4707
 5606SOL    HW228278   0.341   1.221  13.363  0.8490  0.6532 -0.3906
 5607SOL     OW28279   3.249   0.571   7.137 -0.3483 -0.6961  0.4109
 5607SOL    HW128280   3.233   0.648   7.083 -1.5150 -1.3762 -0.2115
 5607SOL    HW228281   3.299   0.509   7.084 -0.1182 -0.0707 -0.1006
 5608SOL     OW28282   4.446   4.638   6.518  0.0691  0.2758  0.2007
 5608SOL    HW128283   4.464   4.699   6.589  0.2399 -1.0854  1.3397
 5608SOL    HW228284   4.410   4.570   6.576  1.0041 -0.6648 -0.3224
 5609SOL     OW28285   2.641   0.393   9.185  0.5476  0.1446  0.4760
 5609SOL    HW128286   2.630   0.471   9.131  3.1458 -0.0907 -0.3864
 5609SOL    HW228287   2.578   0.418   9.252 -0.7086  2.2893 -1.5299
 5610SOL     OW28288   2.024   4.551   3.252 -0.0833  0.1733  0.0416
 5610SOL    HW128289   2.107   4.572   3.210 -1.1049  1.0412 -1.5197
 5610SOL    HW228290   1.979   4.511   3.178  1.0405 -1.7766  0.4095
 5611SOL     OW28291   3.546   0.262   2.599  0.0081  0.2585  0.7314
 5611SOL    HW128292   3.613   0.284   2.664 -0.7721 -0.4632  1.7793
 5611SOL    HW228293   3.509   0.195   2.655 -1.9456  1.3808  0.7625
 5612SOL     OW28294   3.936   3.118   9.310 -0.1698 -0.0133 -0.0046
 5612SOL    HW128295   3.856   3.167   9.292  0.8969  1.6146 -0.2792
 5612SOL    HW228296   3.909   3.026   9.301 -0.0015  0.2976 -3.5519
 5613SOL     OW28297   2.681   3.763   6.567 -0.0242 -0.3754  0.1508
 5613SOL    HW128298   2.726   3.847   6.574 -0.1966 -0.5861  3.8421
 5613SOL    HW228299   2.590   3.787   6.550  1.0397  1.2217 -3.2066
 5614SOL     OW28300   2.169   0.410   0.725 -0.4115  0.6490 -0.0078
 5614SOL    HW128301   2.251   0.374   0.691 -0.0381  0.5325  1.0110
 5614SOL    HW228302   2.107   0.366   0.666  0.8067 -2.0643  0.7210
 5615SOL     OW28303   3.219   1.791   1.194  0.0824 -0.0459  0.3558
 5615SOL    HW128304   3.168   1.763   1.119 -0.0510  1.7948 -0.2279
 5615SOL    HW228305   3.189   1.721   1.253 -0.4108  1.4781  1.9067
 5616SOL     OW28306   2.591   1.655   6.654 -0.0248 -0.2322 -0.0598
 5616SOL    HW128307   2.644   1.687   6.580 -0.6473  0.0538 -0.3792
 5616SOL    HW228308   2.655   1.600   6.699  0.3381 -0.3902 -0.7604
 5617SOL     OW28309   1.950   2.984   6.167  0.0225  0.1576 -0.0157
 5617SOL    HW128310   1.981   2.921   6.231 -0.6912  0.2219  0.3974
 5617SOL    HW228311   2.023   3.046   6.174 -0.2162  0.5722 -1.1381
 5618SOL     OW28312   4.031   2.060   4.210 -0.8083  0.0494 -0.1374
 5618SOL    HW128313   3.995   1.992   4.152  0.1113  1.2381 -2.0946
 5618SOL    HW228314   4.125   2.063   4.197 -0.9817  4.3356 -0.3884
 5619SOL     OW28315   1.015   1.082  16.750 -0.3063 -0.3728  0.5934
 5619SOL    HW128316   0.964   1.143  16.802 -0.4514 -1.5264  1.7990
 5619SOL    HW228317   0.951   1.020  16.715 -0.7845  0.1880  0.4857
 5620SOL     OW28318   1.119   2.222   2.121  0.1051 -0.1799 -0.4347
 5620SOL    HW128319   1.028   2.246   2.104  0.0279 -0.8117 -0.9007
 5620SOL    HW228320   1.167   2.304   2.136 -2.3609  1.2648 -0.4287
 5621SOL     OW28321   4.289   1.442   3.555  0.1109 -0.2500 -0.2514
 5621SOL    HW128322   4.337   1.424   3.474 -0.6658  1.6365 -1.1570
 5621SOL    HW228323   4.275   1.537   3.556 -0.2015 -0.3279  2.4830
 5622SOL     OW28324   2.549   0.910   7.196 -0.0945  0.1361 -0.5865
 5622SOL    HW128325   2.577   0.853   7.268 -1.0667  1.5116  0.8707
 5622SOL    HW228326   2.509   0.846   7.137  0.9685 -1.6688  0.6439
 5623SOL     OW28327   0.758   1.994   0.970 -0.6609 -0.6582  0.2370
 5623SOL    HW128328   0.689   1.939   0.932  0.9648 -0.8424 -2.4740
 5623SOL    HW228329   0.806   2.018   0.890  0.7306  2.4261  1.9750
 5624SOL     OW28330   2.016   0.617   7.330 -0.1461 -0.1697  0.1652
 5624SOL    HW128331   2.031   0.580   7.417  0.7180  0.8784  0.4597
 5624SOL    HW228332   2.030   0.710   7.346 -1.4649  0.2448 -1.1170
 5625SOL     OW28333   3.624   2.462   6.577 -0.7324 -0.2619  0.8577
 5625SOL    HW128334   3.655   2.462   6.668 -0.0350 -0.2643  0.6198
 5625SOL    HW228335   3.604   2.554   6.556 -0.4240 -0.2125  0.7835
 5626SOL     OW28336   0.517   1.302   5.567  0.4417 -0.0181 -0.0214
 5626SOL    HW128337   0.593   1.351   5.597  0.6424 -1.2615  1.4748
 5626SOL    HW228338   0.482   1.366   5.505  0.0832 -0.3025 -0.1139
 5627SOL     OW28339   0.770   0.079   0.697  0.4000 -0.7203 -0.5066
 5627SOL    HW128340   0.827   0.078   0.620  1.1839  1.2530  0.0497
 5627SOL    HW228341   0.689   0.116   0.660 -0.7769 -3.1750 -0.3402
 5628SOL     OW28342   1.552   2.229   5.023 -0.0637  0.2558  0.1634
 5628SOL    HW128343   1.607   2.303   5.050  1.2949 -1.0605  1.0144
 5628SOL    HW228344   1.578   2.162   5.085  2.0935  0.8592 -0.0757
 5629SOL     OW28345   0.671   2.225  16.570  0.4022  0.4121 -0.3454
 5629SOL    HW128346   0.745   2.195  16.517 -0.2004 -1.9147  0.1311
 5629SOL    HW228347   0.701   2.206  16.659 -1.2602  1.4119  0.4416
 5630SOL     OW28348   0.003   2.882  12.976 -0.1422 -0.0159 -0.0058
 5630SOL    HW128349   0.069   2.950  12.990  1.9293 -2.1733  0.6571
 5630SOL    HW228350   4.692   2.909  12.891 -0.9485  2.2151  1.0457
 5631SOL     OW28351   1.479   4.096  14.837 -0.1554 -0.1742  0.6422
 5631SOL    HW128352   1.452   4.146  14.915 -0.6243  1.3669 -0.5101
 5631SOL    HW228353   1.564   4.057  14.856 -0.0036 -0.8402 -1.4359
 5632SOL     OW28354   2.963   0.161   7.754  0.3883  0.2986 -0.0880
 5632SOL    HW128355   3.002   0.081   7.718  0.8284  0.7525 -0.6341
 5632SOL    HW228356   3.041   0.187   7.803  0.7332 -0.5431 -0.1869
 5633SOL     OW28357   0.657   2.734  15.166  0.2425 -0.1736 -0.1489
 5633SOL    HW128358   0.575   2.766  15.128 -0.0684  0.2085  0.8350
 5633SOL    HW228359   0.721   2.797  15.132 -1.8970  1.1551 -1.6970
 5634SOL     OW28360   3.226   1.048   5.747  0.0371 -0.0417 -0.1201
 5634SOL    HW128361   3.252   0.974   5.694  1.4958 -1.0147  1.9436
 5634SOL    HW228362   3.147   1.074   5.699  1.1036  2.6385 -0.4361
 5635SOL     OW28363   2.707   1.243  14.460 -0.1009  0.0675 -0.4482
 5635SOL    HW128364   2.645   1.276  14.524 -0.2715 -3.4067  1.1750
 5635SOL    HW228365   2.713   1.311  14.393 -2.5384  1.5362  0.8426
 5636SOL     OW28366   2.793   1.762   5.542 -0.3405  0.9601  0.3367
 5636SOL    HW128367   2.766   1.826   5.477 -2.1466 -1.1420 -0.9810
 5636SOL    HW228368   2.787   1.812   5.623  0.5776  0.5391  0.6681
 5637SOL     OW28369   0.087   1.484   7.074 -0.4055 -0.3864  0.3305
 5637SOL    HW128370   0.080   1.439   6.990  0.4724  1.3109 -0.6658
 5637SOL    HW228371   0.141   1.424   7.125  1.7123  1.9581  0.8708
 5638SOL     OW28372   3.221   2.002   1.768 -0.1022 -0.3764 -0.0816
 5638SOL    HW128373   3.229   1.948   1.846  1.5466  0.4941  0.3337
 5638SOL    HW228374   3.138   1.973   1.731 -0.1109  1.2997 -1.3743
 5639SOL     OW28375   4.672   2.434   7.064 -0.1927 -0.3929  0.2693
 5639SOL    HW128376   4.685   2.339   7.072  0.1999 -0.4388 -0.8646
 5639SOL    HW228377   4.605   2.442   6.996  2.1312 -0.5948 -2.0805
 5640SOL     OW28378   1.005   1.167   4.299 -0.2981  0.5905  0.3594
 5640SOL    HW128379   1.004   1.071   4.308 -0.2565  0.4890 -0.6493
 5640SOL    HW228380   1.072   1.200   4.359  0.8868 -0.0188 -0.6121
 5641SOL     OW28381   1.199   1.630   7.073 -0.4939  0.5616  0.2980
 5641SOL    HW128382   1.171   1.539   7.063  1.3642 -0.0684  0.7561
 5641SOL    HW228383   1.192   1.658   6.982 -1.9520 -2.4020 -0.5031
 5642SOL     OW28384   1.180   4.060  10.286  0.1354  0.1613 -0.2714
 5642SOL    HW128385   1.186   4.123  10.214  1.4151  0.2703 -0.0601
 5642SOL    HW228386   1.110   4.108  10.330  0.1595 -0.2287  0.1872
 5643SOL     OW28387   0.167   0.305  13.891  0.1658  0.5607 -0.0114
 5643SOL    HW128388   0.117   0.320  13.972  0.1030 -1.1421  0.2521
 5643SOL    HW228389   0.169   0.210  13.890  0.0167  0.5810 -1.5274
 5644SOL     OW28390   2.802   0.282   1.486 -0.1829 -0.2111 -0.5061
 5644SOL    HW128391   2.789   0.189   1.506  0.8426 -0.4561 -0.9813
 5644SOL    HW228392   2.897   0.291   1.491 -0.1450 -0.0159 -1.5862
 5645SOL     OW28393   2.358   4.070  10.537 -0.0930  0.2292 -0.2609
 5645SOL    HW128394   2.403   4.046  10.456 -0.2162  0.2978 -0.3489
 5645SOL    HW228395   2.344   4.163  10.518  2.0071  0.2716 -1.6781
 5646SOL     OW28396   3.897   3.158   4.771  0.3589  0.5624  0.0710
 5646SOL    HW128397   3.975   3.128   4.724 -0.7920 -0.6389 -1.0447
 5646SOL    HW228398   3.835   3.094   4.738  3.4707 -1.3712 -2.0603
 5647SOL     OW28399   1.783   3.582   3.938  0.0956 -0.4379 -0.4700
 5647SOL    HW128400   1.744   3.614   3.857 -0.8372 -1.7584 -0.5297
 5647SOL    HW228401   1.865   3.630   3.952 -0.8156  0.8934  0.2475
 5648SOL     OW28402   2.480   0.203   4.888  0.6091 -0.8494 -0.4402
 5648SOL    HW128403   2.483   0.109   4.869 -0.0226 -0.5690 -1.8942
 5648SOL    HW228404   2.463   0.243   4.803 -0.7676  0.0981  0.2674
 5649SOL     OW28405   0.218   3.123   6.875  0.1453 -0.3410  0.4314
 5649SOL    HW128406   0.291   3.095   6.820  1.5538  1.5233  1.3154
 5649SOL    HW228407   0.150   3.057   6.864 -0.6542  0.7008 -0.9250
 5650SOL     OW28408   1.949   2.254   8.564 -0.2986  0.4950 -0.6981
 5650SOL    HW128409   1.902   2.336   8.553  1.1337  1.5684  1.3107
 5650SOL    HW228410   1.879   2.199   8.529 -1.0608  1.3837 -0.5655
 5651SOL     OW28411   1.227   4.339  16.264  0.0904 -0.0279  0.5557
 5651SOL    HW128412   1.238   4.399  16.338 -0.6677 -0.2057  0.8138
 5651SOL    HW228413   1.133   4.344  16.247 -0.1107  1.7650  2.2544
 5652SOL     OW28414   3.090   4.417   6.409 -0.3092 -0.9714  0.0358
 5652SOL    HW128415   3.142   4.339   6.427  1.3287  0.6472  2.4118
 5652SOL    HW228416   3.125   4.433   6.322  1.9791 -0.9626  0.9556
 5653SOL     OW28417   2.901   0.960   3.983 -0.2678 -0.0021 -0.6424
 5653SOL    HW128418   2.840   0.955   4.057 -0.3478 -2.0958 -0.8457
 5653SOL    HW228419   2.836   0.934   3.917  0.8132  0.5227 -1.9116
 5654SOL     OW28420   1.655   0.639   1.600  0.3049 -0.4662  0.4803
 5654SOL    HW128421   1.628   0.547   1.607  1.4941 -1.0290 -2.3274
 5654SOL    HW228422   1.749   0.637   1.586  0.4191 -1.3231  1.3927
 5655SOL     OW28423   0.161   0.932   4.640 -0.4060 -0.3730  0.2337
 5655SOL    HW128424   0.185   0.974   4.557 -2.6570 -0.1153 -0.2894
 5655SOL    HW228425   0.118   0.856   4.601  1.7882 -0.9084 -1.0826
 5656SOL     OW28426   0.033   2.528   1.952 -0.1034  0.2440  0.4094
 5656SOL    HW128427   0.044   2.546   1.858 -4.6363  0.3299 -0.1229
 5656SOL    HW228428   4.668   2.500   1.968 -0.2401  0.1527 -0.5153
 5657SOL     OW28429   3.771   2.738   9.107 -0.4503 -0.0063  0.4131
 5657SOL    HW128430   3.702   2.683   9.144 -0.9427 -0.8875 -1.8657
 5657SOL    HW228431   3.773   2.703   9.018  1.9817 -1.4443  1.0616
 5658SOL     OW28432   4.428   3.861   8.608 -0.2736  0.5152 -0.3177
 5658SOL    HW128433   4.402   3.771   8.588  1.6783 -0.3445  1.0488
 5658SOL    HW228434   4.500   3.877   8.547 -0.6280  1.1118 -0.5837
 5659SOL     OW28435   3.947   3.348  11.342  0.1028  0.5741 -0.0086
 5659SOL    HW128436   4.039   3.375  11.339  0.2475 -0.1242 -2.4819
 5659SOL    HW228437   3.951   3.254  11.356 -2.6603  0.2091 -1.6428
 5660SOL     OW28438   2.675   2.958   5.698 -0.0203 -0.1929  0.3601
 5660SOL    HW128439   2.724   2.907   5.634 -2.7280 -0.9352 -1.1473
 5660SOL    HW228440   2.733   3.033   5.706  0.2018  0.0172 -3.1436
 5661SOL     OW28441   2.870   2.728  14.677  0.2822  0.2920 -0.0224
 5661SOL    HW128442   2.834   2.649  14.717  0.5871 -0.4572 -1.2166
 5661SOL    HW228443   2.860   2.695  14.587  2.2943 -1.9553  0.5995
 5662SOL     OW28444   0.450   0.672  13.797 -0.2180 -0.2032  0.2418
 5662SOL    HW128445   0.445   0.677  13.892  0.8470 -0.1331  0.2880
 5662SOL    HW228446   0.371   0.713  13.762  1.2856  3.1817  0.8262
 5663SOL     OW28447   2.112   3.655  14.781  0.3504 -0.2770  0.2332
 5663SOL    HW128448   2.147   3.704  14.707  2.2364 -1.9030  0.0348
 5663SOL    HW228449   2.195   3.625  14.819  1.5116  0.0040 -2.1234
 5664SOL     OW28450   2.940   2.368   7.992 -0.4264 -0.0156  0.6212
 5664SOL    HW128451   2.891   2.415   8.060 -0.6955  1.3737 -0.5347
 5664SOL    HW228452   2.953   2.433   7.923 -0.1729  0.9580  1.5805
 5665SOL     OW28453   1.003   2.159   9.521  0.2455  0.1242  0.1587
 5665SOL    HW128454   1.035   2.209   9.446 -0.4560  2.0141  1.1129
 5665SOL    HW228455   0.949   2.223   9.567 -1.6724 -1.3719 -0.0344
 5666SOL     OW28456   1.178   2.148  11.142 -0.4253 -0.0399  0.2386
 5666SOL    HW128457   1.266   2.150  11.179  0.0166 -1.3067 -0.7355
 5666SOL    HW228458   1.122   2.183  11.211  0.5161  1.1878  0.3726
 5667SOL     OW28459   3.572   1.030   5.768  0.0404 -0.0444 -0.3291
 5667SOL    HW128460   3.615   0.944   5.776 -1.1747 -0.8279 -2.1029
 5667SOL    HW228461   3.493   1.023   5.822  0.2122  3.1402  0.3302
 5668SOL     OW28462   0.956   0.020   8.224  0.0949  0.2791  0.0119
 5668SOL    HW128463   0.966   0.108   8.260 -0.6037  0.4416 -0.1982
 5668SOL    HW228464   0.884   0.026   8.162  1.0639  1.3801 -0.9906
 5669SOL     OW28465   3.646   3.582  11.063 -0.0397  0.1704  0.1500
 5669SOL    HW128466   3.625   3.582  10.970 -2.5106  0.6206  0.7247
 5669SOL    HW228467   3.626   3.492  11.089  0.1362 -0.2012 -1.0256
 5670SOL     OW28468   1.512   2.359   5.374 -0.0403  0.0233  0.3141
 5670SOL    HW128469   1.603   2.335   5.394  0.7053  0.6654 -2.2644
 5670SOL    HW228470   1.489   2.380   5.464  2.3737  1.5590  0.5569
 5671SOL     OW28471   4.201   0.259  10.990  0.6393  0.0688 -0.1523
 5671SOL    HW128472   4.138   0.231  10.924 -1.2006  2.0819  0.7267
 5671SOL    HW228473   4.272   0.286  10.933  1.4725 -1.8871 -0.0192
 5672SOL     OW28474   4.401   2.286   2.349 -0.3371 -0.4547 -0.6528
 5672SOL    HW128475   4.469   2.234   2.307  1.2593  1.1921 -0.1063
 5672SOL    HW228476   4.451   2.354   2.394 -1.5347 -1.4300  2.1731
 5673SOL     OW28477   1.522   2.596   5.215 -0.0705  0.1622 -0.2387
 5673SOL    HW128478   1.511   2.515   5.265  1.0483 -0.3648 -0.8343
 5673SOL    HW228479   1.585   2.565   5.150  2.1752 -0.0850  2.0019
 5674SOL     OW28480   4.551   2.991   3.746 -0.1947  0.3077  0.1327
 5674SOL    HW128481   4.525   2.974   3.837 -3.1208 -2.3247 -1.2140
 5674SOL    HW228482   4.485   2.939   3.700  0.3833 -1.4486  1.2832
 5675SOL     OW28483   2.731   0.217   9.831  0.4376 -0.4987  0.2340
 5675SOL    HW128484   2.724   0.204   9.737 -2.1154  0.8706  0.2546
 5675SOL    HW228485   2.805   0.159   9.852 -0.5202 -0.6108  3.4056
 5676SOL     OW28486   1.843   1.533   9.575 -0.1748 -0.4991  0.0288
 5676SOL    HW128487   1.789   1.581   9.638  1.3010 -0.1325  1.0096
 5676SOL    HW228488   1.920   1.509   9.627 -0.6938 -0.9454  0.5986
 5677SOL     OW28489   1.659   3.544   2.617 -0.2113 -0.7064 -0.0666
 5677SOL    HW128490   1.575   3.586   2.635 -0.0110 -0.8729  1.2425
 5677SOL    HW228491   1.699   3.611   2.562  1.9874  0.2063  2.6294
 5678SOL     OW28492   1.130   1.312   7.503  0.0433  0.6250  0.6656
 5678SOL    HW128493   1.135   1.318   7.598  0.6777  0.5639  0.6339
 5678SOL    HW228494   1.220   1.334   7.480 -0.6837  0.9839 -1.8056
 5679SOL     OW28495   3.059   2.496  13.967  0.5746 -0.2124  0.5913
 5679SOL    HW128496   2.976   2.448  13.970  0.2693  0.3546  1.0397
 5679SOL    HW228497   3.089   2.477  13.878  1.2083  0.8963  0.5670
 5680SOL     OW28498   1.382   2.116   4.830 -0.4102  0.1703 -0.1997
 5680SOL    HW128499   1.445   2.125   4.902  2.5187  0.1674 -2.7794
 5680SOL    HW228500   1.399   2.024   4.812  1.5446  0.6668 -0.9481
 5681SOL     OW28501   1.160   1.629  12.918 -0.3348  0.4986 -0.4806
 5681SOL    HW128502   1.252   1.635  12.943 -0.0907  3.1972 -2.1096
 5681SOL    HW228503   1.126   1.708  12.958  0.5531 -0.3305  1.8966
 5682SOL     OW28504   3.244   0.291   7.364  0.3973  0.0246  0.6018
 5682SOL    HW128505   3.261   0.267   7.273 -0.7623 -0.5056  0.5241
 5682SOL    HW228506   3.160   0.253   7.391  0.2043  0.9812  1.3419
 5683SOL     OW28507   1.126   0.414  12.410 -0.1496  0.2016  0.0030
 5683SOL    HW128508   1.078   0.358  12.348 -2.1565  1.4359  0.4415
 5683SOL    HW228509   1.201   0.434  12.354  0.2403 -1.3046 -0.0343
 5684SOL     OW28510   3.352   3.947   7.823  0.1022  0.2643  0.1011
 5684SOL    HW128511   3.257   3.950   7.821  0.0745 -0.4661  0.3441
 5684SOL    HW228512   3.373   3.881   7.889 -1.2286 -1.3424 -1.0886
 5685SOL     OW28513   0.712   2.226   9.205 -0.8802 -0.7826 -0.1888
 5685SOL    HW128514   0.729   2.143   9.249 -1.8285 -0.5699  0.5766
 5685SOL    HW228515   0.720   2.290   9.275 -0.2100  0.1475 -1.1146
 5686SOL     OW28516   2.978   0.923  13.899 -0.1135  0.2832  0.1344
 5686SOL    HW128517   2.905   0.869  13.929  0.8390 -1.7527 -1.1732
 5686SOL    HW228518   2.956   1.008  13.936 -1.3503  0.2723 -0.5666
 5687SOL     OW28519   2.127   3.305   2.590  0.4040 -0.0438  0.0180
 5687SOL    HW128520   2.104   3.289   2.682  1.6969 -0.2694  0.2953
 5687SOL    HW228521   2.123   3.400   2.581 -1.7080 -0.0493  0.9022
 5688SOL     OW28522   0.508   3.562   7.319  0.2909 -0.0199 -0.1365
 5688SOL    HW128523   0.430   3.547   7.265 -0.8306  0.6679  1.3047
 5688SOL    HW228524   0.479   3.535   7.406 -1.3605 -3.6445 -1.7962
 5689SOL     OW28525   0.941   3.292   0.898 -0.1542  0.3430 -0.2958
 5689SOL    HW128526   0.858   3.256   0.931 -0.0833  0.7078  0.2666
 5689SOL    HW228527   1.001   3.225   0.929  1.0132 -0.3404 -3.9650
 5690SOL     OW28528   3.009   1.882   2.766 -0.3703  0.1993  0.1741
 5690SOL    HW128529   3.047   1.877   2.854  0.3946 -1.8753 -0.2899
 5690SOL    HW228530   2.916   1.891   2.784 -0.5201  1.7667 -1.3849
 5691SOL     OW28531   1.950   0.969  14.903  0.8733 -0.2283 -0.3064
 5691SOL    HW128532   1.880   0.992  14.964  0.7254 -2.9349  0.5581
 5691SOL    HW228533   1.914   0.891  14.860 -0.8918  0.3930  0.0653
 5692SOL     OW28534   1.670   0.672   6.797  0.3424 -0.0532 -0.3552
 5692SOL    HW128535   1.618   0.734   6.747 -0.3641 -0.0960  0.3131
 5692SOL    HW228536   1.604   0.622   6.845  0.5641 -0.3752 -0.3799
 5693SOL     OW28537   1.479   4.559  13.300  0.9523 -0.4995  0.2796
 5693SOL    HW128538   1.489   4.592  13.389 -0.7485 -0.0561  0.3070
 5693SOL    HW228539   1.528   4.630  13.257  2.3001 -2.2771 -1.1388
 5694SOL     OW28540   4.600   2.499  15.595  0.6197 -0.8942 -0.0471
 5694SOL    HW128541   4.662   2.434  15.561  0.7874  0.5292 -2.4453
 5694SOL    HW228542   4.639   2.499  15.682 -4.1449  1.3620  2.0705
 5695SOL     OW28543   1.925   0.809   8.913 -0.5926  0.1530 -0.0397
 5695SOL    HW128544   1.847   0.857   8.886 -0.2640 -0.1329 -1.5012
 5695SOL    HW228545   2.000   0.860   8.881  0.5632 -0.4073  1.7797
 5696SOL     OW28546   1.361   2.093  14.415 -0.4664  0.2695  0.2479
 5696SOL    HW128547   1.336   2.049  14.496 -1.8458 -1.0319 -0.8955
 5696SOL    HW228548   1.366   2.024  14.350 -3.1590  0.6095 -0.3363
 5697SOL     OW28549   1.609   3.417   9.023 -0.6555 -0.1476  0.0245
 5697SOL    HW128550   1.530   3.462   9.054 -1.5985 -1.9594  0.1914
 5697SOL    HW228551   1.656   3.473   8.961 -0.8720  1.3393  1.1922
 5698SOL     OW28552   4.109   4.655   4.867  0.1485  0.5098  0.2910
 5698SOL    HW128553   4.090   4.605   4.947  3.3721  0.9929  1.3280
 5698SOL    HW228554   4.185   4.608   4.832  1.3402  3.2307 -0.7833
 5699SOL     OW28555   1.208   3.008   1.362  0.0071  0.3763  0.2760
 5699SOL    HW128556   1.288   3.059   1.371 -0.1443  0.9212 -1.5571
 5699SOL    HW228557   1.177   3.015   1.452  2.1507  1.1349  0.9474
 5700SOL     OW28558   4.219   4.147  12.635 -0.0528  0.0305  0.3008
 5700SOL    HW128559   4.163   4.225  12.637  0.8400  0.6193  1.9015
 5700SOL    HW228560   4.308   4.179  12.621 -1.2881  3.3322 -0.0350
 5701SOL     OW28561   1.917   4.235   0.473 -0.1044 -0.0722 -0.7841
 5701SOL    HW128562   1.839   4.284   0.498  0.2557  0.1625 -0.1352
 5701SOL    HW228563   1.953   4.289   0.402  0.4371  1.2652  0.5318
 5702SOL     OW28564   4.524   3.862   8.067  0.0449  0.1271 -0.0346
 5702SOL    HW128565   4.452   3.869   8.129  1.1128 -0.4213  1.2759
 5702SOL    HW228566   4.507   3.776   8.030 -1.6384 -0.9795  3.3282
 5703SOL     OW28567   4.406   2.879   3.472  0.1278  0.1541  0.4720
 5703SOL    HW128568   4.382   2.945   3.406  2.5134 -1.3451 -1.8649
 5703SOL    HW228569   4.345   2.901   3.543  0.8398  2.2253  0.4498
 5704SOL     OW28570   2.224   3.877  14.205  0.3712 -0.8930  0.2818
 5704SOL    HW128571   2.303   3.890  14.257  0.4749 -2.2066  0.4613
 5704SOL    HW228572   2.220   3.783  14.190  1.6790 -0.8926 -0.0035
 5705SOL     OW28573   4.397   1.079   7.422  0.0232 -0.0896 -0.3259
 5705SOL    HW128574   4.325   1.134   7.391  1.8829  1.7218 -1.4466
 5705SOL    HW228575   4.362   0.995   7.394 -0.5126 -0.2571  0.8394
 5706SOL     OW28576   3.749   4.178   4.326 -0.6592 -0.5188 -0.1109
 5706SOL    HW128577   3.715   4.208   4.410  0.4194 -1.9095  0.8382
 5706SOL    HW228578   3.842   4.203   4.328 -0.8442  0.1819 -0.3770
 5707SOL     OW28579   1.105   3.576   6.213  0.2645 -0.5056 -0.0435
 5707SOL    HW128580   1.060   3.658   6.235 -1.3620 -1.0508 -1.4174
 5707SOL    HW228581   1.125   3.588   6.121  1.6751  0.7629  0.4247
 5708SOL     OW28582   3.931   4.527   1.683 -0.7084 -0.3657  0.1001
 5708SOL    HW128583   3.989   4.595   1.717 -0.0591 -0.6910 -0.3477
 5708SOL    HW228584   3.907   4.567   1.600  0.2298  1.6686  0.8104
 5709SOL     OW28585   1.677   3.004   5.602  0.1181  0.3737 -0.1441
 5709SOL    HW128586   1.714   3.061   5.534  0.2662  0.4519 -0.0005
 5709SOL    HW228587   1.640   2.938   5.543 -3.3222  1.1762  1.1167
 5710SOL     OW28588   3.646   0.164   6.481  0.0698  0.7714 -0.6972
 5710SOL    HW128589   3.740   0.152   6.494 -0.2188 -1.4195 -0.7056
 5710SOL    HW228590   3.633   0.111   6.402  0.3568  1.0293 -0.9187
 5711SOL     OW28591   1.121   1.445   1.250  0.0104  0.4365  0.1404
 5711SOL    HW128592   1.042   1.430   1.302 -0.7265 -1.7140 -1.6041
 5711SOL    HW228593   1.094   1.427   1.160  1.3777  2.6727 -0.7083
 5712SOL     OW28594   0.024   0.009   2.603  0.5460  0.1124  0.4549
 5712SOL    HW128595   0.119   0.009   2.606  0.6165 -0.1389 -1.5871
 5712SOL    HW228596   0.008   0.101   2.622  0.9976  0.3826 -0.4862
 5713SOL     OW28597   3.734   4.370   9.918 -0.6356 -0.7368  0.9434
 5713SOL    HW128598   3.767   4.456   9.892 -3.6177 -0.1297 -0.8075
 5713SOL    HW228599   3.798   4.312   9.876 -1.5453 -0.6534 -0.5566
 5714SOL     OW28600   2.904   0.888   0.519 -0.1644 -0.3226  0.5069
 5714SOL    HW128601   2.831   0.947   0.539  0.7615  0.6039  1.1265
 5714SOL    HW228602   2.920   0.844   0.603 -1.3849  0.0340  0.9227
 5715SOL     OW28603   2.860   4.079  14.158  0.0917 -0.1329  0.4117
 5715SOL    HW128604   2.840   4.045  14.246  0.9826 -0.4508  0.4954
 5715SOL    HW228605   2.932   4.019  14.138  0.7903  0.8079  0.0980
 5716SOL     OW28606   4.642   0.195  14.889  0.1741  0.6091  0.6626
 5716SOL    HW128607   4.572   0.174  14.827 -0.7468  1.8427  1.2963
 5716SOL    HW228608   4.676   0.273  14.846 -0.1589  0.1469 -0.4443
 5717SOL     OW28609   2.395   4.292   3.791  0.3497 -0.5597  0.1981
 5717SOL    HW128610   2.393   4.220   3.727  0.9625  2.1137 -2.8577
 5717SOL    HW228611   2.469   4.261   3.842  0.3511  1.9465  1.7024
 5718SOL     OW28612   3.108   1.421   5.992 -0.4324 -0.2096  0.1703
 5718SOL    HW128613   3.083   1.502   5.947  0.5324 -0.5971 -1.0456
 5718SOL    HW228614   3.066   1.353   5.940  1.9596 -1.1246 -0.5690
 5719SOL     OW28615   2.300   1.735   3.317  0.0815  0.0638  0.4179
 5719SOL    HW128616   2.267   1.682   3.244 -3.4998  3.0153 -0.0934
 5719SOL    HW228617   2.387   1.697   3.327 -0.1508 -0.0789  1.9887
 5720SOL     OW28618   0.014   1.324   2.245  0.0950  0.9423 -0.1039
 5720SOL    HW128619   0.025   1.230   2.230  0.7291  1.0943 -0.5848
 5720SOL    HW228620   4.681   1.333   2.320 -0.2036 -2.1806  0.0373
 5721SOL     OW28621   4.217   3.950   6.675 -0.0666 -0.0181  0.5871
 5721SOL    HW128622   4.310   3.932   6.661 -0.6072 -1.8152 -0.7348
 5721SOL    HW228623   4.187   3.987   6.593  1.2430 -0.4529 -0.0810
 5722SOL     OW28624   1.077   1.908   3.967 -0.6844 -0.6269  0.0561
 5722SOL    HW128625   1.046   1.932   3.880 -2.5836 -0.2124  0.8610
 5722SOL    HW228626   1.121   1.992   3.984 -1.6135 -0.3561  1.1112
 5723SOL     OW28627   0.429   4.043   5.818 -0.5338 -0.0562  0.2978
 5723SOL    HW128628   0.447   4.110   5.884 -2.4133  0.2143  0.5579
 5723SOL    HW228629   0.364   4.085   5.761 -0.3691  0.0713  0.2048
 5724SOL     OW28630   0.562   3.208   2.981  0.2527  0.2023  0.1077
 5724SOL    HW128631   0.617   3.132   2.998  1.0991  0.8249  0.1242
 5724SOL    HW228632   0.605   3.242   2.902 -0.1246  1.6190  0.5169
 5725SOL     OW28633   2.314   1.288   3.999 -0.6829 -0.4004 -0.0691
 5725SOL    HW128634   2.237   1.345   3.997 -1.7943 -1.8312  2.2747
 5725SOL    HW228635   2.295   1.235   3.922 -0.7632 -0.7824  0.2109
 5726SOL     OW28636   0.685   3.484   1.137 -0.5907  0.3212  0.7781
 5726SOL    HW128637   0.641   3.441   1.064  1.3399  1.1742 -0.8828
 5726SOL    HW228638   0.772   3.492   1.098 -0.0776 -1.4756  1.5796
 5727SOL     OW28639   2.441   0.022  15.383  0.5336 -0.1203 -0.1536
 5727SOL    HW128640   2.371   4.690  15.415  0.4335 -1.4065 -2.6992
 5727SOL    HW228641   2.393   0.062  15.310 -0.9542  0.9444  1.4052
 5728SOL     OW28642   3.739   0.272  12.249 -0.3357  0.0983 -0.6970
 5728SOL    HW128643   3.792   0.238  12.321  0.5163 -1.9744 -2.2922
 5728SOL    HW228644   3.783   0.356  12.244  1.2499 -0.6902  0.1145
 5729SOL     OW28645   4.578   2.537   0.509 -0.1271 -0.5707  0.3983
 5729SOL    HW128646   4.506   2.599   0.510 -0.6005 -1.1194  0.2789
 5729SOL    HW228647   4.607   2.556   0.598 -1.4426  2.3884  0.1860
 5730SOL     OW28648   0.475   1.639   3.999  0.4394  0.1523  0.9445
 5730SOL    HW128649   0.516   1.565   3.952 -0.5753  0.8519 -1.0560
 5730SOL    HW228650   0.531   1.640   4.077  1.1771  1.2563  0.3906
 5731SOL     OW28651   3.350   1.303  11.600  0.2250 -0.0943  0.0107
 5731SOL    HW128652   3.259   1.329  11.587  0.4067  0.5893  0.1212
 5731SOL    HW228653   3.326   1.213  11.624  0.7111 -0.5328 -1.1355
 5732SOL     OW28654   3.342   2.270   6.774  0.0532 -0.7393  0.0786
 5732SOL    HW128655   3.436   2.260   6.792  0.4663  1.7135 -0.7596
 5732SOL    HW228656   3.317   2.180   6.752  0.1884 -0.4164 -1.3569
 5733SOL     OW28657   1.242   1.855   8.951  0.1170 -0.5337  0.5305
 5733SOL    HW128658   1.238   1.949   8.967  4.6436 -0.4389  0.9444
 5733SOL    HW228659   1.336   1.836   8.945  0.3351  1.8236 -3.2960
 5734SOL     OW28660   2.019   1.047   6.984  0.1125  0.1844 -0.3102
 5734SOL    HW128661   1.983   0.984   6.921  1.0844  0.1810 -0.8607
 5734SOL    HW228662   2.050   0.983   7.047  2.2408  0.4389 -1.1153
 5735SOL     OW28663   2.727   4.471   9.141 -0.1351  0.0434  0.2160
 5735SOL    HW128664   2.631   4.473   9.137 -0.2035 -1.8755  0.8620
 5735SOL    HW228665   2.744   4.518   9.222 -0.4478  0.8960 -0.2147
 5736SOL     OW28666   3.603   3.083  16.639 -0.0376 -0.2458 -0.0259
 5736SOL    HW128667   3.575   3.109  16.727 -0.3220 -0.4906 -0.0475
 5736SOL    HW228668   3.520   3.045  16.612  1.1538 -1.2789 -2.1952
 5737SOL     OW28669   2.546   4.023   3.764 -0.6651  0.3549  0.3451
 5737SOL    HW128670   2.640   4.035   3.774 -0.6196  0.0339  0.3222
 5737SOL    HW228671   2.518   4.005   3.854  0.4685  0.3374  0.6967
 5738SOL     OW28672   3.203   1.411   2.195 -0.0641 -0.0292 -0.1626
 5738SOL    HW128673   3.138   1.426   2.127 -1.4635 -2.2592  0.6788
 5738SOL    HW228674   3.268   1.356   2.152 -0.6848 -2.1310  1.5622
 5739SOL     OW28675   4.295   2.584  11.944 -0.1968  0.1317 -0.2513
 5739SOL    HW128676   4.260   2.657  11.995 -1.9253 -0.4783 -0.5616
 5739SOL    HW228677   4.389   2.603  11.951 -0.1012 -0.8021  1.1421
 5740SOL     OW28678   4.026   1.016   3.197  0.3889  0.0973  0.7190
 5740SOL    HW128679   4.065   1.039   3.281 -0.9112 -2.0024  1.9110
 5740SOL    HW228680   4.069   0.931   3.185  1.5136  0.6744  0.7555
 5741SOL     OW28681   1.527   0.033   5.220 -0.0020 -0.0749 -0.4998
 5741SOL    HW128682   1.608   4.713   5.197  0.0641  0.9130 -2.2354
 5741SOL    HW228683   1.537   0.108   5.162  0.3404  1.6254  1.7638
 5742SOL     OW28684   3.050   0.078   3.913 -0.5862  0.1054 -0.7253
 5742SOL    HW128685   3.125   0.105   3.859 -0.1618  0.0885 -0.1469
 5742SOL    HW228686   3.102   0.019   3.968 -2.5982 -1.9398 -1.0533
 5743SOL     OW28687   3.614   0.788   6.462  0.1869  0.2457 -0.7192
 5743SOL    HW128688   3.554   0.863   6.459  1.2024  1.1656  1.4471
 5743SOL    HW228689   3.582   0.745   6.542 -0.1690  0.7202 -0.6065
 5744SOL     OW28690   1.635   2.170   8.590 -0.6402 -0.2774 -0.4686
 5744SOL    HW128691   1.656   2.116   8.667  0.0115  1.7498  0.7817
 5744SOL    HW228692   1.618   2.254   8.634 -1.3429  1.2571 -3.7065
 5745SOL     OW28693   0.403   0.877   7.045 -0.3660 -0.2584  0.5341
 5745SOL    HW128694   0.463   0.850   6.976 -0.9877  1.9043 -0.8598
 5745SOL    HW228695   0.403   0.798   7.099 -1.0888 -0.7548 -0.1970
 5746SOL     OW28696   0.183   4.285  14.691  0.0206  0.2200  0.0219
 5746SOL    HW128697   0.106   4.280  14.747 -0.4698 -1.8981 -0.8252
 5746SOL    HW228698   0.216   4.366  14.728 -0.3452  0.5954 -0.4701
 5747SOL     OW28699   2.739   4.459   1.368 -0.1093  0.3386 -0.1142
 5747SOL    HW128700   2.708   4.382   1.320  0.5283  0.0178 -0.0176
 5747SOL    HW228701   2.820   4.492   1.328 -0.6202  1.2728 -0.3880
 5748SOL     OW28702   2.292   0.938  14.785  0.5376 -0.0503  0.5939
 5748SOL    HW128703   2.292   0.844  14.766  2.2385 -0.3511  2.0574
 5748SOL    HW228704   2.371   0.974  14.745  0.7788  0.3753  1.4421
 5749SOL     OW28705   0.449   0.884  11.782 -0.3281  0.3421  0.1284
 5749SOL    HW128706   0.421   0.835  11.859  0.0515  1.8653  1.2390
 5749SOL    HW228707   0.380   0.949  11.768 -0.6564 -0.9868 -4.5925
 5750SOL     OW28708   0.797   0.622   8.444 -0.0671 -0.6427 -0.5594
 5750SOL    HW128709   0.823   0.594   8.356 -2.3495 -1.9965 -0.8152
 5750SOL    HW228710   0.779   0.537   8.485  1.9181 -0.1584  1.3081
 5751SOL     OW28711   2.740   3.510   5.336  0.1679  0.1758  0.0921
 5751SOL    HW128712   2.720   3.568   5.262 -0.3423  0.2358  0.2771
 5751SOL    HW228713   2.731   3.573   5.408  2.7399  0.8251 -0.1622
 5752SOL     OW28714   2.078   2.759   6.549 -0.7869 -0.5454  0.4833
 5752SOL    HW128715   2.080   2.778   6.455 -1.2436  0.4848  0.6836
 5752SOL    HW228716   1.985   2.763   6.569 -0.6651 -0.9013  1.1344
 5753SOL     OW28717   4.031   0.914   7.948  0.6490  0.1743 -0.4434
 5753SOL    HW128718   4.042   0.970   8.024  2.6799 -0.1246 -0.4977
 5753SOL    HW228719   4.088   0.956   7.883 -0.2720 -0.0082 -1.3619
 5754SOL     OW28720   4.201   4.291  12.309 -0.2261 -0.0733 -0.2535
 5754SOL    HW128721   4.211   4.372  12.259  0.3406  0.9811  1.5745
 5754SOL    HW228722   4.169   4.325  12.393 -0.6403 -1.2462  0.0626
 5755SOL     OW28723   4.400   1.519  16.172 -0.1313 -0.1497  0.5646
 5755SOL    HW128724   4.469   1.516  16.107 -1.6114 -2.1143 -0.9230
 5755SOL    HW228725   4.321   1.487  16.128  1.5133 -0.3907 -2.1788
 5756SOL     OW28726   1.190   2.709   8.437  0.9446 -0.0665  0.0061
 5756SOL    HW128727   1.180   2.739   8.527 -0.7177  1.2123 -0.5969
 5756SOL    HW228728   1.241   2.784   8.406 -1.6093  0.4851 -2.8358
 5757SOL     OW28729   4.199   2.945   8.864 -0.2573  0.2167  0.8577
 5757SOL    HW128730   4.190   2.913   8.955 -1.5858  1.8854  1.3047
 5757SOL    HW228731   4.258   2.880   8.825 -0.7407  0.0475  0.4232
 5758SOL     OW28732   3.551   0.278   6.004  0.3274  0.6761  0.0959
 5758SOL    HW128733   3.511   0.330   5.935  2.4719  1.5590 -0.5018
 5758SOL    HW228734   3.640   0.257   5.975  0.6556  1.1817  0.7298
 5759SOL     OW28735   1.051   0.820   2.251  0.5965 -1.2255  0.7503
 5759SOL    HW128736   1.034   0.868   2.170 -1.6540 -0.5530  1.6249
 5759SOL    HW228737   1.017   0.733   2.231  0.1563 -0.6363 -1.0663
 5760SOL     OW28738   2.048   2.073   8.198 -0.3474 -0.2078  0.7057
 5760SOL    HW128739   2.091   2.083   8.283  0.6414  1.7088 -0.0198
 5760SOL    HW228740   1.975   2.015   8.216 -1.6991  0.2517 -3.2927
 5761SOL     OW28741   1.089   2.291   5.538  0.3138 -0.5354 -0.5578
 5761SOL    HW128742   1.127   2.307   5.452 -2.7782  0.1926 -1.7898
 5761SOL    HW228743   0.999   2.280   5.509  0.6392 -2.1179 -0.9640
 5762SOL     OW28744   0.785   2.101   0.019  0.3944  0.5194 -0.0389
 5762SOL    HW128745   0.854   2.166   0.006  0.0903  1.2614  2.1135
 5762SOL    HW228746   0.811   2.029  17.663  0.5952 -0.8370  1.7438
 5763SOL     OW28747   0.388   1.306  10.942 -0.0573 -0.8511  0.1279
 5763SOL    HW128748   0.385   1.352  11.026  0.9711 -0.7540  0.1127
 5763SOL    HW228749   0.359   1.220  10.973 -1.8322  0.2260  1.4742
 5764SOL     OW28750   0.261   3.787   5.707 -0.8204  0.3226 -0.0615
 5764SOL    HW128751   0.271   3.862   5.766  0.3503 -0.8430  1.2458
 5764SOL    HW228752   0.331   3.731   5.741  0.0363  2.3138  1.4334
 5765SOL     OW28753   0.598   0.032   3.284 -0.8136  0.1061  1.0253
 5765SOL    HW128754   0.690   0.030   3.259 -1.0925 -1.0684  0.0606
 5765SOL    HW228755   0.555   0.105   3.240  1.0986  0.4165 -0.3185
 5766SOL     OW28756   1.953   0.732   1.592 -0.2551 -0.6375 -0.5979
 5766SOL    HW128757   1.983   0.643   1.612  0.7800 -0.1578  0.0100
 5766SOL    HW228758   2.023   0.781   1.635  0.4805 -2.7198  0.5858
 5767SOL     OW28759   3.063   3.706   4.858 -0.2343 -0.1798  0.1324
 5767SOL    HW128760   3.019   3.637   4.808  1.8003 -2.4656  1.5159
 5767SOL    HW228761   3.115   3.740   4.784 -1.1564 -0.8685 -0.8392
 5768SOL     OW28762   1.298   0.692   0.230  0.2818 -0.2301  0.0270
 5768SOL    HW128763   1.348   0.611   0.234  0.9584  0.2838  1.8713
 5768SOL    HW228764   1.213   0.662   0.262  0.7970 -1.0877  0.5988
 5769SOL     OW28765   3.630   1.383   0.665  0.1634  0.0605  0.3253
 5769SOL    HW128766   3.579   1.326   0.723 -3.2734  2.3001 -0.4785
 5769SOL    HW228767   3.603   1.472   0.686  3.2579  1.1430 -0.2671
 5770SOL     OW28768   3.908   3.094  10.881  0.0905 -0.2141 -0.6218
 5770SOL    HW128769   4.001   3.109  10.863 -0.2478  0.2699 -1.9832
 5770SOL    HW228770   3.898   3.176  10.928  1.2987  0.3551 -1.3546
 5771SOL     OW28771   4.681   4.069   5.411 -0.0108  0.1046 -0.1354
 5771SOL    HW128772   0.037   4.116   5.394 -1.0382  1.4151 -1.3963
 5771SOL    HW228773   4.701   3.981   5.444 -0.5189 -0.1526 -0.5055
 5772SOL     OW28774   3.375   1.224   3.475  0.2898 -0.1055  0.0869
 5772SOL    HW128775   3.433   1.173   3.418  1.0206  1.9034 -0.9718
 5772SOL    HW228776   3.355   1.164   3.547 -1.9809  1.9174  1.1553
 5773SOL     OW28777   1.615   1.771   1.342  0.3384 -0.1689  0.4529
 5773SOL    HW128778   1.577   1.687   1.369 -0.1030 -0.2103 -0.2676
 5773SOL    HW228779   1.591   1.827   1.416 -1.1259  0.2558 -0.3408
 5774SOL     OW28780   1.605   3.533   6.489  0.5371 -0.4602  0.0876
 5774SOL    HW128781   1.630   3.443   6.470 -2.6860 -1.6671  1.5150
 5774SOL    HW228782   1.557   3.520   6.571  1.9715  1.3788  1.2222
 5775SOL     OW28783   0.379   3.003  17.048 -0.2269  0.2873 -0.2647
 5775SOL    HW128784   0.466   2.999  17.009  0.1513 -0.6145  0.6651
 5775SOL    HW228785   0.341   2.917  17.028  0.7028 -0.2331  0.1634
 5776SOL     OW28786   2.430   2.759   3.779  0.2137  0.1555  0.1098
 5776SOL    HW128787   2.349   2.709   3.789 -0.0383  0.6741  0.6579
 5776SOL    HW228788   2.479   2.742   3.860 -0.6124 -0.2316  0.5261
 5777SOL     OW28789   2.705   4.208   6.023  0.2810 -0.1062  0.2366
 5777SOL    HW128790   2.696   4.169   5.936  0.7686 -0.8528  0.5179
 5777SOL    HW228791   2.798   4.232   6.023  0.6223 -1.4269 -0.9846
 5778SOL     OW28792   3.391   2.970   8.156  0.1974 -0.4776  0.0498
 5778SOL    HW128793   3.300   2.943   8.169  0.3667 -0.8630  0.4360
 5778SOL    HW228794   3.391   3.049   8.211 -1.4279  0.1333 -0.8265
 5779SOL     OW28795   0.289   0.114   2.626  0.0594  0.4228  0.2427
 5779SOL    HW128796   0.379   0.079   2.622 -0.1939 -0.4116  1.5702
 5779SOL    HW228797   0.283   0.182   2.560  0.3148  1.6329  1.4671
 5780SOL     OW28798   2.743   2.358   1.646  0.6827  0.2794  0.3373
 5780SOL    HW128799   2.820   2.308   1.674  1.1056  0.4648 -0.4822
 5780SOL    HW228800   2.767   2.443   1.682  0.5419  0.0474  0.9891
 5781SOL     OW28801   0.862   2.754   8.615  0.0623  0.2335 -0.3757
 5781SOL    HW128802   0.821   2.715   8.692  1.5146  2.3303  1.4766
 5781SOL    HW228803   0.932   2.806   8.656  1.2843 -2.7338  1.2602
 5782SOL     OW28804   1.500   2.437   7.711 -0.0687  0.5167  0.1556
 5782SOL    HW128805   1.518   2.476   7.797 -0.0376 -0.6785  0.6871
 5782SOL    HW228806   1.573   2.455   7.653  2.4548  1.4473  3.6251
 5783SOL     OW28807   3.251   3.358   2.275  0.1450  0.1530 -0.3146
 5783SOL    HW128808   3.295   3.442   2.291 -2.3391  1.7261 -1.7415
 5783SOL    HW228809   3.198   3.349   2.354  1.1474  0.3599  0.3754
 5784SOL     OW28810   2.956   2.729   0.307  0.2514  0.3218 -0.1009
 5784SOL    HW128811   2.883   2.667   0.298 -1.3707  1.6348  4.0695
 5784SOL    HW228812   2.942   2.759   0.397 -2.2137 -1.4448  0.1149
 5785SOL     OW28813   0.968   0.919  16.474 -0.5509 -0.0042  0.2133
 5785SOL    HW128814   0.930   0.881  16.553  1.0900 -2.2019 -0.0545
 5785SOL    HW228815   1.063   0.907  16.484 -0.6081 -0.0395  0.7324
 5786SOL     OW28816   0.888   4.177   0.148  0.2056 -0.2829  0.2068
 5786SOL    HW128817   0.857   4.100   0.099 -1.2500 -0.1336  0.8752
 5786SOL    HW228818   0.843   4.165   0.232 -2.0937  0.4424 -0.9108
 5787SOL     OW28819   0.280   1.920   7.395 -0.1879 -0.0749 -0.1779
 5787SOL    HW128820   0.323   1.835   7.400  1.5908  0.7708 -1.1797
 5787SOL    HW228821   0.252   1.919   7.304  1.2274 -2.9491 -0.5690
 5788SOL     OW28822   4.676   3.447  16.755  0.9924 -0.2966 -0.2319
 5788SOL    HW128823   4.597   3.471  16.803  1.6844  2.1628 -0.2963
 5788SOL    HW228824   4.646   3.472  16.668 -1.3849  0.6543  0.8684
 5789SOL     OW28825   2.603   4.027   3.147  0.5911 -1.2421  0.1635
 5789SOL    HW128826   2.536   4.083   3.108 -0.2333 -2.4334 -0.1124
 5789SOL    HW228827   2.566   3.943   3.121 -1.3748 -0.4539  0.4201
 5790SOL     OW28828   1.910   0.222   2.383  0.3453  0.3045 -0.5205
 5790SOL    HW128829   1.889   0.151   2.444  0.0257  1.5486  0.8110
 5790SOL    HW228830   1.932   0.167   2.307 -2.3885  2.8110 -3.1240
 5791SOL     OW28831   0.731   2.892   0.886  0.0782 -0.0677 -0.3077
 5791SOL    HW128832   0.666   2.880   0.817 -0.9161 -1.3460  0.8461
 5791SOL    HW228833   0.696   2.958   0.946 -0.3550 -0.6802  0.1157
 5792SOL     OW28834   1.726   3.330  13.517 -0.5566  0.1783  0.2392
 5792SOL    HW128835   1.652   3.269  13.520  0.1254 -0.6999 -0.7869
 5792SOL    HW228836   1.729   3.384  13.597 -2.2285 -1.4681  1.4149
 5793SOL     OW28837   2.239   4.014   0.420 -0.0308  0.5847 -0.3106
 5793SOL    HW128838   2.201   3.955   0.486 -0.8208  0.6970 -0.6686
 5793SOL    HW228839   2.300   4.065   0.473  0.4886  0.2429 -0.5714
 5794SOL     OW28840   3.664   2.412  14.147  0.6303 -0.1807  0.1204
 5794SOL    HW128841   3.645   2.320  14.165  0.2147 -0.1160  0.0276
 5794SOL    HW228842   3.730   2.398  14.080 -0.5197 -1.6030 -0.7073
 5795SOL     OW28843   3.582   2.488  11.706  0.1759 -0.2025  0.7399
 5795SOL    HW128844   3.552   2.460  11.619  1.8933  0.8098 -0.1807
 5795SOL    HW228845   3.502   2.471  11.755 -0.1748  0.8094  0.5134
 5796SOL     OW28846   3.495   0.357   6.854  0.2611  0.0494 -0.4577
 5796SOL    HW128847   3.512   0.372   6.761 -1.1326  0.3092 -0.6618
 5796SOL    HW228848   3.438   0.281   6.844  0.0317  0.3385 -1.3148
 5797SOL     OW28849   0.884   2.463   1.438 -0.1484  0.1361  0.0160
 5797SOL    HW128850   0.839   2.540   1.401 -1.2775  0.8113  2.7836
 5797SOL    HW228851   0.813   2.435   1.496  0.4792  0.2367  0.8302
 5798SOL     OW28852   1.317   2.692   5.931  0.2309 -0.6158 -0.1171
 5798SOL    HW128853   1.399   2.659   5.896  0.5607 -0.3833  0.4457
 5798SOL    HW228854   1.251   2.669   5.865  0.4841 -0.7136 -0.3348
 5799SOL     OW28855   2.393   3.505  15.711 -0.2645 -0.3899  0.4917
 5799SOL    HW128856   2.395   3.479  15.618  3.0256  1.4668  0.0255
 5799SOL    HW228857   2.486   3.503  15.733  0.4093  2.5345 -2.1033
 5800SOL     OW28858   3.420   2.722   4.326  0.3516  0.0508  0.0686
 5800SOL    HW128859   3.366   2.736   4.404  0.1490 -0.0919 -0.0463
 5800SOL    HW228860   3.393   2.635   4.295 -0.6014  0.0872  0.7757
 5801SOL     OW28861   3.934   3.626   8.528  0.1918  0.4216 -0.6616
 5801SOL    HW128862   3.977   3.596   8.608  0.9440 -1.1954 -1.6721
 5801SOL    HW228863   3.944   3.543   8.481 -0.4832 -1.3158  2.2997
 5802SOL     OW28864   0.457   1.644   2.546  0.8251 -0.4212  0.1066
 5802SOL    HW128865   0.505   1.565   2.571 -2.5755 -2.6671 -0.5929
 5802SOL    HW228866   0.437   1.633   2.454  2.7136 -1.9896 -0.1235
 5803SOL     OW28867   2.774   1.599   3.003 -0.9733 -0.1666  0.3299
 5803SOL    HW128868   2.680   1.589   2.995 -0.5324 -2.7130 -1.5904
 5803SOL    HW228869   2.786   1.574   3.094  1.8527 -1.4531 -0.3892
 5804SOL     OW28870   0.691   4.339   4.166 -0.0876  0.0146  0.8064
 5804SOL    HW128871   0.647   4.324   4.082 -0.3177 -0.5338  1.0236
 5804SOL    HW228872   0.630   4.283   4.213  0.6306 -2.5811 -1.3766
 5805SOL     OW28873   1.350   2.017   2.972  0.2071  0.2667 -0.4180
 5805SOL    HW128874   1.402   1.970   3.037 -0.6222 -0.9224 -0.6270
 5805SOL    HW228875   1.296   2.074   3.027 -1.7597  0.1951 -2.3003
 5806SOL     OW28876   1.760   0.807   2.053  0.3805  0.3919  0.0873
 5806SOL    HW128877   1.673   0.818   2.015 -0.9199 -1.3327  2.5351
 5806SOL    HW228878   1.738   0.728   2.102  0.5465 -0.7143 -1.6126
 5807SOL     OW28879   1.718   0.719   7.115  0.0315  0.2920 -0.3971
 5807SOL    HW128880   1.775   0.745   7.187 -1.9586  0.8490  0.9735
 5807SOL    HW228881   1.714   0.623   7.118 -1.2848  0.2654 -2.3803
 5808SOL     OW28882   4.492   4.641  14.925  0.5973  0.0912 -0.1737
 5808SOL    HW128883   4.438   4.678  14.995  0.5469 -0.8362  0.2729
 5808SOL    HW228884   4.576   4.628  14.968 -0.2037 -1.5408  0.8813
 5809SOL     OW28885   3.974   0.840   0.584 -0.5345  0.0159 -0.1037
 5809SOL    HW128886   4.030   0.906   0.626 -3.1340  1.3398  1.2748
 5809SOL    HW228887   3.887   0.852   0.622 -0.9104 -0.9768 -0.6499
 5810SOL     OW28888   0.911   2.931   5.569 -0.3068 -0.4642 -0.2514
 5810SOL    HW128889   0.983   2.948   5.630  1.1644  0.6221 -2.3164
 5810SOL    HW228890   0.832   2.955   5.619 -1.0591 -4.0299  0.2958
 5811SOL     OW28891   3.722   1.074  13.766  0.1175  0.2872  0.5635
 5811SOL    HW128892   3.807   1.115  13.754  0.1400 -0.1429 -0.6855
 5811SOL    HW228893   3.693   1.138  13.832 -1.5757 -1.4689  1.5315
 5812SOL     OW28894   1.531   3.117   8.887  0.0066 -0.0690 -0.6397
 5812SOL    HW128895   1.463   3.064   8.930  1.1000 -0.8075  0.1721
 5812SOL    HW228896   1.546   3.191   8.945  1.0148 -1.5764  1.0418
 5813SOL     OW28897   1.142   3.545  12.877  0.0129 -0.0944  0.0551
 5813SOL    HW128898   1.212   3.607  12.895 -0.2150 -0.0916  0.9522
 5813SOL    HW228899   1.075   3.610  12.858  0.2220 -0.5426 -2.2160
 5814SOL     OW28900   1.612   2.783   5.409  0.0551 -0.6740 -0.6065
 5814SOL    HW128901   1.581   2.722   5.341  0.3882  0.3054 -1.6442
 5814SOL    HW228902   1.694   2.744   5.435  0.4788 -0.6514 -1.8925
 5815SOL     OW28903   0.296   4.082  14.544  0.6151 -0.4493  0.4801
 5815SOL    HW128904   0.236   4.073  14.470  0.2550 -4.0495  1.2450
 5815SOL    HW228905   0.261   4.165  14.577  0.5490 -0.2089 -0.1786
 5816SOL     OW28906   4.196   1.274   5.352 -0.3714 -0.6161  0.2538
 5816SOL    HW128907   4.117   1.270   5.406 -1.0608 -0.6621 -0.7739
 5816SOL    HW228908   4.255   1.211   5.395 -0.0286 -0.2386  0.3363
 5817SOL     OW28909   3.125   3.054   5.732  0.1617  0.2901 -0.4781
 5817SOL    HW128910   3.044   3.104   5.719 -0.7994 -1.3826 -0.8432
 5817SOL    HW228911   3.196   3.117   5.744  1.2567 -0.7030 -1.7918
 5818SOL     OW28912   4.119   3.565  17.477 -0.3626  0.1005 -0.0406
 5818SOL    HW128913   4.032   3.604  17.493 -0.2018  1.0080 -1.3262
 5818SOL    HW228914   4.173   3.644  17.483 -0.8801  0.5081 -0.7098
 5819SOL     OW28915   2.270   0.158  14.154 -0.1999 -0.5779 -0.3258
 5819SOL    HW128916   2.277   0.253  14.167 -0.6336 -0.7349  1.0483
 5819SOL    HW228917   2.268   0.131  14.245  1.0146  0.0142 -0.1278
 5820SOL     OW28918   2.017   1.799   5.463 -0.4248  0.2218  0.1182
 5820SOL    HW128919   1.939   1.754   5.495  1.2297 -2.8509 -0.1804
 5820SOL    HW228920   1.967   1.855   5.403 -0.2034  1.2443  0.8895
 5821SOL     OW28921   2.891   2.398   3.006 -0.1993  0.3386  0.0627
 5821SOL    HW128922   2.902   2.482   2.959 -0.5677  0.7396  0.6964
 5821SOL    HW228923   2.825   2.363   2.946  0.9433 -1.6339 -0.0253
 5822SOL     OW28924   4.173   1.391   6.590 -0.0330  0.3537  0.2674
 5822SOL    HW128925   4.210   1.339   6.661 -0.3822  1.0619  0.9664
 5822SOL    HW228926   4.134   1.333   6.525  2.3311  0.3379 -1.1621
 5823SOL     OW28927   4.055   3.438   3.724  1.0443  0.4424 -0.6092
 5823SOL    HW128928   4.063   3.520   3.774  1.7274 -0.4115  0.6692
 5823SOL    HW228929   3.963   3.437   3.699  0.2895  2.3688  2.0186
 5824SOL     OW28930   3.365   1.856   0.197 -0.3855  0.1053  0.1235
 5824SOL    HW128931   3.313   1.778   0.216  1.0410 -0.8472  0.1221
 5824SOL    HW228932   3.337   1.871   0.107  1.8249  2.2533 -0.2305
 5825SOL     OW28933   2.115   0.089  11.880 -0.3903 -0.1008  0.4466
 5825SOL    HW128934   2.145   0.130  11.799 -0.6589 -0.7237  0.0285
 5825SOL    HW228935   2.149   0.156  11.939  1.8460 -0.1051 -0.8009
 5826SOL     OW28936   4.493   3.920   0.920 -0.0538 -0.2450 -0.4165
 5826SOL    HW128937   4.407   3.900   0.956  0.3123 -0.5470  0.2991
 5826SOL    HW228938   4.560   3.939   0.985 -0.1753 -0.4395 -0.2344
 5827SOL     OW28939   4.468   0.534   1.457  0.3017  0.9384 -0.4680
 5827SOL    HW128940   4.532   0.589   1.413  0.5186  0.7569 -0.3785
 5827SOL    HW228941   4.444   0.467   1.393  0.8177  0.2071  0.1001
 5828SOL     OW28942   2.746   1.963   2.785 -0.0030 -0.1445  0.3996
 5828SOL    HW128943   2.658   1.939   2.755 -0.4558  0.5045  1.2001
 5828SOL    HW228944   2.717   2.038   2.837 -1.8823 -0.1792 -0.6105
 5829SOL     OW28945   0.256   2.732   6.702  0.3244  0.4835 -0.0296
 5829SOL    HW128946   0.192   2.794   6.738 -1.6371 -1.1704 -0.6402
 5829SOL    HW228947   0.238   2.648   6.744  2.1837  0.0518 -0.1226
 5830SOL     OW28948   1.574   1.687  10.318  0.4938  0.1753 -0.5343
 5830SOL    HW128949   1.641   1.682  10.387  0.1220  2.2983 -0.0116
 5830SOL    HW228950   1.495   1.713  10.365  1.1694  2.0573 -0.4309
 5831SOL     OW28951   3.584   1.090   1.979  0.0096 -0.2755  0.9117
 5831SOL    HW128952   3.654   1.153   1.998  0.0991 -0.5047  1.3307
 5831SOL    HW228953   3.563   1.058   2.066  1.0528  0.9944  1.6274
 5832SOL     OW28954   0.380   3.393   0.117  0.1705  0.5242 -0.4104
 5832SOL    HW128955   0.337   3.331   0.176 -0.8873  0.0791 -1.6500
 5832SOL    HW228956   0.445   3.341   0.069 -0.0720 -0.6626  0.5775
 5833SOL     OW28957   2.009   0.679   3.025 -0.2078  0.5470  0.2292
 5833SOL    HW128958   2.080   0.693   2.962  1.3122 -2.0520  1.3453
 5833SOL    HW228959   2.028   0.588   3.047  0.5778  0.3767 -1.1597
 5834SOL     OW28960   1.215   2.076   9.095 -0.3377 -0.2869 -0.0103
 5834SOL    HW128961   1.266   2.145   9.139 -1.9207  0.8842 -0.0056
 5834SOL    HW228962   1.228   2.000   9.152  2.0341  0.5927  0.6305
 5835SOL     OW28963   0.982   2.965   3.075 -0.3337 -0.4704 -0.2823
 5835SOL    HW128964   0.994   3.005   3.161 -2.5805  0.8001 -0.5428
 5835SOL    HW228965   1.008   2.878   3.104  1.5607  0.6168  1.2193
 5836SOL     OW28966   0.214   3.881   1.111 -0.6707 -0.2597  0.2204
 5836SOL    HW128967   0.217   3.789   1.138 -2.9898  0.2631  2.2574
 5836SOL    HW228968   0.305   3.911   1.119 -0.5761 -1.5293  3.9284
 5837SOL     OW28969   0.894   1.164   4.991 -0.1410 -0.8997 -0.1233
 5837SOL    HW128970   0.962   1.225   4.962 -0.6163  0.3863  1.4907
 5837SOL    HW228971   0.927   1.115   5.066 -2.7153 -3.4135 -0.6115
 5838SOL     OW28972   3.155   0.864   0.383  0.5497  0.0661  0.2274
 5838SOL    HW128973   3.070   0.882   0.424  1.7904  0.8256  2.5012
 5838SOL    HW228974   3.184   0.954   0.375 -0.3332  0.3844  0.5821
 5839SOL     OW28975   3.509   3.453   5.716  0.6072  0.2716 -0.2573
 5839SOL    HW128976   3.603   3.445   5.734  0.6369  0.1988 -0.4435
 5839SOL    HW228977   3.515   3.546   5.693 -1.7477 -0.0034 -1.9408
 5840SOL     OW28978   4.263   3.769  16.630 -0.5484  0.1010  0.6901
 5840SOL    HW128979   4.269   3.849  16.682 -1.5578  0.0107  0.9457
 5840SOL    HW228980   4.192   3.718  16.670 -1.5731  0.1861 -1.0214
 5841SOL     OW28981   0.391   2.330   9.351  0.1891  0.2764  0.1893
 5841SOL    HW128982   0.478   2.371   9.352 -0.2111  1.0927  2.0908
 5841SOL    HW228983   0.339   2.407   9.328 -0.2288 -0.3389 -0.8935
 5842SOL     OW28984   0.855   1.360  10.140 -0.1750 -0.2590  0.1721
 5842SOL    HW128985   0.897   1.390  10.221 -1.9987  0.7380  0.7330
 5842SOL    HW228986   0.897   1.274  10.130  1.0244 -0.1626  4.1681
 5843SOL     OW28987   3.956   0.964   6.213  0.1111  0.2191  0.2907
 5843SOL    HW128988   4.026   0.899   6.216  0.3660  0.4695 -0.1383
 5843SOL    HW228989   3.917   0.955   6.300 -2.8473 -3.5759 -1.4256
 5844SOL     OW28990   1.515   0.047  14.501 -0.1307 -0.5311  0.5320
 5844SOL    HW128991   1.482   0.032  14.590 -0.9038  2.5075  0.7461
 5844SOL    HW228992   1.523   4.688  14.455  1.3502  0.2116 -0.5756
 5845SOL     OW28993   1.894   4.140   4.308  0.5498 -0.1382 -0.4442
 5845SOL    HW128994   1.928   4.224   4.341  1.3161 -0.3058 -0.7937
 5845SOL    HW228995   1.952   4.080   4.355 -0.8647 -2.8981 -2.2315
 5846SOL     OW28996   1.408   1.724  13.849  0.0138  0.5834 -0.0380
 5846SOL    HW128997   1.337   1.680  13.803 -0.4080  2.4947 -1.2267
 5846SOL    HW228998   1.475   1.656  13.840 -0.7266 -0.2573  0.7563
 5847SOL     OW28999   0.286   0.573   2.614 -0.8041  0.1499 -0.6003
 5847SOL    HW129000   0.232   0.579   2.692  1.4383  2.9743  0.7054
 5847SOL    HW229001   0.253   0.647   2.564 -0.9715  0.7606  0.4207
 5848SOL     OW29002   0.383   1.496   8.527 -0.3847  0.6824  0.4988
 5848SOL    HW129003   0.290   1.515   8.514 -0.3661 -0.4302 -1.1761
 5848SOL    HW229004   0.422   1.582   8.511 -0.3029  0.0082 -2.8748
 5849SOL     OW29005   3.336   4.409  11.402 -0.7968 -0.2815  0.0450
 5849SOL    HW129006   3.431   4.406  11.388 -1.1084 -2.4802 -1.4790
 5849SOL    HW229007   3.320   4.462  11.324  2.8420  0.0212 -0.4891
 5850SOL     OW29008   2.787   4.568   6.552 -0.4009 -0.4981 -0.1573
 5850SOL    HW129009   2.755   4.515   6.479 -1.9763  1.1823 -0.6984
 5850SOL    HW229010   2.786   4.505   6.623 -1.6437  0.2311  0.4618
 5851SOL     OW29011   0.183   0.645   2.196 -0.2776 -0.6177 -0.6207
 5851SOL    HW129012   0.221   0.659   2.110  1.1736 -0.6563  0.0208
 5851SOL    HW229013   0.156   0.553   2.194  0.6676 -0.9353  1.4793
 5852SOL     OW29014   3.217   2.320   6.526 -0.1675  0.2457 -1.0706
 5852SOL    HW129015   3.128   2.323   6.491 -1.3910  0.7544  2.0862
 5852SOL    HW229016   3.208   2.245   6.584  1.9285  0.5878 -0.3204
 5853SOL     OW29017   4.387   3.300   1.489 -0.1862 -0.1178  0.1147
 5853SOL    HW129018   4.313   3.333   1.539 -0.2988 -0.4771  0.1890
 5853SOL    HW229019   4.378   3.359   1.415  1.0545 -0.6666 -0.4827
 5854SOL     OW29020   2.065   0.563   8.991 -0.2339  0.3374 -0.3934
 5854SOL    HW129021   1.998   0.630   9.002  0.5326  1.2142 -1.1621
 5854SOL    HW229022   2.132   0.594   8.931  0.2967  0.5459  0.2974
 5855SOL     OW29023   2.688   3.288   8.425 -0.0074  0.0962  0.3538
 5855SOL    HW129024   2.621   3.354   8.445  0.1166 -0.3829  2.3552
 5855SOL    HW229025   2.701   3.240   8.507  1.5759  0.3702  0.2699
 5856SOL     OW29026   2.206   2.107   8.700  0.0989 -0.1662 -0.0523
 5856SOL    HW129027   2.239   2.173   8.761  0.5169  0.2163 -0.6954
 5856SOL    HW229028   2.115   2.091   8.724 -1.6292  4.1777 -3.6313
 5857SOL     OW29029   1.345   4.609  16.359 -0.0584  0.4116 -0.0032
 5857SOL    HW129030   1.345   4.668  16.434  1.2741 -0.6123  0.8017
 5857SOL    HW229031   1.257   4.627  16.328  0.0643 -0.7213 -1.0297
 5858SOL     OW29032   0.236   1.420   9.295  0.2686 -0.2455 -0.5451
 5858SOL    HW129033   0.293   1.494   9.316  1.9858 -1.1924 -1.8040
 5858SOL    HW229034   0.282   1.385   9.219  0.3023 -1.7498  0.1640
 5859SOL     OW29035   2.885   4.614   5.531  0.9137 -0.2137  0.4636
 5859SOL    HW129036   2.916   4.668   5.458  0.4616 -2.3723 -1.3299
 5859SOL    HW229037   2.791   4.602   5.519  0.4267  0.4702  3.6601
 5860SOL     OW29038   2.008   3.175   5.707 -0.3159 -0.1461 -0.4470
 5860SOL    HW129039   1.979   3.124   5.782 -0.2333  4.5062  2.6944
 5860SOL    HW229040   2.019   3.263   5.743 -1.1140  0.0993 -0.8041
 5861SOL     OW29041   1.079   4.604   2.547  0.2402 -0.1058  0.5158
 5861SOL    HW129042   0.988   4.599   2.574  0.0014 -0.3576 -0.3482
 5861SOL    HW229043   1.064   4.600   2.452 -2.5224  2.6071  0.8445
 5862SOL     OW29044   0.829   3.061   9.953 -0.2702  0.2728 -0.5110
 5862SOL    HW129045   0.743   3.081   9.917 -1.1646 -1.7186  0.5329
 5862SOL    HW229046   0.838   2.968   9.973  1.7333  0.5506 -0.0995
 5863SOL     OW29047   2.783   0.568  11.458 -0.1114  0.0183 -0.2136
 5863SOL    HW129048   2.865   0.580  11.506 -0.3161 -2.2169  0.7059
 5863SOL    HW229049   2.716   0.601  11.516  0.0745 -1.1309  0.6556
 5864SOL     OW29050   0.564   3.984   7.190  0.1428  0.2001  0.3911
 5864SOL    HW129051   0.657   3.961   7.190  0.3563  0.9986  2.6789
 5864SOL    HW229052   0.541   4.013   7.102  2.3919 -0.4870 -0.4177
 5865SOL     OW29053   2.907   3.463   7.416 -0.2631  0.1371  0.2261
 5865SOL    HW129054   2.960   3.500   7.488  1.0831 -1.9936  0.3251
 5865SOL    HW229055   2.852   3.397   7.459 -1.8295  0.5058 -1.2414
 5866SOL     OW29056   4.349   0.594   7.944 -0.1476 -0.0965  0.3892
 5866SOL    HW129057   4.275   0.597   8.005  1.4436 -0.9002  2.3552
 5866SOL    HW229058   4.336   0.512   7.895 -2.3648  0.8296 -0.5809
 5867SOL     OW29059   0.151   2.335  13.581 -0.4321 -0.3470 -0.2298
 5867SOL    HW129060   0.162   2.342  13.676 -1.7972  1.5858 -0.2040
 5867SOL    HW229061   0.086   2.405  13.570  1.7315  1.4696 -1.5373
 5868SOL     OW29062   2.236   3.107   7.347 -0.0431  0.2385 -0.3000
 5868SOL    HW129063   2.325   3.072   7.360 -2.0305 -3.6634  2.7094
 5868SOL    HW229064   2.203   3.038   7.291  2.3902 -0.4848 -0.8613
 5869SOL     OW29065   1.646   0.157  12.608 -0.1135 -0.5763  0.2019
 5869SOL    HW129066   1.705   0.084  12.591 -0.4737 -0.5349 -1.1688
 5869SOL    HW229067   1.712   0.227  12.604 -2.1402  1.3288  0.0523
 5870SOL     OW29068   0.891   3.046   6.563 -0.6989 -0.3376 -0.2170
 5870SOL    HW129069   0.882   3.067   6.470 -0.5777  0.5422 -0.0264
 5870SOL    HW229070   0.957   3.110   6.590  0.3012 -0.7024 -1.7584
 5871SOL     OW29071   0.136   2.641  11.016 -0.0443  0.0654 -0.1918
 5871SOL    HW129072   0.109   2.679  10.933 -1.6365 -0.8970 -0.1055
 5871SOL    HW229073   0.193   2.576  10.974 -1.0893  0.3373 -2.0282
 5872SOL     OW29074   1.287   3.796   6.820  0.4627  0.0517 -0.2767
 5872SOL    HW129075   1.308   3.889   6.829 -1.4039  0.0188  4.7495
 5872SOL    HW229076   1.369   3.764   6.784  0.9293  1.7008 -0.6539
 5873SOL     OW29077   2.939   4.445  13.331 -0.4108 -0.1231 -0.2485
 5873SOL    HW129078   3.000   4.455  13.404 -1.1976 -2.0958  0.6622
 5873SOL    HW229079   2.852   4.447  13.370  0.2789 -0.1795  1.2835
 5874SOL     OW29080   3.445   3.527  15.439  0.2434  0.2123 -0.2175
 5874SOL    HW129081   3.529   3.507  15.398  0.0419 -1.5807  0.2311
 5874SOL    HW229082   3.444   3.621  15.455 -1.2249  0.0821  0.4694
 5875SOL     OW29083   3.272   3.466   6.362  0.5160  0.1117 -0.8614
 5875SOL    HW129084   3.308   3.381   6.387  0.4183 -0.0630 -1.3057
 5875SOL    HW229085   3.236   3.454   6.274  2.3256  1.2641 -1.7730
 5876SOL     OW29086   2.300   3.328   6.970 -0.2313  0.1173 -0.0668
 5876SOL    HW129087   2.255   3.255   6.927 -0.9617 -0.1881  1.2038
 5876SOL    HW229088   2.376   3.283   7.007 -0.1205  0.4634  0.1274
 5877SOL     OW29089   1.029   4.052   2.937 -0.0968  0.4455  0.0299
 5877SOL    HW129090   0.973   4.108   2.991  0.3753  0.2720  0.7047
 5877SOL    HW229091   1.082   4.119   2.894  0.6206 -0.9371 -1.2219
 5878SOL     OW29092   2.773   3.997   4.788 -0.2940  0.8958  0.1458
 5878SOL    HW129093   2.851   3.941   4.787 -0.1752  1.0534  0.9327
 5878SOL    HW229094   2.756   4.003   4.694  2.8257 -0.2135 -0.4710
 5879SOL     OW29095   2.536   2.088   3.655  0.4461  0.1232 -0.3143
 5879SOL    HW129096   2.525   2.023   3.725  0.7570 -0.4159 -0.7648
 5879SOL    HW229097   2.616   2.133   3.683  1.0321 -0.7820 -0.5155
 5880SOL     OW29098   1.897   1.561   4.503 -0.2110  0.1199  0.0222
 5880SOL    HW129099   1.945   1.594   4.579 -0.2063 -0.0674  0.1026
 5880SOL    HW229100   1.896   1.633   4.440  1.1847  0.7010  0.6669
 5881SOL     OW29101   0.745   1.225   1.658 -0.3092  0.8444 -0.4332
 5881SOL    HW129102   0.690   1.261   1.727 -0.0276  2.9463 -1.3045
 5881SOL    HW229103   0.698   1.239   1.576 -1.2031 -0.2529 -0.1180
 5882SOL     OW29104   3.362   4.477  10.924  0.0919 -0.2130 -0.6162
 5882SOL    HW129105   3.341   4.400  10.871 -1.2637 -1.0104  1.0953
 5882SOL    HW229106   3.454   4.463  10.945  0.0680  0.8021  0.1623
 5883SOL     OW29107   2.468   4.282   1.075  0.4300 -0.0481 -0.4359
 5883SOL    HW129108   2.453   4.339   0.999  0.5138  0.5365 -0.0177
 5883SOL    HW229109   2.494   4.352   1.136  1.4319  0.0435 -0.9690
 5884SOL     OW29110   3.558   0.576  11.627  0.7265 -0.1229  0.3937
 5884SOL    HW129111   3.487   0.600  11.568  1.8716  0.2765 -0.8283
 5884SOL    HW229112   3.610   0.523  11.566  2.2744  0.3442  1.3008
 5885SOL     OW29113   3.188   3.136  11.765 -0.0339  0.1131 -0.0552
 5885SOL    HW129114   3.273   3.098  11.784 -0.5125 -0.9166  0.0460
 5885SOL    HW229115   3.174   3.123  11.672  1.9158 -2.0029 -0.0324
 5886SOL     OW29116   4.600   1.457   9.328  0.1586  0.1239  0.5320
 5886SOL    HW129117   4.519   1.494   9.293  1.9007 -0.7820 -4.4412
 5886SOL    HW229118   4.675   1.516   9.320 -0.8874  1.5119  0.8095
 5887SOL     OW29119   1.536   2.230   4.622 -0.3698  0.1734 -0.0741
 5887SOL    HW129120   1.487   2.307   4.593 -1.2646 -0.9676 -1.5875
 5887SOL    HW229121   1.489   2.199   4.699  0.6783  1.8469  1.2399
 5888SOL     OW29122   2.807   3.050   4.191  0.6164  0.3259  0.3312
 5888SOL    HW129123   2.841   3.077   4.276 -0.0274  2.1188  0.0182
 5888SOL    HW229124   2.840   3.126   4.142  1.2628  0.7022  1.3587
 5889SOL     OW29125   0.921   0.397   1.280  0.6964 -0.3106 -0.1524
 5889SOL    HW129126   1.004   0.368   1.318  1.2288  2.0755  0.4936
 5889SOL    HW229127   0.944   0.363   1.194  0.5076 -0.1902 -0.2515
 5890SOL     OW29128   3.880   4.611   4.653  0.3104 -0.9294 -0.1507
 5890SOL    HW129129   3.932   4.627   4.732 -0.1191  1.2394 -0.3105
 5890SOL    HW229130   3.905   4.684   4.597  0.8686  2.2688  4.2180
 5891SOL     OW29131   1.693   3.006   6.881  0.2666 -0.1239  0.4764
 5891SOL    HW129132   1.692   3.018   6.976 -1.4307  0.9855  0.3139
 5891SOL    HW229133   1.724   2.916   6.872  0.0195 -0.0124 -1.3434
 5892SOL     OW29134   0.489   4.376   4.519 -0.0291 -0.6687  0.4648
 5892SOL    HW129135   0.470   4.350   4.610 -1.8770  0.3403  0.3644
 5892SOL    HW229136   0.582   4.398   4.514  0.2481 -1.5879  1.5346
 5893SOL     OW29137   0.444   4.312  12.954 -0.3824  0.0492 -0.6113
 5893SOL    HW129138   0.495   4.387  12.985  2.6507 -1.7784 -1.2455
 5893SOL    HW229139   0.449   4.319  12.859  0.5115 -0.5690 -0.6073
 5894SOL     OW29140   0.428   1.067   3.794  0.4502  0.2163  0.0894
 5894SOL    HW129141   0.389   0.981   3.805  3.6190 -1.6063 -2.6816
 5894SOL    HW229142   0.511   1.057   3.841 -0.0245  1.0849  1.0960
 5895SOL     OW29143   0.725   3.870  15.529 -0.0758  0.0747 -0.0546
 5895SOL    HW129144   0.777   3.832  15.458 -0.2838 -1.8612  0.8353
 5895SOL    HW229145   0.676   3.793  15.556  0.1567  0.2079  0.7382
 5896SOL     OW29146   2.310   2.323   5.908  0.2995 -0.0929 -0.5499
 5896SOL    HW129147   2.250   2.250   5.926 -1.3630  1.9218  1.9786
 5896SOL    HW229148   2.249   2.397   5.903 -0.6183 -0.9996 -3.0606
 5897SOL     OW29149   0.446   2.375  16.796 -0.2248 -0.0429  0.5366
 5897SOL    HW129150   0.498   2.445  16.754  1.7562 -2.2365 -0.6636
 5897SOL    HW229151   0.511   2.305  16.802  0.1553  0.2389 -0.1928
 5898SOL     OW29152   3.627   3.175  10.403  0.0581  0.0544 -0.2229
 5898SOL    HW129153   3.692   3.150  10.338  0.0227  3.3415 -1.5268
 5898SOL    HW229154   3.630   3.102  10.465  0.2789  0.9939  0.8715
 5899SOL     OW29155   3.383   0.320   1.514 -0.1461  0.1818 -1.0222
 5899SOL    HW129156   3.361   0.351   1.426 -1.6805 -1.9553 -1.3962
 5899SOL    HW229157   3.411   0.229   1.504 -0.3105  0.1650 -1.3210
 5900SOL     OW29158   0.269   2.754  17.075 -0.0500  0.1349 -0.0672
 5900SOL    HW129159   0.307   2.667  17.066 -0.7161  0.2084 -3.2826
 5900SOL    HW229160   0.193   2.724  17.124  0.7453 -0.7413  0.6335
 5901SOL     OW29161   3.190   2.923   8.630  0.3963  0.2553  0.2137
 5901SOL    HW129162   3.162   2.849   8.684  1.3751 -0.7193 -0.6166
 5901SOL    HW229163   3.121   2.984   8.654 -0.6850 -0.6121 -0.6811
 5902SOL     OW29164   0.703   4.279  16.167  0.3079 -0.8058 -0.3071
 5902SOL    HW129165   0.632   4.264  16.105 -0.5813  0.2245  0.4681
 5902SOL    HW229166   0.656   4.319  16.240 -0.4624 -0.6706 -0.8831
 5903SOL     OW29167   3.314   4.342   8.241 -0.0947  0.3476 -1.0632
 5903SOL    HW129168   3.340   4.257   8.277  2.0405  1.5399  0.2352
 5903SOL    HW229169   3.390   4.391   8.274 -1.2451  1.2035  0.3030
 5904SOL     OW29170   4.226   2.879   4.934 -0.8028 -0.5481  0.1026
 5904SOL    HW129171   4.173   2.904   5.010  0.8197  1.8203  0.4432
 5904SOL    HW229172   4.308   2.848   4.974 -0.3724 -1.4132 -1.4577
 5905SOL     OW29173   3.222   3.758   9.916 -0.9448  0.0029  0.1714
 5905SOL    HW129174   3.173   3.793   9.842  0.5259 -0.6115 -1.1038
 5905SOL    HW229175   3.218   3.669   9.880 -2.7256 -1.3633  3.8395
 5906SOL     OW29176   1.814   0.936   1.491 -0.4220  0.4546  0.2789
 5906SOL    HW129177   1.876   0.864   1.505 -1.2189 -0.4061 -0.6707
 5906SOL    HW229178   1.860   1.014   1.523 -2.0611  1.7457 -0.5541
 5907SOL     OW29179   1.396   3.162   0.874 -0.1884  0.3695  0.0292
 5907SOL    HW129180   1.401   3.123   0.787  1.2966 -0.3169  0.4255
 5907SOL    HW229181   1.463   3.119   0.926  0.1901 -1.7704 -2.2183
 5908SOL     OW29182   2.158   3.103   3.926 -0.2350  0.1671  0.1245
 5908SOL    HW129183   2.246   3.101   3.889 -1.0399 -1.4017 -1.7156
 5908SOL    HW229184   2.114   3.056   3.855 -0.0726 -1.0252  0.8282
 5909SOL     OW29185   1.573   1.478   4.904 -0.2296  0.2965  0.0111
 5909SOL    HW129186   1.577   1.519   4.818  0.8545  3.0841  1.3728
 5909SOL    HW229187   1.492   1.427   4.903  0.6860 -1.1687 -0.1929
 5910SOL     OW29188   3.904   0.065   3.892  0.2574  0.9127  0.4298
 5910SOL    HW129189   3.895   4.712   3.837 -3.1421  1.1028  0.7285
 5910SOL    HW229190   3.900   0.142   3.834  1.2650  0.9075  0.3503
 5911SOL     OW29191   3.384   2.487   7.533 -0.3510 -0.4148 -0.2150
 5911SOL    HW129192   3.423   2.400   7.524 -0.7443 -0.7476  1.3127
 5911SOL    HW229193   3.452   2.527   7.588 -1.5723  0.5122  0.6331
 5912SOL     OW29194   4.059   3.748   6.768  0.3245  0.0773  0.0932
 5912SOL    HW129195   4.132   3.800   6.736  1.0716 -1.2617 -0.3879
 5912SOL    HW229196   3.989   3.797   6.724 -0.9219 -0.7623  1.1211
 5913SOL     OW29197   2.741   2.731  15.660  0.1443 -0.3836 -0.3591
 5913SOL    HW129198   2.824   2.777  15.676  0.9093 -1.3328 -1.6746
 5913SOL    HW229199   2.682   2.780  15.717  0.9074  0.1683 -0.0359
 5914SOL     OW29200   3.127   3.381   1.180  0.2869 -0.7266 -0.4888
 5914SOL    HW129201   3.163   3.461   1.218 -1.7424 -0.1076  0.1636
 5914SOL    HW229202   3.172   3.377   1.096  0.9581 -0.8380 -0.1161
 5915SOL     OW29203   2.360   0.148   3.860 -0.0485  0.5894 -0.2415
 5915SOL    HW129204   2.449   0.180   3.874  0.9373 -2.7398  1.1313
 5915SOL    HW229205   2.370   0.056   3.837  0.0074  0.1599  1.4873
 5916SOL     OW29206   0.107   4.075   8.974  0.6626  1.0543  0.0476
 5916SOL    HW129207   0.029   4.122   9.001 -0.0104  0.6474 -1.1738
 5916SOL    HW229208   0.115   4.110   8.885  0.8360  3.6176  1.0794
 5917SOL     OW29209   0.547   0.777  10.234 -0.1175 -0.2350 -0.0344
 5917SOL    HW129210   0.505   0.848  10.282 -1.3829 -1.2708  0.3827
 5917SOL    HW229211   0.577   0.717  10.303  1.7864  1.0692  0.2747
 5918SOL     OW29212   2.405   3.396   0.046 -0.1892  0.0104  0.3315
 5918SOL    HW129213   2.344   3.343   0.098 -1.1871 -0.8384 -1.7056
 5918SOL    HW229214   2.339   3.451   0.004  0.3130 -1.0028 -1.7341
 5919SOL     OW29215   0.436   1.790   1.435 -0.0487  0.1399  0.6036
 5919SOL    HW129216   0.423   1.778   1.341 -0.0220 -0.9235  0.7350
 5919SOL    HW229217   0.527   1.818   1.436 -0.0532  0.1541  0.6108
 5920SOL     OW29218   0.705   1.950   8.638  0.2286 -0.5318  0.1972
 5920SOL    HW129219   0.798   1.956   8.615 -0.0201 -1.0400 -0.9426
 5920SOL    HW229220   0.706   1.969   8.732 -2.0326 -0.8177  0.2837
 5921SOL     OW29221   0.268   2.584   2.534 -0.0122  0.3884 -0.3876
 5921SOL    HW129222   0.305   2.667   2.564 -0.6986  0.5386  0.0417
 5921SOL    HW229223   0.219   2.602   2.454  1.6398  0.5113 -1.3646
 5922SOL     OW29224   1.711   3.132  12.486  0.1046 -0.0259  0.0811
 5922SOL    HW129225   1.790   3.183  12.467 -0.2347  0.1529 -0.8807
 5922SOL    HW229226   1.649   3.182  12.433  3.8881  2.3896 -2.0919
 5923SOL     OW29227   2.949   1.973   7.903  0.5909  0.1882  0.0964
 5923SOL    HW129228   2.861   1.969   7.940 -0.0550 -0.1310 -1.5038
 5923SOL    HW229229   3.006   1.950   7.977  0.9102  0.5483 -0.0358
 5924SOL     OW29230   2.370   3.284   5.905  0.1795  0.3631  0.1660
 5924SOL    HW129231   2.344   3.281   5.997 -1.0021 -0.4489 -0.1937
 5924SOL    HW229232   2.407   3.198   5.889  1.8578  0.7878  1.8311
 5925SOL     OW29233   4.465   4.519   1.829  0.6754 -0.0819  0.2055
 5925SOL    HW129234   4.447   4.568   1.749 -0.5654 -1.4067 -0.3114
 5925SOL    HW229235   4.507   4.442   1.790 -1.5007 -1.3720  0.4189
 5926SOL     OW29236   3.553   4.098  14.335  0.5050  0.3755  0.6925
 5926SOL    HW129237   3.473   4.051  14.359 -0.3361  1.7027  0.5020
 5926SOL    HW229238   3.566   4.083  14.241  2.3681 -2.4306  1.4011
 5927SOL     OW29239   3.590   2.893   3.511  0.5002 -0.6873  0.0507
 5927SOL    HW129240   3.656   2.936   3.565  0.2661 -0.4938  0.1849
 5927SOL    HW229241   3.633   2.897   3.426 -0.8770  0.5738 -0.5989
 5928SOL     OW29242   2.159   3.319   4.700 -0.0574  0.2491 -0.7085
 5928SOL    HW129243   2.187   3.338   4.789  0.0881 -0.1039 -0.6789
 5928SOL    HW229244   2.112   3.396   4.666  0.6573  0.7390 -0.6033
 5929SOL     OW29245   4.214   0.072  16.670 -0.0463  0.2238  0.0171
 5929SOL    HW129246   4.308   0.081  16.681 -0.2649  3.1951 -0.4448
 5929SOL    HW229247   4.200   0.165  16.691  0.5429  0.2275  0.3838
 5930SOL     OW29248   2.020   0.880   2.714 -0.2845  0.1372  0.1100
 5930SOL    HW129249   1.939   0.840   2.682 -0.4376  0.3255  0.2611
 5930SOL    HW229250   2.082   0.849   2.648  1.0247 -0.5040  1.6607
 5931SOL     OW29251   0.642   1.335   6.360  0.5487  0.4578 -0.0376
 5931SOL    HW129252   0.557   1.316   6.322  0.2206  1.0949  0.3809
 5931SOL    HW229253   0.691   1.380   6.291 -0.2763  1.3137 -0.0533
 5932SOL     OW29254   2.253   1.564   5.209  0.3438  0.5561 -0.0626
 5932SOL    HW129255   2.206   1.515   5.141  0.8103  0.5246 -0.3681
 5932SOL    HW229256   2.281   1.638   5.154  0.0233 -0.5978 -1.7961
 5933SOL     OW29257   2.686   2.595  11.958 -0.6035 -0.0588 -0.0565
 5933SOL    HW129258   2.695   2.675  11.907  1.7781  0.5976  1.3608
 5933SOL    HW229259   2.648   2.635  12.036 -0.6419  0.2305 -0.2275
 5934SOL     OW29260   1.105   2.678   5.746 -0.3746 -0.3108 -0.0894
 5934SOL    HW129261   1.083   2.766   5.714 -2.4980 -1.6551 -2.3487
 5934SOL    HW229262   1.036   2.670   5.811  0.2916  0.1551  0.6780
 5935SOL     OW29263   1.434   0.568   8.679 -0.1015 -0.2979  0.0183
 5935SOL    HW129264   1.500   0.539   8.616  2.6401  2.8456  1.4517
 5935SOL    HW229265   1.447   0.662   8.666 -1.1872 -0.3051 -1.0805
 5936SOL     OW29266   0.822   4.359  15.924 -0.1437 -0.0587 -0.4355
 5936SOL    HW129267   0.808   4.317  16.009 -0.4990 -1.0236 -0.9707
 5936SOL    HW229268   0.793   4.450  15.925  0.2010  0.0250  2.6501
 5937SOL     OW29269   4.510   0.453  16.317  0.3450 -0.4727  0.1991
 5937SOL    HW129270   4.450   0.525  16.302  0.2020 -0.6261  0.0421
 5937SOL    HW229271   4.519   0.423  16.227 -1.1322 -1.1231  0.2634
 5938SOL     OW29272   3.752   3.613   8.141 -0.3017 -0.1795  0.3793
 5938SOL    HW129273   3.750   3.692   8.087 -1.1670 -1.0849 -0.9348
 5938SOL    HW229274   3.734   3.650   8.227  0.2140 -0.7783  0.7453
 5939SOL     OW29275   3.545   1.970   4.772  0.4360 -0.3406  0.0441
 5939SOL    HW129276   3.540   1.876   4.791  2.1085 -0.5130 -0.4014
 5939SOL    HW229277   3.626   1.977   4.722  0.4467  0.1695  0.1335
 5940SOL     OW29278   4.574   2.311   3.130  0.1759  0.1310  0.5186
 5940SOL    HW129279   4.527   2.393   3.116 -2.5530 -1.8262 -1.8720
 5940SOL    HW229280   4.627   2.328   3.207 -0.8890  0.2916  1.2131
 5941SOL     OW29281   0.847   1.909   2.185 -0.4558  0.6055  0.0814
 5941SOL    HW129282   0.767   1.954   2.213 -1.0305  0.1432 -0.8045
 5941SOL    HW229283   0.863   1.938   2.095  0.5447 -0.6671 -0.1439
 5942SOL     OW29284   1.666   1.691   3.260  0.4335  0.6761 -0.1313
 5942SOL    HW129285   1.636   1.639   3.335  0.3123 -1.4755 -1.7044
 5942SOL    HW229286   1.761   1.685   3.271  0.7744  1.3852 -2.7050
 5943SOL     OW29287   3.525   0.513   5.187  0.0265 -0.1386 -0.0649
 5943SOL    HW129288   3.544   0.481   5.275  1.6929 -0.0768 -0.3995
 5943SOL    HW229289   3.484   0.442   5.137  0.3995 -1.0729  0.9415
 5944SOL     OW29290   2.342   4.624   4.085 -0.3327 -0.1608  0.6908
 5944SOL    HW129291   2.419   4.664   4.043 -0.0019 -0.9862  0.5115
 5944SOL    HW229292   2.369   4.590   4.170 -0.8952 -1.4255  0.3594
 5945SOL     OW29293   3.339   3.462   8.399  0.0300 -0.1340 -0.4349
 5945SOL    HW129294   3.311   3.489   8.311 -0.8768  1.6300  0.3890
 5945SOL    HW229295   3.257   3.461   8.447 -1.8531  4.4294 -3.4371
 5946SOL     OW29296   2.934   2.172   6.637 -0.3849 -0.3519  0.0159
 5946SOL    HW129297   2.975   2.202   6.719 -1.4315  1.2051 -0.0354
 5946SOL    HW229298   2.903   2.088   6.672  1.3467 -1.4028 -0.9596
 5947SOL     OW29299   3.205   0.665   5.996  0.4533 -0.2441 -0.7421
 5947SOL    HW129300   3.269   0.693   6.062  0.3813 -0.6736 -0.4856
 5947SOL    HW229301   3.120   0.707   6.010 -0.0921 -0.9586 -1.9265
 5948SOL     OW29302   4.267   0.147  14.431 -0.2126 -0.3699 -0.2921
 5948SOL    HW129303   4.204   0.079  14.407 -1.1307 -0.0215  1.1620
 5948SOL    HW229304   4.254   0.219  14.369 -2.4567  0.2080  0.8670
 5949SOL     OW29305   2.654   1.427   2.143 -0.3731 -0.6653 -0.2022
 5949SOL    HW129306   2.566   1.453   2.113 -1.7002 -2.4885  2.1605
 5949SOL    HW229307   2.675   1.499   2.203 -1.8427 -1.5908  1.4261
 5950SOL     OW29308   3.576   3.288   7.135 -0.0226  0.4944  0.0398
 5950SOL    HW129309   3.574   3.216   7.071  3.2885  1.0364 -0.6998
 5950SOL    HW229310   3.492   3.278   7.178 -0.4787  1.9652 -0.5062
 5951SOL     OW29311   4.042   3.592  15.499  0.0817  0.1409 -0.4159
 5951SOL    HW129312   4.065   3.625  15.586 -0.0382  0.9244 -0.6824
 5951SOL    HW229313   4.019   3.502  15.520  0.6894  0.2270  0.6087
 5952SOL     OW29314   0.702   2.296   7.248  0.0405 -0.3489 -0.3078
 5952SOL    HW129315   0.615   2.337   7.248  0.1845  0.0168  3.0926
 5952SOL    HW229316   0.741   2.297   7.336  1.6748 -0.2759 -1.0405
 5953SOL     OW29317   1.828   0.020   2.563  0.5239 -0.2756  0.2268
 5953SOL    HW129318   1.822   4.652   2.539  1.2926  0.3184 -2.1989
 5953SOL    HW229319   1.767   0.014   2.637 -0.7496  0.8406 -0.7463
 5954SOL     OW29320   3.213   4.402  11.680  0.0034  0.2700 -0.8517
 5954SOL    HW129321   3.294   4.407  11.733 -0.5688  1.7436 -0.1000
 5954SOL    HW229322   3.250   4.419  11.594  1.8640 -0.8070 -0.2701
 5955SOL     OW29323   0.995   2.402   7.395 -0.1439  0.2275  0.1228
 5955SOL    HW129324   1.061   2.385   7.462 -0.8203 -0.4904  0.6034
 5955SOL    HW229325   0.918   2.354   7.424  0.5765 -1.4225 -0.7103
 5956SOL     OW29326   4.547   3.205   3.321 -0.0158 -0.3050  0.6680
 5956SOL    HW129327   4.612   3.152   3.368 -1.2625 -2.4756 -0.0834
 5956SOL    HW229328   4.471   3.155   3.347 -0.1383 -1.1450 -1.3427
 5957SOL     OW29329   4.560   2.415   8.010  0.4680  0.2692  0.6975
 5957SOL    HW129330   4.634   2.461   7.971 -1.8876  2.0685 -1.6328
 5957SOL    HW229331   4.486   2.473   7.992  0.3143 -0.6616 -1.6873
 5958SOL     OW29332   3.514   0.277  13.511 -0.3423 -0.1741  0.0870
 5958SOL    HW129333   3.432   0.322  13.532  0.0357  0.0169  1.1390
 5958SOL    HW229334   3.489   0.187  13.493 -0.0500 -0.0313 -1.0872
 5959SOL     OW29335   2.098   0.807  10.845  0.1066 -0.2901  0.4354
 5959SOL    HW129336   2.109   0.861  10.923 -1.1329 -0.0445  0.4399
 5959SOL    HW229337   2.014   0.764  10.860 -0.3651 -0.0277 -1.5172
 5960SOL     OW29338   1.815   2.002  17.382 -0.6653  0.1892 -0.2643
 5960SOL    HW129339   1.839   2.091  17.406 -0.6567  1.1238 -3.7282
 5960SOL    HW229340   1.721   2.010  17.398 -0.4384  0.4847  0.9121
 5961SOL     OW29341   0.650   1.583  13.168  0.5690  0.2378  0.1453
 5961SOL    HW129342   0.562   1.575  13.205  1.1678 -1.3779  1.2325
 5961SOL    HW229343   0.629   1.632  13.088  0.3427  1.4427  0.9401
 5962SOL     OW29344   4.430   0.845   0.902 -0.4426 -0.0303  0.2922
 5962SOL    HW129345   4.405   0.845   0.810  1.2134  1.9165 -0.1670
 5962SOL    HW229346   4.523   0.827   0.886 -0.9509 -0.5594 -1.9712
 5963SOL     OW29347   2.841   2.164  10.849  0.3646 -0.0729 -0.1497
 5963SOL    HW129348   2.760   2.198  10.887  1.4671  2.7215 -0.3408
 5963SOL    HW229349   2.890   2.244  10.832 -0.3818  0.6574  1.0749
 5964SOL     OW29350   1.544   0.948   0.932  0.1995 -0.5124  0.5617
 5964SOL    HW129351   1.483   0.981   0.866  1.6512 -0.4395 -0.7746
 5964SOL    HW229352   1.521   1.002   1.007 -1.3527 -0.1594 -0.1715
 5965SOL     OW29353   3.271   0.055   9.804  0.0346 -0.4594  0.1401
 5965SOL    HW129354   3.353   0.020   9.838 -0.9006  0.6634  3.5391
 5965SOL    HW229355   3.275   0.144   9.840  1.8920 -0.9336  1.1152
 5966SOL     OW29356   4.475   0.251   8.571  0.2469 -0.2918 -0.2613
 5966SOL    HW129357   4.413   0.179   8.570  2.5451 -2.2577 -0.1156
 5966SOL    HW229358   4.415   0.309   8.619 -0.7995  0.0762 -2.0096
 5967SOL     OW29359   2.143   2.454   6.549  0.5170  0.3729  0.2993
 5967SOL    HW129360   2.072   2.398   6.520  1.7233 -0.7028 -0.5812
 5967SOL    HW229361   2.101   2.538   6.566  0.7022  0.1235  2.0074
 5968SOL     OW29362   0.279   2.746   7.300 -0.0418 -0.2326  0.2625
 5968SOL    HW129363   0.354   2.780   7.252  0.0883  1.8224  1.9362
 5968SOL    HW229364   0.307   2.765   7.389  0.5248 -1.1537  0.2820
 5969SOL     OW29365   2.229   2.443   7.469 -0.3464  0.0871 -0.2764
 5969SOL    HW129366   2.253   2.507   7.537 -0.1943 -0.7870  0.4984
 5969SOL    HW229367   2.316   2.418   7.438  0.3992  1.0176  1.0548
 5970SOL     OW29368   3.917   4.219  16.186 -0.1876 -0.5014  0.0171
 5970SOL    HW129369   3.880   4.293  16.138 -0.4345 -0.5232  0.1773
 5970SOL    HW229370   3.938   4.263  16.268 -0.5910  3.1438 -1.8398
 5971SOL     OW29371   0.602   0.020  16.150  0.0471  0.8434 -0.3510
 5971SOL    HW129372   0.620   0.113  16.141  2.1878  0.3844 -0.8826
 5971SOL    HW229373   0.507   0.025  16.155  0.0268  3.0733 -3.4640
 5972SOL     OW29374   2.994   4.100  13.172 -0.5972 -0.0535 -0.0656
 5972SOL    HW129375   2.965   4.020  13.129 -1.8716  0.7838 -0.7383
 5972SOL    HW229376   2.946   4.094  13.254 -0.6832 -2.0241 -0.2712
 5973SOL     OW29377   3.837   2.791   7.026  0.1255 -0.1761  0.0667
 5973SOL    HW129378   3.825   2.870   7.080  3.1020  0.8565 -0.8104
 5973SOL    HW229379   3.755   2.743   7.014  0.3487 -0.6704  0.5405
 5974SOL     OW29380   0.037   3.652   7.168  0.3888  0.0990 -0.1235
 5974SOL    HW129381   4.707   3.729   7.184  1.6909  1.2045 -1.0101
 5974SOL    HW229382   4.685   3.599   7.145 -0.4946  1.2951  0.0489
 5975SOL     OW29383   3.426   3.981   7.078  0.2147 -0.2023 -0.2512
 5975SOL    HW129384   3.348   3.946   7.035  1.3383 -0.0577 -2.3845
 5975SOL    HW229385   3.408   3.954   7.168  0.0567 -0.5677 -0.3913
 5976SOL     OW29386   3.106   4.176  15.284 -0.2315 -0.5015 -0.1352
 5976SOL    HW129387   3.097   4.119  15.207  1.0072  0.0880 -0.7079
 5976SOL    HW229388   3.199   4.198  15.287 -0.6433  1.2756 -0.6055
 5977SOL     OW29389   1.451   0.602   5.182  0.1328 -0.3098  0.3494
 5977SOL    HW129390   1.532   0.559   5.152 -0.0914 -0.0782 -0.5812
 5977SOL    HW229391   1.480   0.611   5.273  0.1398 -3.1982  0.6592
 5978SOL     OW29392   3.595   1.548   5.886 -0.0999 -0.0012 -0.1746
 5978SOL    HW129393   3.678   1.565   5.842 -0.2004 -1.8244 -1.0646
 5978SOL    HW229394   3.607   1.570   5.978 -0.8823  0.8089 -0.2726
 5979SOL     OW29395   4.147   0.714   1.253  0.3161 -0.2545  0.0106
 5979SOL    HW129396   4.148   0.621   1.275 -0.2554 -0.1076  0.6414
 5979SOL    HW229397   4.055   0.731   1.270  0.2690 -0.6511  0.1292
 5980SOL     OW29398   4.458   0.805  12.839 -0.3406 -0.0378  0.1613
 5980SOL    HW129399   4.456   0.711  12.856  2.2183 -0.0845  0.1933
 5980SOL    HW229400   4.419   0.838  12.920  1.5424  1.6432  0.3615
 5981SOL     OW29401   1.390   4.258  14.519  0.2785 -0.0163  0.0198
 5981SOL    HW129402   1.345   4.184  14.559  1.1124  1.0963  3.0030
 5981SOL    HW229403   1.371   4.331  14.578  0.5471  0.4882 -0.5143
 5982SOL     OW29404   4.548   1.739   7.973 -0.4296  0.5458  0.1178
 5982SOL    HW129405   4.625   1.785   8.007  0.7970 -1.6419  0.3756
 5982SOL    HW229406   4.560   1.648   8.003 -1.0444 -0.3900 -2.4839
 5983SOL     OW29407   2.205   2.895   5.774 -0.4492 -0.2080 -0.2713
 5983SOL    HW129408   2.230   2.854   5.691 -1.9128 -0.6844 -0.4628
 5983SOL    HW229409   2.183   2.986   5.753  1.4516  0.0964 -0.9384
 5984SOL     OW29410   3.564   3.522   4.786  0.0641  0.0038  0.1476
 5984SOL    HW129411   3.493   3.459   4.803 -0.9344  0.9361 -0.5789
 5984SOL    HW229412   3.571   3.519   4.690  4.1842 -2.9146  0.5302
 5985SOL     OW29413   0.078   4.170  11.629 -0.1876 -0.0559 -0.1916
 5985SOL    HW129414   0.003   4.150  11.685  0.1082 -0.6108  0.0022
 5985SOL    HW229415   0.135   4.094  11.639  0.5884  0.1832 -2.6702
 5986SOL     OW29416   1.750   3.745   1.294  0.1727  0.3018  0.1879
 5986SOL    HW129417   1.777   3.806   1.226 -1.1435  0.3235 -0.3014
 5986SOL    HW229418   1.705   3.692   1.228  1.6674 -1.0526  0.2288
 5987SOL     OW29419   0.110   0.230   4.288 -0.2579  0.0863 -0.1703
 5987SOL    HW129420   0.186   0.256   4.339  1.0250 -2.4427 -0.7896
 5987SOL    HW229421   0.066   0.167   4.345 -0.8707 -1.2330 -2.0953
 5988SOL     OW29422   1.859   2.802   8.846 -0.5172  0.3510 -0.0613
 5988SOL    HW129423   1.776   2.771   8.811  0.3513 -0.7337 -1.1507
 5988SOL    HW229424   1.856   2.785   8.941 -1.0672  1.1971  0.0719
 5989SOL     OW29425   1.923   4.323   5.395  0.2169  0.0978  0.7390
 5989SOL    HW129426   1.918   4.418   5.399 -0.0213  0.2145 -2.4861
 5989SOL    HW229427   1.942   4.317   5.301  0.1493  1.0158  0.6700
 5990SOL     OW29428   2.021   0.206  17.499 -0.0166  0.0326 -0.5274
 5990SOL    HW129429   1.956   0.151  17.457 -0.6299 -0.3855  0.9509
 5990SOL    HW229430   2.027   0.160  17.583 -0.4945 -0.5800 -0.8407
 5991SOL     OW29431   1.471   2.125  12.892  0.1857 -0.4769  0.1435
 5991SOL    HW129432   1.385   2.086  12.875 -0.0743  0.5804 -0.9764
 5991SOL    HW229433   1.527   2.049  12.906  1.5678  0.6364  0.7197
 5992SOL     OW29434   1.595   3.379  15.713 -0.0972  0.0821  0.2768
 5992SOL    HW129435   1.675   3.427  15.734 -0.0908  1.1179 -2.1136
 5992SOL    HW229436   1.627   3.288  15.713  2.6697  1.0757  0.5358
 5993SOL     OW29437   4.039   2.456   5.144  0.5978 -0.0217 -0.5046
 5993SOL    HW129438   4.001   2.467   5.057 -0.5531 -2.4570 -0.3069
 5993SOL    HW229439   3.960   2.450   5.199  0.4162 -1.4823 -0.9428
 5994SOL     OW29440   0.527   1.099  14.670  0.2409  0.3706  0.1206
 5994SOL    HW129441   0.583   1.063  14.738 -1.2072 -3.1563 -0.5514
 5994SOL    HW229442   0.568   1.185  14.661  2.3437 -0.4709  1.5865
 5995SOL     OW29443   1.976   2.582  13.352  0.7489 -0.7353 -0.0546
 5995SOL    HW129444   1.955   2.674  13.367  1.4489 -0.9630  2.2914
 5995SOL    HW229445   1.889   2.541  13.344 -0.1668  1.0844  0.5980
 5996SOL     OW29446   2.321   2.268   7.897 -0.0706  0.1631  0.0921
 5996SOL    HW129447   2.320   2.173   7.912 -0.3318  0.3879  1.4326
 5996SOL    HW229448   2.414   2.285   7.913  0.2542 -0.3619 -1.1944
 5997SOL     OW29449   4.320   2.164   5.795  0.0248  0.9851  0.6851
 5997SOL    HW129450   4.328   2.068   5.798 -0.5632  0.8952 -0.6695
 5997SOL    HW229451   4.371   2.191   5.871  1.5723 -0.6635  0.2378
 5998SOL     OW29452   1.153   0.148   5.168 -0.5312  0.2073  0.0836
 5998SOL    HW129453   1.101   0.226   5.147 -1.4824 -0.9245 -1.7255
 5998SOL    HW229454   1.233   0.190   5.201 -0.8674  2.2806 -1.7464
 5999SOL     OW29455   1.813   0.562   6.383 -0.0310 -0.8854  0.3855
 5999SOL    HW129456   1.718   0.548   6.385 -0.2894  0.7601 -0.9588
 5999SOL    HW229457   1.846   0.535   6.469 -4.2358 -1.6414  1.7465
 6000SOL     OW29458   2.011   0.267   0.072 -0.4626 -0.1889  0.9774
 6000SOL    HW129459   2.040   0.346   0.117  0.2436 -0.9241  1.8258
 6000SOL    HW229460   1.938   0.242   0.129  0.3304  2.4154  3.1147
 6001SOL     OW29461   3.253   3.558  14.465  0.1235 -0.2171  0.0932
 6001SOL    HW129462   3.337   3.556  14.510 -0.0649 -1.6391  0.4068
 6001SOL    HW229463   3.276   3.605  14.385  4.5278 -0.3312  1.2844
 6002SOL     OW29464   3.869   3.860   2.884  0.0231  0.2539 -1.0053
 6002SOL    HW129465   3.793   3.810   2.913  0.0259  1.1296  0.5145
 6002SOL    HW229466   3.835   3.943   2.917  0.4846  0.0845 -0.0807
 6003SOL     OW29467   3.189   1.850   7.374 -0.5945 -0.0393 -0.2022
 6003SOL    HW129468   3.123   1.812   7.434  0.4828  0.8106  1.5245
 6003SOL    HW229469   3.211   1.775   7.319 -1.1135 -0.1096 -0.3184
 6004SOL     OW29470   1.935   0.764   3.722  0.3869  0.1566 -0.5929
 6004SOL    HW129471   1.982   0.726   3.648 -1.2524 -1.3391 -0.8421
 6004SOL    HW229472   1.850   0.726   3.703 -1.4939  3.1938  1.7832
 6005SOL     OW29473   2.421   1.678   4.746 -0.8631 -0.7269 -0.0182
 6005SOL    HW129474   2.444   1.752   4.801  0.2301 -0.3781 -0.9518
 6005SOL    HW229475   2.460   1.607   4.796 -1.0074 -0.9508 -0.2173
 6006SOL     OW29476   2.468   1.898   3.838  0.1607 -0.1510  0.2860
 6006SOL    HW129477   2.468   1.851   3.755  0.1805 -0.5987  0.5400
 6006SOL    HW229478   2.403   1.844   3.882  0.5048 -1.7010 -1.1131
 6007SOL     OW29479   3.575   3.866   7.677  0.3732  0.4206 -0.0891
 6007SOL    HW129480   3.493   3.904   7.707 -0.9259 -1.6753 -0.9284
 6007SOL    HW229481   3.591   3.885   7.584  1.1042 -1.1997 -0.2976
 6008SOL     OW29482   0.012   3.132   0.177 -0.3204 -0.3423 -0.4334
 6008SOL    HW129483   0.022   3.141   0.272  0.4346  1.9401 -0.7339
 6008SOL    HW229484   4.660   3.076   0.173 -0.4513 -0.2973  1.3072
 6009SOL     OW29485   3.593   1.044  12.078  0.2249 -0.0816  0.0470
 6009SOL    HW129486   3.580   0.951  12.097  0.9124 -0.4374 -1.2026
 6009SOL    HW229487   3.569   1.051  11.986 -3.9694  1.7318  1.2718
 6010SOL     OW29488   4.693   0.465   0.953 -0.1306 -0.0470  0.3250
 6010SOL    HW129489   4.643   0.440   1.031  0.8323  0.7294  1.2036
 6010SOL    HW229490   4.623   0.488   0.892  0.2753  3.0795  1.0196
 6011SOL     OW29491   0.541   4.003   4.606  0.0757  0.3103  0.5318
 6011SOL    HW129492   0.623   4.015   4.655  0.3289  0.4673  0.0662
 6011SOL    HW229493   0.492   3.943   4.663 -0.0935  1.6040  1.7384
 6012SOL     OW29494   3.408   1.603   5.283 -0.1983 -0.3003 -0.2298
 6012SOL    HW129495   3.444   1.676   5.233  0.7075  0.1367  1.0638
 6012SOL    HW229496   3.471   1.610   5.355  1.3431  0.8087 -1.6733
 6013SOL     OW29497   1.972   4.184  15.645 -0.2549  0.0049  0.6298
 6013SOL    HW129498   2.039   4.118  15.625  0.2004  0.3974  0.8486
 6013SOL    HW229499   1.958   4.224  15.560  1.7423 -1.7360 -0.4973
 6014SOL     OW29500   2.652   1.881   1.387 -0.4624 -0.1954 -0.1511
 6014SOL    HW129501   2.584   1.843   1.442 -1.2158  0.2480 -0.7816
 6014SOL    HW229502   2.603   1.961   1.369 -2.2574 -0.7645  2.2037
 6015SOL     OW29503   1.069   3.425  15.215 -0.5059  0.4159  0.2917
 6015SOL    HW129504   0.982   3.413  15.253 -0.5484  1.2850  0.4708
 6015SOL    HW229505   1.090   3.333  15.202  2.8347  1.4761 -1.7324
 6016SOL     OW29506   1.101   4.375  14.574  0.2440  0.6082  0.1747
 6016SOL    HW129507   1.062   4.299  14.616 -0.3636  1.1950  0.6771
 6016SOL    HW229508   1.147   4.403  14.653 -0.6358 -0.3732  1.0243
 6017SOL     OW29509   2.990   1.379   0.897 -0.1747  0.0259 -0.6001
 6017SOL    HW129510   2.905   1.358   0.857 -0.3994 -1.9180  0.8807
 6017SOL    HW229511   3.034   1.423   0.825 -2.1450  0.8717 -1.3009
 6018SOL     OW29512   2.623   2.956  15.426 -0.2136  0.0199  0.3581
 6018SOL    HW129513   2.666   2.916  15.502  0.4150  2.4647  1.2734
 6018SOL    HW229514   2.697   3.002  15.388 -0.3254 -0.1358 -0.0462
 6019SOL     OW29515   0.550   3.399   5.638 -0.0286  0.7679 -0.0316
 6019SOL    HW129516   0.454   3.399   5.638 -0.0313 -0.0872  0.9936
 6019SOL    HW229517   0.574   3.351   5.717 -1.6485  1.6095  0.9728
 6020SOL     OW29518   2.851   3.146   5.733  0.1119  0.3729  0.5068
 6020SOL    HW129519   2.854   3.169   5.826  0.1606 -0.8799  0.8116
 6020SOL    HW229520   2.837   3.221   5.676  1.1848  0.4376  0.3308
 6021SOL     OW29521   2.628   4.257   9.879 -0.0492 -0.2481 -0.0164
 6021SOL    HW129522   2.695   4.305   9.831 -0.6611  1.0658  0.4444
 6021SOL    HW229523   2.552   4.295   9.835  0.3310 -1.0924 -1.4085
 6022SOL     OW29524   2.717   1.822   4.272  0.6583 -0.2196 -0.0571
 6022SOL    HW129525   2.696   1.757   4.339  0.9571  1.1243  1.3680
 6022SOL    HW229526   2.788   1.861   4.323 -0.3331 -0.7699  1.7766
 6023SOL     OW29527   1.977   2.145  16.422 -0.4741  0.3324 -0.4520
 6023SOL    HW129528   1.989   2.240  16.422 -0.0619  0.2895  1.2242
 6023SOL    HW229529   1.892   2.150  16.378 -0.5315 -1.3772 -0.5305
 6024SOL     OW29530   2.412   4.583   3.712 -0.4589  0.2799  0.0791
 6024SOL    HW129531   2.328   4.552   3.677 -0.7511  0.7458  0.3683
 6024SOL    HW229532   2.419   4.508   3.771  0.0118 -1.6964 -2.4560
 6025SOL     OW29533   3.511   4.408   3.598 -0.5410  0.1091 -0.4734
 6025SOL    HW129534   3.432   4.414   3.544 -1.0599 -0.2222  0.2579
 6025SOL    HW229535   3.564   4.468   3.544 -1.0459 -0.0843 -1.1794
 6026SOL     OW29536   0.853   2.836  11.846  0.5386  0.1336 -0.2163
 6026SOL    HW129537   0.840   2.743  11.860 -1.1045  0.4972  0.6751
 6026SOL    HW229538   0.931   2.824  11.791  1.5824  0.6894  1.1429
 6027SOL     OW29539   2.086   3.173   5.273  0.5689 -0.5216  0.1272
 6027SOL    HW129540   2.112   3.113   5.343 -1.4168 -0.9281  0.5179
 6027SOL    HW229541   2.115   3.259   5.305  0.1751 -0.8968  1.4762
 6028SOL     OW29542   2.062   0.450  10.435 -0.4485 -0.3872  0.0110
 6028SOL    HW129543   1.999   0.394  10.482 -1.4082  0.0544 -0.7421
 6028SOL    HW229544   2.015   0.470  10.354 -1.9336  0.7077  1.1554
 6029SOL     OW29545   3.553   3.746  11.659  0.3278  0.0156  0.4014
 6029SOL    HW129546   3.645   3.752  11.687  0.8686  1.9145 -1.7021
 6029SOL    HW229547   3.516   3.705  11.737 -0.6258  0.8758  0.4003
 6030SOL     OW29548   0.449   4.090   8.910 -0.1049  0.2536  0.3763
 6030SOL    HW129549   0.414   4.157   8.851 -1.5936 -0.2577  0.6909
 6030SOL    HW229550   0.525   4.141   8.938 -0.8953  0.4076  2.2126
 6031SOL     OW29551   0.842   1.080   5.993 -0.0727 -0.1608 -0.0693
 6031SOL    HW129552   0.848   1.174   5.977  1.4886  0.0035  1.5102
 6031SOL    HW229553   0.748   1.062   5.991 -0.1474  0.3275 -0.9170
 6032SOL     OW29554   2.736   4.466   8.771 -0.5993  0.1569  0.1311
 6032SOL    HW129555   2.753   4.560   8.774  0.2480 -0.0154  0.6938
 6032SOL    HW229556   2.820   4.433   8.803 -0.0746  2.2491  0.9166
 6033SOL     OW29557   4.347   4.483   6.711 -0.0209 -0.2508 -0.2448
 6033SOL    HW129558   4.284   4.531   6.765 -1.1909 -1.4140 -0.5925
 6033SOL    HW229559   4.282   4.445   6.652  1.2829  0.1606 -1.9519
 6034SOL     OW29560   1.969   3.183   6.498  0.1625  0.3297  0.4041
 6034SOL    HW129561   2.006   3.269   6.482 -1.4460  0.9651  0.0815
 6034SOL    HW229562   2.048   3.130   6.506 -0.9161 -1.5354 -1.0021
 6035SOL     OW29563   1.193   2.977   6.561  0.0826  0.7065  0.0510
 6035SOL    HW129564   1.161   3.064   6.585 -2.9125  0.1282 -1.7942
 6035SOL    HW229565   1.211   2.996   6.469  4.5225  0.7940  0.9619
 6036SOL     OW29566   0.907   2.291   5.212 -0.2609 -0.2409  0.3077
 6036SOL    HW129567   0.907   2.371   5.159 -2.0326 -0.2156  0.3499
 6036SOL    HW229568   0.857   2.230   5.158  0.7268 -1.9142  1.3255
 6037SOL     OW29569   3.334   4.409   7.648 -0.6468  0.2772  0.4218
 6037SOL    HW129570   3.276   4.398   7.723  1.7636  0.4606  2.3282
 6037SOL    HW229571   3.292   4.465   7.583 -0.5615 -0.8052 -0.5537
 6038SOL     OW29572   2.611   1.412   0.177 -0.6827  0.1244 -0.1182
 6038SOL    HW129573   2.602   1.451   0.264  2.1349 -0.4265  0.4189
 6038SOL    HW229574   2.699   1.376   0.186 -0.3318  1.5737  2.1569
 6039SOL     OW29575   1.318   1.286   9.776 -0.0484 -0.0810 -0.8737
 6039SOL    HW129576   1.379   1.349   9.814  0.5618 -0.6922 -0.8252
 6039SOL    HW229577   1.357   1.245   9.698 -0.7275 -0.1154 -1.1911
 6040SOL     OW29578   1.422   4.403   4.102 -0.5879 -0.1638 -0.1626
 6040SOL    HW129579   1.377   4.318   4.102  0.6231 -0.8015  0.2471
 6040SOL    HW229580   1.341   4.451   4.121 -0.4072 -0.4282  1.2614
 6041SOL     OW29581   1.885   2.498   2.567 -0.6239 -0.3651  0.4215
 6041SOL    HW129582   1.832   2.438   2.619 -1.1728 -0.2559 -0.0170
 6041SOL    HW229583   1.866   2.475   2.476  0.0407 -2.3259  0.7869
 6042SOL     OW29584   2.297   4.477  10.715 -0.0275  0.3371  0.5120
 6042SOL    HW129585   2.271   4.478  10.623 -0.3172  1.1341  0.5975
 6042SOL    HW229586   2.367   4.541  10.722 -0.0298  0.4761 -0.7992
 6043SOL     OW29587   0.395   0.146   8.083  0.4497  0.1995  0.4873
 6043SOL    HW129588   0.328   0.125   8.148 -1.5534  1.2093 -1.2564
 6043SOL    HW229589   0.352   0.215   8.032 -0.3158 -0.1296  0.6894
 6044SOL     OW29590   4.434   4.602  10.336  0.2252  0.0222  0.8531
 6044SOL    HW129591   4.472   4.550  10.266 -1.9573  0.5865 -0.7713
 6044SOL    HW229592   4.398   4.531  10.389  1.3604  0.8650  2.7293
 6045SOL     OW29593   0.574   2.032   3.748  0.3728  0.1617 -0.1839
 6045SOL    HW129594   0.570   1.953   3.695 -0.6612 -0.5376  0.9474
 6045SOL    HW229595   0.483   2.032   3.778  0.9865  1.3156  1.6698
 6046SOL     OW29596   0.636   1.611   4.205  0.2045  0.3644  0.2091
 6046SOL    HW129597   0.690   1.590   4.282  0.8149 -1.8639 -0.8166
 6046SOL    HW229598   0.709   1.645   4.153  0.7541 -1.4072 -0.2150
 6047SOL     OW29599   1.940   2.764   4.247 -1.5948  0.9452  0.4425
 6047SOL    HW129600   1.945   2.834   4.182 -0.3212 -0.8760 -1.4194
 6047SOL    HW229601   1.957   2.819   4.324 -0.9399 -2.0173  2.4129
 6048SOL     OW29602   1.965   0.699   4.790 -0.5077 -0.3169 -0.2776
 6048SOL    HW129603   2.013   0.774   4.826 -0.7729  0.2702 -1.1422
 6048SOL    HW229604   1.904   0.692   4.864  0.9244 -0.4908  0.8912
 6049SOL     OW29605   0.622   3.606   9.009  0.4245  0.5873  0.5647
 6049SOL    HW129606   0.572   3.638   8.934 -0.1158 -1.7790 -0.0897
 6049SOL    HW229607   0.679   3.678   9.037 -0.7441  2.3973 -1.7680
 6050SOL     OW29608   0.125   0.867   8.317 -0.3207  0.0082  0.0275
 6050SOL    HW129609   0.195   0.830   8.371 -0.5750 -0.4869  0.0175
 6050SOL    HW229610   0.080   0.929   8.373 -0.0083  1.2624 -1.1127
 6051SOL     OW29611   1.576   2.195   2.228 -0.5247  0.1400 -0.8779
 6051SOL    HW129612   1.583   2.284   2.194  1.1535  0.7489  1.0239
 6051SOL    HW229613   1.534   2.212   2.313 -2.6555 -0.2410 -1.8711
 6052SOL     OW29614   4.374   3.107   2.419 -0.0663  0.4369  0.2023
 6052SOL    HW129615   4.387   3.114   2.514  1.1062  2.8633 -0.1384
 6052SOL    HW229616   4.396   3.016   2.396 -0.2697  0.8105 -1.4706
 6053SOL     OW29617   0.212   1.927   0.894 -0.3679  0.0246 -0.2846
 6053SOL    HW129618   0.189   1.862   0.960 -0.6865  0.4860  0.0572
 6053SOL    HW229619   0.261   1.868   0.836 -0.2411 -1.2631  1.1313
 6054SOL     OW29620   1.992   2.196   6.206 -0.0106 -0.0478  0.2893
 6054SOL    HW129621   1.966   2.120   6.153 -0.0101  0.1064  0.0646
 6054SOL    HW229622   2.055   2.158   6.267  2.2333  0.0485 -1.9113
 6055SOL     OW29623   1.203   3.956   1.291  0.1006  0.4653 -0.5883
 6055SOL    HW129624   1.125   3.980   1.241 -0.0515  0.3515 -0.4116
 6055SOL    HW229625   1.210   4.036   1.343  2.3051 -0.2620  0.2348
 6056SOL     OW29626   3.981   2.346   4.786 -0.3216  0.1829  0.2242
 6056SOL    HW129627   4.012   2.360   4.696  0.7206 -0.2160  0.5308
 6056SOL    HW229628   3.955   2.254   4.790 -0.0192  0.0142 -1.5860
 6057SOL     OW29629   3.988   1.679   1.597 -1.0063  0.2944  0.3040
 6057SOL    HW129630   3.932   1.688   1.674 -1.4351  1.0558 -0.0930
 6057SOL    HW229631   4.006   1.586   1.600  2.2292  0.9121 -0.3376
 6058SOL     OW29632   4.192   1.964   5.070 -0.5902  0.1044  0.7751
 6058SOL    HW129633   4.120   1.957   5.007 -0.0483  1.7358 -0.0345
 6058SOL    HW229634   4.148   1.973   5.154 -1.4439 -1.8631  0.5377
 6059SOL     OW29635   1.874   0.025  14.148 -1.1387 -0.7959  0.1245
 6059SOL    HW129636   1.874   0.121  14.156  1.3103 -0.9220  1.5593
 6059SOL    HW229637   1.783   0.001  14.166 -1.2897 -1.0599 -1.0215
 6060SOL     OW29638   1.963   3.530  14.495 -0.1997 -0.5928 -0.0891
 6060SOL    HW129639   1.939   3.507  14.585 -1.6427  0.2617 -0.2532
 6060SOL    HW229640   1.890   3.575  14.453  0.9677  2.2035  0.8829
 6061SOL     OW29641   4.614   4.284  12.814  0.2816  0.3274 -0.4441
 6061SOL    HW129642   4.702   4.321  12.811  0.1622  0.5117 -1.5935
 6061SOL    HW229643   4.568   4.347  12.869 -2.0335 -0.3522 -1.5848
 6062SOL     OW29644   2.973   4.674  15.723  0.1216 -0.4120  0.0465
 6062SOL    HW129645   2.912   4.719  15.665  1.2712  1.4585  0.2918
 6062SOL    HW229646   3.041   0.015  15.711 -1.4741  0.6001 -3.1459
 6063SOL     OW29647   3.230   1.702  15.009 -0.0216  0.2258 -0.3134
 6063SOL    HW129648   3.158   1.681  15.069  0.0687  0.5871 -0.0761
 6063SOL    HW229649   3.186   1.765  14.951 -1.5954 -0.5717  0.0385
 6064SOL     OW29650   4.228   1.363  15.551 -0.3124 -0.0725  0.0577
 6064SOL    HW129651   4.322   1.361  15.571 -0.5869  1.4777  1.4651
 6064SOL    HW229652   4.195   1.327  15.632 -2.0644  0.4826 -0.4143
 6065SOL     OW29653   2.672   1.794   8.445 -0.2470  0.4285 -0.0965
 6065SOL    HW129654   2.619   1.729   8.398  0.2687  0.7377 -1.1117
 6065SOL    HW229655   2.726   1.729   8.490 -1.2874  0.2841  0.9326
 6066SOL     OW29656   1.785   4.683  17.064  0.1415 -0.3489 -0.2612
 6066SOL    HW129657   1.850   4.628  17.020  1.1378  0.7894 -0.2195
 6066SOL    HW229658   1.711   4.627  17.043  0.0537 -0.2347 -0.2528
 6067SOL     OW29659   1.207   3.183   2.717  0.1967 -0.6464 -0.0981
 6067SOL    HW129660   1.275   3.225   2.663  1.3479 -1.8778  0.3995
 6067SOL    HW229661   1.161   3.125   2.657  1.7964 -1.1285 -0.8670
 6068SOL     OW29662   2.199   4.618  17.456  0.4957 -0.5495 -0.1938
 6068SOL    HW129663   2.212   4.631  17.362 -1.3187  2.0239 -0.0865
 6068SOL    HW229664   2.108   4.589  17.460  0.4223 -0.1436  1.1472
 6069SOL     OW29665   1.369   2.874   1.733 -0.1879 -1.0286  0.6305
 6069SOL    HW129666   1.441   2.818   1.761  0.9727 -0.2022 -0.6940
 6069SOL    HW229667   1.292   2.835   1.774 -0.8656  0.3981  0.7069
 6070SOL     OW29668   3.931   0.671  16.971 -0.6116  0.0255 -0.0423
 6070SOL    HW129669   4.019   0.694  17.001 -1.1938  1.0525  0.8732
 6070SOL    HW229670   3.944   0.605  16.903 -1.8855  0.4589 -0.7081
 6071SOL     OW29671   0.909   0.182   8.575  0.3326  0.6360  0.4142
 6071SOL    HW129672   0.827   0.133   8.566  1.0327 -0.4740  0.1029
 6071SOL    HW229673   0.911   0.235   8.496 -0.9755 -1.3093 -0.9351
 6072SOL     OW29674   2.719   0.562   5.251  0.2248 -0.0646 -0.3315
 6072SOL    HW129675   2.708   0.657   5.250 -2.4840 -0.3599  2.2024
 6072SOL    HW229676   2.627   0.538   5.243  0.2683  0.3761 -2.0350
 6073SOL     OW29677   3.734   1.698  13.781 -0.0769  0.1764  0.4291
 6073SOL    HW129678   3.684   1.674  13.703  0.0778 -2.3778  1.1083
 6073SOL    HW229679   3.699   1.785  13.800 -0.6759 -0.0982  0.5748
 6074SOL     OW29680   1.555   2.496   2.553  0.3217  0.3930 -0.0031
 6074SOL    HW129681   1.538   2.403   2.542  1.3280  0.0180  1.6926
 6074SOL    HW229682   1.585   2.522   2.466 -0.2105 -0.4999 -0.4479
 6075SOL     OW29683   3.955   0.562   1.400 -0.3042  0.1554 -0.3416
 6075SOL    HW129684   4.022   0.506   1.360 -0.7993 -0.4533 -0.3066
 6075SOL    HW229685   3.939   0.509   1.478 -0.8816  0.2240 -0.4158
 6076SOL     OW29686   2.846   1.343   8.474 -0.1788 -0.3544  0.0003
 6076SOL    HW129687   2.752   1.349   8.455 -0.4512  0.2064  1.6043
 6076SOL    HW229688   2.876   1.314   8.387  1.6776  1.6180 -0.0084
 6077SOL     OW29689   1.526   3.606   5.989 -0.7682 -0.0279  0.1493
 6077SOL    HW129690   1.458   3.648   5.937  0.4522  1.9042  0.1280
 6077SOL    HW229691   1.548   3.670   6.056 -1.0235  0.5009 -0.2776
 6078SOL     OW29692   0.173   2.688   5.523 -0.0058 -0.5033 -0.3232
 6078SOL    HW129693   0.268   2.701   5.520  0.1169 -1.0983  1.1705
 6078SOL    HW229694   0.158   2.778   5.553  0.1228 -0.8235  0.6958
 6079SOL     OW29695   4.680   2.228   6.209  0.1011  0.1095  0.4703
 6079SOL    HW129696   4.609   2.169   6.186  0.8477 -0.9910  1.0041
 6079SOL    HW229697   4.709   2.190   6.292  0.6626  0.0610  0.2549
 6080SOL     OW29698   0.004   4.446   6.421  0.3339  0.0991 -0.4505
 6080SOL    HW129699   0.017   4.540   6.405  1.0644  0.0829  0.0185
 6080SOL    HW229700   0.044   4.406   6.344  1.0418  1.5317 -0.8291
 6081SOL     OW29701   0.514   1.865  15.420 -0.3546 -0.0722  0.1105
 6081SOL    HW129702   0.608   1.881  15.418 -0.3594  0.0550  0.8419
 6081SOL    HW229703   0.500   1.837  15.511  0.2708  0.1350  0.2718
 6082SOL     OW29704   0.631   0.977   1.748 -0.7603  0.7246  0.0169
 6082SOL    HW129705   0.704   0.918   1.766 -0.5591  1.1489  0.5893
 6082SOL    HW229706   0.682   1.056   1.728  0.9456 -0.8628 -1.9104
 6083SOL     OW29707   2.201   0.880  17.505  0.1331 -0.2055  0.0244
 6083SOL    HW129708   2.221   0.795  17.466 -0.2565 -1.4129  2.4235
 6083SOL    HW229709   2.282   0.931  17.503 -0.7928  1.1579 -2.8294
 6084SOL     OW29710   1.106   1.195   6.226 -0.1343  0.2445  0.0336
 6084SOL    HW129711   1.106   1.267   6.163 -0.0322  0.7275  0.5874
 6084SOL    HW229712   1.109   1.116   6.173  2.2437  0.5477 -0.3029
 6085SOL     OW29713   2.742   0.938   8.064  0.7253 -0.3261  0.1058
 6085SOL    HW129714   2.740   0.957   8.158 -0.2495 -1.1280  0.2406
 6085SOL    HW229715   2.742   0.843   8.068 -0.4043 -0.2867  1.1738
 6086SOL     OW29716   0.059   1.171   8.164 -0.1755 -0.7353  0.0712
 6086SOL    HW129717   0.090   1.083   8.144  1.3574 -0.2073  0.1547
 6086SOL    HW229718   0.112   1.185   8.242  0.3332 -0.8917 -0.2482
 6087SOL     OW29719   2.102   4.486   4.141  0.2285  0.5054 -0.5863
 6087SOL    HW129720   2.170   4.526   4.087  0.7159 -0.4642 -0.6826
 6087SOL    HW229721   2.020   4.503   4.095 -0.8026 -1.4068  0.5488
 6088SOL     OW29722   4.223   0.758   5.165  0.4237  0.4522 -0.4898
 6088SOL    HW129723   4.137   0.725   5.193 -0.2652  2.0620 -0.6660
 6088SOL    HW229724   4.203   0.852   5.167  0.2026  0.3734  2.1756
 6089SOL     OW29725   3.274   0.828   1.167 -0.2066  0.6058  0.1871
 6089SOL    HW129726   3.198   0.803   1.114  0.5615 -1.5012  0.0805
 6089SOL    HW229727   3.318   0.895   1.115  1.1845 -1.0178 -0.7086
 6090SOL     OW29728   3.493   3.798   6.406  0.2148 -0.5510  0.1325
 6090SOL    HW129729   3.585   3.796   6.430 -0.2939 -2.2266  1.9656
 6090SOL    HW229730   3.504   3.792   6.311 -1.0481  0.5613 -0.0853
 6091SOL     OW29731   1.453   1.829   4.827 -0.0477 -0.1906  0.2152
 6091SOL    HW129732   1.404   1.749   4.808  2.9974 -1.7339 -1.1017
 6091SOL    HW229733   1.530   1.810   4.773 -0.5218  0.8289 -0.8179
 6092SOL     OW29734   4.467   3.843   3.713  0.9116  0.1802 -0.1547
 6092SOL    HW129735   4.499   3.912   3.655 -1.0917  1.3012  0.0916
 6092SOL    HW229736   4.379   3.825   3.678  1.8818 -1.3221 -1.8744
 6093SOL     OW29737   4.416   1.530   6.747  0.1710  0.2157 -0.6729
 6093SOL    HW129738   4.472   1.543   6.670  2.2343 -4.6999 -0.0043
 6093SOL    HW229739   4.391   1.438   6.746 -0.8365  0.4898  0.9007
 6094SOL     OW29740   1.389   1.640   7.627 -0.1633  0.7291  0.1555
 6094SOL    HW129741   1.342   1.572   7.579 -0.1359  0.5635  0.3647
 6094SOL    HW229742   1.472   1.636   7.580  0.8326 -3.2637  2.2569
 6095SOL     OW29743   0.972   4.029   3.659  0.1397  0.1943 -0.2817
 6095SOL    HW129744   1.033   3.993   3.596  0.8344 -1.7232  1.5020
 6095SOL    HW229745   0.917   4.083   3.602  1.0153 -0.4636 -1.7312
 6096SOL     OW29746   3.113   3.273   5.007  0.0072 -0.4353 -0.1731
 6096SOL    HW129747   3.026   3.312   5.002  0.3230  0.5773  2.0774
 6096SOL    HW229748   3.162   3.352   4.981 -0.4595  0.3713  1.3907
 6097SOL     OW29749   0.443   2.824   9.317  0.1121 -0.3353 -0.3912
 6097SOL    HW129750   0.368   2.873   9.351  0.4207  0.1740 -0.4414
 6097SOL    HW229751   0.502   2.899   9.314 -3.3521  2.3695 -0.9782
 6098SOL     OW29752   0.905   1.283   7.361  0.3885  0.1710  0.0493
 6098SOL    HW129753   0.971   1.316   7.422 -1.0886  1.6825  0.8561
 6098SOL    HW229754   0.889   1.201   7.407  0.1058 -1.0230 -2.1466
 6099SOL     OW29755   1.704   3.249   9.248 -0.3008 -0.3009  0.4220
 6099SOL    HW129756   1.667   3.301   9.176 -0.0357 -0.6928  0.0030
 6099SOL    HW229757   1.658   3.275   9.328 -0.4310  0.9306 -0.0482
 6100SOL     OW29758   1.307   4.680   3.043 -0.1659 -0.2939 -0.6536
 6100SOL    HW129759   1.371   4.611   3.057  1.4544  1.3334 -0.0984
 6100SOL    HW229760   1.268   4.657   2.958  0.8548 -3.5741 -0.2375
 6101SOL     OW29761   3.992   4.467  17.557  1.1781  0.4331  0.2362
 6101SOL    HW129762   3.917   4.500  17.507  1.0251  2.1250  1.5914
 6101SOL    HW229763   3.985   4.524  17.634 -0.5194 -1.6267  1.6245
 6102SOL     OW29764   0.406   0.283   8.396 -0.6776  0.2569 -0.3037
 6102SOL    HW129765   0.362   0.319   8.319  0.7892  0.5036 -1.0281
 6102SOL    HW229766   0.322   0.263   8.436 -0.4877  0.7063  0.3184
 6103SOL     OW29767   1.372   3.558   2.058  0.1051 -0.0083  0.1007
 6103SOL    HW129768   1.302   3.534   1.997  0.8881 -1.1750 -0.3259
 6103SOL    HW229769   1.450   3.529   2.011  0.4652 -0.4471  0.9595
 6104SOL     OW29770   2.185   0.999   5.394  0.2727  0.1871  0.0545
 6104SOL    HW129771   2.182   0.910   5.428 -1.0414  0.0599 -0.3861
 6104SOL    HW229772   2.183   1.053   5.473  0.5988  1.0154 -0.5030
 6105SOL     OW29773   0.006   0.934   9.728  0.6307  0.0425 -0.4893
 6105SOL    HW129774   4.691   0.980   9.654  2.0470  1.7930 -0.1813
 6105SOL    HW229775   0.098   0.943   9.703  0.6797  0.5340 -0.1479
 6106SOL     OW29776   2.391   0.921  14.331  0.3701  0.5318 -0.3144
 6106SOL    HW129777   2.457   0.851  14.331 -1.3389 -1.0846 -0.3796
 6106SOL    HW229778   2.374   0.924  14.237  1.7221  0.8671 -0.5567
 6107SOL     OW29779   1.027   1.912   7.777 -0.3759 -0.2527 -0.8247
 6107SOL    HW129780   0.988   1.868   7.853  0.5603 -0.5367 -0.5089
 6107SOL    HW229781   0.994   1.996   7.807 -2.2224 -1.2963  0.1353
 6108SOL     OW29782   0.725   3.405  11.832 -0.1833  0.1945  0.2066
 6108SOL    HW129783   0.744   3.344  11.904  1.6297  1.6653  0.9805
 6108SOL    HW229784   0.769   3.485  11.863 -1.8249  0.2350  2.4173
 6109SOL     OW29785   4.230   3.020  12.572  0.0577 -0.1584 -0.2627
 6109SOL    HW129786   4.243   3.100  12.622 -1.1895  0.7562 -1.3795
 6109SOL    HW229787   4.205   2.961  12.643 -0.1609 -0.0852 -0.2787
 6110SOL     OW29788   3.307   4.191  17.250  0.0901 -0.1294 -0.1343
 6110SOL    HW129789   3.322   4.254  17.320 -0.1383 -0.5414  0.2857
 6110SOL    HW229790   3.289   4.110  17.298 -0.5814 -1.1867 -2.1398
 6111SOL     OW29791   2.085   0.785  11.730 -0.2191  0.2606 -0.5871
 6111SOL    HW129792   2.051   0.829  11.652 -0.1659 -2.1901 -1.9958
 6111SOL    HW229793   2.093   0.862  11.788 -1.3979 -0.0768  0.0377
 6112SOL     OW29794   0.709   2.564  12.351 -0.6711  0.2192  0.2185
 6112SOL    HW129795   0.726   2.590  12.442 -0.6648  0.4418  0.1547
 6112SOL    HW229796   0.778   2.616  12.309  0.3826  1.0382  2.9334
 6113SOL     OW29797   0.282   0.834  13.572 -1.0060 -0.2732  0.0637
 6113SOL    HW129798   0.214   0.815  13.638  1.0279 -0.1576  2.1896
 6113SOL    HW229799   0.260   0.771  13.504 -1.2767  0.3578 -0.4414
 6114SOL     OW29800   1.233   4.383  14.816 -0.3062 -0.8078  0.6554
 6114SOL    HW129801   1.195   4.467  14.843 -1.3553 -0.3371 -2.3175
 6114SOL    HW229802   1.326   4.392  14.838 -0.2575 -1.0954  0.5675
 6115SOL     OW29803   3.706   3.505   4.521 -0.4522  0.1890 -0.3668
 6115SOL    HW129804   3.793   3.545   4.529  0.1507 -1.2843  0.4076
 6115SOL    HW229805   3.655   3.584   4.500 -3.2318 -2.2398 -2.7182
 6116SOL     OW29806   1.937   2.625   7.688  0.3605 -0.2583 -0.2220
 6116SOL    HW129807   1.993   2.548   7.689 -1.2343 -1.3795  1.6677
 6116SOL    HW229808   1.944   2.663   7.600 -2.2394 -2.7132 -1.4853
 6117SOL     OW29809   3.623   1.560   3.959  0.4086 -0.1998 -0.8649
 6117SOL    HW129810   3.632   1.654   3.943 -0.4209  0.3506  2.0123
 6117SOL    HW229811   3.557   1.554   4.027 -1.9646 -0.7701 -3.2036
 6118SOL     OW29812   2.022   3.574   5.157 -0.1919  0.8075  0.3643
 6118SOL    HW129813   2.091   3.561   5.092  1.5764  0.2676  2.3495
 6118SOL    HW229814   1.990   3.662   5.138 -1.3287 -0.2032 -2.3688
 6119SOL     OW29815   3.880   1.339   3.506 -0.3898 -0.1912 -0.0531
 6119SOL    HW129816   3.796   1.341   3.460 -0.2965  0.8838 -0.1804
 6119SOL    HW229817   3.948   1.328   3.439  1.1785 -1.3076  1.7399
 6120SOL     OW29818   4.631   2.371   6.669 -0.1403  0.0146 -0.2174
 6120SOL    HW129819   4.580   2.432   6.722 -0.7838  0.3868 -1.2693
 6120SOL    HW229820   4.571   2.344   6.599 -1.1564  2.0528 -0.1296
 6121SOL     OW29821   1.179   2.379  12.013  0.2105  0.2362 -0.1208
 6121SOL    HW129822   1.085   2.392  11.999 -0.0616 -0.4435  1.0535
 6121SOL    HW229823   1.195   2.304  12.070  0.2878  0.6791  0.4431
 6122SOL     OW29824   3.615   2.032   4.232  0.0545 -0.5372 -0.1533
 6122SOL    HW129825   3.590   2.098   4.296  0.5364 -1.4494  0.9747
 6122SOL    HW229826   3.537   1.978   4.244  0.7293 -1.6535 -0.7077
 6123SOL     OW29827   2.896   1.756   6.577 -0.1730 -0.2909  0.5352
 6123SOL    HW129828   2.949   1.814   6.522 -0.7588 -0.7047 -0.4693
 6123SOL    HW229829   2.822   1.746   6.517  0.8065 -0.3894 -0.6523
 6124SOL     OW29830   0.807   2.472   1.862 -0.3110  0.4780  0.2174
 6124SOL    HW129831   0.745   2.540   1.890  1.2740  3.1220 -2.6611
 6124SOL    HW229832   0.779   2.439   1.777 -0.3653  1.0123  0.0254
 6125SOL     OW29833   3.075   3.638   3.050 -0.5014  0.4599  0.4466
 6125SOL    HW129834   3.100   3.552   3.015 -2.4570 -0.3112  0.9557
 6125SOL    HW229835   3.141   3.691   3.006  0.9113 -0.5157  1.3841
 6126SOL     OW29836   3.556   2.599   9.174 -0.3152  0.5687  0.6882
 6126SOL    HW129837   3.476   2.606   9.225  0.1085 -1.3792  1.6115
 6126SOL    HW229838   3.530   2.612   9.083 -0.4905 -1.5103  0.4302
 6127SOL     OW29839   2.070   1.433   8.155  0.0217 -0.4867  0.4078
 6127SOL    HW129840   2.114   1.370   8.212  1.0902  0.0275  0.1391
 6127SOL    HW229841   1.989   1.443   8.204  0.9587  0.8274  1.6810
 6128SOL     OW29842   1.785   1.489  14.561  0.1059  0.2483 -0.5270
 6128SOL    HW129843   1.700   1.493  14.515 -0.8588 -1.4898  1.1139
 6128SOL    HW229844   1.777   1.547  14.637 -0.7118 -1.0311  0.3490
 6129SOL     OW29845   1.571   0.939   3.291  0.0816  0.1263  0.2779
 6129SOL    HW129846   1.489   0.986   3.304 -0.8212 -1.6190  0.7694
 6129SOL    HW229847   1.574   0.885   3.369  2.2602 -1.3888 -0.8589
 6130SOL     OW29848   0.361   0.736  12.619 -1.0007 -0.2636 -0.4267
 6130SOL    HW129849   0.363   0.643  12.600 -3.2450 -0.4677  0.2769
 6130SOL    HW229850   0.316   0.766  12.540 -0.7741  1.6197  0.1595
 6131SOL     OW29851   4.469   2.588   9.046 -0.0845  0.3744 -0.3038
 6131SOL    HW129852   4.449   2.640   9.124  2.2722  0.1583  0.4279
 6131SOL    HW229853   4.556   2.556   9.068 -1.3520 -1.5859  1.7681
 6132SOL     OW29854   2.382   0.033   0.482 -0.1413  0.0937 -0.3387
 6132SOL    HW129855   2.367   4.703   0.405  0.6845  2.1235 -1.9362
 6132SOL    HW229856   2.477   0.029   0.476 -0.1078 -0.7502  0.8283
 6133SOL     OW29857   2.599   0.276   6.233 -0.3063  0.2238 -0.1083
 6133SOL    HW129858   2.648   0.328   6.297  0.1602  0.4764 -0.6715
 6133SOL    HW229859   2.582   0.339   6.163  0.7441  0.3205 -0.2683
 6134SOL     OW29860   0.118   1.820   5.928  0.7538 -0.3097  0.3758
 6134SOL    HW129861   0.094   1.745   5.873  1.0147 -0.0719 -0.0624
 6134SOL    HW229862   0.210   1.799   5.944  0.2688  1.3936  5.4589
 6135SOL     OW29863   2.126   3.075   9.054  0.0241 -0.4479 -0.5136
 6135SOL    HW129864   2.033   3.092   9.068  1.0094  0.8062  4.2530
 6135SOL    HW229865   2.152   3.152   9.002 -1.2102  0.3713  0.0919
 6136SOL     OW29866   1.183   3.978   2.212  0.0932  0.0136  0.0219
 6136SOL    HW129867   1.246   3.919   2.254  1.5390  0.6485 -1.2698
 6136SOL    HW229868   1.185   3.953   2.119 -0.2063 -2.3765  0.6356
 6137SOL     OW29869   0.538   1.181   5.190 -1.0414  0.1442 -0.0504
 6137SOL    HW129870   0.629   1.162   5.212 -1.2389 -1.6346 -0.8110
 6137SOL    HW229871   0.522   1.096   5.150 -4.3704  0.6922  0.1570
 6138SOL     OW29872   2.598   4.494   3.139  0.0697  0.2142 -0.0980
 6138SOL    HW129873   2.644   4.571   3.104 -0.5218  0.5430 -0.1568
 6138SOL    HW229874   2.661   4.423   3.129  1.7746  1.7199 -0.0130
 6139SOL     OW29875   1.437   1.496   2.335  0.3187 -0.1848  0.1775
 6139SOL    HW129876   1.403   1.408   2.319  1.0439 -0.6021  0.9572
 6139SOL    HW229877   1.461   1.490   2.427 -1.8509 -1.9816  0.6290
 6140SOL     OW29878   2.738   0.393   6.437  0.2042 -0.1796  0.1664
 6140SOL    HW129879   2.746   0.473   6.490 -0.1420 -0.1499  0.1726
 6140SOL    HW229880   2.827   0.359   6.448 -0.3274 -1.1142  1.6606
 6141SOL     OW29881   3.355   3.928  14.372 -0.1359 -0.0967  0.1470
 6141SOL    HW129882   3.397   3.859  14.423  0.2630  1.2885  1.6785
 6141SOL    HW229883   3.314   3.870  14.308 -0.5697  2.8148 -2.2089
 6142SOL     OW29884   0.883   3.077   7.942  0.0711  0.9897  0.4943
 6142SOL    HW129885   0.951   3.132   7.902 -1.1924  2.1877  0.0284
 6142SOL    HW229886   0.857   3.125   8.020 -1.4213 -1.1749  1.3513
 6143SOL     OW29887   3.185   0.745  12.421 -0.8004  0.4509  0.0140
 6143SOL    HW129888   3.272   0.721  12.388  0.3175  2.8620  1.1736
 6143SOL    HW229889   3.204   0.765  12.513 -1.0194 -2.2034  0.6426
 6144SOL     OW29890   4.153   0.222   3.848  0.0649 -0.8245 -0.1498
 6144SOL    HW129891   4.116   0.288   3.906 -0.7727  0.2776 -1.9495
 6144SOL    HW229892   4.097   0.145   3.857 -0.7115 -0.0337  1.7460
 6145SOL     OW29893   2.582   0.690   3.604 -0.0017  0.4571  0.3111
 6145SOL    HW129894   2.623   0.604   3.611  0.3008  0.5438 -0.3549
 6145SOL    HW229895   2.628   0.730   3.530 -0.5896  1.9564  0.7536
 6146SOL     OW29896   2.932   2.121   1.875 -1.0887  0.1239  0.2404
 6146SOL    HW129897   2.967   2.192   1.821 -0.5784 -1.6581 -1.7759
 6146SOL    HW229898   2.936   2.050   1.810 -1.8092 -0.7969  1.2087
 6147SOL     OW29899   1.643   2.548   4.400  0.2687 -0.1658 -0.4186
 6147SOL    HW129900   1.624   2.523   4.491  2.4471  1.0145  0.3637
 6147SOL    HW229901   1.634   2.644   4.397 -0.8099 -0.3173 -2.1328
 6148SOL     OW29902   2.362   0.405   0.272 -0.4054  0.2191 -0.2429
 6148SOL    HW129903   2.276   0.441   0.252 -1.2098 -0.5086  1.9473
 6148SOL    HW229904   2.417   0.470   0.229  0.7819  0.4952  1.6774
 6149SOL     OW29905   3.747   1.265   5.868  0.2123 -0.5746 -0.5009
 6149SOL    HW129906   3.764   1.231   5.956 -0.3464  1.0371  0.2274
 6149SOL    HW229907   3.701   1.186   5.837 -3.5047  1.2372  0.3707
 6150SOL     OW29908   0.635   0.607   9.315  0.3652 -0.5635 -0.6805
 6150SOL    HW129909   0.574   0.664   9.360  0.9919 -0.8532  0.5299
 6150SOL    HW229910   0.594   0.524   9.335 -0.0551 -0.4623 -1.1151
 6151SOL     OW29911   0.569   2.177   1.703 -0.1491  0.1274  0.3600
 6151SOL    HW129912   0.524   2.230   1.769  1.1390 -2.5386  3.3816
 6151SOL    HW229913   0.570   2.088   1.737 -0.1426 -0.4867 -1.2609
 6152SOL     OW29914   3.942   0.645  14.756  0.2633  0.4587  0.3767
 6152SOL    HW129915   4.032   0.640  14.723  0.1453 -1.3189  0.3198
 6152SOL    HW229916   3.958   0.702  14.831  0.8003  0.0056  0.6063
 6153SOL     OW29917   2.991   0.525   9.000  0.0882 -0.6915  0.4617
 6153SOL    HW129918   3.071   0.520   9.052  1.1203 -1.9875 -1.2564
 6153SOL    HW229919   3.016   0.597   8.942  1.7496 -2.1913 -0.6636
 6154SOL     OW29920   4.200   3.545   1.810  0.1281 -0.0345 -0.0027
 6154SOL    HW129921   4.161   3.517   1.893  3.2340 -4.5617 -0.0746
 6154SOL    HW229922   4.142   3.498   1.750 -0.3685  0.1283  0.3543
 6155SOL     OW29923   0.917   4.619   4.047 -0.0430  0.5831 -0.2425
 6155SOL    HW129924   0.853   4.675   4.003  0.5445  0.4064 -1.3022
 6155SOL    HW229925   0.888   4.534   4.013 -2.4994  1.1900  0.2898
 6156SOL     OW29926   3.214   1.727   0.802  0.3786  0.5974 -0.0716
 6156SOL    HW129927   3.158   1.805   0.804 -0.0249  0.3131 -0.2767
 6156SOL    HW229928   3.293   1.762   0.843 -0.3367  2.6973 -0.4751
 6157SOL     OW29929   0.587   1.114  13.826  0.3225  0.1554 -0.1905
 6157SOL    HW129930   0.590   1.155  13.740  1.2837  1.4245  0.4448
 6157SOL    HW229931   0.605   1.189  13.884 -2.0850  0.3637  0.3025
 6158SOL     OW29932   3.371   2.359   7.859 -0.2778 -0.1857 -0.8117
 6158SOL    HW129933   3.457   2.403   7.859 -0.6068  0.4670 -0.6387
 6158SOL    HW229934   3.410   2.276   7.834 -2.1742 -0.8062 -1.6856
 6159SOL     OW29935   0.600   2.039   7.222 -0.1563  0.2220  0.1681
 6159SOL    HW129936   0.524   2.052   7.278 -2.2128  0.2667 -2.6397
 6159SOL    HW229937   0.642   2.124   7.213  1.2300 -0.5270 -0.5343
 6160SOL     OW29938   2.649   1.247   1.821 -0.1877  0.1194  0.0992
 6160SOL    HW129939   2.565   1.270   1.861 -0.2244  0.5584 -0.2291
 6160SOL    HW229940   2.662   1.326   1.769  2.5255  0.5857  1.4751
 6161SOL     OW29941   1.922   3.557   1.387  0.5347 -0.2037 -0.3331
 6161SOL    HW129942   1.884   3.630   1.338  1.1958  0.3793  0.0148
 6161SOL    HW229943   1.965   3.510   1.316  1.0725  0.9734 -0.7789
 6162SOL     OW29944   0.069   3.580   5.582  0.3767  0.2221 -0.1212
 6162SOL    HW129945   0.062   3.501   5.635  2.1177 -0.9265 -1.5961
 6162SOL    HW229946   0.159   3.605   5.602  0.3113  1.7219 -1.6453
 6163SOL     OW29947   4.095   1.572   4.185 -0.3289  0.1451 -0.6094
 6163SOL    HW129948   4.116   1.483   4.156 -0.9398 -0.5400  1.0450
 6163SOL    HW229949   4.029   1.551   4.251 -1.4620  0.0222 -1.7735
 6164SOL     OW29950   3.213   3.999   2.160  0.3858  0.3495  0.6213
 6164SOL    HW129951   3.206   4.047   2.077 -1.2128  0.0357  0.5643
 6164SOL    HW229952   3.169   3.919   2.130 -1.1613  1.2093  0.5624
 6165SOL     OW29953   1.472   2.853   1.102  0.0362 -0.1652 -0.8652
 6165SOL    HW129954   1.516   2.936   1.084 -1.2385  0.1540 -2.4555
 6165SOL    HW229955   1.453   2.817   1.015 -1.7645  0.1182 -0.5723
 6166SOL     OW29956   1.819   2.356   7.854 -0.4878 -0.3859  0.1186
 6166SOL    HW129957   1.893   2.415   7.871  0.4203 -1.5808  0.3014
 6166SOL    HW229958   1.855   2.268   7.845 -0.5441 -0.5896  2.0273
 6167SOL     OW29959   1.880   1.249   8.787 -0.0483 -0.2536 -0.0134
 6167SOL    HW129960   1.891   1.230   8.881 -1.9434  1.7986  0.6172
 6167SOL    HW229961   1.854   1.160   8.764  0.4052  0.1702 -2.1388
 6168SOL     OW29962   3.722   3.660  11.325 -0.5655 -0.2484  0.5322
 6168SOL    HW129963   3.687   3.678  11.238 -1.2567 -2.3258  0.3804
 6168SOL    HW229964   3.744   3.747  11.359 -0.1626  0.3188 -1.1892
 6169SOL     OW29965   3.098   1.091   0.752  0.2431 -0.0179 -0.2368
 6169SOL    HW129966   3.050   1.122   0.675 -0.0560  1.6615  0.6343
 6169SOL    HW229967   3.038   1.106   0.825 -0.0552 -1.2991 -0.2195
 6170SOL     OW29968   2.809   3.826   5.505  0.1372  0.1130  0.4733
 6170SOL    HW129969   2.863   3.859   5.577 -2.5450 -0.6148  2.8058
 6170SOL    HW229970   2.735   3.777   5.541  0.8199 -1.2404  0.0731
 6171SOL     OW29971   0.554   1.064  17.494 -0.4680  0.3181  0.3731
 6171SOL    HW129972   0.633   1.102  17.456 -2.5201  2.6332 -1.5631
 6171SOL    HW229973   0.531   1.126  17.563 -1.5043  2.5520 -1.9896
 6172SOL     OW29974   3.757   0.534   4.521  0.7186 -0.1586  0.5593
 6172SOL    HW129975   3.699   0.482   4.467 -2.2597  1.7759  1.9056
 6172SOL    HW229976   3.716   0.544   4.607  0.6060  0.4220  0.4393
 6173SOL     OW29977   2.666   0.317   3.316 -0.1720 -0.2751 -0.2067
 6173SOL    HW129978   2.659   0.222   3.319 -0.7250 -0.2312 -0.1092
 6173SOL    HW229979   2.577   0.347   3.332 -0.2266  1.5156 -3.6941
 6174SOL     OW29980   0.102   1.465   6.398 -0.4612  0.5280 -0.3800
 6174SOL    HW129981   0.180   1.497   6.443  0.4424  0.1146 -1.6296
 6174SOL    HW229982   0.037   1.462   6.468  0.1392  3.7660  0.3114
 6175SOL     OW29983   3.682   0.158  17.434 -0.5866 -0.5179 -0.4303
 6175SOL    HW129984   3.648   0.082  17.479  0.9692 -0.6270  0.5570
 6175SOL    HW229985   3.766   0.165  17.479 -1.6634  1.9462  1.2021
 6176SOL     OW29986   1.015   0.310   3.947 -0.4316 -0.8956 -0.4908
 6176SOL    HW129987   1.018   0.237   3.885 -0.3145 -2.0892  0.9074
 6176SOL    HW229988   1.008   0.386   3.890  1.2526 -1.0251 -0.8653
 6177SOL     OW29989   2.945   3.311   8.305  0.0805  0.1428  1.0850
 6177SOL    HW129990   2.964   3.404   8.316  0.9426 -0.2845  3.1734
 6177SOL    HW229991   2.856   3.309   8.339 -0.1054 -0.3666  0.5620
 6178SOL     OW29992   0.582   2.663   2.626  0.3705 -0.5992 -0.0346
 6178SOL    HW129993   0.512   2.727   2.620 -1.3277 -2.6007 -1.5889
 6178SOL    HW229994   0.558   2.601   2.695 -0.5994  0.5222  0.6412
 6179SOL     OW29995   2.054   4.666   4.391 -0.0547 -0.9024 -0.7740
 6179SOL    HW129996   1.980   4.718   4.421 -0.6261 -1.8646 -0.5057
 6179SOL    HW229997   2.046   4.673   4.296  3.2880 -1.6228 -1.1160
 6180SOL     OW29998   4.319   2.713   1.426 -1.0033  0.1471  0.4244
 6180SOL    HW129999   4.350   2.739   1.513 -2.5040  2.6443  0.2233
 6180SOL    HW230000   4.398   2.677   1.386 -2.0542  0.8938 -2.3639
 6181SOL     OW30001   2.089   3.928  10.574  0.3809  0.1928 -0.1980
 6181SOL    HW130002   2.170   3.978  10.580 -0.6714  1.5910  2.1898
 6181SOL    HW230003   2.103   3.860  10.508 -0.4391 -1.8852  1.7762
 6182SOL     OW30004   0.244   3.248   5.946 -0.2494  0.2172 -0.0765
 6182SOL    HW130005   0.290   3.283   6.023 -0.8341 -1.8951  1.2523
 6182SOL    HW230006   0.155   3.282   5.956  0.0307  1.2795 -1.3095
 6183SOL     OW30007   0.234   3.521   6.077  0.3073 -0.0287  0.5467
 6183SOL    HW130008   0.315   3.555   6.037  0.1766  0.7447  0.9309
 6183SOL    HW230009   0.271   3.478   6.154  0.5092  0.2261  0.5928
 6184SOL     OW30010   3.441   1.756   6.252  0.4630 -0.3595 -0.2872
 6184SOL    HW130011   3.421   1.848   6.269 -0.9620 -0.6587 -0.3584
 6184SOL    HW230012   3.365   1.716   6.292  1.2968 -0.7749  0.8720
 6185SOL     OW30013   1.163   4.229   2.750  0.4391 -0.7665  0.1830
 6185SOL    HW130014   1.098   4.297   2.765  1.7554  0.7468 -1.0389
 6185SOL    HW230015   1.210   4.259   2.673 -2.3069 -2.5097 -2.1987
 6186SOL     OW30016   1.231   1.154   8.287 -0.1523 -0.3027 -0.3520
 6186SOL    HW130017   1.204   1.155   8.379 -0.3897 -1.5302 -0.4045
 6186SOL    HW230018   1.253   1.061   8.275 -0.4961 -0.5215  0.7288
 6187SOL     OW30019   2.551   2.472   2.040  0.0323 -0.1350 -0.2836
 6187SOL    HW130020   2.542   2.415   2.116  0.2317  4.5981  3.2861
 6187SOL    HW230021   2.461   2.483   2.009  0.4930 -0.9664 -1.9088
 6188SOL     OW30022   3.226   0.007   5.124 -0.2226 -0.0310  0.2812
 6188SOL    HW130023   3.320   0.007   5.105 -0.3059  0.8351 -0.1526
 6188SOL    HW230024   3.233   4.674   5.200 -1.6487 -1.0693 -0.3954
 6189SOL     OW30025   0.739   3.005   0.405  0.5940  0.1981  0.0025
 6189SOL    HW130026   0.770   2.917   0.427 -2.3981 -0.5740  1.1865
 6189SOL    HW230027   0.653   3.002   0.447  1.0337 -0.0711  0.8834
 6190SOL     OW30028   3.022   3.227   4.618  0.5297 -0.1488  0.5322
 6190SOL    HW130029   3.046   3.191   4.533 -0.8780 -0.4129  0.2474
 6190SOL    HW230030   3.064   3.164   4.676  0.7553  0.9351  1.5580
 6191SOL     OW30031   4.268   1.089   6.966 -0.1753  0.5177  1.1424
 6191SOL    HW130032   4.177   1.098   6.995 -0.1195  3.4366  0.3366
 6191SOL    HW230033   4.298   1.005   7.002  0.5703  1.8375  3.5927
 6192SOL     OW30034   2.656   1.446   7.861  0.2872  0.4810  0.2442
 6192SOL    HW130035   2.566   1.473   7.844  0.5685 -0.1522 -2.2097
 6192SOL    HW230036   2.643   1.352   7.846 -0.5388  0.7593 -0.7427
 6193SOL     OW30037   1.118   1.686   9.678 -0.1521  0.6373 -0.1048
 6193SOL    HW130038   1.159   1.624   9.617 -0.0642 -1.9672  2.6303
 6193SOL    HW230039   1.122   1.760   9.616  1.7017  1.5977  1.1557
 6194SOL     OW30040   2.877   0.043   6.924 -0.2685 -0.0614  0.1658
 6194SOL    HW130041   2.899   4.704   6.991  0.2866 -0.6123 -0.5398
 6194SOL    HW230042   2.959   0.093   6.922  0.6836 -1.7355 -3.9485
 6195SOL     OW30043   2.073   1.266  12.091 -0.4180  0.1539 -0.3562
 6195SOL    HW130044   2.035   1.253  12.004  2.3965 -0.9551 -1.4078
 6195SOL    HW230045   2.134   1.193  12.100 -0.1067  0.7848  2.7332
 6196SOL     OW30046   2.559   0.639  14.577 -0.0013 -0.0611 -0.3469
 6196SOL    HW130047   2.641   0.653  14.624 -0.5138  0.4956  0.3766
 6196SOL    HW230048   2.498   0.671  14.644 -0.7328  0.2006 -1.1368
 6197SOL     OW30049   0.345   3.903  13.444 -0.0194 -0.0385  0.6555
 6197SOL    HW130050   0.417   3.848  13.474  1.1298  1.4568  0.6694
 6197SOL    HW230051   0.343   3.965  13.517  2.7140 -0.1033  0.8169
 6198SOL     OW30052   0.404   0.102   6.521 -0.1330 -0.1323 -0.3247
 6198SOL    HW130053   0.369   0.138   6.603  0.2278 -0.0838 -0.1949
 6198SOL    HW230054   0.477   0.159   6.498 -2.7190  2.6170 -1.8081
 6199SOL     OW30055   3.207   0.958  11.029 -0.4725  0.8366 -0.2074
 6199SOL    HW130056   3.201   1.053  11.036 -1.2282  0.7841 -0.0795
 6199SOL    HW230057   3.115   0.939  11.012 -0.1013  0.3115 -1.6690
 6200SOL     OW30058   1.664   0.951   8.258  0.2526  0.3059  0.1546
 6200SOL    HW130059   1.604   0.978   8.189  1.2213  0.5709 -0.5897
 6200SOL    HW230060   1.631   0.868   8.291  0.6153 -0.2589 -0.8808
 6201SOL     OW30061   4.332   2.101   2.539  0.1462 -0.4576  0.1915
 6201SOL    HW130062   4.309   2.173   2.480 -1.2664 -0.2167  1.0403
 6201SOL    HW230063   4.280   2.030   2.502  0.1206  0.1270 -0.9019
 6202SOL     OW30064   3.717   3.010  11.087 -0.0657 -0.4360 -0.2830
 6202SOL    HW130065   3.642   3.055  11.048  1.6439  1.2016 -1.6624
 6202SOL    HW230066   3.792   3.057  11.051 -0.1220  0.9173  1.3205
 6203SOL     OW30067   2.298   3.154   8.288 -0.4948 -0.3594  0.1975
 6203SOL    HW130068   2.214   3.186   8.255  0.8297  2.2799 -0.6601
 6203SOL    HW230069   2.272   3.130   8.377 -0.5102 -1.1717 -0.0259
 6204SOL     OW30070   4.111   4.537   5.421 -0.6877  0.1653  0.4489
 6204SOL    HW130071   4.168   4.471   5.383 -1.4988 -0.7228  0.7829
 6204SOL    HW230072   4.046   4.487   5.471  0.5428 -0.5764  1.2899
 6205SOL     OW30073   0.710   0.276   2.081 -0.0185  0.4386 -0.5156
 6205SOL    HW130074   0.800   0.245   2.067 -0.9175 -2.7439  0.8551
 6205SOL    HW230075   0.666   0.201   2.042  1.8035  0.3466 -2.3946
 6206SOL     OW30076   2.840   1.991   6.265 -0.0430 -0.3478 -0.2101
 6206SOL    HW130077   2.764   1.936   6.248 -0.3921  0.8460 -2.5750
 6206SOL    HW230078   2.869   2.003   6.174  0.6456  0.6480  0.1437
 6207SOL     OW30079   4.053   3.496  17.203 -0.1725 -0.5272 -0.4119
 6207SOL    HW130080   4.097   3.546  17.272 -0.8973 -1.0211  0.4007
 6207SOL    HW230081   4.117   3.427  17.187  2.1641  1.4777  0.2779
 6208SOL     OW30082   2.207   3.576   6.871 -0.0367  0.7274 -0.1373
 6208SOL    HW130083   2.266   3.589   6.796 -0.2513 -0.1988 -0.4669
 6208SOL    HW230084   2.227   3.488   6.904  1.5003  0.7896 -0.8632
 6209SOL     OW30085   2.815   0.620   8.433 -0.4384 -0.4586 -0.4029
 6209SOL    HW130086   2.838   0.710   8.407  0.7512 -0.0040  2.1877
 6209SOL    HW230087   2.903   0.585   8.419 -0.0106  0.3940  0.1103
 6210SOL     OW30088   2.321   3.176   2.012  0.0494  0.6528  0.3352
 6210SOL    HW130089   2.311   3.201   1.920  0.9305  0.2452  0.1242
 6210SOL    HW230090   2.407   3.215   2.030  0.3082 -0.0423  0.6270
 6211SOL     OW30091   1.468   3.790   2.130  0.4143  0.5495 -0.0038
 6211SOL    HW130092   1.424   3.796   2.215  2.2347  0.3718  0.9702
 6211SOL    HW230093   1.442   3.700   2.110 -0.1193  0.3486  1.5431
 6212SOL     OW30094   0.932   0.313   1.809  0.2122 -0.3145 -0.2327
 6212SOL    HW130095   0.891   0.228   1.821  1.0326 -0.8108 -0.9536
 6212SOL    HW230096   0.998   0.297   1.741  1.0608  1.5657  0.1209
 6213SOL     OW30097   3.106   4.259  10.243  0.2153 -0.4172 -0.0252
 6213SOL    HW130098   3.128   4.250  10.336  0.3644 -2.8414 -0.2887
 6213SOL    HW230099   3.024   4.304  10.263 -0.3414 -1.9192  1.0638
 6214SOL     OW30100   2.627   0.029   3.340 -0.1200 -0.2226 -0.1598
 6214SOL    HW130101   2.533   0.019   3.348  0.1104 -0.8200  1.7772
 6214SOL    HW230102   2.654   4.666   3.365 -0.3647 -0.2122  0.1361
 6215SOL     OW30103   4.122   4.038  15.183 -0.4380  0.6714  0.4483
 6215SOL    HW130104   4.118   4.111  15.245 -2.3670 -0.2960  1.4746
 6215SOL    HW230105   4.100   3.971  15.248  2.4985 -0.2062  0.5410
 6216SOL     OW30106   0.064   1.737   9.210  0.1908 -0.1203 -0.4644
 6216SOL    HW130107   0.109   1.794   9.147  1.0494 -0.6546 -0.3236
 6216SOL    HW230108   0.131   1.692   9.260  1.5952 -0.2999 -2.5493
 6217SOL     OW30109   2.515   3.025  12.002  0.1340  0.3007  0.4951
 6217SOL    HW130110   2.465   3.094  11.958  0.3383 -0.3518 -0.7462
 6217SOL    HW230111   2.471   3.020  12.087 -0.9952 -1.5999 -0.2055
 6218SOL     OW30112   0.043   2.475   5.635 -0.0551  0.0307 -0.0495
 6218SOL    HW130113   0.099   2.397   5.633  0.1760  0.2168 -0.8107
 6218SOL    HW230114   0.102   2.539   5.596  0.6610 -0.0597  0.8784
 6219SOL     OW30115   0.302   0.047   7.741  0.0223 -0.4692 -0.3317
 6219SOL    HW130116   0.230   0.098   7.703 -0.0125  1.6772  2.5862
 6219SOL    HW230117   0.375   0.082   7.689  1.1018 -0.2934  1.3003
 6220SOL     OW30118   1.678   0.650   7.620  0.1246  0.8682  0.3900
 6220SOL    HW130119   1.656   0.557   7.611 -0.4338  0.7755  2.6638
 6220SOL    HW230120   1.603   0.698   7.585 -0.9678 -1.0614  0.0791
 6221SOL     OW30121   3.480   3.726   1.580  0.7270 -0.5479 -0.2914
 6221SOL    HW130122   3.410   3.670   1.612 -0.2140  0.0300 -1.3661
 6221SOL    HW230123   3.503   3.676   1.502  0.3158  0.0627 -0.8023
 6222SOL     OW30124   1.962   2.120   3.098  0.0271  0.1767  0.1623
 6222SOL    HW130125   1.884   2.126   3.042 -0.4165  0.1763  0.7770
 6222SOL    HW230126   1.958   2.039   3.150  0.2148  0.2493  0.2900
 6223SOL     OW30127   0.920   0.254   5.548 -0.2066 -0.1504  0.5131
 6223SOL    HW130128   0.913   0.253   5.453 -0.1002  1.3673  0.4908
 6223SOL    HW230129   1.005   0.215   5.570  1.4596  3.0063 -0.3536
 6224SOL     OW30130   2.851   1.252   3.384  0.2000  0.5260  0.0237
 6224SOL    HW130131   2.789   1.187   3.418 -2.3807  1.2827 -3.1992
 6224SOL    HW230132   2.931   1.203   3.402  0.2548  0.4009 -0.5639
 6225SOL     OW30133   3.499   4.722   5.838 -0.0932  0.6904 -0.0323
 6225SOL    HW130134   3.423   0.056   5.836 -0.2443  0.4461 -1.6278
 6225SOL    HW230135   3.500   4.694   5.929  2.7286 -1.4175 -0.7133
 6226SOL     OW30136   1.901   2.563   5.710  0.2071 -0.3390  0.0341
 6226SOL    HW130137   1.953   2.584   5.788 -1.4442  1.6088  0.6223
 6226SOL    HW230138   1.855   2.647   5.716  0.6529 -0.0082 -1.3666
 6227SOL     OW30139   3.052   1.599   3.233  0.3699 -0.3469 -0.0988
 6227SOL    HW130140   3.029   1.517   3.191 -1.3070  0.5825 -1.0069
 6227SOL    HW230141   3.122   1.565   3.289 -0.3702  0.3719  1.2842
 6228SOL     OW30142   1.108   0.031   4.422 -0.5076  0.0189 -0.1333
 6228SOL    HW130143   1.072   0.083   4.350  3.1458  0.4748 -1.6008
 6228SOL    HW230144   1.150   0.101   4.472  0.4650 -0.2966 -0.5215
 6229SOL     OW30145   3.620   1.532   7.353 -0.1150 -0.3216 -0.3997
 6229SOL    HW130146   3.606   1.536   7.447 -0.1788 -1.0207 -0.3779
 6229SOL    HW230147   3.599   1.623   7.331  1.3769 -0.0658 -0.7976
 6230SOL     OW30148   2.571   0.968   0.809 -0.3856 -0.3078  0.2622
 6230SOL    HW130149   2.481   0.946   0.835 -0.9497 -0.6075 -1.9064
 6230SOL    HW230150   2.624   0.947   0.886 -0.8271 -2.1810  0.0716
 6231SOL     OW30151   2.577   2.862   9.688 -0.4236 -0.1566 -0.6630
 6231SOL    HW130152   2.578   2.957   9.691  0.9235 -0.1522 -1.1996
 6231SOL    HW230153   2.499   2.846   9.635 -1.2072 -1.2925  0.8193
 6232SOL     OW30154   4.169   4.536   3.941 -0.1602  0.0264 -0.0376
 6232SOL    HW130155   4.234   4.551   3.873 -0.1235 -1.4214 -0.3204
 6232SOL    HW230156   4.096   4.529   3.879 -0.4480 -1.5371  0.4703
 6233SOL     OW30157   4.154   1.027   3.436 -0.2606 -0.3941 -0.1901
 6233SOL    HW130158   4.235   1.059   3.476  0.0245 -2.1268  0.6230
 6233SOL    HW230159   4.090   1.031   3.506 -2.2355  0.1312 -2.0377
 6234SOL     OW30160   4.116   1.698  12.366 -0.1121 -0.2161  0.4692
 6234SOL    HW130161   4.085   1.774  12.415  1.1703  1.5555 -1.4633
 6234SOL    HW230162   4.196   1.675  12.414  0.5856  2.4645  0.5501
 6235SOL     OW30163   0.655   2.867   3.750  0.2650 -0.4656  0.1070
 6235SOL    HW130164   0.743   2.880   3.783  1.0501 -0.3114 -2.0373
 6235SOL    HW230165   0.598   2.874   3.826  0.5160 -0.3282  0.2810
 6236SOL     OW30166   4.218   1.585   3.825  0.1832 -0.6571  0.2250
 6236SOL    HW130167   4.253   1.517   3.883  1.8896 -1.4876 -1.7700
 6236SOL    HW230168   4.296   1.599   3.771 -0.5040 -0.1953 -0.6419
 6237SOL     OW30169   1.424   1.102   5.053 -0.7869 -0.0272 -0.2224
 6237SOL    HW130170   1.486   1.029   5.064 -0.1307  0.5917  0.1979
 6237SOL    HW230171   1.363   1.081   5.124 -0.2663  1.3497  0.6278
 6238SOL     OW30172   2.992   1.915   4.370 -0.5309 -0.5521 -0.0003
 6238SOL    HW130173   2.998   1.881   4.281  1.5296 -1.0070  0.3016
 6238SOL    HW230174   3.079   1.903   4.408 -0.5659 -0.5136  0.0934
 6239SOL     OW30175   1.518   4.554   5.956  0.5203 -0.0757  0.1704
 6239SOL    HW130176   1.427   4.527   5.948  0.5411  0.4798 -2.1734
 6239SOL    HW230177   1.517   4.650   5.964  2.4380 -0.1310  1.1454
 6240SOL     OW30178   1.152   0.624   3.463 -0.5497 -0.3122  0.2401
 6240SOL    HW130179   1.204   0.645   3.540 -0.2058 -1.3452  0.2950
 6240SOL    HW230180   1.196   0.557   3.410 -0.3521  0.4949 -0.6039
 6241SOL     OW30181   0.826   2.456   4.866  0.1929 -0.3676  0.5127
 6241SOL    HW130182   0.740   2.415   4.859 -0.0919  0.2643  0.3409
 6241SOL    HW230183   0.808   2.547   4.887  0.8630  0.1979 -1.3957
 6242SOL     OW30184   3.402   0.540  13.253  0.0626  0.3008  0.5314
 6242SOL    HW130185   3.328   0.480  13.257  0.2434  0.1280  1.3645
 6242SOL    HW230186   3.467   0.498  13.197 -0.7898 -0.7224  0.3172
 6243SOL     OW30187   1.445   2.051   4.065  0.3348 -0.5706  0.1788
 6243SOL    HW130188   1.431   2.104   4.144  0.1779 -0.9686  0.4213
 6243SOL    HW230189   1.512   2.102   4.021  0.2329 -2.1630 -1.8056
 6244SOL     OW30190   2.720   3.884  10.629  0.3819 -0.3108  0.5392
 6244SOL    HW130191   2.661   3.817  10.594 -0.4371 -1.2839  3.7609
 6244SOL    HW230192   2.765   3.873  10.545  0.6169 -1.2784  0.7902
 6245SOL     OW30193   2.385   0.248   2.587 -0.0303 -0.0390  0.3959
 6245SOL    HW130194   2.294   0.276   2.573  0.5696  1.1339 -1.1091
 6245SOL    HW230195   2.383   0.241   2.682 -2.2728  0.6636  0.4154
 6246SOL     OW30196   3.566   3.735   1.857 -0.1106  0.7020 -0.4938
 6246SOL    HW130197   3.602   3.763   1.773  0.0167 -0.6142 -0.8823
 6246SOL    HW230198   3.471   3.745   1.847  0.0212  1.4179 -0.9949
 6247SOL     OW30199   3.449   0.482   2.839  0.1919 -0.8801  0.4308
 6247SOL    HW130200   3.433   0.424   2.765 -1.3662 -0.8505  0.7372
 6247SOL    HW230201   3.368   0.532   2.839 -0.7779 -2.4674  2.8559
 6248SOL     OW30202   4.580   4.314  15.204  0.0393  0.3988  0.0609
 6248SOL    HW130203   4.558   4.406  15.223  0.0189  0.5469 -0.6884
 6248SOL    HW230204   4.668   4.332  15.172  0.3013 -0.0428  0.5341
 6249SOL     OW30205   0.309   1.888  13.496 -0.1937  0.1167  0.7640
 6249SOL    HW130206   0.241   1.839  13.449 -0.7089  1.9124 -0.3406
 6249SOL    HW230207   0.261   1.969  13.508  0.2582  0.6449 -0.9538
 6250SOL     OW30208   2.087   4.577   6.293  0.0282  0.2789  0.4905
 6250SOL    HW130209   2.167   4.616   6.329 -0.5781  0.2334  1.8786
 6250SOL    HW230210   2.120   4.549   6.208 -0.5364 -2.1679  1.0804
 6251SOL     OW30211   0.612   0.324   3.485  0.0666 -0.3851  0.5002
 6251SOL    HW130212   0.582   0.413   3.502  0.3060 -0.7510  2.8551
 6251SOL    HW230213   0.527   0.297   3.452 -0.9521  1.2862  1.7347
 6252SOL     OW30214   1.216   0.003   8.196 -0.4867 -0.3507  0.5928
 6252SOL    HW130215   1.176   0.069   8.140  1.1200  0.6476  0.6135
 6252SOL    HW230216   1.193   0.028   8.285 -1.0497 -1.3299  0.7229
 6253SOL     OW30217   2.416   2.726  11.980  0.0936 -0.2784 -0.1783
 6253SOL    HW130218   2.455   2.810  12.003 -0.0855 -0.9577  2.7249
 6253SOL    HW230219   2.440   2.676  12.058 -0.2908 -0.4017 -0.1376
 6254SOL     OW30220   0.512   1.196  12.468  0.3130  0.0389  0.1519
 6254SOL    HW130221   0.487   1.183  12.377  3.1681 -0.6035 -0.5431
 6254SOL    HW230222   0.532   1.290  12.473 -1.9811  0.4287  2.1779
 6255SOL     OW30223   2.434   1.626   7.898  0.0857  0.1466  0.2594
 6255SOL    HW130224   2.349   1.592   7.926  1.7055 -0.8467  4.0293
 6255SOL    HW230225   2.450   1.697   7.961 -0.2720  0.2683  0.2164
 6256SOL     OW30226   0.350   1.178   6.812  0.1447  0.8826  0.4568
 6256SOL    HW130227   0.352   1.271   6.791  0.4900  0.9469  0.7752
 6256SOL    HW230228   0.382   1.146   6.727 -1.5554 -0.1972  0.2249
 6257SOL     OW30229   1.113   3.196   7.851 -0.1083 -0.2549  0.4499
 6257SOL    HW130230   1.054   3.227   7.783  0.4731  0.7847  0.4227
 6257SOL    HW230231   1.162   3.274   7.876  2.8160 -1.9744  0.1926
 6258SOL     OW30232   1.654   1.493   4.277 -0.4103  0.5595 -0.2253
 6258SOL    HW130233   1.630   1.509   4.368  2.2424 -3.7968  1.2232
 6258SOL    HW230234   1.668   1.399   4.282  0.9639  0.8397  1.1974
 6259SOL     OW30235   1.579   0.676   6.174  0.4462 -0.0261  0.0919
 6259SOL    HW130236   1.491   0.650   6.148  0.4552  2.2862 -2.2322
 6259SOL    HW230237   1.553   0.694   6.264 -0.1936 -3.6761  0.6505
 6260SOL     OW30238   4.466   2.289   5.256 -0.1913 -0.5523  0.0347
 6260SOL    HW130239   4.485   2.345   5.332 -1.2284 -0.4643  0.2310
 6260SOL    HW230240   4.456   2.356   5.189  0.7421 -0.1970  0.2446
 6261SOL     OW30241   3.881   2.040   2.271 -0.2034  0.0053  0.6263
 6261SOL    HW130242   3.930   2.119   2.249 -1.2325  0.6026  0.4440
 6261SOL    HW230243   3.927   1.992   2.340  3.9961  1.1757 -1.4120
 6262SOL     OW30244   4.722   3.430   1.390  0.4768 -0.5040  0.3182
 6262SOL    HW130245   4.713   3.525   1.395  1.6370 -0.2004 -3.5196
 6262SOL    HW230246   4.682   3.413   1.304  0.6411 -0.8474  0.3109
 6263SOL     OW30247   4.445   1.389   8.078  0.0375 -0.2098 -0.7057
 6263SOL    HW130248   4.363   1.435   8.064 -0.6511 -0.6433  1.9737
 6263SOL    HW230249   4.457   1.335   7.999 -0.4098 -0.3466 -0.6797
 6264SOL     OW30250   1.218   0.472   7.197  0.1434 -0.2673 -0.2824
 6264SOL    HW130251   1.208   0.378   7.180  0.9610 -0.2811 -0.6824
 6264SOL    HW230252   1.217   0.496   7.105  0.0197 -2.6142 -0.8890
 6265SOL     OW30253   3.485   4.625   5.073  0.1846 -0.1418 -0.3001
 6265SOL    HW130254   3.567   4.671   5.089  0.9869 -1.7988  0.3031
 6265SOL    HW230255   3.522   4.538   5.056 -1.1405 -1.2390  2.3948
 6266SOL     OW30256   3.772   3.705   7.270  0.1016 -0.1279 -0.1396
 6266SOL    HW130257   3.707   3.672   7.208 -0.2579  1.1618 -0.4546
 6266SOL    HW230258   3.787   3.632   7.330  0.7880 -0.1109 -0.2937
 6267SOL     OW30259   2.485   3.043   5.913  0.2858 -0.9739 -0.1046
 6267SOL    HW130260   2.511   3.006   5.998  0.6279  2.3547  1.2618
 6267SOL    HW230261   2.536   2.988   5.854  0.5542 -0.4961 -0.3099
 6268SOL     OW30262   4.266   4.708   2.268 -0.3252 -0.4052  0.0021
 6268SOL    HW130263   4.333   4.651   2.307 -0.5128 -1.0467 -0.6124
 6268SOL    HW230264   4.273   0.054   2.332 -1.5882 -2.0431  1.9608
 6269SOL     OW30265   3.134   3.383   3.892  0.1922  0.5129  0.2045
 6269SOL    HW130266   3.099   3.431   3.817 -2.2013 -1.3673  0.1177
 6269SOL    HW230267   3.229   3.389   3.879  0.4208 -1.8559  0.6486
 6270SOL     OW30268   1.472   3.443   2.819  0.2703 -0.2111 -0.2898
 6270SOL    HW130269   1.481   3.413   2.728  2.4210  0.8546 -0.4291
 6270SOL    HW230270   1.457   3.537   2.806 -0.0408 -0.1773  0.3313
 6271SOL     OW30271   2.158   3.595   9.441 -0.5413  0.2093  0.2154
 6271SOL    HW130272   2.099   3.567   9.371  0.5764 -2.6655  0.4348
 6271SOL    HW230273   2.121   3.579   9.528  0.1463 -2.4856  0.0215
 6272SOL     OW30274   2.347   4.134   0.875  0.3538 -0.0000 -0.5416
 6272SOL    HW130275   2.344   4.194   0.800 -0.3744  2.0135  1.0782
 6272SOL    HW230276   2.390   4.188   0.941  1.0043  0.6760 -1.5078
 6273SOL     OW30277   2.379   1.540   9.020  0.4028  0.1470 -0.0987
 6273SOL    HW130278   2.309   1.503   8.967  1.6765 -1.9695 -0.2922
 6273SOL    HW230279   2.416   1.457   9.051 -1.1077 -0.0491  1.1630
 6274SOL     OW30280   3.767   0.271   8.312 -0.2847 -0.0555 -0.1277
 6274SOL    HW130281   3.692   0.296   8.259 -0.2700 -2.0992 -1.1371
 6274SOL    HW230282   3.719   0.233   8.385  0.5360 -0.5196  0.1771
 6275SOL     OW30283   1.307   2.706   6.687 -0.0193  0.8098 -0.5546
 6275SOL    HW130284   1.357   2.731   6.609  0.1724  1.2494 -0.2892
 6275SOL    HW230285   1.218   2.727   6.660  0.1737  0.5662 -1.3849
 6276SOL     OW30286   1.517   2.227   9.676  0.0303 -0.0636 -0.1540
 6276SOL    HW130287   1.464   2.276   9.739 -0.0561 -0.8521  0.3811
 6276SOL    HW230288   1.598   2.227   9.727  0.6170  1.0301 -1.0618
 6277SOL     OW30289   1.479   2.068   8.392 -0.0975 -0.0650 -0.3516
 6277SOL    HW130290   1.509   2.085   8.482  0.1531  0.8492 -0.5984
 6277SOL    HW230291   1.531   2.125   8.335  0.2773 -0.2820 -0.2235
 6278SOL     OW30292   1.333   1.037  11.532  0.0221 -0.4056  0.4762
 6278SOL    HW130293   1.292   0.956  11.560  2.8867 -1.8773  0.4538
 6278SOL    HW230294   1.387   1.049  11.610  1.0798 -0.9202 -0.1775
 6279SOL     OW30295   0.853   3.764   5.838 -0.1323 -0.2432 -0.6392
 6279SOL    HW130296   0.784   3.826   5.813 -0.9622 -0.6756  0.5854
 6279SOL    HW230297   0.825   3.691   5.783 -3.2096 -0.3317  1.0351
 6280SOL     OW30298   0.676   3.989   1.785 -0.0727  0.0999 -0.0839
 6280SOL    HW130299   0.705   3.898   1.782 -0.0260  0.1218 -0.2863
 6280SOL    HW230300   0.762   4.028   1.802 -1.3969  2.4458  1.1991
 6281SOL     OW30301   3.550   0.573  13.768  0.6639  0.2769 -0.1528
 6281SOL    HW130302   3.508   0.577  13.682 -0.3639  3.0262  0.4756
 6281SOL    HW230303   3.546   0.662  13.802 -1.2117 -0.4772  1.6022
 6282SOL     OW30304   4.446   0.211  15.716 -0.0594 -0.3350 -0.0189
 6282SOL    HW130305   4.461   0.119  15.737  1.8547  0.1042  0.5060
 6282SOL    HW230306   4.409   0.246  15.797 -1.1343 -0.0991 -0.6103
 6283SOL     OW30307   2.431   1.871   5.980  0.3528  0.2292 -0.0314
 6283SOL    HW130308   2.403   1.800   6.038 -1.3997  0.4906 -0.5587
 6283SOL    HW230309   2.524   1.855   5.961  0.7173  1.1924  0.9653
 6284SOL     OW30310   4.513   2.159  16.731  0.0823 -0.6507 -0.2134
 6284SOL    HW130311   4.561   2.241  16.740  0.3338 -0.7950 -0.2355
 6284SOL    HW230312   4.532   2.140  16.639 -2.0386  1.1322 -1.0219
 6285SOL     OW30313   3.967   0.298   6.859 -0.3919  0.7387 -0.7583
 6285SOL    HW130314   3.964   0.231   6.792  0.7470 -0.0153 -0.0658
 6285SOL    HW230315   3.887   0.270   6.903 -1.3758  0.6893 -2.6126
 6286SOL     OW30316   4.079   4.294   5.585 -0.6995 -0.2822  0.2100
 6286SOL    HW130317   4.146   4.254   5.640 -0.0026 -0.8597 -1.0410
 6286SOL    HW230318   4.114   4.275   5.498  1.9860 -0.5141  1.3385
 6287SOL     OW30319   0.087   4.147   5.855 -0.2603  0.6100 -0.3376
 6287SOL    HW130320   0.123   4.090   5.923 -1.0640  0.1168 -0.3242
 6287SOL    HW230321   0.119   4.104   5.775  1.2743  1.4758 -0.1936
 6288SOL     OW30322   0.051   3.135   0.446 -0.0634 -0.4818  0.1217
 6288SOL    HW130323   0.112   3.103   0.512  0.0498 -1.0163 -0.2400
 6288SOL    HW230324   4.702   3.077   0.460 -0.0131 -0.7022 -0.5082
 6289SOL     OW30325   3.272   1.242   4.822  0.5833  0.3865 -0.3879
 6289SOL    HW130326   3.368   1.238   4.817  0.5569  0.4471 -0.9054
 6289SOL    HW230327   3.255   1.212   4.733  2.5528 -2.2257  0.1067
 6290SOL     OW30328   2.408   3.158   4.518  0.1833  0.4575  0.0144
 6290SOL    HW130329   2.466   3.234   4.524  0.6748  0.1852 -1.2588
 6290SOL    HW230330   2.333   3.195   4.564 -1.2933 -0.4856 -1.6590
 6291SOL     OW30331   2.518   3.335  10.038 -0.3706 -0.3239  0.3857
 6291SOL    HW130332   2.464   3.414  10.040 -0.3043 -0.2081 -1.9223
 6291SOL    HW230333   2.459   3.278  10.087 -0.4080 -0.1808  0.5074
 6292SOL     OW30334   4.415   4.149   9.292 -0.5236  0.2414 -0.3916
 6292SOL    HW130335   4.389   4.221   9.350 -0.1418  1.2314 -1.4609
 6292SOL    HW230336   4.332   4.134   9.246 -1.1406  0.9576  0.4700
 6293SOL     OW30337   1.516   1.937   1.521 -0.0363  0.4386 -0.2079
 6293SOL    HW130338   1.430   1.977   1.508 -0.1037  0.3060 -0.1756
 6293SOL    HW230339   1.570   2.004   1.563  0.7534 -1.4572  1.8061
 6294SOL     OW30340   1.493   3.200   8.522  0.1060 -0.0751 -0.0650
 6294SOL    HW130341   1.429   3.223   8.590 -0.4469  0.5527 -0.7928
 6294SOL    HW230342   1.448   3.214   8.439 -1.2447  0.3124  0.7345
 6295SOL     OW30343   3.242   4.359   1.647  0.3112 -0.3363  0.1368
 6295SOL    HW130344   3.251   4.419   1.721 -1.4514  2.1144 -1.6286
 6295SOL    HW230345   3.177   4.297   1.682  0.5084  0.2805  1.6070
 6296SOL     OW30346   0.407   0.375   2.063 -0.4670  0.3850 -0.6209
 6296SOL    HW130347   0.358   0.295   2.045  0.8735 -0.5994  0.1047
 6296SOL    HW230348   0.344   0.446   2.048  0.8382  1.4272 -1.1661
 6297SOL     OW30349   0.539   1.037   7.230 -0.3459  0.2973  0.0869
 6297SOL    HW130350   0.542   1.010   7.322 -3.3214  0.7441  0.3066
 6297SOL    HW230351   0.470   0.975   7.209  0.2097 -0.2607 -0.0866
 6298SOL     OW30352   2.030   2.206   0.892  0.1711  0.5095  0.2062
 6298SOL    HW130353   1.946   2.217   0.849 -0.5675  0.5024  1.6547
 6298SOL    HW230354   2.078   2.147   0.834 -0.9143 -0.9567  0.7978
 6299SOL     OW30355   1.198   2.597   5.029  0.1432 -0.1915 -0.0624
 6299SOL    HW130356   1.219   2.503   5.023  2.0822  0.3766 -2.4689
 6299SOL    HW230357   1.194   2.618   4.935  1.0774  1.2019  0.2198
 6300SOL     OW30358   3.767   0.297   2.754 -0.2310  0.2373 -0.1358
 6300SOL    HW130359   3.849   0.333   2.788 -0.9950  1.4742  0.4010
 6300SOL    HW230360   3.773   0.210   2.794  0.3735  0.6749  0.7394
 6301SOL     OW30361   1.286   3.892   4.131  0.7605  0.3911 -0.0844
 6301SOL    HW130362   1.195   3.908   4.155  1.4460  1.0001  2.2021
 6301SOL    HW230363   1.325   3.969   4.172 -0.9113  1.9484 -1.4314
 6302SOL     OW30364   1.084   4.249  15.232  0.0342  0.1712  0.1605
 6302SOL    HW130365   1.004   4.284  15.273  0.8855  0.7794  1.2885
 6302SOL    HW230366   1.159   4.272  15.286  0.1599  0.3988 -0.1137
 6303SOL     OW30367   1.350   3.829  12.173 -0.3700  0.5010  0.2373
 6303SOL    HW130368   1.271   3.777  12.183 -0.9274  1.6369  1.7738
 6303SOL    HW230369   1.382   3.827  12.264 -1.2468 -2.8357  0.4635
 6304SOL     OW30370   0.532   2.634   3.134 -0.2071  0.1449  0.0129
 6304SOL    HW130371   0.474   2.588   3.195  0.2900 -1.3786 -0.6548
 6304SOL    HW230372   0.486   2.717   3.144 -0.5407 -0.0272 -0.0657
 6305SOL     OW30373   0.265   0.590   8.866 -0.5214  0.0172 -0.4288
 6305SOL    HW130374   0.173   0.570   8.852 -0.7422 -0.4867  1.7175
 6305SOL    HW230375   0.263   0.587   8.962 -2.1822  1.5892 -0.4026
 6306SOL     OW30376   2.016   0.357   9.981  0.7470  0.8349  0.2514
 6306SOL    HW130377   2.010   0.268   9.947 -0.1678  0.2675  1.9210
 6306SOL    HW230378   1.976   0.407   9.909  1.0607  0.6255 -0.0703
 6307SOL     OW30379   3.749   3.411   0.307  0.0872 -0.4997 -0.1949
 6307SOL    HW130380   3.775   3.439   0.395 -0.3850 -1.8331  0.3748
 6307SOL    HW230381   3.654   3.409   0.303  0.0400  1.2644 -0.1599
 6308SOL     OW30382   2.407   0.861   5.097  0.3453 -0.1780  0.1973
 6308SOL    HW130383   2.379   0.952   5.105 -0.7320 -0.6305  1.6168
 6308SOL    HW230384   2.465   0.871   5.022  1.2174 -0.8120  0.7973
 6309SOL     OW30385   1.008   4.027   5.461  0.0541 -0.8116 -0.3654
 6309SOL    HW130386   1.048   3.944   5.434  1.4139 -0.0381 -0.7285
 6309SOL    HW230387   0.917   4.003   5.478  0.4690  0.2355  3.2420
 6310SOL     OW30388   3.586   1.712  16.417 -0.1412 -0.4604 -0.3639
 6310SOL    HW130389   3.656   1.777  16.408 -2.3258  1.8947 -0.5947
 6310SOL    HW230390   3.565   1.700  16.509  2.4004 -2.4939 -0.0599
 6311SOL     OW30391   2.550   4.232   4.684 -0.0391  0.1834 -0.1321
 6311SOL    HW130392   2.516   4.287   4.754 -2.9196 -0.1256 -1.2892
 6311SOL    HW230393   2.645   4.238   4.689 -0.2121  2.0577  0.7670
 6312SOL     OW30394   2.916   4.179   0.305  0.7410 -1.2366 -0.6106
 6312SOL    HW130395   2.924   4.127   0.384  0.6404  1.3144  1.0761
 6312SOL    HW230396   3.005   4.162   0.275  1.5127  2.2162 -0.3179
 6313SOL     OW30397   2.769   2.799  11.249 -0.0909  0.0191  0.2729
 6313SOL    HW130398   2.819   2.809  11.330  1.3381  0.8898 -0.7299
 6313SOL    HW230399   2.840   2.795  11.186 -0.3411  0.4759 -0.0399
 6314SOL     OW30400   0.572   4.572   4.952 -0.2942 -0.4320 -0.6074
 6314SOL    HW130401   0.528   4.504   5.002 -0.3186 -0.2852 -0.4307
 6314SOL    HW230402   0.520   4.574   4.872 -1.4805  1.1637  0.2142
 6315SOL     OW30403   2.912   3.592   2.302  0.0455  0.5664  0.1298
 6315SOL    HW130404   2.996   3.584   2.348 -0.4616  3.4729  1.5843
 6315SOL    HW230405   2.892   3.501   2.279  0.8783  0.6993 -1.0957
 6316SOL     OW30406   2.741   4.504   8.101  0.5044  0.3060  0.0747
 6316SOL    HW130407   2.811   4.569   8.090 -0.5205  1.4353  0.2658
 6316SOL    HW230408   2.674   4.567   8.127 -0.1707  0.0678 -1.0962
 6317SOL     OW30409   2.702   2.917   9.116  0.0618  0.1994 -1.0522
 6317SOL    HW130410   2.751   2.863   9.055 -1.0811 -2.7751  0.6640
 6317SOL    HW230411   2.683   2.865   9.194 -2.1043  0.4348 -1.4172
 6318SOL     OW30412   4.190   4.445   1.878  0.2860 -0.6737 -0.8740
 6318SOL    HW130413   4.282   4.467   1.863 -0.0120  1.5593  0.4435
 6318SOL    HW230414   4.186   4.351   1.891  2.4371 -0.3642  1.9276
 6319SOL     OW30415   4.513   2.530   6.841  0.2509  0.1859 -0.0223
 6319SOL    HW130416   4.527   2.614   6.886 -0.6228  0.2718  0.0866
 6319SOL    HW230417   4.418   2.528   6.852  0.2328 -1.9414 -0.6617
 6320SOL     OW30418   1.035   1.356  12.714  0.2259  0.3985 -0.1291
 6320SOL    HW130419   1.131   1.363  12.711  0.3675 -0.9082  1.3431
 6320SOL    HW230420   1.037   1.271  12.758  1.7081  0.7057  0.3991
 6321SOL     OW30421   0.722   1.330   7.734 -0.5565  0.0590  0.1530
 6321SOL    HW130422   0.778   1.252   7.725 -0.9801 -0.3088  0.7012
 6321SOL    HW230423   0.788   1.398   7.718 -1.0046  0.7597  1.2685
 6322SOL     OW30424   3.362   0.725  11.130 -0.4760  0.0466  0.4529
 6322SOL    HW130425   3.332   0.815  11.111 -0.1670 -0.4617 -2.4424
 6322SOL    HW230426   3.281   0.680  11.107  0.7882 -1.9585  0.0109
 6323SOL     OW30427   2.978   3.117   8.600 -0.0006 -0.2943  0.1702
 6323SOL    HW130428   2.986   3.078   8.513 -0.0064  2.1814 -0.9457
 6323SOL    HW230429   2.988   3.210   8.581 -2.2817  0.1200  0.9715
 6324SOL     OW30430   1.599   1.483   3.041  0.1810  0.0929  0.3858
 6324SOL    HW130431   1.602   1.501   3.135 -1.0753 -0.6031  0.5522
 6324SOL    HW230432   1.626   1.392   3.041  0.8830  0.2995  0.6274
 6325SOL     OW30433   1.035   4.415   5.307 -0.5828 -0.1841 -0.4147
 6325SOL    HW130434   0.943   4.398   5.290 -1.4753  3.1671  1.0398
 6325SOL    HW230435   1.045   4.481   5.238 -1.0168 -1.2445 -1.4929
 6326SOL     OW30436   0.634   1.358  13.964  0.3336  0.0159 -0.3702
 6326SOL    HW130437   0.611   1.426  13.901 -0.7404  0.3452  0.3690
 6326SOL    HW230438   0.692   1.397  14.029  0.0723  0.2820 -0.2968
 6327SOL     OW30439   1.475   1.267   0.843  0.4566 -0.4161 -0.0866
 6327SOL    HW130440   1.570   1.256   0.842  0.8813  3.2944 -0.8682
 6327SOL    HW230441   1.452   1.204   0.775 -0.0259  0.7398 -1.0056
 6328SOL     OW30442   2.335   1.102   6.899  0.1272  0.2611  0.8538
 6328SOL    HW130443   2.247   1.077   6.924 -0.3389  0.3908 -0.6360
 6328SOL    HW230444   2.387   1.123   6.977  1.7624  1.0124 -0.4323
 6329SOL     OW30445   2.881   2.446  13.644 -0.5456  0.1000 -0.2854
 6329SOL    HW130446   2.974   2.426  13.651  0.1645  2.8042 -1.8927
 6329SOL    HW230447   2.858   2.427  13.553  0.6448 -2.0975 -0.1258
 6330SOL     OW30448   2.569   3.483   6.152 -0.8428  0.0399 -0.0244
 6330SOL    HW130449   2.517   3.403   6.146  1.8350 -1.9312  3.1687
 6330SOL    HW230450   2.515   3.531   6.214  1.5868  1.4945  0.9656
 6331SOL     OW30451   3.523   0.303   7.425 -0.3514 -0.3662 -0.3145
 6331SOL    HW130452   3.537   0.257   7.342  0.3493  0.4341 -0.6430
 6331SOL    HW230453   3.428   0.289   7.424 -0.3990  0.0191 -1.3749
 6332SOL     OW30454   2.597   1.913   4.526 -0.4375 -0.9111 -0.2045
 6332SOL    HW130455   2.618   1.956   4.609  1.3113 -1.8512 -0.1651
 6332SOL    HW230456   2.586   1.987   4.466  1.5384 -1.3135 -1.0433
 6333SOL     OW30457   3.392   3.127   7.913  0.1087  0.0049  0.1131
 6333SOL    HW130458   3.383   3.081   7.997 -1.6622 -0.1651 -0.1740
 6333SOL    HW230459   3.363   3.216   7.938  2.5509  1.0719 -0.8781
 6334SOL     OW30460   1.231   4.289   1.353 -0.0988 -0.4260 -0.2272
 6334SOL    HW130461   1.138   4.306   1.366 -0.5619 -1.0727 -2.6545
 6334SOL    HW230462   1.245   4.365   1.296 -3.0674 -0.9365 -1.6232
 6335SOL     OW30463   1.300   0.151   9.424  0.1285 -0.4954  0.1417
 6335SOL    HW130464   1.358   0.145   9.500  2.0387 -0.9381 -1.3519
 6335SOL    HW230465   1.215   0.132   9.463 -0.2986  1.2130  0.0474
 6336SOL     OW30466   2.080   1.299   6.685  0.4272  0.3820  0.4348
 6336SOL    HW130467   2.041   1.279   6.770 -0.0044  2.0791  0.6476
 6336SOL    HW230468   2.012   1.356   6.647  1.0084  0.9901  0.3089
 6337SOL     OW30469   0.957   2.620   7.979 -0.0831 -0.0449  0.8637
 6337SOL    HW130470   1.007   2.580   8.050  0.8407 -0.9301 -0.2557
 6337SOL    HW230471   0.943   2.707   8.016 -0.8485  0.2582 -0.1419
 6338SOL     OW30472   3.891   1.847   4.406 -0.0737  0.3788  0.0962
 6338SOL    HW130473   3.893   1.920   4.344 -0.0133  0.1203 -0.2052
 6338SOL    HW230474   3.854   1.779   4.350  1.6705  1.3399 -2.2199
 6339SOL     OW30475   1.013   3.040   2.585  0.3534  0.1287  0.2278
 6339SOL    HW130476   0.980   3.028   2.496  1.8031  2.4493 -0.6305
 6339SOL    HW230477   0.932   3.014   2.629  0.6691  1.0442  1.3772
 6340SOL     OW30478   3.579   2.140   8.158 -0.3201  0.2762  0.2885
 6340SOL    HW130479   3.490   2.174   8.166 -0.0758  0.6670  1.4703
 6340SOL    HW230480   3.554   2.048   8.164 -0.4295  0.2981  0.1528
 6341SOL     OW30481   2.824   3.341   3.720  0.5829  0.1321 -0.8950
 6341SOL    HW130482   2.791   3.299   3.799  2.1900  2.8741  1.2512
 6341SOL    HW230483   2.811   3.277   3.651 -0.8958  0.3997 -0.8568
 6342SOL     OW30484   1.532   1.263   6.602 -0.0947 -0.9195  0.3733
 6342SOL    HW130485   1.624   1.274   6.577 -0.2939  1.3676  0.7093
 6342SOL    HW230486   1.540   1.203   6.676 -2.8912 -1.7618  0.0013
 6343SOL     OW30487   0.949   0.777   6.460  0.1692 -0.1880  0.4789
 6343SOL    HW130488   0.906   0.854   6.423  1.2283 -0.8406 -2.0765
 6343SOL    HW230489   0.917   0.772   6.550 -1.4036 -0.5559 -0.1098
 6344SOL     OW30490   4.479   2.949   1.723 -0.2112  0.2523 -0.5614
 6344SOL    HW130491   4.514   2.991   1.644  0.1822  0.6698 -0.1653
 6344SOL    HW230492   4.529   2.867   1.719  0.2219  0.4408  1.0270
 6345SOL     OW30493   2.968   3.689   6.814  0.2520 -0.0663 -0.3372
 6345SOL    HW130494   2.990   3.775   6.778 -1.2550  1.1533  1.6299
 6345SOL    HW230495   3.053   3.647   6.830 -0.4802 -0.9736  1.1800
 6346SOL     OW30496   0.054   4.665   9.169  0.3160 -0.2071  0.3487
 6346SOL    HW130497   0.048   4.573   9.143 -2.2555  0.5755 -1.7499
 6346SOL    HW230498   4.689   4.686   9.145  0.4618 -0.2591 -0.2498
 6347SOL     OW30499   4.139   1.821   6.679 -0.2209  0.4161 -0.0683
 6347SOL    HW130500   4.122   1.727   6.676 -0.6088  0.4762  0.2913
 6347SOL    HW230501   4.226   1.835   6.642 -0.0796 -0.2170  0.0367
 6348SOL     OW30502   4.140   4.445  15.040  0.7031 -0.3280 -0.2195
 6348SOL    HW130503   4.209   4.379  15.050 -0.3811 -2.1104 -4.2661
 6348SOL    HW230504   4.067   4.383  15.041  0.2673  0.1631 -0.8045
 6349SOL     OW30505   2.117   2.912   7.848  0.3704 -0.0513  0.7599
 6349SOL    HW130506   2.110   2.851   7.921 -1.5139  0.2744  0.8545
 6349SOL    HW230507   2.070   2.864   7.779 -0.4277  0.5364  0.8952
 6350SOL     OW30508   1.212   2.575  13.858 -0.4974 -0.0151  0.0904
 6350SOL    HW130509   1.138   2.515  13.851 -1.9300  1.9427 -1.5811
 6350SOL    HW230510   1.171   2.661  13.866  1.2554  0.8572 -0.2700
 6351SOL     OW30511   0.965   0.130   6.126 -0.1467 -0.1471 -0.3253
 6351SOL    HW130512   0.932   0.103   6.211  1.5988 -1.3461 -0.0351
 6351SOL    HW230513   0.898   0.196   6.107  0.9567  0.7715 -1.0394
 6352SOL     OW30514   3.578   2.705   3.080  0.1198 -0.8348 -0.1422
 6352SOL    HW130515   3.511   2.736   3.019  2.1220  3.1601 -0.3038
 6352SOL    HW230516   3.644   2.697   3.011 -0.7487  1.6354 -1.2704
 6353SOL     OW30517   0.970   1.961  15.086  0.0203  0.0934  0.2470
 6353SOL    HW130518   1.037   2.015  15.130 -0.2852  0.9643 -0.3539
 6353SOL    HW230519   0.974   1.884  15.142  0.7180 -1.0728 -1.4059
 6354SOL     OW30520   4.290   2.531   4.845  0.0502 -0.2220 -0.4218
 6354SOL    HW130521   4.382   2.545   4.823  0.4307 -2.5791 -0.3004
 6354SOL    HW230522   4.255   2.507   4.759  0.9869  0.6035 -1.0307
 6355SOL     OW30523   4.527   2.443  17.442 -0.3995 -0.5042  0.5208
 6355SOL    HW130524   4.470   2.392  17.384 -0.7404 -1.8188  1.9819
 6355SOL    HW230525   4.505   2.529  17.408 -0.3776 -0.4237  0.7111
 6356SOL     OW30526   3.347   0.684   5.725 -0.1925  0.5537 -0.0488
 6356SOL    HW130527   3.403   0.668   5.801  1.3102 -1.5706 -1.5809
 6356SOL    HW230528   3.284   0.613   5.740  1.8571 -0.9733  1.3115
 6357SOL     OW30529   1.684   1.230   3.087  0.1452  0.2404  0.1846
 6357SOL    HW130530   1.709   1.164   3.023 -0.0994 -1.8675  2.2584
 6357SOL    HW230531   1.673   1.169   3.160  2.5213 -0.2528  0.0994
 6358SOL     OW30532   0.643   2.554   7.699 -0.6340  0.3900 -0.3368
 6358SOL    HW130533   0.648   2.647   7.724 -3.2446  0.6355 -0.7120
 6358SOL    HW230534   0.729   2.525   7.730 -1.0625 -0.6119 -0.0886
 6359SOL     OW30535   3.034   0.765   8.874 -0.7436 -0.3473  0.4632
 6359SOL    HW130536   2.980   0.776   8.795 -0.1543  1.0212  0.2518
 6359SOL    HW230537   3.004   0.832   8.935 -2.0482 -2.1554  1.7985
 6360SOL     OW30538   1.914   0.796  13.874  0.0395 -0.7360  0.2788
 6360SOL    HW130539   1.838   0.745  13.902 -1.2772  1.3403  0.4552
 6360SOL    HW230540   1.978   0.729  13.850  0.3530 -0.7699  1.2171
 6361SOL     OW30541   1.315   4.104   8.634 -0.5988  0.0150  0.6065
 6361SOL    HW130542   1.326   4.131   8.726 -0.0227  0.8740  0.2883
 6361SOL    HW230543   1.366   4.023   8.628  1.8290  1.6181 -0.4883
 6362SOL     OW30544   1.917   2.601  17.075  0.2741 -0.1938  0.4231
 6362SOL    HW130545   1.986   2.624  17.013 -0.7122  1.5917 -0.0417
 6362SOL    HW230546   1.854   2.549  17.026  1.9753 -0.8416 -1.0679
 6363SOL     OW30547   4.472   3.097   6.471  0.7538  0.0115 -0.1513
 6363SOL    HW130548   4.487   3.165   6.406  2.5992  1.2004  1.5290
 6363SOL    HW230549   4.404   3.135   6.527  1.6947  1.5883 -0.0880
 6364SOL     OW30550   3.473   2.000   2.990 -0.4376 -0.3438 -0.1869
 6364SOL    HW130551   3.411   2.066   2.960 -1.5726 -1.7116 -0.8977
 6364SOL    HW230552   3.444   1.923   2.940  0.6850  0.1942 -1.6686
 6365SOL     OW30553   2.377   1.750   4.411 -0.0417 -0.6950  0.2574
 6365SOL    HW130554   2.308   1.758   4.477 -1.1245  0.1820 -0.9793
 6365SOL    HW230555   2.441   1.804   4.456  0.4071 -0.7694 -0.2933
 6366SOL     OW30556   1.586   1.435   2.622 -0.5360  0.1515  0.3039
 6366SOL    HW130557   1.603   1.347   2.655  2.5660  0.1928 -1.2240
 6366SOL    HW230558   1.521   1.461   2.688 -0.1195 -2.0932  1.6133
 6367SOL     OW30559   2.340   0.848   8.718 -0.1753  0.7494  0.5293
 6367SOL    HW130560   2.428   0.841   8.683  0.6261 -0.0301  2.6894
 6367SOL    HW230561   2.321   0.756   8.737  2.7693 -0.6296 -3.2901
 6368SOL     OW30562   4.047   3.822   1.534  0.3675  0.1386 -0.3124
 6368SOL    HW130563   4.078   3.749   1.480 -1.8883 -0.6429 -0.5402
 6368SOL    HW230564   3.952   3.814   1.532  0.4076 -0.3247 -0.4239
 6369SOL     OW30565   0.486   2.805   4.711 -0.1204 -0.0306  0.4280
 6369SOL    HW130566   0.542   2.836   4.782  0.9090  0.2610 -0.5017
 6369SOL    HW230567   0.398   2.841   4.723  0.8580  1.8413  1.9627
 6370SOL     OW30568   1.651   2.956   0.780 -1.0469  0.4193  0.5019
 6370SOL    HW130569   1.562   2.920   0.780 -0.2730 -1.3903 -2.9572
 6370SOL    HW230570   1.693   2.933   0.698 -1.8454 -0.8786  0.4445
 6371SOL     OW30571   4.215   0.577   7.230 -0.4241  0.6992  0.7170
 6371SOL    HW130572   4.228   0.583   7.325  0.2634 -0.7144  0.7139
 6371SOL    HW230573   4.133   0.528   7.237 -0.5247  0.5822 -1.3125
 6372SOL     OW30574   1.326   0.027  16.591  0.9516 -0.4543  0.0156
 6372SOL    HW130575   1.242   0.041  16.634 -0.6556 -2.2860 -2.4895
 6372SOL    HW230576   1.352   0.118  16.580 -0.0774  0.0122  1.4556
 6373SOL     OW30577   3.021   3.097   2.534  0.0621 -0.1087 -0.2328
 6373SOL    HW130578   3.021   3.010   2.573  0.8209  0.9131  2.0236
 6373SOL    HW230579   2.934   3.121   2.566 -1.2607 -3.0072 -1.6823
 6374SOL     OW30580   2.047   2.579   5.952 -0.8374 -0.2114 -0.0566
 6374SOL    HW130581   2.002   2.566   6.036 -1.7190 -2.0637 -0.7871
 6374SOL    HW230582   2.125   2.630   5.972 -0.8463 -0.0614 -0.4077
 6375SOL     OW30583   2.929   1.570   8.061 -0.2621 -0.0063 -0.2352
 6375SOL    HW130584   2.849   1.608   8.023 -0.7285  0.2405  0.9982
 6375SOL    HW230585   2.992   1.616   8.005  0.3390  1.0516  1.3020
 6376SOL     OW30586   1.173   1.651  13.257 -0.5098  0.3712 -0.7870
 6376SOL    HW130587   1.100   1.675  13.201 -0.6986  1.0270 -0.2609
 6376SOL    HW230588   1.197   1.563  13.228  0.0280  0.1631  0.2607
 6377SOL     OW30589   4.623   1.267   3.371 -0.0830  0.0160  0.1989
 6377SOL    HW130590   4.708   1.298   3.342 -0.6224  1.8567  0.5763
 6377SOL    HW230591   4.561   1.303   3.308 -3.3318 -1.2307  2.6537
 6378SOL     OW30592   4.205   3.590  10.472  0.4039 -0.5260 -0.1528
 6378SOL    HW130593   4.293   3.570  10.438  0.8615  0.3757  0.5020
 6378SOL    HW230594   4.180   3.649  10.401  1.4561  0.0715 -0.0376
 6379SOL     OW30595   3.755   1.305   2.127  0.0964  0.9550 -0.1765
 6379SOL    HW130596   3.684   1.365   2.152 -0.6977  0.6721 -1.7754
 6379SOL    HW230597   3.795   1.342   2.049  1.7847  1.3725  0.8953
 6380SOL     OW30598   4.075   1.370  16.343  0.1466 -0.0269 -0.1779
 6380SOL    HW130599   4.112   1.314  16.275  0.3743 -0.1014  0.0086
 6380SOL    HW230600   4.016   1.301  16.374 -1.6371  1.2674 -0.6910
 6381SOL     OW30601   1.432   1.527   2.819 -0.0110  0.5441 -0.1044
 6381SOL    HW130602   1.383   1.609   2.828  0.7397  1.0253 -0.3912
 6381SOL    HW230603   1.492   1.534   2.893 -0.9123  0.6497  0.6133
 6382SOL     OW30604   1.253   3.737  10.346 -0.0284  0.3364  0.1279
 6382SOL    HW130605   1.284   3.723  10.256  0.9722 -0.3170  0.5728
 6382SOL    HW230606   1.200   3.658  10.355  0.7482 -0.2974 -0.8294
 6383SOL     OW30607   2.950   2.937   7.377  0.1531 -0.4580 -0.1013
 6383SOL    HW130608   2.928   2.891   7.296  2.0484  0.2231 -0.9943
 6383SOL    HW230609   2.916   2.877   7.444 -2.0326 -0.3933 -1.1738
 6384SOL     OW30610   3.698   1.012  12.347 -0.0834  0.4618  0.5145
 6384SOL    HW130611   3.628   1.004  12.412 -0.5450  4.9453  0.5617
 6384SOL    HW230612   3.758   0.940  12.367 -1.7007 -1.5031 -1.6595
 6385SOL     OW30613   2.193   3.931  10.172  0.4794  0.4914  0.2228
 6385SOL    HW130614   2.158   4.020  10.175  0.1754  0.3845 -0.1362
 6385SOL    HW230615   2.130   3.884  10.117  0.3443  0.3080  0.5370
 6386SOL     OW30616   4.611   0.748   2.526  0.1206  0.3986 -0.3868
 6386SOL    HW130617   4.659   0.675   2.488 -1.7786 -0.7261 -0.6428
 6386SOL    HW230618   4.610   0.716   2.617 -1.2846 -0.1329 -0.5892
 6387SOL     OW30619   0.207   1.036   2.422 -0.0155  0.2512 -0.3263
 6387SOL    HW130620   0.147   1.081   2.481 -0.6216 -2.0215  0.7968
 6387SOL    HW230621   0.192   1.064   2.332  1.4330  0.3525 -0.5382
 6388SOL     OW30622   1.403   0.306   3.679 -0.3682 -1.0510 -0.1428
 6388SOL    HW130623   1.490   0.297   3.642  0.5917 -0.1475  1.8724
 6388SOL    HW230624   1.430   0.302   3.771  0.4234  0.9529 -0.2749
 6389SOL     OW30625   3.016   3.382   8.593  0.0236  0.2424  0.1193
 6389SOL    HW130626   2.999   3.476   8.587 -2.5447 -0.0702  2.4228
 6389SOL    HW230627   3.102   3.387   8.633 -0.4670  1.3375  1.0442
 6390SOL     OW30628   0.188   3.100  15.174 -0.0861  0.0535 -0.7709
 6390SOL    HW130629   0.099   3.067  15.187  1.1334 -3.1133 -0.5011
 6390SOL    HW230630   0.228   3.024  15.132  1.4934  0.7919 -0.6294
 6391SOL     OW30631   4.693   1.043  13.553  0.2169  0.7070  0.0877
 6391SOL    HW130632   0.006   1.090  13.479  1.5046  0.6468  0.7207
 6391SOL    HW230633   4.638   1.109  13.596 -1.1438  1.4587 -2.8303
 6392SOL     OW30634   1.348   0.610   7.633 -0.3562  0.4380  0.1498
 6392SOL    HW130635   1.419   0.563   7.589 -0.0535  1.2458 -0.2176
 6392SOL    HW230636   1.366   0.577   7.721 -0.0779  0.5879  0.1466
 6393SOL     OW30637   1.830   2.281   5.970 -0.8877  0.5283  0.2685
 6393SOL    HW130638   1.908   2.255   6.019 -0.4074 -0.7378 -1.1488
 6393SOL    HW230639   1.780   2.317   6.043  0.2111  2.3259  0.1235
 6394SOL     OW30640   3.155   3.321   1.531 -0.3471  0.5448 -0.2685
 6394SOL    HW130641   3.101   3.254   1.574  2.2909 -1.5524 -0.2223
 6394SOL    HW230642   3.241   3.302   1.567 -0.9739 -0.2366  0.7972
 6395SOL     OW30643   2.400   1.412   9.920  0.0940  0.1992 -0.5798
 6395SOL    HW130644   2.443   1.355   9.856 -2.4157 -2.5741  0.2445
 6395SOL    HW230645   2.349   1.347   9.967 -0.3300  0.7160 -0.3173
 6396SOL     OW30646   1.490   2.654  12.596  0.0949 -0.1986  0.0996
 6396SOL    HW130647   1.527   2.741  12.581  2.6931 -1.4612 -0.8625
 6396SOL    HW230648   1.566   2.596  12.596 -0.0722 -0.4235  1.8694
 6397SOL     OW30649   4.442   3.382   3.611  0.3877 -1.0645  0.3182
 6397SOL    HW130650   4.432   3.449   3.678  0.0430 -1.0759  0.2762
 6397SOL    HW230651   4.535   3.378   3.587 -0.5338  1.4116 -3.5750
 6398SOL     OW30652   2.088   4.193  12.905  0.8231  0.0052 -0.3215
 6398SOL    HW130653   2.151   4.257  12.938 -1.4788  0.5822  2.9953
 6398SOL    HW230654   2.008   4.246  12.902 -0.3836 -1.8782 -0.7677
 6399SOL     OW30655   2.723   0.208   9.536  0.1363  0.0101  0.4244
 6399SOL    HW130656   2.643   0.254   9.513  1.1752  0.7476 -1.7378
 6399SOL    HW230657   2.790   0.273   9.514 -2.2397  2.4729  0.5242
 6400SOL     OW30658   2.362   1.527  17.532 -0.8225 -0.0867  0.3881
 6400SOL    HW130659   2.392   1.487  17.450 -1.1236  2.0440 -0.7438
 6400SOL    HW230660   2.431   1.510  17.596  2.0998  1.4959 -2.3023
 6401SOL     OW30661   1.189   3.100   5.443  0.3242 -0.0945 -0.2178
 6401SOL    HW130662   1.248   3.026   5.456  0.1545  0.2718  2.4372
 6401SOL    HW230663   1.251   3.170   5.423  1.4474 -0.7972  0.8311
 6402SOL     OW30664   2.134   1.893  11.224  0.0841  0.5104  0.3102
 6402SOL    HW130665   2.079   1.815  11.238 -1.4076  1.7349  1.2825
 6402SOL    HW230666   2.218   1.852  11.206  0.2890  0.8363  0.5208
 6403SOL     OW30667   0.052   3.434   8.903  0.1789  0.2599 -0.1059
 6403SOL    HW130668   0.059   3.529   8.915  1.5310  0.0891  0.4181
 6403SOL    HW230669   0.106   3.405   8.976  2.1953  2.1299 -0.8482
 6404SOL     OW30670   0.766   1.418   4.716  0.2589 -0.6317  0.4466
 6404SOL    HW130671   0.713   1.498   4.709  1.1276  0.0245  1.3456
 6404SOL    HW230672   0.788   1.416   4.809 -1.2436 -1.8279  0.7773
 6405SOL     OW30673   3.623   2.329   9.047 -0.0971  0.1230 -0.4478
 6405SOL    HW130674   3.615   2.234   9.038 -2.4058  0.1992  0.8948
 6405SOL    HW230675   3.649   2.338   9.138  1.6666 -2.4542 -0.6916
 6406SOL     OW30676   3.537   2.625  10.617 -0.8871 -0.3156 -0.3471
 6406SOL    HW130677   3.587   2.594  10.692  2.4427  1.7725 -1.7139
 6406SOL    HW230678   3.456   2.574  10.617 -1.6325  0.8012  4.0152
 6407SOL     OW30679   1.956   3.477   4.596 -0.4960 -0.2199  0.0881
 6407SOL    HW130680   1.896   3.541   4.558 -1.3121 -1.2971 -0.4484
 6407SOL    HW230681   1.936   3.405   4.536 -0.3807  0.2253 -0.4819
 6408SOL     OW30682   2.813   2.572   3.820 -0.1068 -0.1713  0.0903
 6408SOL    HW130683   2.870   2.638   3.782 -0.9745  0.0261 -0.8744
 6408SOL    HW230684   2.753   2.611   3.884 -0.6698  1.1202 -1.2227
 6409SOL     OW30685   0.122   4.157   4.095  0.0065  0.0735  0.8763
 6409SOL    HW130686   0.041   4.208   4.102 -0.3801 -0.6788  1.9252
 6409SOL    HW230687   0.088   4.085   4.149 -2.8101  0.0579 -0.9356
 6410SOL     OW30688   1.175   3.497   7.257  0.7471 -0.0604  0.1777
 6410SOL    HW130689   1.141   3.423   7.207  2.8347  0.2204 -1.6662
 6410SOL    HW230690   1.267   3.472   7.273  0.8918 -0.2279 -0.9234
 6411SOL     OW30691   1.937   0.728  17.611  0.0382 -0.5387  0.1459
 6411SOL    HW130692   1.913   0.687  17.694 -0.9152 -2.7508 -1.2256
 6411SOL    HW230693   1.984   0.651  17.577 -0.4458 -0.1832 -1.3258
 6412SOL     OW30694   0.494   0.764  17.389 -0.5726 -0.3527 -0.7529
 6412SOL    HW130695   0.548   0.818  17.446 -1.0021 -0.9460  0.2175
 6412SOL    HW230696   0.409   0.807  17.375 -1.0997 -1.4431 -0.9696
 6413SOL     OW30697   3.231   2.129   4.173  0.4647  0.5076 -0.4543
 6413SOL    HW130698   3.267   2.202   4.123  1.3502  0.6377  0.3655
 6413SOL    HW230699   3.173   2.179   4.230 -0.4606  0.7027 -1.5669
 6414SOL     OW30700   0.075   1.168   4.847  0.2253  0.2127  0.4496
 6414SOL    HW130701   0.106   1.083   4.815 -1.0034  0.6287 -1.8037
 6414SOL    HW230702   0.047   1.210   4.766 -0.0578 -2.4380 -0.8232
 6415SOL     OW30703   3.940   0.854  14.930 -0.2325  0.3592  0.1835
 6415SOL    HW130704   4.009   0.902  14.883  1.0405  0.8219  2.5026
 6415SOL    HW230705   4.005   0.809  14.985  0.8069  1.7194  0.0904
 6416SOL     OW30706   2.189   3.452   0.443  0.2070  0.2500  0.0340
 6416SOL    HW130707   2.162   3.505   0.368 -0.2174  0.9351  0.6700
 6416SOL    HW230708   2.235   3.389   0.388  0.0799  0.4381 -0.2900
 6417SOL     OW30709   2.893   2.442   1.905  0.1266  0.4362 -0.0121
 6417SOL    HW130710   2.986   2.456   1.923  0.7208 -1.9203 -1.2930
 6417SOL    HW230711   2.877   2.386   1.982 -1.4879  1.1579  0.1815
 6418SOL     OW30712   2.764   0.235   0.215 -0.5809 -0.0712 -0.1242
 6418SOL    HW130713   2.678   0.202   0.189 -0.1011  0.3617 -2.2350
 6418SOL    HW230714   2.792   0.273   0.131  2.1416 -1.6496  0.0663
 6419SOL     OW30715   3.539   0.318   8.111 -0.3885 -0.5160  0.4691
 6419SOL    HW130716   3.447   0.327   8.084 -0.8367 -0.4193  2.0325
 6419SOL    HW230717   3.571   0.407   8.098  0.3883 -0.7666  0.6873
 6420SOL     OW30718   0.588   0.149   4.116 -0.1461  0.2810  0.3607
 6420SOL    HW130719   0.585   0.061   4.152  2.7762 -0.6532 -1.7301
 6420SOL    HW230720   0.648   0.135   4.043 -2.3417  1.8042 -1.7025
 6421SOL     OW30721   4.431   3.950   5.560  0.3511 -0.0215 -0.0123
 6421SOL    HW130722   4.481   3.909   5.631 -0.8369 -1.8572 -0.2351
 6421SOL    HW230723   4.457   4.042   5.567  0.8390 -0.0607 -1.3734
 6422SOL     OW30724   4.265   0.392   0.190  0.3085 -0.2810  0.2342
 6422SOL    HW130725   4.313   0.456   0.138 -1.5297  2.2801  1.7180
 6422SOL    HW230726   4.340   0.341   0.222  1.7016  2.0867  0.7507
 6423SOL     OW30727   0.816   2.907   2.683  0.1553  0.4594  0.2366
 6423SOL    HW130728   0.777   2.900   2.595 -0.5632  1.3241  0.4914
 6423SOL    HW230729   0.837   2.815   2.698 -0.5843  0.2858  0.2018
 6424SOL     OW30730   3.456   2.233   2.627 -0.5871 -0.2408  0.6305
 6424SOL    HW130731   3.459   2.302   2.693  0.1373  0.6617 -0.3386
 6424SOL    HW230732   3.450   2.276   2.542  1.7853  1.0730  1.1334
 6425SOL     OW30733   1.967   3.808   0.966 -0.5185  0.2989 -0.2396
 6425SOL    HW130734   1.908   3.844   1.032  0.1172  1.0790 -0.1022
 6425SOL    HW230735   2.006   3.884   0.923  0.4084 -0.1363 -0.1738
 6426SOL     OW30736   4.559   4.470  13.046  0.5492  0.0839  0.0316
 6426SOL    HW130737   4.643   4.513  13.064 -0.1061  0.7833  1.4726
 6426SOL    HW230738   4.540   4.479  13.140 -0.8963 -0.1495 -0.2434
 6427SOL     OW30739   3.966   2.027   6.678 -0.6232 -0.5673  0.1739
 6427SOL    HW130740   4.033   1.959   6.667  0.0802 -0.1609  1.8196
 6427SOL    HW230741   3.960   2.064   6.590  0.3248 -0.4461  0.1536
 6428SOL     OW30742   1.570   1.537   4.533  0.3396 -0.4833  0.6591
 6428SOL    HW130743   1.477   1.518   4.521  0.6607 -1.2261 -0.6617
 6428SOL    HW230744   1.579   1.622   4.575  3.7759 -2.0716  3.1958
 6429SOL     OW30745   2.592   4.408   7.642 -0.1614 -0.2749 -0.4037
 6429SOL    HW130746   2.554   4.392   7.556  0.1020 -3.4572  0.0607
 6429SOL    HW230747   2.670   4.454   7.610 -0.7230  0.6640 -0.4167
 6430SOL     OW30748   3.261   2.252   7.270 -0.1627  0.9212 -0.7511
 6430SOL    HW130749   3.272   2.310   7.195  0.8007  0.8429 -0.6670
 6430SOL    HW230750   3.343   2.250   7.318 -0.7419 -1.0486  0.1670
 6431SOL     OW30751   1.684   1.978  15.578  0.0581 -0.5932 -0.3892
 6431SOL    HW130752   1.752   2.035  15.614  0.5056 -1.3057 -0.1140
 6431SOL    HW230753   1.733   1.918  15.522  0.8010  1.2220 -1.7003
 6432SOL     OW30754   1.301   1.744   2.363 -0.1468 -0.1772  0.7542
 6432SOL    HW130755   1.207   1.727   2.350  0.0738 -0.2152 -0.7912
 6432SOL    HW230756   1.337   1.656   2.366  0.9729  0.1844 -1.8263
 6433SOL     OW30757   1.832   4.622   8.551  0.5148 -0.3536  0.1898
 6433SOL    HW130758   1.879   4.593   8.473  0.3977  0.0112 -0.0147
 6433SOL    HW230759   1.816   4.538   8.595  3.1606 -0.7679  0.3466
 6434SOL     OW30760   3.466   1.970  10.308  0.2182 -0.3700  0.2981
 6434SOL    HW130761   3.411   1.913  10.362 -0.5944  1.1959  1.1287
 6434SOL    HW230762   3.476   2.044  10.367 -0.4542  0.8583 -1.1134
 6435SOL     OW30763   4.527   1.454   8.881  0.2461  0.3014 -0.2863
 6435SOL    HW130764   4.602   1.475   8.937 -0.2015 -0.4088  0.5769
 6435SOL    HW230765   4.483   1.539   8.887 -1.5737 -0.8074  2.6981
 6436SOL     OW30766   0.621   2.373   6.374  0.3942  0.2479  0.2593
 6436SOL    HW130767   0.535   2.352   6.411 -0.0901  2.4243  0.3830
 6436SOL    HW230768   0.681   2.334   6.438  1.5110 -0.1954 -1.0575
 6437SOL     OW30769   3.627   0.275   7.163  0.1959  0.4723  0.5714
 6437SOL    HW130770   3.700   0.216   7.145 -0.7856 -0.8350  0.8715
 6437SOL    HW230771   3.641   0.351   7.107 -1.9967 -0.3069 -1.0391
 6438SOL     OW30772   0.687   0.921   9.725  0.2491  0.1956 -0.3425
 6438SOL    HW130773   0.684   0.829   9.754 -0.6987  0.1551 -0.5635
 6438SOL    HW230774   0.764   0.948   9.775 -0.8491  1.1400  0.8283
 6439SOL     OW30775   1.959   1.321   4.368 -0.2021 -0.3622 -0.4722
 6439SOL    HW130776   1.924   1.241   4.327 -1.3901 -0.3988  0.5970
 6439SOL    HW230777   1.877   1.357   4.401  0.7211  0.2809  1.1275
 6440SOL     OW30778   3.036   4.199   5.462  0.0253 -0.4260 -0.0679
 6440SOL    HW130779   3.057   4.108   5.443 -2.2293 -0.9935  0.1937
 6440SOL    HW230780   3.045   4.205   5.557  0.2206 -0.8350 -0.0605
 6441SOL     OW30781   2.546   3.385   8.104 -0.1870 -0.4708  0.4335
 6441SOL    HW130782   2.500   3.465   8.080 -0.6540 -0.8898 -0.0745
 6441SOL    HW230783   2.594   3.413   8.182  1.9241 -2.4274 -0.1661
 6442SOL     OW30784   4.416   2.628   3.685  0.8753  0.0216 -0.2960
 6442SOL    HW130785   4.479   2.595   3.621 -1.2905 -1.8981 -1.4155
 6442SOL    HW230786   4.338   2.593   3.643  1.3237 -0.1388 -1.0059
 6443SOL     OW30787   4.377   4.452   3.263 -0.0744  0.5477  0.0430
 6443SOL    HW130788   4.317   4.447   3.337  1.2104  2.3873  1.2037
 6443SOL    HW230789   4.336   4.399   3.194  0.3110  1.5588 -0.9672
 6444SOL     OW30790   2.554   2.988   0.911 -0.7220 -0.3580 -0.3157
 6444SOL    HW130791   2.500   2.912   0.932 -1.5726 -0.6372 -3.4599
 6444SOL    HW230792   2.512   3.061   0.957  1.4318 -0.4063  1.7112
 6445SOL     OW30793   0.984   4.000  13.279 -0.4010  0.1218  0.4669
 6445SOL    HW130794   1.008   3.919  13.235 -3.4932 -1.0612  0.9946
 6445SOL    HW230795   1.042   3.998  13.355  1.0924  1.4146 -0.6246
 6446SOL     OW30796   1.337   0.416   6.595  0.6061 -0.0274  0.5587
 6446SOL    HW130797   1.258   0.362   6.585 -0.4136  1.5524  0.0519
 6446SOL    HW230798   1.336   0.448   6.505  2.4678 -2.6176 -0.3878
 6447SOL     OW30799   3.442   3.208   8.335 -0.0124 -0.1407 -0.4706
 6447SOL    HW130800   3.506   3.274   8.309  0.8581 -0.7355  0.1652
 6447SOL    HW230801   3.373   3.256   8.382  1.0206 -0.1864  1.0962
 6448SOL     OW30802   1.457   4.367   8.679 -0.0207 -0.2707 -0.0019
 6448SOL    HW130803   1.402   4.290   8.695  0.4455 -0.5157  0.4118
 6448SOL    HW230804   1.532   4.340   8.627 -0.6865 -0.3062 -0.9501
 6449SOL     OW30805   4.128   0.037   2.949 -0.1064 -0.4665 -0.6669
 6449SOL    HW130806   4.161   0.032   3.039 -2.6072  1.2849  0.3393
 6449SOL    HW230807   4.209   0.058   2.902  0.1966 -0.0300  0.0502
 6450SOL     OW30808   1.378   2.131   0.055  0.6703 -0.1762  0.2814
 6450SOL    HW130809   1.296   2.138   0.103  0.6996 -2.5163  0.6647
 6450SOL    HW230810   1.362   2.187  17.681 -0.7870 -0.9493  0.0255
 6451SOL     OW30811   2.077   4.055  11.246  0.5998  0.6837 -0.3003
 6451SOL    HW130812   2.118   4.100  11.320  1.0623  1.2864 -0.9249
 6451SOL    HW230813   2.137   4.082  11.176  0.7876  0.6191 -0.1636
 6452SOL     OW30814   0.813   3.046   2.129 -0.0150  0.0458 -0.7413
 6452SOL    HW130815   0.906   3.036   2.110 -0.2364 -1.7425 -0.8884
 6452SOL    HW230816   0.798   3.119   2.069  1.4026  0.7392 -0.2443
 6453SOL     OW30817   0.422   1.976   2.119 -0.1471 -0.1187 -0.2191
 6453SOL    HW130818   0.473   2.035   2.175 -2.0296  1.4684 -0.1660
 6453SOL    HW230819   0.356   2.040   2.092  0.0757 -0.0507 -0.5979
 6454SOL     OW30820   1.346   3.408   2.284 -0.0805  0.4385  0.1031
 6454SOL    HW130821   1.266   3.449   2.316 -0.9215  0.9789 -2.6901
 6454SOL    HW230822   1.375   3.474   2.220  0.7674  0.0605  0.0970
 6455SOL     OW30823   4.602   3.209   7.280  0.1724 -0.2668  0.3919
 6455SOL    HW130824   4.608   3.268   7.204  2.0863 -0.0717  0.7090
 6455SOL    HW230825   4.669   3.249   7.335  1.0626  0.4082 -1.1909
 6456SOL     OW30826   1.136   1.636   9.113  0.0171 -0.5726  0.1439
 6456SOL    HW130827   1.161   1.709   9.057 -0.7636 -0.9966 -0.7567
 6456SOL    HW230828   1.079   1.687   9.170  0.0602  1.4414 -1.6376
 6457SOL     OW30829   0.358   1.864   8.226 -0.1608 -0.1733  0.2007
 6457SOL    HW130830   0.319   1.948   8.250 -0.1863  0.8668 -3.4506
 6457SOL    HW230831   0.398   1.831   8.306 -0.3420 -0.8904 -0.0031
 6458SOL     OW30832   4.118   1.512   1.857 -0.5596 -0.0616  1.1369
 6458SOL    HW130833   4.173   1.439   1.827 -2.6551 -1.9650  1.9797
 6458SOL    HW230834   4.177   1.584   1.833 -0.5352 -0.4632 -0.0309
 6459SOL     OW30835   2.130   0.636  13.821  0.2792 -0.7567  0.5258
 6459SOL    HW130836   2.225   0.628  13.826  0.3674  1.1720  1.7093
 6459SOL    HW230837   2.107   0.548  13.852  0.8871 -1.3325 -0.6591
 6460SOL     OW30838   3.773   2.751  13.378  0.5370 -0.3229 -0.6805
 6460SOL    HW130839   3.711   2.816  13.410  0.5380 -0.6014 -0.1050
 6460SOL    HW230840   3.761   2.677  13.439 -1.4749  1.2641  0.8514
 6461SOL     OW30841   2.013   3.171  13.177 -0.2728 -0.2153 -0.8448
 6461SOL    HW130842   1.923   3.159  13.147 -0.2792  0.4239 -1.0779
 6461SOL    HW230843   2.020   3.265  13.162 -2.5837  0.3025  1.2557
 6462SOL     OW30844   2.159   1.909   9.943 -0.2203 -0.1654  0.2677
 6462SOL    HW130845   2.174   1.890  10.035 -0.3794  0.2157  0.3677
 6462SOL    HW230846   2.070   1.944   9.950  1.0250  3.1132 -0.3730
 6463SOL     OW30847   2.114   4.293   3.367  0.2619 -0.8358  0.2405
 6463SOL    HW130848   2.179   4.251   3.311  0.0534 -0.9490  0.0813
 6463SOL    HW230849   2.043   4.312   3.307 -0.2663  0.7860  1.3803
 6464SOL     OW30850   1.684   0.383   2.750  0.5675 -0.3016 -0.3106
 6464SOL    HW130851   1.625   0.308   2.759  1.3805 -1.1053 -1.6068
 6464SOL    HW230852   1.637   0.443   2.692 -1.0008  0.3103  1.5905
 6465SOL     OW30853   1.403   0.255   1.996 -0.5059 -0.2147 -0.0571
 6465SOL    HW130854   1.341   0.212   1.937 -0.3244  0.1048 -0.4758
 6465SOL    HW230855   1.395   0.212   2.081  1.2098 -0.6455 -0.1285
 6466SOL     OW30856   1.509   4.460   8.042 -0.0830  0.5897 -0.4305
 6466SOL    HW130857   1.450   4.386   8.028  0.6502 -0.2893  1.1643
 6466SOL    HW230858   1.473   4.505   8.118 -1.5347  1.1630 -1.4704
 6467SOL     OW30859   2.130   0.360   4.069 -0.3529 -0.7531 -0.6370
 6467SOL    HW130860   2.128   0.341   4.163 -0.1833 -0.0772 -0.4969
 6467SOL    HW230861   2.051   0.414   4.058 -0.9465 -1.0326  2.1366
 6468SOL     OW30862   1.307   2.999  16.651  0.1373 -0.3534  0.1750
 6468SOL    HW130863   1.263   2.995  16.735  2.2350 -2.9596  1.1413
 6468SOL    HW230864   1.361   3.078  16.653 -1.7913  1.0656 -2.5946
 6469SOL     OW30865   3.238   3.819  11.914  0.5946 -0.0041  0.4744
 6469SOL    HW130866   3.145   3.796  11.916  0.0468  1.9422 -2.1877
 6469SOL    HW230867   3.248   3.835  11.820 -0.7422 -1.2195  0.1313
 6470SOL     OW30868   4.277   3.607   9.039  0.2298  0.9911  0.0957
 6470SOL    HW130869   4.322   3.647   8.965  0.5132  0.6661  0.0886
 6470SOL    HW230870   4.348   3.546   9.061 -1.6959 -0.6534  1.7633
 6471SOL     OW30871   1.225   2.952   9.196  0.1175  0.6810  0.5893
 6471SOL    HW130872   1.291   2.991   9.254 -0.7932  0.5120  1.7434
 6471SOL    HW230873   1.165   2.919   9.263  0.7829 -0.0267  0.8401
 6472SOL     OW30874   0.486   0.898   2.807  0.3778  0.6571 -0.0680
 6472SOL    HW130875   0.464   0.886   2.714  2.8445 -0.8864 -0.4621
 6472SOL    HW230876   0.567   0.847   2.805 -0.8531 -1.3159  2.1566
 6473SOL     OW30877   4.291   0.863   7.109  0.4653 -0.4181 -0.3223
 6473SOL    HW130878   4.361   0.852   7.173 -1.1224 -2.4799  1.0285
 6473SOL    HW230879   4.252   0.776   7.115  0.5388 -0.3680  0.7499
 6474SOL     OW30880   1.221   4.702  14.649 -0.2288  0.2601  0.0798
 6474SOL    HW130881   1.276   0.051  14.673 -0.8198  1.6361 -2.7449
 6474SOL    HW230882   1.171   4.695  14.731 -0.2352  1.2266  0.1492
 6475SOL     OW30883   1.163   0.514  11.192 -0.5277 -0.0817  0.0486
 6475SOL    HW130884   1.143   0.507  11.285 -1.5544 -0.5510 -0.2084
 6475SOL    HW230885   1.222   0.589  11.191  0.3611 -0.7498  2.2809
 6476SOL     OW30886   3.202   1.627  13.613 -0.4904  0.9034 -0.2566
 6476SOL    HW130887   3.246   1.589  13.537 -0.1466 -1.2045  1.0174
 6476SOL    HW230888   3.229   1.563  13.679 -1.3069 -0.1304 -0.9330
 6477SOL     OW30889   2.160   1.137   9.049 -0.1657 -0.4677  0.4539
 6477SOL    HW130890   2.065   1.132   9.059 -0.1259 -0.3417  0.8892
 6477SOL    HW230891   2.170   1.053   9.004 -0.2805 -0.0631 -0.3208
 6478SOL     OW30892   2.107   3.425   6.476  0.1366 -0.3827  0.0965
 6478SOL    HW130893   2.049   3.432   6.552 -0.1995 -0.1774 -0.1819
 6478SOL    HW230894   2.187   3.396   6.520  0.4396  0.1267 -0.1075
 6479SOL     OW30895   0.281   1.188   0.616  0.1486  0.0960  0.0371
 6479SOL    HW130896   0.359   1.192   0.671 -0.2743 -1.5911  0.7711
 6479SOL    HW230897   0.308   1.133   0.543  1.9092  0.1671  0.6263
 6480SOL     OW30898   1.638   2.850  12.146  0.3139 -0.3351  0.8298
 6480SOL    HW130899   1.589   2.872  12.067  1.5267 -2.0126 -0.3850
 6480SOL    HW230900   1.570   2.827  12.210 -0.1609 -3.5957 -0.8709
 6481SOL     OW30901   0.442   2.134   7.577 -0.0540  0.0872  0.1322
 6481SOL    HW130902   0.510   2.092   7.628  1.1994  0.8769 -0.8812
 6481SOL    HW230903   0.401   2.060   7.533  0.7047 -1.1999  1.6344
 6482SOL     OW30904   1.551   2.177   7.707  0.1135  0.4871 -0.3673
 6482SOL    HW130905   1.564   2.272   7.704  0.9981  0.3544 -1.0380
 6482SOL    HW230906   1.600   2.152   7.785  0.2419  2.5706  0.2238
 6483SOL     OW30907   2.069   0.422  14.590 -0.5172 -0.3362  0.0637
 6483SOL    HW130908   2.012   0.497  14.573 -0.4503  0.3226  2.7561
 6483SOL    HW230909   2.042   0.363  14.520 -0.4000 -1.1351  0.6864
 6484SOL     OW30910   0.100   2.248  12.885  0.0298 -0.1552  0.0305
 6484SOL    HW130911   0.180   2.203  12.858 -0.8009 -0.0318 -2.6227
 6484SOL    HW230912   0.104   2.254  12.981  0.5037 -2.0604  0.1300
 6485SOL     OW30913   1.974   4.214   6.446 -0.0295 -0.0649  0.4482
 6485SOL    HW130914   2.048   4.269   6.418  0.6153  0.4695  3.1531
 6485SOL    HW230915   1.988   4.129   6.406 -0.5239 -0.0641  0.2780
 6486SOL     OW30916   4.362   3.975  13.613 -0.3960 -0.3097 -0.2349
 6486SOL    HW130917   4.326   4.055  13.652  0.5742  0.0099  0.0149
 6486SOL    HW230918   4.344   3.983  13.519  0.7668  0.2935 -0.4120
 6487SOL     OW30919   4.125   3.064   2.828  0.7768 -0.4495  0.0510
 6487SOL    HW130920   4.137   3.117   2.906 -0.8072  0.7170 -0.4818
 6487SOL    HW230921   4.102   2.979   2.864 -1.2177 -0.1313 -0.4182
 6488SOL     OW30922   1.697   2.509   5.028  0.7414  0.1195 -0.8103
 6488SOL    HW130923   1.747   2.458   4.965 -1.2195 -2.1921 -0.4869
 6488SOL    HW230924   1.666   2.583   4.976  2.7650  0.9333 -0.8692
 6489SOL     OW30925   0.654   1.906   1.811  0.2212 -0.3201  0.1466
 6489SOL    HW130926   0.701   1.837   1.764  1.6172  1.1441 -0.6050
 6489SOL    HW230927   0.725   1.964   1.840 -0.2448  0.2247  0.1928
 6490SOL     OW30928   3.318   0.349   8.891  0.3466 -0.5208  0.2811
 6490SOL    HW130929   3.229   0.338   8.856  0.7508  1.0882 -1.2127
 6490SOL    HW230930   3.339   0.260   8.919 -1.0762 -0.8342  0.3643
 6491SOL     OW30931   0.317   3.812  10.854  0.5995  0.6335  0.6296
 6491SOL    HW130932   0.407   3.836  10.873  1.3284 -1.6625  0.0278
 6491SOL    HW230933   0.305   3.836  10.762 -1.4126 -1.4460  0.3438
 6492SOL     OW30934   1.378   2.453   8.626 -0.0768  0.6302 -0.0294
 6492SOL    HW130935   1.401   2.539   8.591 -1.1019  0.5999 -0.7580
 6492SOL    HW230936   1.287   2.437   8.602  0.4870 -0.1517 -1.6181
 6493SOL     OW30937   3.973   2.654   8.773  0.3784  0.3381 -0.0569
 6493SOL    HW130938   3.923   2.592   8.826  2.2344 -0.9998  0.1340
 6493SOL    HW230939   3.905   2.720   8.764 -1.8056 -1.7063  1.8020
 6494SOL     OW30940   2.775   2.877   3.354 -0.6025 -0.2022 -0.0519
 6494SOL    HW130941   2.838   2.806   3.369  0.4447  0.4209 -1.5135
 6494SOL    HW230942   2.709   2.850   3.417 -2.4249  2.8351 -0.6710
 6495SOL     OW30943   2.274   3.779   3.159  0.2508 -0.8669  0.7865
 6495SOL    HW130944   2.226   3.732   3.090  0.5664  1.2592 -0.8916
 6495SOL    HW230945   2.365   3.770   3.133  0.2862  0.6196  0.4125
 6496SOL     OW30946   1.130   2.459   3.357  0.3512  0.0038 -0.2544
 6496SOL    HW130947   1.159   2.377   3.396  0.8223 -0.2538 -1.1542
 6496SOL    HW230948   1.059   2.424   3.302  0.6794 -1.4844  0.2872
 6497SOL     OW30949   3.531   1.650   6.567  0.5915 -0.4218  0.0262
 6497SOL    HW130950   3.534   1.733   6.520  2.5325 -1.8337 -2.2959
 6497SOL    HW230951   3.624   1.628   6.559  0.5256 -0.8581  0.4402
 6498SOL     OW30952   2.537   2.807   6.490  0.9255 -0.5291 -0.1230
 6498SOL    HW130953   2.582   2.862   6.554  2.0605 -1.2971 -0.2810
 6498SOL    HW230954   2.532   2.864   6.414  0.5950 -1.9107 -1.1374
 6499SOL     OW30955   0.227   0.762   2.435 -0.4071  0.0626  0.8381
 6499SOL    HW130956   0.218   0.857   2.447  0.7392 -0.0183  2.3768
 6499SOL    HW230957   0.217   0.752   2.341 -3.0403  0.4023  1.0769
 6500SOL     OW30958   3.868   3.131   9.969  0.2091  0.5650 -0.0319
 6500SOL    HW130959   3.938   3.196   9.976  1.0943 -0.3648 -0.1923
 6500SOL    HW230960   3.860   3.117   9.874  0.2790 -1.1017  0.2121
 6501SOL     OW30961   1.949   4.300  14.130  0.5752 -0.1737 -0.2985
 6501SOL    HW130962   1.974   4.310  14.038 -1.2963 -0.2185 -0.8215
 6501SOL    HW230963   1.978   4.210  14.145  0.9124  0.1790  1.1664
 6502SOL     OW30964   4.086   3.221   0.664  0.1667  0.2532  0.0347
 6502SOL    HW130965   4.181   3.208   0.662 -0.2860 -2.6011 -2.4329
 6502SOL    HW230966   4.079   3.315   0.647  2.5487  0.6038  0.8956
 6503SOL     OW30967   0.257   4.469   4.396 -0.0932 -0.2583  0.3259
 6503SOL    HW130968   0.254   4.395   4.336 -0.8625 -1.1653  1.4836
 6503SOL    HW230969   0.334   4.442   4.445 -1.0418 -1.2185  1.2861
 6504SOL     OW30970   2.043   0.500  17.544 -0.0536  0.0819 -0.4818
 6504SOL    HW130971   2.136   0.499  17.568  0.3265 -0.9599 -1.9247
 6504SOL    HW230972   2.023   0.409  17.520  0.8908  0.0520 -1.1765
 6505SOL     OW30973   2.861   0.879   8.335  0.5160 -0.0847  0.6021
 6505SOL    HW130974   2.871   0.956   8.392  0.4992 -1.1119  1.9748
 6505SOL    HW230975   2.902   0.897   8.250 -0.0566  0.5838  0.4671
 6506SOL     OW30976   4.265   3.549   3.196  0.3032  0.0021 -0.4458
 6506SOL    HW130977   4.285   3.595   3.277 -1.2707  1.7072 -1.0233
 6506SOL    HW230978   4.182   3.506   3.217  1.7030 -2.0216  1.0190
 6507SOL     OW30979   0.823   4.181   1.578 -0.0649  0.4101  0.3961
 6507SOL    HW130980   0.893   4.230   1.620  0.1425  2.6093 -2.5740
 6507SOL    HW230981   0.872   4.110   1.538 -1.4452 -0.3103 -0.0276
 6508SOL     OW30982   1.156   2.143   3.139 -0.1282  0.0885 -0.4913
 6508SOL    HW130983   1.099   2.192   3.080 -0.6161  0.1658  0.0386
 6508SOL    HW230984   1.125   2.181   3.222 -1.1200  0.9535 -1.2566
 6509SOL     OW30985   3.962   1.180   2.985 -0.3122  0.5346  0.7770
 6509SOL    HW130986   3.969   1.264   3.031  0.5598  0.1734  1.3176
 6509SOL    HW230987   3.971   1.116   3.056  0.9379  0.1749  0.3011
 6510SOL     OW30988   0.534   2.840   0.706  0.3314  0.7917 -0.1347
 6510SOL    HW130989   0.526   2.885   0.622 -1.9718  2.0297  0.7585
 6510SOL    HW230990   0.443   2.816   0.724  1.1149 -0.8515  1.6004
 6511SOL     OW30991   1.148   1.864   5.077 -0.1987 -0.3305 -0.1869
 6511SOL    HW130992   1.109   1.933   5.130 -2.6652 -0.9324 -1.1932
 6511SOL    HW230993   1.114   1.894   4.992  1.3181 -0.5635 -0.8818
 6512SOL     OW30994   0.356   0.264   0.106  0.3226 -0.1406  0.5851
 6512SOL    HW130995   0.429   0.254   0.046 -1.4774  0.7134 -1.7589
 6512SOL    HW230996   0.345   0.171   0.127 -0.1356  0.0999  1.4388
 6513SOL     OW30997   0.399   3.812  14.585  0.3789  0.0583  0.7939
 6513SOL    HW130998   0.376   3.899  14.618  1.6415  1.9659 -3.4072
 6513SOL    HW230999   0.462   3.844  14.521 -1.6093  2.2133 -0.1121
 6514SOL     OW31000   3.951   2.005   2.943  0.4324 -0.2011 -0.5188
 6514SOL    HW131001   3.881   2.069   2.950  1.2954  0.5325  1.3162
 6514SOL    HW231002   4.007   2.052   2.881  1.2473 -1.1942 -0.5372
 6515SOL     OW31003   2.401   1.546   1.458 -0.4377 -0.7874 -0.4594
 6515SOL    HW131004   2.436   1.632   1.483 -1.9729 -0.8856  2.1357
 6515SOL    HW231005   2.316   1.539   1.503 -0.4915  0.2151 -0.4096
 6516SOL     OW31006   0.790   3.384   2.509 -0.0163 -0.4770  0.0711
 6516SOL    HW131007   0.849   3.395   2.434 -0.5595  1.5498 -0.0592
 6516SOL    HW231008   0.751   3.471   2.499  1.1809  0.0016 -0.4111
 6517SOL     OW31009   3.575   0.407   6.595  0.1768  0.3703  0.3834
 6517SOL    HW131010   3.582   0.314   6.571  0.6594 -0.1328  2.4632
 6517SOL    HW231011   3.650   0.446   6.550 -0.4127  1.6001  0.4739
 6518SOL     OW31012   2.831   1.984   9.343 -0.7455  0.0557  0.3491
 6518SOL    HW131013   2.893   2.052   9.372  0.9953 -1.7706  0.8809
 6518SOL    HW231014   2.869   1.909   9.388 -0.0799 -0.1907 -0.6379
 6519SOL     OW31015   0.051   2.271   8.130 -0.0706  0.4950  0.3727
 6519SOL    HW131016   0.047   2.318   8.213  0.2789  0.6317  0.3117
 6519SOL    HW231017   4.690   2.288   8.091  0.4861  1.3124 -0.5088
 6520SOL     OW31018   2.654   3.520   3.572  0.0560  0.4761 -0.0423
 6520SOL    HW131019   2.713   3.566   3.512 -0.6923 -1.4788 -2.2795
 6520SOL    HW231020   2.703   3.510   3.653  1.7867 -1.8820 -1.3680
 6521SOL     OW31021   1.335   4.438  16.012 -0.9871  0.0441 -0.4107
 6521SOL    HW131022   1.320   4.407  16.102  0.1255  1.9036  0.4373
 6521SOL    HW231023   1.250   4.470  15.982 -0.3452  0.6075 -1.6371
 6522SOL     OW31024   0.679   1.328   6.689  0.2931  0.0647 -0.2725
 6522SOL    HW131025   0.731   1.372   6.756  1.1010  0.5250 -1.2028
 6522SOL    HW231026   0.642   1.401   6.640  2.5843  1.9582  0.8528
 6523SOL     OW31027   4.495   2.819  12.484 -0.2926 -0.0538  0.1475
 6523SOL    HW131028   4.409   2.778  12.478 -0.3716  0.2262 -0.6134
 6523SOL    HW231029   4.545   2.750  12.527  0.4065  0.2242 -0.2283
 6524SOL     OW31030   0.073   0.728   4.186 -0.2349 -0.0807  0.4551
 6524SOL    HW131031   4.719   0.674   4.186  1.4795 -2.5793  0.4852
 6524SOL    HW231032   0.135   0.661   4.157 -2.4962 -3.1759  2.8199
 6525SOL     OW31033   1.828   2.338   7.406  0.6637  0.0172  0.3264
 6525SOL    HW131034   1.917   2.303   7.396  0.5004 -0.1804 -0.4296
 6525SOL    HW231035   1.780   2.268   7.362 -2.1815  0.8928  2.0306
 6526SOL     OW31036   1.836   4.617  17.697 -0.4035  0.5005 -0.3207
 6526SOL    HW131037   1.753   4.654   0.026  0.4239  1.6759  0.5079
 6526SOL    HW231038   1.850   4.577   0.082  1.7668  0.5005 -0.6644
 6527SOL     OW31039   3.659   4.285  15.446  0.3857 -0.0580 -0.1580
 6527SOL    HW131040   3.626   4.295  15.357  0.8965 -1.9073 -0.5440
 6527SOL    HW231041   3.731   4.348  15.449  0.0197  0.3530  0.1196
 6528SOL     OW31042   2.650   1.337   6.896 -0.1651  0.2639 -0.2015
 6528SOL    HW131043   2.625   1.312   6.807 -0.8296 -1.1399  0.3795
 6528SOL    HW231044   2.676   1.248   6.921  0.5793  0.9813  1.5673
 6529SOL     OW31045   4.089   0.534   0.553 -0.7968 -0.6843 -0.2945
 6529SOL    HW131046   4.036   0.505   0.628 -1.7003 -1.3378 -1.1786
 6529SOL    HW231047   4.121   0.620   0.580 -1.6478  0.4131 -2.8538
 6530SOL     OW31048   0.716   0.487  17.051 -0.5060  0.4441 -0.6531
 6530SOL    HW131049   0.679   0.402  17.078  1.3731 -0.2674 -0.2898
 6530SOL    HW231050   0.684   0.545  17.121  2.4689 -1.4012  2.2278
 6531SOL     OW31051   3.193   3.113   5.227  0.9034 -0.1500  0.1815
 6531SOL    HW131052   3.186   3.179   5.158 -0.2587  1.8874  2.2322
 6531SOL    HW231053   3.168   3.164   5.305 -2.3610 -1.6295  0.0567
 6532SOL     OW31054   2.596   3.884  10.045 -0.1179  0.7671 -0.2724
 6532SOL    HW131055   2.517   3.863   9.995 -0.1743  2.5766 -0.9372
 6532SOL    HW231056   2.658   3.904   9.976 -1.2881  0.0587 -1.5332
 6533SOL     OW31057   1.090   4.557   6.567  0.3045 -0.1870  0.1157
 6533SOL    HW131058   1.123   4.616   6.500 -0.8576  1.2627  0.7951
 6533SOL    HW231059   1.112   4.470   6.534 -3.2082 -0.5960 -1.1443
 6534SOL     OW31060   1.486   1.192   1.942  0.0171  0.1902  0.3024
 6534SOL    HW131061   1.537   1.263   1.902 -1.7571  0.9782 -0.5612
 6534SOL    HW231062   1.396   1.225   1.946  0.1629  0.6152  0.0674
 6535SOL     OW31063   0.003   2.291  16.426 -0.3466 -0.1535 -0.0806
 6535SOL    HW131064   0.013   2.320  16.517 -0.0820 -0.9719  0.1495
 6535SOL    HW231065   4.688   2.205  16.436  1.9816 -1.0453  1.5563
 6536SOL     OW31066   1.890   1.453   1.794 -0.1942 -0.9576  0.1550
 6536SOL    HW131067   1.953   1.524   1.786 -2.6949  1.3982  1.2889
 6536SOL    HW231068   1.948   1.391   1.837  1.2365 -1.4694 -2.5112
 6537SOL     OW31069   1.264   3.499   6.551  0.1498 -0.0862  0.4402
 6537SOL    HW131070   1.334   3.484   6.614 -0.5866 -1.4410  0.9356
 6537SOL    HW231071   1.304   3.533   6.471 -3.1025  1.2115 -0.6333
 6538SOL     OW31072   0.447   1.005  10.824 -0.0212  0.3603 -0.5861
 6538SOL    HW131073   0.398   1.025  10.744 -1.5496 -0.1975  0.1987
 6538SOL    HW231074   0.533   0.987  10.787 -0.2244 -3.0174  0.5108
 6539SOL     OW31075   0.297   2.454   8.130 -0.0274 -0.0356 -0.2097
 6539SOL    HW131076   0.204   2.447   8.110 -0.3737  2.6712  0.4393
 6539SOL    HW231077   0.337   2.454   8.043 -0.9918 -1.3859 -0.6515
 6540SOL     OW31078   0.557   0.529   6.344 -0.4245  0.3592 -0.1873
 6540SOL    HW131079   0.649   0.501   6.341 -0.9655 -1.3892 -0.3245
 6540SOL    HW231080   0.549   0.560   6.434 -3.1654  0.1949 -0.3675
 6541SOL     OW31081   0.028   0.872   8.031  0.1738  0.2062 -0.1790
 6541SOL    HW131082   0.120   0.847   8.020  0.6959  2.3863 -0.7440
 6541SOL    HW231083   0.017   0.872   8.126  2.2680 -0.3465  0.0655
 6542SOL     OW31084   3.100   0.614  17.677  0.5029 -0.1347  0.0760
 6542SOL    HW131085   3.089   0.627   0.070  1.4124  2.9739 -0.2493
 6542SOL    HW231086   3.143   0.693  17.646 -0.8752  0.8772  0.7425
 6543SOL     OW31087   3.720   4.363  16.048 -0.1235 -0.4482  0.4105
 6543SOL    HW131088   3.626   4.368  16.066 -0.6079 -1.7633 -1.6650
 6543SOL    HW231089   3.757   4.420  16.115 -1.5720 -0.6434  1.3697
 6544SOL     OW31090   1.562   1.940   1.148 -0.0271 -0.3048 -0.0458
 6544SOL    HW131091   1.467   1.948   1.158 -0.2129 -1.6344 -0.8204
 6544SOL    HW231092   1.584   1.875   1.214  1.7349 -0.4564 -0.7798
 6545SOL     OW31093   3.795   4.336   5.980  0.0322  0.1588 -0.1257
 6545SOL    HW131094   3.725   4.272   5.968  1.8187 -2.0293  1.1522
 6545SOL    HW231095   3.816   4.352   5.887 -0.6555 -2.0764 -0.6440
 6546SOL     OW31096   3.741   2.208   2.867 -0.0645  0.3225 -0.0842
 6546SOL    HW131097   3.647   2.224   2.875 -0.3106 -0.1752 -1.9076
 6546SOL    HW231098   3.752   2.214   2.772 -3.0121 -1.1916 -0.5352
 6547SOL     OW31099   1.537   1.106   9.216 -0.0953 -0.1820 -0.1241
 6547SOL    HW131100   1.444   1.127   9.229  0.0578 -0.2095  0.9773
 6547SOL    HW231101   1.518   1.026   9.168  1.7778  0.0748 -1.2645
 6548SOL     OW31102   2.510   4.201  11.315  0.7072 -0.5489 -0.0861
 6548SOL    HW131103   2.480   4.180  11.226 -1.7870 -1.3905  0.9466
 6548SOL    HW231104   2.571   4.273  11.299  1.7536 -1.5991 -0.7726
 6549SOL     OW31105   1.224   4.189   5.396  0.2321 -0.0613  0.2382
 6549SOL    HW131106   1.214   4.254   5.327 -2.9838  0.1378  0.8792
 6549SOL    HW231107   1.136   4.154   5.415  1.3639 -1.0778  3.5210
 6550SOL     OW31108   2.698   3.720   0.118 -0.6304  0.5234 -0.3111
 6550SOL    HW131109   2.778   3.692   0.073 -1.6905 -1.0280 -1.2491
 6550SOL    HW231110   2.736   3.797   0.159  0.3356  0.6816 -1.4953
 6551SOL     OW31111   2.186   3.401   9.176  0.0702 -1.1038  0.2111
 6551SOL    HW131112   2.242   3.356   9.239  2.7544  2.3083  0.2691
 6551SOL    HW231113   2.101   3.399   9.219 -1.0204 -0.7059 -1.9328
 6552SOL     OW31114   2.858   2.397  13.120  0.1540  0.0020  0.0726
 6552SOL    HW131115   2.907   2.387  13.038 -0.1902  0.9548 -0.2440
 6552SOL    HW231116   2.911   2.345  13.179 -2.0634  0.2845  2.3212
 6553SOL     OW31117   1.093   1.347   4.962  0.3716 -0.4727 -0.3496
 6553SOL    HW131118   1.102   1.441   4.949 -0.4813 -0.0632  1.9404
 6553SOL    HW231119   1.185   1.327   4.981 -0.0374 -2.1099 -0.0616
 6554SOL     OW31120   0.798   1.994   5.376  0.5082 -0.1013  0.3783
 6554SOL    HW131121   0.744   1.965   5.303 -0.5006  1.5226  0.4637
 6554SOL    HW231122   0.781   1.934   5.448 -0.5504 -0.0597  0.1679
 6555SOL     OW31123   0.434   3.205   4.649 -0.4573 -0.3208  0.2527
 6555SOL    HW131124   0.381   3.141   4.600 -0.0303 -0.9483  0.6073
 6555SOL    HW231125   0.452   3.270   4.581 -0.8835 -0.4665 -0.0005
 6556SOL     OW31126   0.041   4.496   0.764  0.0753  0.2423 -0.2707
 6556SOL    HW131127   4.679   4.457   0.756  0.4698 -0.8320  0.6169
 6556SOL    HW231128   0.088   4.423   0.804 -2.2573 -1.5705 -0.8395
 6557SOL     OW31129   4.574   1.639   7.627  0.5041 -0.2707 -0.1161
 6557SOL    HW131130   4.529   1.715   7.664  1.2071 -0.4963  1.1991
 6557SOL    HW231131   4.664   1.659   7.654  0.0240  1.2150  0.3999
 6558SOL     OW31132   3.547   1.039   3.093  0.4281  0.1176 -0.0520
 6558SOL    HW131133   3.511   1.122   3.064 -2.8716 -1.3441 -0.1134
 6558SOL    HW231134   3.631   1.033   3.047 -0.6401  4.0145 -2.4567
 6559SOL     OW31135   1.581   3.239   5.041 -0.2488 -0.2434 -0.4119
 6559SOL    HW131136   1.521   3.197   5.103  1.1750 -1.2404  0.3044
 6559SOL    HW231137   1.648   3.280   5.095 -0.4215 -0.2832 -0.1669
 6560SOL     OW31138   2.239   4.478   6.043 -0.1510  0.1642  0.7408
 6560SOL    HW131139   2.320   4.450   6.002 -1.0196  0.9590 -1.5269
 6560SOL    HW231140   2.190   4.397   6.031  3.7126 -1.8994 -0.7565
 6561SOL     OW31141   0.671   0.078  11.507  0.4673 -0.1849 -0.1730
 6561SOL    HW131142   0.584   0.115  11.499  0.1275 -0.5670  1.8407
 6561SOL    HW231143   0.726   0.126  11.445  0.4160  0.1088  0.0128
 6562SOL     OW31144   3.060   4.470   5.670  0.7496 -0.3014  0.1031
 6562SOL    HW131145   3.045   4.490   5.762  1.6048 -1.6441  0.5491
 6562SOL    HW231146   3.005   4.533   5.625 -0.4838 -1.6979 -0.3356
 6563SOL     OW31147   1.384   1.961   3.683  0.3488 -0.2843 -0.2881
 6563SOL    HW131148   1.350   2.020   3.750  3.2081  1.6315 -0.5337
 6563SOL    HW231149   1.469   1.940   3.721  0.4925 -0.0260 -0.4677
 6564SOL     OW31150   4.499   2.358   5.998 -0.2077 -0.5655 -0.1251
 6564SOL    HW131151   4.550   2.350   6.079 -1.7363 -2.4581  0.6430
 6564SOL    HW231152   4.566   2.316   5.944  0.2605  0.1824 -0.1310
 6565SOL     OW31153   1.596   1.273   8.985  0.3508 -0.3125  0.3838
 6565SOL    HW131154   1.575   1.289   9.077 -0.3442 -1.0536  0.3580
 6565SOL    HW231155   1.630   1.359   8.960 -0.9813 -0.4320 -1.8808
 6566SOL     OW31156   2.512   1.438  14.254  0.3477  0.5915 -0.2036
 6566SOL    HW131157   2.462   1.364  14.219  1.4891 -0.7988  1.1195
 6566SOL    HW231158   2.456   1.443  14.331  3.9797  0.7054  2.4199
 6567SOL     OW31159   4.236   0.768   2.581 -0.4958  0.9010 -0.1269
 6567SOL    HW131160   4.241   0.807   2.494 -1.6564 -0.8355 -0.9610
 6567SOL    HW231161   4.225   0.676   2.558  0.4503  0.8721 -0.4700
 6568SOL     OW31162   4.325   4.535   6.265 -0.0040  0.1164 -0.4982
 6568SOL    HW131163   4.268   4.603   6.230  0.2679 -0.2279 -1.6105
 6568SOL    HW231164   4.364   4.586   6.336 -2.8689  0.1087  1.0972
 6569SOL     OW31165   3.872   0.864   0.976 -0.4179 -0.0714  0.4646
 6569SOL    HW131166   3.829   0.901   0.899 -1.9531 -1.1597  0.8076
 6569SOL    HW231167   3.799   0.811   1.007 -1.1175  0.3230 -0.5136
 6570SOL     OW31168   2.420   0.029   8.435 -0.1920 -0.3238 -0.2276
 6570SOL    HW131169   2.405   4.664   8.407  1.4131 -2.1233  4.7590
 6570SOL    HW231170   2.513   0.023   8.457 -0.1086  1.8761  0.0143
 6571SOL     OW31171   0.616   3.128  11.474 -0.5393  0.5026 -0.2137
 6571SOL    HW131172   0.592   3.154  11.563 -0.7768 -0.3172 -0.0478
 6571SOL    HW231173   0.549   3.171  11.421 -1.4720 -1.2574 -0.4382
 6572SOL     OW31174   3.784   1.434   5.183  0.0948  0.0790 -0.2832
 6572SOL    HW131175   3.727   1.357   5.192  0.9566 -0.3657  1.3798
 6572SOL    HW231176   3.721   1.499   5.151 -0.7167 -0.6158 -0.0952
 6573SOL     OW31177   4.678   1.033   9.446  0.5938  0.2835  0.0236
 6573SOL    HW131178   4.593   1.020   9.405  1.0596 -2.1186 -0.1558
 6573SOL    HW231179   4.709   1.105   9.392  1.0288 -0.1932 -0.3616
 6574SOL     OW31180   3.082   2.233  11.337  0.7412  0.3610 -0.5289
 6574SOL    HW131181   3.123   2.173  11.274 -0.2272 -0.9737  0.1307
 6574SOL    HW231182   2.992   2.233  11.306  0.3476  2.6528  0.6541
 6575SOL     OW31183   2.459   2.041   9.217 -0.3510  0.3449  0.0068
 6575SOL    HW131184   2.460   2.004   9.305  0.7500 -0.1642 -0.2291
 6575SOL    HW231185   2.402   1.976   9.174 -0.1305  0.4039 -0.3697
 6576SOL     OW31186   4.567   3.393   1.705 -0.1147 -0.2439  0.2662
 6576SOL    HW131187   4.540   3.356   1.620 -0.0288  1.7262 -0.6084
 6576SOL    HW231188   4.513   3.334   1.758 -0.0603 -0.5794 -0.0484
 6577SOL     OW31189   4.680   2.666  12.637  0.2329  0.2770  0.6287
 6577SOL    HW131190   4.653   2.594  12.694 -1.4703  3.4756  3.8507
 6577SOL    HW231191   0.048   2.671  12.657 -0.3249  3.3946  2.2875
 6578SOL     OW31192   2.457   1.363  13.201  0.2641 -0.3912 -0.0915
 6578SOL    HW131193   2.420   1.361  13.290  0.6708  1.7426  0.1180
 6578SOL    HW231194   2.412   1.435  13.158  0.1052  0.7383  1.9722
 6579SOL     OW31195   2.243   2.840   6.744 -0.5178 -0.0435  1.0846
 6579SOL    HW131196   2.285   2.767   6.790 -1.3650 -1.2523 -0.0346
 6579SOL    HW231197   2.183   2.792   6.686 -0.6665 -0.9929  2.0217
 6580SOL     OW31198   3.826   2.071   9.701 -0.1497 -0.7084  0.1679
 6580SOL    HW131199   3.755   2.032   9.752  0.4743  0.6977  2.0866
 6580SOL    HW231200   3.898   2.038   9.754  1.0365  0.1666 -0.8878
 6581SOL     OW31201   3.458   4.579   3.172 -0.2423 -0.0019  0.1106
 6581SOL    HW131202   3.531   4.608   3.117  0.4407  1.2732  1.7108
 6581SOL    HW231203   3.388   4.576   3.107  0.7628 -0.9168 -0.9293
 6582SOL     OW31204   4.587   2.948   8.516 -0.0028 -0.3129  0.1429
 6582SOL    HW131205   4.639   2.901   8.582 -0.6693 -0.4200  0.6018
 6582SOL    HW231206   4.615   2.908   8.434  0.6655 -0.9539  0.6744
 6583SOL     OW31207   0.875   1.538   2.111  0.6314  0.1860  0.3229
 6583SOL    HW131208   0.887   1.622   2.156  0.1226 -0.0420  0.8763
 6583SOL    HW231209   0.796   1.502   2.151  0.3513  0.4335 -0.0034
 6584SOL     OW31210   1.385   1.271   5.582 -0.0359 -0.6742  0.3460
 6584SOL    HW131211   1.473   1.237   5.564 -0.6961 -1.3418 -1.6824
 6584SOL    HW231212   1.376   1.346   5.523 -1.1630 -0.0609  1.3178
 6585SOL     OW31213   2.810   4.495  12.212 -0.3829 -0.8455 -0.5708
 6585SOL    HW131214   2.717   4.514  12.195 -0.5717 -1.5826 -0.3495
 6585SOL    HW231215   2.825   4.468  12.302 -0.3792 -0.1555 -0.3687
 6586SOL     OW31216   2.943   0.512   5.912 -0.5948 -0.2357 -0.0841
 6586SOL    HW131217   2.872   0.576   5.925 -0.3275  0.2522 -0.9785
 6586SOL    HW231218   2.890   0.433   5.906  0.0223 -0.5322 -1.5556
 6587SOL     OW31219   1.032   2.159   7.266  0.0289 -0.5631 -0.6313
 6587SOL    HW131220   0.981   2.134   7.189 -1.2006  1.0909 -0.3697
 6587SOL    HW231221   0.988   2.241   7.292 -0.9590 -1.5758  0.9203
 6588SOL     OW31222   0.073   2.126   7.470 -0.5474  0.3854 -0.0540
 6588SOL    HW131223   0.041   2.066   7.538 -1.6128  1.6375  0.5375
 6588SOL    HW231224   0.149   2.077   7.438 -0.5573  0.5576 -0.3453
 6589SOL     OW31225   2.716   0.631   4.733 -0.0283 -0.1359 -0.1891
 6589SOL    HW131226   2.642   0.573   4.714 -1.1528  0.4947  2.3449
 6589SOL    HW231227   2.781   0.561   4.733  0.7858  0.6355 -1.6367
 6590SOL     OW31228   3.681   3.884   5.013  0.3511  0.0995  0.3720
 6590SOL    HW131229   3.720   3.848   4.933  0.1250 -1.3635  0.9173
 6590SOL    HW231230   3.603   3.929   4.980  0.3779 -0.0090  0.1542
 6591SOL     OW31231   0.111   2.648  14.524 -0.3417 -0.3306  0.0306
 6591SOL    HW131232   0.076   2.566  14.558  0.4200 -0.9180 -0.6029
 6591SOL    HW231233   0.189   2.611  14.483 -1.7263 -0.6142 -2.3807
 6592SOL     OW31234   1.527   1.909   3.174 -0.1706  0.4677  0.2634
 6592SOL    HW131235   1.526   1.953   3.259 -2.0645 -1.1701  1.0813
 6592SOL    HW231236   1.560   1.828   3.211 -4.8647 -0.8788  1.4711
 6593SOL     OW31237   1.457   2.549  13.169  0.3436  0.4612  0.0241
 6593SOL    HW131238   1.540   2.522  13.207  0.1375  0.8453  0.7336
 6593SOL    HW231239   1.432   2.467  13.126 -0.7454  0.7451  0.1243
 6594SOL     OW31240   1.416   0.523  10.536  0.4111  0.6638  0.0369
 6594SOL    HW131241   1.423   0.554  10.446  0.2620 -2.1101 -0.9179
 6594SOL    HW231242   1.327   0.489  10.541  0.3134  1.0437  0.8487
 6595SOL     OW31243   2.477   0.783   8.249  0.3742 -0.0481 -0.0921
 6595SOL    HW131244   2.548   0.749   8.195 -0.4832 -0.8438 -0.7178
 6595SOL    HW231245   2.466   0.716   8.316 -2.6938  0.9294  0.3629
 6596SOL     OW31246   4.628   0.363   6.978  0.1669 -0.3486  0.2413
 6596SOL    HW131247   4.565   0.376   6.907 -0.4967  3.1459  1.4410
 6596SOL    HW231248   4.600   0.420   7.050  0.6165 -0.8742  0.8306
 6597SOL     OW31249   4.107   2.484   6.046 -0.9309 -0.4889 -0.2676
 6597SOL    HW131250   4.052   2.496   5.968 -0.6528 -0.6375 -0.4836
 6597SOL    HW231251   4.181   2.539   6.021 -0.2470 -0.4634  1.8369
 6598SOL     OW31252   0.865   4.243  13.401  0.0133  0.6613  0.0536
 6598SOL    HW131253   0.909   4.177  13.348  1.9346  3.1037 -1.3649
 6598SOL    HW231254   0.931   4.306  13.429  0.1429  0.8819 -0.7590
 6599SOL     OW31255   1.113   4.332   4.593 -0.3993  0.2551 -0.3659
 6599SOL    HW131256   1.166   4.341   4.513  2.6734  1.4881  1.8105
 6599SOL    HW231257   1.149   4.389   4.661  2.8379 -2.5118  0.2518
 6600SOL     OW31258   1.992   3.836   5.109  0.0959  0.1922  0.4914
 6600SOL    HW131259   1.958   3.909   5.161  0.5677  0.7197  0.0661
 6600SOL    HW231260   1.973   3.861   5.019  0.8163 -0.6397  0.1129
 6601SOL     OW31261   3.231   3.637  11.600 -0.9836  0.0040 -0.1879
 6601SOL    HW131262   3.158   3.698  11.605 -0.7038  0.4596 -1.4741
 6601SOL    HW231263   3.182   3.557  11.621 -1.0240 -0.0230 -0.3826
 6602SOL     OW31264   4.207   2.257   9.585  0.8449 -0.0313  0.5898
 6602SOL    HW131265   4.299   2.285   9.591  0.3127  1.8369  0.1344
 6602SOL    HW231266   4.200   2.174   9.632  0.1248  0.2909  1.0498
 6603SOL     OW31267   0.317   3.562  13.804 -0.0965  0.7191 -0.0282
 6603SOL    HW131268   0.364   3.643  13.819  1.9198 -0.0393 -2.3960
 6603SOL    HW231269   0.339   3.543  13.713 -1.1343  0.3413 -0.2106
 6604SOL     OW31270   4.429   3.594   6.092  0.1131 -0.0815  0.2512
 6604SOL    HW131271   4.386   3.553   6.018  0.3416 -0.4879  0.3446
 6604SOL    HW231272   4.523   3.593   6.071 -0.0225 -2.2536 -0.1597
 6605SOL     OW31273   3.653   0.734  17.522  0.6666 -0.0963 -0.5451
 6605SOL    HW131274   3.592   0.672  17.482  1.1153 -1.5936  1.0663
 6605SOL    HW231275   3.695   0.770  17.444  0.9886 -0.6674 -0.6429
 6606SOL     OW31276   0.194   0.617   6.492  0.9217 -0.4532 -0.1065
 6606SOL    HW131277   0.103   0.601   6.516  1.6045 -1.3464  1.8595
 6606SOL    HW231278   0.192   0.581   6.404 -1.4676 -1.3438  0.2924
 6607SOL     OW31279   4.219   0.337  16.760  0.4785  0.3867 -0.3286
 6607SOL    HW131280   4.144   0.395  16.744  0.1694  0.0546 -0.0908
 6607SOL    HW231281   4.291   0.399  16.751  1.1647 -0.2261  0.9503
 6608SOL     OW31282   2.801   3.583  11.752  0.4195  0.1684  0.0920
 6608SOL    HW131283   2.843   3.595  11.837 -0.0634  3.1892 -0.0930
 6608SOL    HW231284   2.717   3.554  11.786  0.7132 -2.3016 -1.3282
 6609SOL     OW31285   4.267   0.554   4.176  0.5619 -0.6279  0.2946
 6609SOL    HW131286   4.268   0.459   4.181  2.0867 -0.6655 -0.8697
 6609SOL    HW231287   4.239   0.580   4.264 -0.9385 -2.0845  0.2388
 6610SOL     OW31288   1.034   1.745   2.282  0.0584 -0.2402 -0.2995
 6610SOL    HW131289   0.983   1.818   2.247  0.4677 -0.3873 -1.2175
 6610SOL    HW231290   0.986   1.723   2.362  0.4691  2.7026  0.7500
 6611SOL     OW31291   0.795   4.433   3.294  0.1369 -0.1578 -0.4336
 6611SOL    HW131292   0.782   4.382   3.374  0.5059  0.0352 -0.2525
 6611SOL    HW231293   0.888   4.453   3.307 -0.4230  1.6592  0.7880
 6612SOL     OW31294   0.092   0.291   1.374 -0.3795 -0.5028  0.3480
 6612SOL    HW131295   0.003   0.285   1.340  0.4143 -0.1059 -1.8074
 6612SOL    HW231296   0.143   0.255   1.301 -0.6552 -2.8379  1.2972
 6613SOL     OW31297   4.522   2.472  11.704 -0.4301  0.2109 -0.3642
 6613SOL    HW131298   4.538   2.544  11.766 -0.4677  0.0075 -0.1155
 6613SOL    HW231299   4.596   2.479  11.643 -0.8349 -0.2563 -0.9035
 6614SOL     OW31300   2.678   1.590   5.123  0.3366 -0.2277  0.1910
 6614SOL    HW131301   2.757   1.605   5.176  0.9235 -1.5702 -0.3231
 6614SOL    HW231302   2.616   1.642   5.175 -0.9642  0.1295 -1.7160
 6615SOL     OW31303   1.027   3.566   3.577  0.1312 -0.1771  0.3990
 6615SOL    HW131304   0.989   3.532   3.659  0.4070  0.3539  0.7469
 6615SOL    HW231305   0.945   3.601   3.542  2.6033  3.1396 -2.1168
 6616SOL     OW31306   1.968   2.586   9.824 -0.2067  0.1967  0.1140
 6616SOL    HW131307   1.957   2.680   9.835 -3.9248  0.0445 -2.6006
 6616SOL    HW231308   1.930   2.553   9.906 -0.8129  1.1297  0.2015
 6617SOL     OW31309   4.088   0.953   4.075 -0.1981 -0.2714 -0.1941
 6617SOL    HW131310   4.162   0.894   4.070  1.1117  1.5019 -2.0224
 6617SOL    HW231311   4.124   1.024   4.021 -0.6635  1.8297  2.2928
 6618SOL     OW31312   4.544   4.440  10.140  0.5181  0.0562 -0.0580
 6618SOL    HW131313   4.621   4.415  10.192  2.1609  3.5600 -0.8381
 6618SOL    HW231314   4.524   4.357  10.098 -0.0819  0.9046 -1.4340
 6619SOL     OW31315   1.236   0.522   3.723  0.3806  0.1322  0.5300
 6619SOL    HW131316   1.146   0.490   3.722  1.0097 -1.5570 -1.8022
 6619SOL    HW231317   1.288   0.452   3.684 -0.6378  1.9065 -4.0249
 6620SOL     OW31318   1.592   1.093   5.537  0.1636 -0.0325 -0.1038
 6620SOL    HW131319   1.631   1.009   5.563 -2.3857 -0.6902  1.5707
 6620SOL    HW231320   1.593   1.088   5.442  0.8273  0.8180 -0.1466
 6621SOL     OW31321   3.199   1.740  17.403  0.0915  0.6247  0.1872
 6621SOL    HW131322   3.232   1.671  17.346 -1.3745 -0.9522  1.2515
 6621SOL    HW231323   3.132   1.782  17.350 -1.7423 -0.3284  1.7269
 6622SOL     OW31324   0.847   3.112   0.646  0.1533  0.8272  0.0412
 6622SOL    HW131325   0.824   3.074   0.561 -3.0853  0.1030  1.2360
 6622SOL    HW231326   0.800   3.047   0.699  2.2700  2.0135  3.4166
 6623SOL     OW31327   4.585   0.802  16.950  0.3514 -0.0310  0.3129
 6623SOL    HW131328   4.616   0.729  16.898 -3.4450 -2.3824  1.3139
 6623SOL    HW231329   4.495   0.770  16.964  0.0967  1.3365  1.8831
 6624SOL     OW31330   1.905   1.517   5.240 -0.2214 -0.3321 -0.2056
 6624SOL    HW131331   1.973   1.482   5.184 -0.7679 -1.1127 -0.3847
 6624SOL    HW231332   1.853   1.576   5.185  2.6689  0.5856 -1.9456
 6625SOL     OW31333   1.670   3.950   5.674  0.0061 -0.1778 -0.4839
 6625SOL    HW131334   1.723   4.028   5.658  0.7014  0.1328  3.2701
 6625SOL    HW231335   1.600   3.987   5.728 -0.0838  0.4439 -1.0290
 6626SOL     OW31336   0.855   2.564  16.198  0.4310 -0.1079 -0.3182
 6626SOL    HW131337   0.936   2.611  16.177  1.2366 -1.0961  0.5808
 6626SOL    HW231338   0.880   2.481  16.239 -2.1844 -0.7223  0.0216
 6627SOL     OW31339   1.311   4.220   8.155 -0.0714 -0.0898  0.3210
 6627SOL    HW131340   1.332   4.241   8.246  0.7677 -2.0962  0.5750
 6627SOL    HW231341   1.306   4.125   8.156 -1.1283 -0.0383  0.4696
 6628SOL     OW31342   1.043   3.101   8.608  0.0195 -0.6923  0.0023
 6628SOL    HW131343   1.055   3.189   8.573 -1.0075 -0.5041  0.1214
 6628SOL    HW231344   0.992   3.073   8.532 -1.8857  3.0791 -0.1177
 6629SOL     OW31345   0.848   4.671   2.689  0.2265  0.6728  0.1166
 6629SOL    HW131346   0.875   0.037   2.675 -2.7287  1.4198 -0.7081
 6629SOL    HW231347   0.779   4.679   2.756 -0.1303  2.4131 -0.4685
 6630SOL     OW31348   4.715   2.498   4.127 -0.0123  0.9762  0.2364
 6630SOL    HW131349   0.049   2.486   4.202  2.0955 -0.5442 -1.6472
 6630SOL    HW231350   4.644   2.542   4.174 -2.6909 -0.3651 -2.6268
 6631SOL     OW31351   2.709   1.021   7.811 -0.7690  0.1379 -0.4355
 6631SOL    HW131352   2.616   1.046   7.818 -0.9846 -1.4918  2.6623
 6631SOL    HW231353   2.726   0.984   7.898 -0.4944 -0.5583 -0.7831
 6632SOL     OW31354   1.151   1.505   3.485  0.2540 -0.4512 -0.7570
 6632SOL    HW131355   1.070   1.455   3.473 -0.3005  0.1862  0.3263
 6632SOL    HW231356   1.116   1.570   3.546 -0.5234 -1.4261 -0.1546
 6633SOL     OW31357   3.368   2.771   0.831  0.8106  0.2054  0.3931
 6633SOL    HW131358   3.323   2.696   0.870  1.3570  2.0661  4.5766
 6633SOL    HW231359   3.462   2.762   0.845  1.0858 -0.1653 -1.6307
 6634SOL     OW31360   4.476   3.255   6.852  0.4441 -0.0136  0.1980
 6634SOL    HW131361   4.553   3.213   6.891  0.0190 -0.9150  0.0868
 6634SOL    HW231362   4.508   3.343   6.833  2.4630 -0.5081  1.2455
 6635SOL     OW31363   0.357   1.771   8.732 -0.2342 -0.1753  0.0518
 6635SOL    HW131364   0.360   1.812   8.645 -0.6581 -2.6155 -1.1112
 6635SOL    HW231365   0.358   1.850   8.786  1.8340  1.6796 -2.6282
 6636SOL     OW31366   4.182   3.231   6.265  0.4660  0.0257  0.2051
 6636SOL    HW131367   4.115   3.183   6.313  0.4685 -0.1162  0.0670
 6636SOL    HW231368   4.190   3.306   6.324 -1.7783 -1.1245  1.9559
 6637SOL     OW31369   4.123   3.221   3.048 -0.2895  0.2453 -0.1478
 6637SOL    HW131370   4.093   3.236   3.137 -0.9407 -0.4500 -0.2442
 6637SOL    HW231371   4.168   3.304   3.034  2.4264 -1.4594 -1.4940
 6638SOL     OW31372   0.497   0.752  12.855 -0.1642 -0.0851  0.2269
 6638SOL    HW131373   0.432   0.801  12.904 -0.1371  0.0765  0.0999
 6638SOL    HW231374   0.461   0.749  12.766  1.2744  1.6791 -0.3998
 6639SOL     OW31375   1.847   0.963  13.215 -0.3494 -0.5138 -0.3599
 6639SOL    HW131376   1.934   0.939  13.247  0.1880  2.8429  0.6690
 6639SOL    HW231377   1.851   1.057  13.198 -1.4541 -0.2845  0.6311
 6640SOL     OW31378   0.361   2.725   8.134  0.3454  0.2219 -0.0020
 6640SOL    HW131379   0.362   2.634   8.161  2.8358  0.3407  0.3492
 6640SOL    HW231380   0.451   2.743   8.108  0.3089 -1.1510 -1.0504
 6641SOL     OW31381   1.899   0.529   6.663  0.1101  0.0808 -0.4664
 6641SOL    HW131382   1.937   0.455   6.710 -1.0768 -0.7179 -0.7666
 6641SOL    HW231383   1.821   0.539   6.716  1.7767  1.3254  1.7481
 6642SOL     OW31384   3.948   0.753   3.525 -0.0787  0.2983 -0.2806
 6642SOL    HW131385   3.909   0.760   3.438 -0.8561 -1.7064 -0.1176
 6642SOL    HW231386   4.020   0.692   3.510  0.3080  0.1491  2.2814
 6643SOL     OW31387   0.664   1.427   6.094  0.9133  0.1401 -0.2921
 6643SOL    HW131388   0.575   1.410   6.064  0.2174 -1.0517  2.4130
 6643SOL    HW231389   0.707   1.378   6.025 -0.0271 -0.9047 -0.1375
 6644SOL     OW31390   4.323   3.657   6.332  0.3411  0.8576  0.2317
 6644SOL    HW131391   4.409   3.676   6.370  0.8211 -1.1303  0.1687
 6644SOL    HW231392   4.356   3.634   6.245  1.3558 -0.0221  0.8508
 6645SOL     OW31393   3.264   2.843   8.377 -0.3002 -0.1202  0.0251
 6645SOL    HW131394   3.183   2.797   8.355  0.2700 -0.8721 -0.5107
 6645SOL    HW231395   3.245   2.893   8.457  0.8432  3.1598 -1.7812
 6646SOL     OW31396   4.364   1.048  13.949  0.6394 -0.5425  0.4462
 6646SOL    HW131397   4.376   1.021  14.040 -0.4576 -0.8100  0.5046
 6646SOL    HW231398   4.424   0.999  13.892  0.4941  2.1676 -2.0009
 6647SOL     OW31399   1.611   4.520  14.448 -0.5955 -0.0245  0.3058
 6647SOL    HW131400   1.705   4.536  14.439 -0.2562  0.1436  4.1728
 6647SOL    HW231401   1.603   4.466  14.527  0.7399 -1.4808 -0.5689
 6648SOL     OW31402   1.783   1.335  12.908 -0.4487 -0.1011 -0.1018
 6648SOL    HW131403   1.772   1.368  12.998 -0.8870  0.7209 -0.4590
 6648SOL    HW231404   1.730   1.400  12.862  0.8815  0.2035 -1.1646
 6649SOL     OW31405   3.652   4.132  11.410  0.3516  0.2750 -0.7021
 6649SOL    HW131406   3.651   4.116  11.504  1.0084  0.5862 -0.6409
 6649SOL    HW231407   3.639   4.227  11.404  0.3440  0.3752  0.9503
 6650SOL     OW31408   2.247   3.512   1.286 -0.3347 -0.2187  0.0310
 6650SOL    HW131409   2.183   3.565   1.238 -0.5306 -2.5858 -2.3768
 6650SOL    HW231410   2.220   3.536   1.374 -1.7589 -0.6345 -0.2785
 6651SOL     OW31411   4.445   1.435   7.463 -0.2839 -0.0234  0.3385
 6651SOL    HW131412   4.472   1.372   7.530  0.9765  1.1980  0.9831
 6651SOL    HW231413   4.483   1.513   7.503 -2.7515  1.7272 -0.7703
 6652SOL     OW31414   4.625   2.586   8.211 -0.5954 -0.1909 -0.6532
 6652SOL    HW131415   4.589   2.506   8.172  0.4532  0.7363 -3.5651
 6652SOL    HW231416   4.607   2.588   8.305  1.0862  1.9385 -0.3822
 6653SOL     OW31417   1.533   2.296   3.295 -0.5274 -0.0766 -0.4070
 6653SOL    HW131418   1.583   2.313   3.215  0.5507  0.7813  0.4352
 6653SOL    HW231419   1.539   2.201   3.294 -0.6288 -0.0853 -0.1465
 6654SOL     OW31420   1.021   1.668   4.784  0.1125  0.0308 -0.5721
 6654SOL    HW131421   0.954   1.722   4.826  2.3723  2.1042  0.3475
 6654SOL    HW231422   1.004   1.682   4.691  1.6002 -0.1784 -0.8829
 6655SOL     OW31423   0.730   1.801   5.630 -0.2760 -0.5648 -0.1030
 6655SOL    HW131424   0.808   1.808   5.685  0.1501 -0.6974 -0.6973
 6655SOL    HW231425   0.675   1.874   5.661 -1.3569 -2.6765  2.9087
 6656SOL     OW31426   3.280   3.218   2.584 -0.1395 -0.2963 -0.5142
 6656SOL    HW131427   3.243   3.135   2.613 -1.3516  0.3717 -0.1725
 6656SOL    HW231428   3.206   3.259   2.539  0.0100 -1.7558 -2.0668
 6657SOL     OW31429   3.203   3.790  16.011 -0.0790 -0.9308 -0.0094
 6657SOL    HW131430   3.288   3.755  15.987 -0.2078 -1.8633  0.8924
 6657SOL    HW231431   3.167   3.813  15.925  1.3891  4.1419  0.7258
 6658SOL     OW31432   3.884   4.638  16.803  0.1123 -0.6177  0.0833
 6658SOL    HW131433   3.842   4.646  16.717 -1.1986 -0.3112  0.7532
 6658SOL    HW231434   3.831   4.691  16.863  1.4976  3.2126 -2.0204
 6659SOL     OW31435   2.472   3.952   4.791 -0.2288 -0.0165 -0.6218
 6659SOL    HW131436   2.462   4.010   4.867  0.9261  1.9455 -1.9589
 6659SOL    HW231437   2.555   3.988   4.760  0.4385 -1.1462 -0.1312
 6660SOL     OW31438   4.420   3.380   7.935  0.2279  0.0854 -0.2801
 6660SOL    HW131439   4.344   3.323   7.923 -0.3718  0.8580 -0.1240
 6660SOL    HW231440   4.432   3.381   8.030  0.6545  0.2164 -0.3336
 6661SOL     OW31441   0.536   1.731  13.455  0.1947  0.0492  0.5447
 6661SOL    HW131442   0.471   1.676  13.411 -1.1349  1.1603  1.1236
 6661SOL    HW231443   0.476   1.795  13.493 -0.5472 -1.0228  1.1918
 6662SOL     OW31444   3.133   0.520   6.497  0.7245 -0.6757  0.0932
 6662SOL    HW131445   3.204   0.474   6.452  1.1454 -0.1956  0.2658
 6662SOL    HW231446   3.162   0.600   6.453 -0.0552 -0.2705  0.3377
 6663SOL     OW31447   4.647   1.815   3.110  0.6614 -0.1138 -0.9890
 6663SOL    HW131448   4.669   1.891   3.164  0.0655  0.2299 -1.2294
 6663SOL    HW231449   0.009   1.790   3.079  1.3643 -0.0851  0.9652
 6664SOL     OW31450   0.256   4.696  16.658 -0.1243 -0.2080 -0.3977
 6664SOL    HW131451   0.211   4.719  16.577 -1.6101 -0.6235  0.3015
 6664SOL    HW231452   0.328   0.032  16.668 -0.4155  0.1523 -0.4862
 6665SOL     OW31453   1.861   0.973   4.028 -0.4180 -0.9537  0.2617
 6665SOL    HW131454   1.767   0.959   4.027 -0.5708  0.3760 -2.8137
 6665SOL    HW231455   1.888   0.915   4.099 -0.3827  0.2014  1.1814
 6666SOL     OW31456   2.614   0.262   5.121 -0.0173 -0.1229  0.6881
 6666SOL    HW131457   2.587   0.222   5.038  3.5015  2.9959 -1.9652
 6666SOL    HW231458   2.547   0.329   5.125 -1.4495 -1.4329 -1.3304
 6667SOL     OW31459   2.125   3.856   9.256  0.0622 -0.1779  0.5589
 6667SOL    HW131460   2.109   3.891   9.169  1.2480 -0.0958  0.3659
 6667SOL    HW231461   2.125   3.939   9.303  1.3950  0.1398  0.0038
 6668SOL     OW31462   2.530   0.430   6.018  0.5783  0.2529 -0.0124
 6668SOL    HW131463   2.548   0.368   5.947  0.7095 -1.4860  1.5607
 6668SOL    HW231464   2.475   0.495   5.975 -2.0941 -1.1021  1.4130
 6669SOL     OW31465   0.758   2.568   4.147  0.3217  0.1180  0.3494
 6669SOL    HW131466   0.724   2.535   4.230  1.1963  1.6606  1.3139
 6669SOL    HW231467   0.851   2.548   4.147  0.2187 -0.4404 -1.8685
 6670SOL     OW31468   0.800   2.242   7.491  0.1915  0.3759 -0.0535
 6670SOL    HW131469   0.725   2.235   7.550 -0.2116  1.1332 -0.4800
 6670SOL    HW231470   0.854   2.169   7.521  1.8108  1.0060 -1.3977
 6671SOL     OW31471   0.203   3.488   4.571 -0.0349 -0.0024  0.1501
 6671SOL    HW131472   0.257   3.409   4.567 -0.1258  0.0188 -1.4572
 6671SOL    HW231473   0.171   3.498   4.661  0.9662 -1.0885  0.6366
 6672SOL     OW31474   3.756   1.236   3.237  0.9437  0.1675 -0.3771
 6672SOL    HW131475   3.850   1.245   3.219  1.5861 -0.5084  2.6903
 6672SOL    HW231476   3.726   1.325   3.217 -1.2314 -0.3952  0.4124
 6673SOL     OW31477   4.288   1.413   5.603  0.1047 -0.2751 -0.0592
 6673SOL    HW131478   4.302   1.369   5.520  0.6643 -1.1894  0.5264
 6673SOL    HW231479   4.328   1.348   5.661 -2.2279  0.9133  2.9368
 6674SOL     OW31480   0.221   0.210  14.639  0.2388 -0.2536  0.3399
 6674SOL    HW131481   0.125   0.204  14.639  0.0282  2.8296  1.0424
 6674SOL    HW231482   0.228   0.116  14.621  0.1330 -0.8273  3.2590
 6675SOL     OW31483   1.445   2.597   1.953 -0.3817  0.5120 -0.0819
 6675SOL    HW131484   1.350   2.594   1.955 -0.4618  3.1285 -0.0415
 6675SOL    HW231485   1.453   2.513   1.907  1.0433 -1.2969  3.4542
 6676SOL     OW31486   4.435   2.977   6.937  0.6372  0.2057  0.1646
 6676SOL    HW131487   4.413   3.068   6.916  3.2083  0.6428 -0.5427
 6676SOL    HW231488   4.376   2.927   6.880  0.4971  0.3697  0.1657
 6677SOL     OW31489   2.929   1.077   8.526  0.2968  0.3689 -0.3019
 6677SOL    HW131490   3.006   1.081   8.470  0.0184  1.8403 -0.5650
 6677SOL    HW231491   2.896   1.167   8.524 -1.2042 -0.2783 -3.9447
 6678SOL     OW31492   0.542   1.368   2.582 -0.5896 -0.0648 -0.6991
 6678SOL    HW131493   0.573   1.281   2.606  0.6169  0.4241 -0.4548
 6678SOL    HW231494   0.624   1.417   2.586 -0.3579 -0.5335  0.2845
 6679SOL     OW31495   2.075   3.660   2.069 -0.6053 -0.4472  0.4068
 6679SOL    HW131496   2.079   3.716   1.992  2.5722 -0.2346  0.7153
 6679SOL    HW231497   2.006   3.704   2.118 -0.0080  0.1046  0.7551
 6680SOL     OW31498   4.665   0.141   1.978 -0.1616  0.1958  0.6914
 6680SOL    HW131499   0.032   0.120   1.993 -0.2966  0.0193  1.2778
 6680SOL    HW231500   4.631   0.097   1.901  0.0830 -1.0897  1.3263
 6681SOL     OW31501   3.316   0.813   4.236  0.0505 -0.4001 -0.3531
 6681SOL    HW131502   3.351   0.879   4.295  0.4560 -2.2671  1.4776
 6681SOL    HW231503   3.224   0.840   4.241 -0.0465 -0.8625  0.3368
 6682SOL     OW31504   1.942   1.824  17.240 -0.0110  0.2989  0.2246
 6682SOL    HW131505   1.892   1.883  17.296 -1.1366  0.0843 -0.5408
 6682SOL    HW231506   1.981   1.764  17.304  2.4714  0.5374 -1.0583
 6683SOL     OW31507   0.070   1.906  11.464 -0.2464 -0.4476 -0.0534
 6683SOL    HW131508   0.086   1.979  11.404  0.6652  0.3492  1.1708
 6683SOL    HW231509   0.099   1.933  11.551 -1.4361  1.0719 -0.1266
 6684SOL     OW31510   3.214   1.789   1.982  0.6220 -0.1911 -0.0305
 6684SOL    HW131511   3.255   1.726   1.922 -0.1381  0.2190 -0.9808
 6684SOL    HW231512   3.277   1.773   2.052  1.0868  1.9390  0.0526
 6685SOL     OW31513   3.628   2.101   5.109 -0.3959  0.7150  0.4954
 6685SOL    HW131514   3.703   2.143   5.153  0.2019 -1.9601  2.0558
 6685SOL    HW231515   3.674   2.067   5.032  0.1762  0.7995  0.7952
 6686SOL     OW31516   0.633   0.158   9.102 -0.3608  0.0120  0.2387
 6686SOL    HW131517   0.680   0.240   9.090 -0.2332 -0.3096 -1.4336
 6686SOL    HW231518   0.551   0.172   9.055 -0.0923 -0.9152 -0.4949
 6687SOL     OW31519   1.327   4.271   9.293 -0.0639  0.0740 -0.2805
 6687SOL    HW131520   1.388   4.200   9.275 -0.5067 -0.6493  1.1131
 6687SOL    HW231521   1.325   4.325   9.213  1.0988 -1.4723 -1.3378
 6688SOL     OW31522   4.641   0.227   4.702  0.3365 -0.1539  0.3291
 6688SOL    HW131523   4.630   0.160   4.769  1.6969 -0.2351  0.4616
 6688SOL    HW231524   4.670   0.299   4.758  1.1871 -0.6407  0.4991
 6689SOL     OW31525   4.499   1.611   3.162  0.0891 -0.2926 -0.0516
 6689SOL    HW131526   4.553   1.686   3.138  1.6814 -0.7810  2.0138
 6689SOL    HW231527   4.438   1.616   3.088  0.0150  1.0712  0.1001
 6690SOL     OW31528   2.971   1.435  15.769  0.0119  0.2562 -0.1201
 6690SOL    HW131529   3.035   1.478  15.825  0.6596  0.6304 -1.1539
 6690SOL    HW231530   2.904   1.403  15.830  0.7277  0.2950  0.6738
 6691SOL     OW31531   0.588   2.869   2.201  0.5072  0.0643  0.3741
 6691SOL    HW131532   0.669   2.890   2.154 -0.1352  0.3747 -0.5829
 6691SOL    HW231533   0.540   2.951   2.194  1.4422  0.6152  0.3468
 6692SOL     OW31534   1.007   2.294  10.948 -0.4325  0.0875  0.1085
 6692SOL    HW131535   0.967   2.260  11.027 -0.2453  0.6730  0.4542
 6692SOL    HW231536   1.028   2.213  10.901 -1.3750 -0.7434  1.1498
 6693SOL     OW31537   1.566   2.520   4.715 -0.1625  0.1401  0.1393
 6693SOL    HW131538   1.582   2.568   4.796  0.1778  1.0526 -0.4644
 6693SOL    HW231539   1.633   2.451   4.720 -0.5633 -0.3474 -1.0888
 6694SOL     OW31540   1.380   1.123   2.828  0.2151 -0.2470  0.2568
 6694SOL    HW131541   1.328   1.200   2.809 -0.3733 -0.8097 -0.3872
 6694SOL    HW231542   1.358   1.069   2.752 -0.2019 -0.5458  0.5868
 6695SOL     OW31543   2.428   4.461   0.883 -0.2234  0.1628 -0.0603
 6695SOL    HW131544   2.360   4.526   0.904 -1.8904 -1.1030 -1.6086
 6695SOL    HW231545   2.454   4.488   0.795  3.6301 -1.6576  0.5255
 6696SOL     OW31546   3.297   0.125   4.714 -0.0130 -0.3573 -0.1987
 6696SOL    HW131547   3.332   0.045   4.754  2.4180  0.7193 -0.1687
 6696SOL    HW231548   3.375   0.145   4.662 -0.9497 -0.0086 -1.4566
 6697SOL     OW31549   1.536   3.359   4.582 -0.0819 -0.0575 -0.0117
 6697SOL    HW131550   1.576   3.423   4.642  0.6488 -1.1179  0.6298
 6697SOL    HW231551   1.598   3.289   4.603  0.0192  0.6089  1.9603
 6698SOL     OW31552   0.605   0.376   4.270  0.0503  0.5646  0.4403
 6698SOL    HW131553   0.613   0.299   4.214 -1.4199  0.3624  0.5070
 6698SOL    HW231554   0.691   0.416   4.282  1.3563 -1.3520 -2.7254
 6699SOL     OW31555   1.035   2.732   4.041 -0.0108 -0.3358  0.1665
 6699SOL    HW131556   1.034   2.772   4.128  2.3067  0.4698 -0.1819
 6699SOL    HW231557   1.127   2.740   4.016 -1.0715 -0.0945 -3.6319
 6700SOL     OW31558   0.035   0.748   7.147 -0.0835  0.1593 -0.1141
 6700SOL    HW131559   0.031   0.840   7.175  1.9654 -0.1865  1.2872
 6700SOL    HW231560   0.041   0.696   7.227 -0.9754  1.3400  0.7274
 6701SOL     OW31561   2.987   4.264  10.540  0.0298  0.4046  0.0623
 6701SOL    HW131562   3.003   4.283  10.633  0.3402 -1.1134  0.3237
 6701SOL    HW231563   2.916   4.200  10.543  1.5125 -1.2674 -0.8405
 6702SOL     OW31564   2.860   0.101   1.748  0.1508  0.1210 -0.1855
 6702SOL    HW131565   2.874   0.160   1.822 -1.0048 -0.7933  0.7772
 6702SOL    HW231566   2.947   0.074   1.719  0.3854  1.4323 -0.6831
 6703SOL     OW31567   1.336   0.076   8.777 -0.4025  0.3588  0.1241
 6703SOL    HW131568   1.250   0.109   8.750  0.3014  0.6952 -1.6914
 6703SOL    HW231569   1.328   0.135   8.852 -2.7996 -1.3224  1.2046
 6704SOL     OW31570   3.553   2.735   7.016  0.5147  0.2254  0.0820
 6704SOL    HW131571   3.477   2.750   7.072  0.7876 -0.8961  0.7653
 6704SOL    HW231572   3.603   2.669   7.064  2.6436  1.4953 -0.4032
 6705SOL     OW31573   2.228   3.497   7.651 -0.3482  0.3957 -0.0807
 6705SOL    HW131574   2.200   3.453   7.731  0.9717  0.5623  0.4691
 6705SOL    HW231575   2.244   3.418   7.598  1.7168  0.5069  0.4114
 6706SOL     OW31576   2.241   4.439  11.187  0.6116 -0.2114  0.1005
 6706SOL    HW131577   2.236   4.345  11.201  0.9923 -0.3217 -0.4851
 6706SOL    HW231578   2.199   4.441  11.101  0.6237 -0.2439  0.0939
 6707SOL     OW31579   1.243   4.095  14.693  0.2127 -0.3671 -0.3006
 6707SOL    HW131580   1.192   4.020  14.722 -3.3798  2.3144  0.3855
 6707SOL    HW231581   1.317   4.099  14.755  1.0157  2.0348 -1.4108
 6708SOL     OW31582   4.699   2.547   0.756  0.3298  0.6126 -0.6375
 6708SOL    HW131583   0.061   2.525   0.721  0.7662  0.4348  0.5679
 6708SOL    HW231584   4.698   2.641   0.772  1.1589  0.7370 -1.2808
 6709SOL     OW31585   4.582   4.248  16.944 -0.0279 -0.2604 -0.2015
 6709SOL    HW131586   4.548   4.327  16.903 -0.1785 -0.8000 -1.1196
 6709SOL    HW231587   4.649   4.223  16.880  0.1659  0.0344 -0.1088
 6710SOL     OW31588   3.151   3.015   6.531  0.1314  0.0614  0.6646
 6710SOL    HW131589   3.220   3.024   6.597  0.7197  0.5479 -0.0175
 6710SOL    HW231590   3.117   3.103   6.519 -0.1235 -0.2219 -0.7383
 6711SOL     OW31591   2.532   0.433   4.666  0.4116  0.0677 -0.1493
 6711SOL    HW131592   2.568   0.358   4.618  0.7816 -0.3706  0.8295
 6711SOL    HW231593   2.437   0.422   4.664  0.5064 -0.9525  0.8964
 6712SOL     OW31594   0.007   2.040   4.582 -0.2030 -0.1077  0.8666
 6712SOL    HW131595   4.640   2.021   4.565  0.0364  0.3932 -0.9783
 6712SOL    HW231596   0.009   2.119   4.528  1.2281  0.2905  1.4939
 6713SOL     OW31597   2.760   1.232  15.827  0.3532 -0.0483 -0.6863
 6713SOL    HW131598   2.666   1.250  15.829  0.5476  1.2275 -2.4924
 6713SOL    HW231599   2.755   1.137  15.838 -1.7320  0.1837  0.3039
 6714SOL     OW31600   3.080   1.947   6.390 -0.3877 -0.0978  0.6059
 6714SOL    HW131601   3.009   1.994   6.347  0.0654 -0.6355 -0.7236
 6714SOL    HW231602   3.147   1.977   6.329 -2.2775  0.5331 -1.1588
 6715SOL     OW31603   3.221   1.891   8.882 -0.3763 -0.3333  0.3071
 6715SOL    HW131604   3.220   1.915   8.975  0.6418  0.7053  0.0490
 6715SOL    HW231605   3.246   1.971   8.836  1.3486 -0.2107  1.4706
 6716SOL     OW31606   4.611   0.035   4.927 -0.2230  0.1994  0.4605
 6716SOL    HW131607   4.532   0.028   4.981  0.4129  2.9290  1.7169
 6716SOL    HW231608   4.639   4.668   4.925  1.1907  0.6313  0.2924
 6717SOL     OW31609   3.912   0.763   4.492 -0.8814  0.4197 -0.4388
 6717SOL    HW131610   3.964   0.743   4.570  0.4758  0.5517 -1.3148
 6717SOL    HW231611   3.865   0.679   4.498 -1.1158  0.5137 -0.9786
 6718SOL     OW31612   4.101   2.480   7.417 -0.1429  0.3970 -0.7998
 6718SOL    HW131613   4.080   2.547   7.353 -2.1346  0.1534 -0.3925
 6718SOL    HW231614   4.030   2.417   7.406  1.2419 -1.3104 -0.1375
 6719SOL     OW31615   0.027   1.724   6.684  0.3635 -0.7556  0.0815
 6719SOL    HW131616   0.059   1.733   6.594  0.3302  2.9013  0.4156
 6719SOL    HW231617   4.674   1.779   6.690  0.9819  0.4357 -3.0043
 6720SOL     OW31618   4.210   3.447  11.292  0.4531 -0.2002  0.3014
 6720SOL    HW131619   4.197   3.541  11.285  1.5985  0.1626  2.9862
 6720SOL    HW231620   4.297   3.450  11.331  1.3676  1.4208 -1.8823
 6721SOL     OW31621   0.046   2.568  13.299  0.2430 -0.3006 -0.1489
 6721SOL    HW131622   4.702   2.569  13.366 -1.0717 -0.5065 -1.5150
 6721SOL    HW231623   0.128   2.592  13.342  1.5011 -0.8752 -2.2588
 6722SOL     OW31624   2.115   2.285   1.656 -0.1200 -0.0305  0.2609
 6722SOL    HW131625   2.199   2.255   1.622  0.2011 -0.4131  1.3897
 6722SOL    HW231626   2.056   2.221   1.615 -2.1006  3.6297 -2.5358
 6723SOL     OW31627   3.047   1.330   3.720  1.2582  0.7584  0.1717
 6723SOL    HW131628   3.134   1.368   3.732  1.0831  0.4519  2.5379
 6723SOL    HW231629   3.038   1.291   3.807 -0.7940  2.6103  0.8015
 6724SOL     OW31630   2.889   1.256   1.681 -0.0014  0.2459 -0.1789
 6724SOL    HW131631   2.832   1.332   1.665 -1.6355 -0.6588  1.3821
 6724SOL    HW231632   2.830   1.218   1.746 -0.1692 -0.0681 -0.5172
 6725SOL     OW31633   3.987   4.717   6.950  0.4965  0.8918 -0.2503
 6725SOL    HW131634   3.959   0.056   7.015 -0.4182 -0.4658  0.6908
 6725SOL    HW231635   3.916   0.010   6.890  1.1108  0.7019 -1.0321
 6726SOL     OW31636   3.394   0.361   2.242  1.0730 -0.5220  0.4389
 6726SOL    HW131637   3.414   0.443   2.287 -0.0847 -0.7262  1.3312
 6726SOL    HW231638   3.476   0.315   2.254  1.5090  0.3081  0.6572
 6727SOL     OW31639   2.013   2.700   2.739  0.1007 -0.3444  0.2478
 6727SOL    HW131640   1.991   2.725   2.650  0.6673 -0.5388  0.0511
 6727SOL    HW231641   1.957   2.623   2.743  2.5896 -2.2030 -1.0209
 6728SOL     OW31642   4.169   4.240   5.355  0.4267 -0.0445  0.3521
 6728SOL    HW131643   4.175   4.200   5.269  0.4496 -2.1267  1.3153
 6728SOL    HW231644   4.262   4.258   5.366  0.5273  0.4652 -1.3698
 6729SOL     OW31645   0.690   2.167   4.323 -0.5916 -0.0074 -0.0057
 6729SOL    HW131646   0.634   2.124   4.258 -0.1905 -0.3940 -0.0955
 6729SOL    HW231647   0.741   2.093   4.355 -0.0175  0.8222  1.0006
 6730SOL     OW31648   0.376   1.694   3.473  1.0957  0.4174  0.2550
 6730SOL    HW131649   0.303   1.754   3.468  1.0445  0.4185  1.0537
 6730SOL    HW231650   0.347   1.604   3.455  1.4291  0.5313 -0.8670
 6731SOL     OW31651   0.763   3.499   4.964  0.5938  0.2682 -0.3898
 6731SOL    HW131652   0.780   3.450   5.045  2.3764  0.0980 -0.8700
 6731SOL    HW231653   0.749   3.427   4.902 -1.5229  0.4952 -0.1725
 6732SOL     OW31654   3.449   3.731  11.261 -0.2947  0.2450 -0.3288
 6732SOL    HW131655   3.367   3.694  11.230 -1.3052  1.4428  0.8921
 6732SOL    HW231656   3.510   3.675  11.213 -1.1264 -1.6672  0.8633
 6733SOL     OW31657   3.817   0.180  13.921  0.0906  0.1330 -0.3380
 6733SOL    HW131658   3.727   0.148  13.931  0.2390 -0.0252  0.4367
 6733SOL    HW231659   3.820   0.234  13.999 -0.3326  0.1254 -0.3127
 6734SOL     OW31660   2.255   3.371   8.623  0.3076  0.2950 -0.5520
 6734SOL    HW131661   2.199   3.294   8.634 -0.4856  0.9325 -0.1358
 6734SOL    HW231662   2.205   3.433   8.676 -0.0762  0.2753 -0.8959
 6735SOL     OW31663   0.048   2.170   3.628  0.1054 -0.3035 -0.0480
 6735SOL    HW131664   0.052   2.075   3.618  1.2466 -0.3110  0.4622
 6735SOL    HW231665   0.025   2.173   3.720 -1.0160 -1.8983 -0.2835
 6736SOL     OW31666   1.305   2.802   0.442 -0.2524 -0.0627 -0.5397
 6736SOL    HW131667   1.327   2.742   0.514  3.0159 -0.8727 -2.2154
 6736SOL    HW231668   1.359   2.768   0.371  2.5595 -0.9377  1.9998
 6737SOL     OW31669   3.857   3.178  15.298 -0.0537 -0.1278  0.1654
 6737SOL    HW131670   3.863   3.201  15.390  1.2206  0.3768 -0.0354
 6737SOL    HW231671   3.936   3.125  15.284  0.0883  0.6479 -2.0648
 6738SOL     OW31672   2.403   0.406  16.924  0.3266 -0.1672 -0.6512
 6738SOL    HW131673   2.494   0.434  16.912 -0.0702  1.9691  1.2483
 6738SOL    HW231674   2.413   0.330  16.981  1.2103 -0.1176 -0.7490
 6739SOL     OW31675   4.554   2.747   6.968  0.3656 -0.3622  0.3029
 6739SOL    HW131676   4.512   2.832   6.962  0.1255 -0.7367 -3.3125
 6739SOL    HW231677   4.627   2.753   7.030 -0.4310 -1.0095  1.3172
 6740SOL     OW31678   0.007   3.154   4.652 -0.4938  0.1568  0.6810
 6740SOL    HW131679   4.677   3.151   4.574  1.1055  0.7746 -0.4575
 6740SOL    HW231680   4.663   3.135   4.716 -1.0859  1.1259  0.3344
 6741SOL     OW31681   3.536   1.699  16.681 -0.3396 -0.4592  0.1681
 6741SOL    HW131682   3.478   1.658  16.746 -0.8314 -1.0137 -0.6240
 6741SOL    HW231683   3.583   1.762  16.736 -1.8910  0.7670  0.1072
 6742SOL     OW31684   1.668   3.370   4.161 -0.6728  0.3964  0.3360
 6742SOL    HW131685   1.586   3.350   4.206 -0.4507  1.2968  1.1282
 6742SOL    HW231686   1.713   3.432   4.218 -0.6039  1.7614 -1.2061
 6743SOL     OW31687   3.839   2.128   6.424  0.4064 -0.0889  0.3306
 6743SOL    HW131688   3.844   2.220   6.398  1.8343 -0.7573 -1.7658
 6743SOL    HW231689   3.760   2.100   6.378 -0.8031  0.7825  1.8553
 6744SOL     OW31690   4.160   1.151   4.462  0.2046 -0.1376 -0.5482
 6744SOL    HW131691   4.131   1.243   4.467  1.2445  0.2134 -1.0135
 6744SOL    HW231692   4.249   1.155   4.426  0.1332 -1.3446 -0.8381
 6745SOL     OW31693   4.461   1.150   4.104 -0.9659  0.3547  0.1726
 6745SOL    HW131694   4.490   1.059   4.098 -0.7334  0.2503  2.8018
 6745SOL    HW231695   4.459   1.177   4.012  1.8036 -0.9838 -0.2805
 6746SOL     OW31696   0.733   3.278   4.780  0.2194  0.3287  0.6473
 6746SOL    HW131697   0.689   3.204   4.823 -0.3885  1.2621  1.6535
 6746SOL    HW231698   0.724   3.242   4.692 -0.1713 -1.6657  1.5038
 6747SOL     OW31699   0.276   0.682  13.294 -0.3356  0.3040  0.5664
 6747SOL    HW131700   0.317   0.758  13.253  0.8068 -0.6062 -0.0016
 6747SOL    HW231701   0.341   0.612  13.282 -0.1092  0.3674  1.3707
 6748SOL     OW31702   4.239   3.569   5.641 -0.2534  0.0843  0.1810
 6748SOL    HW131703   4.330   3.570   5.609  0.8197 -1.8741  3.2560
 6748SOL    HW231704   4.257   3.595   5.731 -2.0234  1.0214  0.2509
 6749SOL     OW31705   4.405   2.824   8.731 -0.6644 -0.8282 -0.0668
 6749SOL    HW131706   4.403   2.842   8.637  2.3526  0.1288  0.0338
 6749SOL    HW231707   4.489   2.782   8.746 -0.7958 -0.4435  1.7353
 6750SOL     OW31708   0.720   2.206   0.462  0.6196 -1.1185  0.4156
 6750SOL    HW131709   0.747   2.121   0.426 -0.3690 -0.2613 -2.3201
 6750SOL    HW231710   0.630   2.210   0.429  0.2515 -2.8220  1.1845
 6751SOL     OW31711   0.289   0.898  12.961  0.3541  0.3246  0.2503
 6751SOL    HW131712   0.240   0.949  13.026 -1.2676  0.2813 -0.9569
 6751SOL    HW231713   0.236   0.908  12.882 -0.3259 -2.2272  0.3923
 6752SOL     OW31714   0.125   3.519   6.380 -0.4855  0.0557  0.1297
 6752SOL    HW131715   0.153   3.602   6.341  0.4071  0.1162  0.9058
 6752SOL    HW231716   0.040   3.550   6.413  0.1890  2.2242 -0.1598
 6753SOL     OW31717   4.036   0.367   5.231  0.1376  0.7152  0.1202
 6753SOL    HW131718   4.009   0.448   5.189 -1.8577 -0.4043 -0.7810
 6753SOL    HW231719   4.117   0.342   5.187  0.6518  2.2997  0.1660
 6754SOL     OW31720   0.345   0.245   6.760  0.0580  0.8631 -0.5562
 6754SOL    HW131721   0.256   0.240   6.795 -0.0706  0.7111 -0.9003
 6754SOL    HW231722   0.391   0.242   6.844 -2.0708  0.0048  0.5643
 6755SOL     OW31723   1.454   0.564   7.881 -0.3210  0.1977  0.4342
 6755SOL    HW131724   1.426   0.547   7.971  1.0436 -0.2817  0.7681
 6755SOL    HW231725   1.548   0.579   7.897 -0.6159  3.3457 -0.8984
 6756SOL     OW31726   4.338   4.566   5.867 -0.3029 -0.3237  0.9567
 6756SOL    HW131727   4.310   4.614   5.789  1.4243 -2.1548 -0.8085
 6756SOL    HW231728   4.429   4.589   5.884  0.5029 -1.4256 -1.8684
 6757SOL     OW31729   0.493   1.720  10.900  0.4884  0.1615  0.2661
 6757SOL    HW131730   0.458   1.642  10.944  0.5716 -0.7449 -1.2852
 6757SOL    HW231731   0.434   1.787  10.933  0.3485  0.7559 -1.2149
 6758SOL     OW31732   3.905   4.384  16.915  0.1475  0.1964 -0.3094
 6758SOL    HW131733   3.854   4.450  16.868  0.0439  1.4202  1.5549
 6758SOL    HW231734   3.995   4.415  16.925  1.1300 -2.2488 -1.5914
 6759SOL     OW31735   0.143   1.946   5.035  0.1096 -0.3551 -0.4013
 6759SOL    HW131736   0.063   1.904   5.065 -1.1578  2.1043 -0.4122
 6759SOL    HW231737   0.130   2.038   5.058 -0.7713 -0.3978 -0.7499
 6760SOL     OW31738   2.475   1.008  10.586 -0.2946 -0.0841  0.1786
 6760SOL    HW131739   2.381   1.012  10.606 -0.4123 -1.1747 -0.1512
 6760SOL    HW231740   2.509   1.069  10.652  0.0510 -0.9088  0.7593
 6761SOL     OW31741   3.219   2.476  16.552 -0.0178 -0.0015  0.2847
 6761SOL    HW131742   3.308   2.507  16.571  0.7829 -1.2410 -1.4985
 6761SOL    HW231743   3.229   2.472  16.457  0.7026  2.9497  0.2283
 6762SOL     OW31744   1.938   1.765   8.199  0.7328 -0.2371 -0.1067
 6762SOL    HW131745   1.907   1.687   8.245  0.7059  0.4487  1.0352
 6762SOL    HW231746   1.866   1.817   8.162  0.5170 -1.9012 -2.0252
 6763SOL     OW31747   3.527   3.260   7.709  0.4718  0.0037 -0.2867
 6763SOL    HW131748   3.477   3.234   7.631 -2.4180  0.0667  1.5218
 6763SOL    HW231749   3.484   3.209   7.778  1.5182  0.0516  0.3881
 6764SOL     OW31750   0.900   3.450   6.801  0.6269 -0.0068  0.0586
 6764SOL    HW131751   0.949   3.531   6.786  1.1787 -0.4740 -0.6591
 6764SOL    HW231752   0.850   3.472   6.879  1.3593  0.7442  0.3162
 6765SOL     OW31753   0.144   2.459  16.844  0.1654  0.0105  0.0687
 6765SOL    HW131754   0.228   2.489  16.880  0.5188  0.2776 -0.9781
 6765SOL    HW231755   0.083   2.531  16.858  1.1882  1.2600 -1.9077
 6766SOL     OW31756   4.694   1.172   2.944  0.4213 -0.3854  0.0197
 6766SOL    HW131757   4.632   1.102   2.963  1.8391 -1.1108  1.9923
 6766SOL    HW231758   0.050   1.120   2.948 -0.2721 -1.3250  2.0095
 6767SOL     OW31759   3.064   1.097   2.912  0.2152 -0.0589  0.3988
 6767SOL    HW131760   2.970   1.110   2.900  0.3046  0.7174  0.5204
 6767SOL    HW231761   3.072   1.017   2.861  3.8720 -1.1327  2.6191
 6768SOL     OW31762   4.582   1.056   3.820 -0.4480  0.4295  0.1687
 6768SOL    HW131763   4.611   1.014   3.739 -2.4187 -1.4327  0.4107
 6768SOL    HW231764   4.561   1.143   3.787 -0.2836  0.3150 -0.2338
 6769SOL     OW31765   3.071   1.920   5.079  0.2608 -0.0270  0.3213
 6769SOL    HW131766   3.129   1.994   5.100 -2.9630  2.4612  0.4697
 6769SOL    HW231767   3.098   1.865   5.152  0.1193 -1.2581 -0.5529
 6770SOL     OW31768   0.183   1.651   9.848 -0.7647 -0.2144 -0.1639
 6770SOL    HW131769   0.132   1.674   9.771  1.3132  0.0861 -1.4654
 6770SOL    HW231770   0.246   1.585   9.820 -1.7646 -1.4607  0.5368
 6771SOL     OW31771   3.392   3.231   1.618 -0.4187 -0.5572  0.5114
 6771SOL    HW131772   3.389   3.183   1.701  0.6020  0.1447  0.9586
 6771SOL    HW231773   3.477   3.275   1.623 -0.9249  0.5145 -0.2949
 6772SOL     OW31774   1.010   1.137   3.721  0.0690 -0.7562 -1.0228
 6772SOL    HW131775   0.987   1.228   3.704 -0.4461 -1.1625 -2.5023
 6772SOL    HW231776   1.064   1.145   3.800  0.9162  0.8237 -1.7658
 6773SOL     OW31777   2.506   3.927  14.568  0.1145 -0.4597  0.3001
 6773SOL    HW131778   2.511   3.922  14.472  1.6097  2.0406  0.2518
 6773SOL    HW231779   2.592   3.899  14.598  0.5199 -0.2175 -0.6163
 6774SOL     OW31780   1.816   4.416   3.425  0.5488  0.1225  0.0477
 6774SOL    HW131781   1.838   4.413   3.332  1.0924 -1.1126  0.2102
 6774SOL    HW231782   1.820   4.510   3.439 -1.1422  0.0108  1.3329
 6775SOL     OW31783   1.231   2.693   9.060 -0.3353 -0.7029  0.2949
 6775SOL    HW131784   1.156   2.706   9.001  1.2309 -1.0028 -1.7522
 6775SOL    HW231785   1.233   2.774   9.110  1.4130 -0.4085 -0.2510
 6776SOL     OW31786   3.837   3.244   6.932 -0.3423  0.1902 -0.0946
 6776SOL    HW131787   3.902   3.308   6.962 -1.2537 -0.4465  3.3443
 6776SOL    HW231788   3.794   3.213   7.012 -2.3397  2.0831 -0.4263
 6777SOL     OW31789   2.241   4.662   0.706 -0.5783  0.1465 -0.1020
 6777SOL    HW131790   2.207   0.002   0.767 -0.1406 -0.2915  0.6104
 6777SOL    HW231791   2.277   4.707   0.629  2.4678  0.8203  1.7273
 6778SOL     OW31792   3.303   1.509  12.471  0.0517  0.9175  0.2345
 6778SOL    HW131793   3.290   1.583  12.531  0.1255  2.2422 -1.3652
 6778SOL    HW231794   3.215   1.489  12.440  1.0542 -2.6746 -0.2793
 6779SOL     OW31795   0.984   0.703  10.357  0.3219  0.1067 -0.0425
 6779SOL    HW131796   0.946   0.629  10.403  2.1912 -1.1686 -0.5716
 6779SOL    HW231797   0.925   0.702  10.282  1.3854 -1.5884 -0.8631
 6780SOL     OW31798   0.497   4.459   7.243 -0.0266 -0.0877  0.6489
 6780SOL    HW131799   0.532   4.389   7.188  0.0251  1.0253 -0.7303
 6780SOL    HW231800   0.578   4.511   7.250 -0.4797  0.3617  2.6596
 6781SOL     OW31801   3.691   0.512   7.021  0.2440 -0.1576 -0.4532
 6781SOL    HW131802   3.669   0.603   7.004  2.1639  0.5456  0.8408
 6781SOL    HW231803   3.633   0.468   6.958  0.2791 -0.5373 -0.2203
 6782SOL     OW31804   4.420   0.669  13.954  0.2963 -0.2075  0.8654
 6782SOL    HW131805   4.505   0.634  13.931  0.4208 -0.3576  1.5508
 6782SOL    HW231806   4.362   0.617  13.899  2.0446  0.5585 -1.7003
 6783SOL     OW31807   0.130   0.268   4.016  0.0006  0.2947 -0.0069
 6783SOL    HW131808   0.085   0.281   4.099 -0.1570 -0.7293  0.0722
 6783SOL    HW231809   0.218   0.303   4.032 -0.0109  0.1476  0.3801
 6784SOL     OW31810   4.177   3.922   1.752  0.0076  0.2358  0.6356
 6784SOL    HW131811   4.213   3.844   1.795 -0.8052 -0.2301  0.4594
 6784SOL    HW231812   4.139   3.884   1.673 -0.0213  1.6991 -0.0427
 6785SOL     OW31813   4.387   2.613   8.370  0.0687 -0.0595  0.1576
 6785SOL    HW131814   4.331   2.603   8.446 -0.2071 -1.5568 -0.2448
 6785SOL    HW231815   4.426   2.526   8.380  1.0792  0.3768  0.0187
 6786SOL     OW31816   1.221   1.980   3.477  0.2979 -0.0084 -0.2724
 6786SOL    HW131817   1.245   2.073   3.478 -0.1572  0.1022  0.2347
 6786SOL    HW231818   1.270   1.966   3.558  1.5134  3.9251 -0.3297
 6787SOL     OW31819   2.954   3.982   0.507  0.4909 -0.6040  0.6571
 6787SOL    HW131820   2.896   4.000   0.581  1.5235  2.3490  0.7342
 6787SOL    HW231821   3.031   3.951   0.556 -0.2768  0.4307  2.5256
 6788SOL     OW31822   4.020   1.766   3.828  0.1230  0.2261  0.5883
 6788SOL    HW131823   4.092   1.704   3.829  1.7280  2.0902 -0.2101
 6788SOL    HW231824   3.978   1.719   3.756 -0.4726  1.0865  0.3619
 6789SOL     OW31825   3.881   1.455   7.642 -0.3846 -0.0222  0.1092
 6789SOL    HW131826   3.890   1.460   7.737 -0.3642 -0.0245  0.1074
 6789SOL    HW231827   3.800   1.505   7.633 -1.1290 -1.1328  0.7336
 6790SOL     OW31828   1.400   0.283   5.713  0.9794  0.3006  0.1292
 6790SOL    HW131829   1.439   0.217   5.656  1.1859 -0.3777  1.0569
 6790SOL    HW231830   1.343   0.230   5.768  0.0501 -2.2136 -3.2575
 6791SOL     OW31831   1.816   2.100   8.356  0.0529 -0.1371  0.3864
 6791SOL    HW131832   1.747   2.085   8.422 -1.2059 -0.1821 -0.9448
 6791SOL    HW231833   1.760   2.108   8.279  2.3184  2.3487 -0.9995
 6792SOL     OW31834   3.172   3.392   4.330 -0.1771 -1.0381 -0.3201
 6792SOL    HW131835   3.106   3.326   4.349 -2.8424  1.6176 -0.2422
 6792SOL    HW231836   3.140   3.433   4.250 -0.5278  3.6123  2.1837
 6793SOL     OW31837   0.451   0.380   1.073 -1.0380  0.8285 -0.4129
 6793SOL    HW131838   0.380   0.330   1.114  1.2113 -4.1021 -2.5116
 6793SOL    HW231839   0.420   0.469   1.089 -0.5655  1.2768 -2.0188
 6794SOL     OW31840   2.540   1.079  14.059  0.1636 -0.5994 -0.2347
 6794SOL    HW131841   2.604   1.150  14.070 -0.7399  0.0081  1.0405
 6794SOL    HW231842   2.595   1.001  14.049  0.5425 -0.3057 -0.4511
 6795SOL     OW31843   3.306   0.077  11.840  0.7469  0.4711  0.4905
 6795SOL    HW131844   3.372   0.011  11.819 -1.0209 -1.3087  0.4128
 6795SOL    HW231845   3.240   0.027  11.889  1.3066 -1.3362 -0.5661
 6796SOL     OW31846   1.917   2.997   9.598 -0.1956 -0.4617 -0.2732
 6796SOL    HW131847   1.977   3.066   9.627 -1.4714  0.2958  0.5410
 6796SOL    HW231848   1.909   2.943   9.677  1.2839 -1.7781 -1.0227
 6797SOL     OW31849   2.777   3.037   4.524 -0.2399  0.3869 -0.0372
 6797SOL    HW131850   2.846   2.971   4.520  0.4667  1.2467 -1.8675
 6797SOL    HW231851   2.697   2.983   4.529  0.0748 -0.1611 -0.8912
 6798SOL     OW31852   1.368   4.423   2.285 -0.0424  0.4556  0.1952
 6798SOL    HW131853   1.342   4.455   2.371  1.0218  1.3763  0.1697
 6798SOL    HW231854   1.463   4.431   2.288  0.0485 -0.6456  0.1808
 6799SOL     OW31855   1.681   0.576   2.191 -0.3623 -0.3647 -0.2735
 6799SOL    HW131856   1.747   0.589   2.260 -0.8858  1.2567 -0.0757
 6799SOL    HW231857   1.714   0.489   2.165  1.2828 -0.2214  1.2718
 6800SOL     OW31858   0.908   0.003   6.747  0.0980 -0.0046 -0.4607
 6800SOL    HW131859   0.898   4.689   6.834 -0.5283 -0.7912 -0.8852
 6800SOL    HW231860   0.936   4.651   6.698  0.4591  0.3243 -0.7747
 6801SOL     OW31861   3.578   1.510  16.157 -0.6668 -1.3721 -0.0623
 6801SOL    HW131862   3.566   1.596  16.197 -1.0156 -0.3599 -2.3917
 6801SOL    HW231863   3.576   1.540  16.066 -1.2930  1.4975  0.9049
 6802SOL     OW31864   3.830   4.099   3.020  0.1331  0.3450  0.1858
 6802SOL    HW131865   3.895   4.153   3.064  1.8696 -1.1473 -0.5416
 6802SOL    HW231866   3.781   4.061   3.093  0.9930 -0.1229  0.5183
 6803SOL     OW31867   4.033   2.535   7.675  0.1599  0.2827 -0.1800
 6803SOL    HW131868   4.082   2.546   7.593  0.4109 -0.7011 -0.1728
 6803SOL    HW231869   4.048   2.618   7.719 -4.1980  0.5392  0.8117
 6804SOL     OW31870   0.994   4.115   7.440  0.1073 -0.0800 -0.4569
 6804SOL    HW131871   0.941   4.138   7.364  0.9049  1.6021 -0.4979
 6804SOL    HW231872   0.945   4.161   7.508 -2.1263 -0.1263 -2.0585
 6805SOL     OW31873   0.444   1.947   9.301  0.1630  0.1174 -0.0362
 6805SOL    HW131874   0.436   2.009   9.229 -2.4853 -0.1162  0.0905
 6805SOL    HW231875   0.360   1.954   9.346  0.3956 -1.8575  0.7212
 6806SOL     OW31876   3.521   4.430  14.579 -0.2052 -0.5336  0.0904
 6806SOL    HW131877   3.481   4.510  14.543 -0.0907 -0.2806  0.5261
 6806SOL    HW231878   3.590   4.404  14.519  1.9883  1.2088  1.8350
 6807SOL     OW31879   2.067   2.758   3.858  0.2135  0.0602 -0.0643
 6807SOL    HW131880   2.050   2.848   3.832  0.6213 -0.6184 -2.6596
 6807SOL    HW231881   2.032   2.717   3.779  1.5691 -0.9869 -0.1257
 6808SOL     OW31882   0.810   1.636  10.042 -0.9914 -0.2018  0.3040
 6808SOL    HW131883   0.855   1.565  10.087 -0.8088 -1.5174 -1.9270
 6808SOL    HW231884   0.757   1.590   9.977 -2.3170 -0.7346  1.7557
 6809SOL     OW31885   1.265   3.034   6.303  0.2231 -0.1070  0.7076
 6809SOL    HW131886   1.224   3.102   6.249  2.2463 -0.5913 -1.4339
 6809SOL    HW231887   1.262   2.959   6.243  0.3156  0.8338 -0.4850
 6810SOL     OW31888   2.479   1.656   6.151 -0.3569  0.1248 -0.5382
 6810SOL    HW131889   2.438   1.571   6.138  1.0423 -0.8506  1.3296
 6810SOL    HW231890   2.572   1.637   6.137 -0.5042 -0.1579 -1.1653
 6811SOL     OW31891   3.769   4.158  16.872  0.2347 -0.0676  0.0857
 6811SOL    HW131892   3.782   4.155  16.967 -0.6277 -2.3978  0.1180
 6811SOL    HW231893   3.826   4.231  16.844  0.7757 -0.3230  0.5215
 6812SOL     OW31894   0.836   4.233   3.039 -0.3213 -0.2176 -0.1022
 6812SOL    HW131895   0.850   4.320   3.075 -0.8054  0.3524 -1.2868
 6812SOL    HW231896   0.801   4.256   2.953 -2.5565 -0.9352  0.6201
 6813SOL     OW31897   2.386   2.301  12.881 -0.0706  0.1627 -0.1158
 6813SOL    HW131898   2.318   2.285  12.948 -0.3479  1.1112 -0.1746
 6813SOL    HW231899   2.462   2.323  12.935  1.1350  1.6529 -2.4572
 6814SOL     OW31900   0.008   0.543   0.516  0.1954 -0.2865  0.3695
 6814SOL    HW131901   0.104   0.538   0.507  0.1440 -0.9835  0.2194
 6814SOL    HW231902   4.709   0.451   0.525  0.4477 -0.2646  1.1937
 6815SOL     OW31903   4.551   1.217  13.764  0.0414 -0.3743 -0.4727
 6815SOL    HW131904   4.583   1.303  13.789 -0.2233 -0.2557 -0.5321
 6815SOL    HW231905   4.568   1.169  13.844 -1.8252  3.9058  2.4978
 6816SOL     OW31906   0.323   0.715   5.684  0.0315  0.3246 -0.0504
 6816SOL    HW131907   0.364   0.701   5.770  0.4306 -0.1757 -0.3239
 6816SOL    HW231908   0.288   0.804   5.679 -0.3267  0.2146  0.5624
 6817SOL     OW31909   4.631   2.889   7.815 -0.0121  0.2131  0.0334
 6817SOL    HW131910   4.664   2.870   7.903 -0.0820 -0.4967 -0.0961
 6817SOL    HW231911   4.601   2.806   7.778 -1.3967  1.2061 -1.0490
 6818SOL     OW31912   2.043   1.013   0.104  0.2917 -0.2014  0.1829
 6818SOL    HW131913   1.958   1.011   0.060  0.5343 -0.1329 -0.2940
 6818SOL    HW231914   2.091   1.077   0.051 -2.3410  1.6790  0.1034
 6819SOL     OW31915   2.782   0.294   5.881 -0.5019 -0.6218  0.1993
 6819SOL    HW131916   2.778   0.256   5.793  1.0026 -0.8766  0.2324
 6819SOL    HW231917   2.721   0.231   5.921 -1.7406  1.6117  1.8004
 6820SOL     OW31918   1.762   3.340   5.211  0.6280 -0.1308 -0.0998
 6820SOL    HW131919   1.734   3.409   5.272  2.0531  1.4379 -1.2167
 6820SOL    HW231920   1.842   3.376   5.171  0.1343 -1.0034 -1.8516
 6821SOL     OW31921   0.872   3.963   5.151  0.2587  0.4039 -0.3644
 6821SOL    HW131922   0.903   3.912   5.226  1.2828  0.3135 -0.8555
 6821SOL    HW231923   0.833   3.894   5.097  0.3588 -0.1982  0.3300
 6822SOL     OW31924   2.439   2.901  13.891  0.2511  0.9030 -0.3307
 6822SOL    HW131925   2.525   2.870  13.860  0.0853 -1.3034  1.3774
 6822SOL    HW231926   2.396   2.816  13.898 -1.2949  1.7376  0.2315
 6823SOL     OW31927   2.777   3.393   5.608 -0.0496 -0.1295  0.2166
 6823SOL    HW131928   2.745   3.386   5.518  0.0502  1.5534  0.0502
 6823SOL    HW231929   2.698   3.407   5.660 -0.5177 -3.5189  0.4455
 6824SOL     OW31930   1.225   2.756   6.191 -0.1400  0.6266  0.4031
 6824SOL    HW131931   1.137   2.723   6.213  0.6438 -2.6341 -1.3078
 6824SOL    HW231932   1.240   2.728   6.101  1.0059 -2.7998  1.6445
 6825SOL     OW31933   3.978   3.059  11.369 -0.0377 -0.4760 -0.3334
 6825SOL    HW131934   4.015   2.986  11.320  2.4900  1.0006 -0.6288
 6825SOL    HW231935   4.055   3.085  11.420 -0.7071 -1.6878  1.2763
 6826SOL     OW31936   3.624   1.615   1.866 -0.5149  0.0935 -0.0537
 6826SOL    HW131937   3.690   1.550   1.887  0.1908  0.8422  0.0696
 6826SOL    HW231938   3.682   1.678   1.822 -1.7702  2.6441  1.9075
 6827SOL     OW31939   2.145   0.617   5.841 -0.4064  0.6286  0.3795
 6827SOL    HW131940   2.152   0.712   5.844 -0.6869  0.6427  0.5988
 6827SOL    HW231941   2.176   0.600   5.930 -1.4773 -0.2801  0.5869
 6828SOL     OW31942   1.336   3.586   3.868 -0.0585  0.5056  0.4400
 6828SOL    HW131943   1.404   3.574   3.803 -2.9631 -1.6931 -2.1705
 6828SOL    HW231944   1.297   3.499   3.874  0.3349 -0.0034 -4.5412
 6829SOL     OW31945   0.692   1.368   0.565  0.5190  0.0724 -0.1198
 6829SOL    HW131946   0.780   1.374   0.602 -0.2143 -1.2368  1.8513
 6829SOL    HW231947   0.682   1.435   0.498  3.7856 -2.1113 -2.7633
 6830SOL     OW31948   1.433   2.590   9.684 -0.4278  0.3831 -0.1775
 6830SOL    HW131949   1.528   2.599   9.682 -0.5758  1.6861 -1.0526
 6830SOL    HW231950   1.426   2.578   9.779  0.2875  0.0613 -0.1664
 6831SOL     OW31951   1.004   2.874   7.410 -0.1377  0.0804 -0.0347
 6831SOL    HW131952   1.037   2.817   7.340  0.9943 -0.8016  1.2314
 6831SOL    HW231953   1.089   2.911   7.433  0.1747  1.4619 -3.3547
 6832SOL     OW31954   4.092   1.697   2.084  0.2410 -0.0163  0.3066
 6832SOL    HW131955   4.066   1.623   2.029  1.1584  0.8770 -1.3354
 6832SOL    HW231956   4.187   1.690   2.073  0.1592 -1.2075  0.3675
 6833SOL     OW31957   3.696   0.931   3.604  0.7121  0.0347  0.5868
 6833SOL    HW131958   3.681   0.943   3.510 -1.2238 -0.9251  0.7629
 6833SOL    HW231959   3.609   0.951   3.637  0.6046  0.9131 -0.2108
 6834SOL     OW31960   2.326   2.236  15.737 -0.3815 -0.2792  0.2582
 6834SOL    HW131961   2.350   2.278  15.820 -0.1631 -1.4847  0.8162
 6834SOL    HW231962   2.415   2.230  15.704 -0.2370  0.0038  0.5864
 6835SOL     OW31963   2.495   4.617   6.959  0.3035 -0.2363  0.6618
 6835SOL    HW131964   2.413   4.660   6.935  0.9337  1.2807  1.2367
 6835SOL    HW231965   2.546   4.671   6.899 -2.3364  1.3391 -0.1845
 6836SOL     OW31966   4.714   0.930  17.264  0.1484 -0.1396 -0.1014
 6836SOL    HW131967   4.702   0.987  17.188 -0.0443 -0.6307 -0.4419
 6836SOL    HW231968   4.678   0.988  17.331 -2.6763 -0.4652 -1.3607
 6837SOL     OW31969   0.596   4.053   5.134  0.1928 -0.2129  0.2706
 6837SOL    HW131970   0.659   4.012   5.076  0.9098  1.9688 -0.4891
 6837SOL    HW231971   0.579   3.979   5.192 -2.4673 -1.4602 -2.0668
 6838SOL     OW31972   0.958   0.392   8.729 -0.1799  0.4714  0.6569
 6838SOL    HW131973   0.951   0.329   8.659  0.7522  0.6587  0.3890
 6838SOL    HW231974   0.996   0.333   8.795  0.0343  1.3026  1.2907
 6839SOL     OW31975   1.425   1.371   1.677 -0.4027  0.6037 -0.3914
 6839SOL    HW131976   1.494   1.374   1.744 -0.6545  0.3859 -0.1238
 6839SOL    HW231977   1.349   1.380   1.734  0.5528  1.9693  0.6685
 6840SOL     OW31978   0.175   1.912   2.494 -0.0048  0.0022  0.1417
 6840SOL    HW131979   0.186   2.006   2.505  1.7233 -0.2018  0.1431
 6840SOL    HW231980   0.126   1.907   2.412  0.7312  3.0277 -0.4624
 6841SOL     OW31981   0.193   4.635   4.105  0.0649  0.3319 -0.5519
 6841SOL    HW131982   0.266   4.668   4.052 -3.1713  2.7969 -3.3945
 6841SOL    HW231983   0.222   4.654   4.194  0.5768  1.5749 -0.9866
 6842SOL     OW31984   1.433   3.571  11.486 -0.4731 -0.4531 -0.2311
 6842SOL    HW131985   1.430   3.645  11.547 -2.1290 -0.2582 -0.5275
 6842SOL    HW231986   1.479   3.602  11.408 -1.3618  1.4025 -0.0408
 6843SOL     OW31987   3.438   4.642  17.358 -0.3426 -0.1993  0.0190
 6843SOL    HW131988   3.411   4.631  17.267 -0.1382 -0.3118 -0.0283
 6843SOL    HW231989   3.441   0.013  17.356 -3.9495 -0.0360  2.6598
 6844SOL     OW31990   1.330   4.336  11.137 -0.3004 -0.2245  0.1639
 6844SOL    HW131991   1.321   4.343  11.232  1.5386 -0.8083  0.3880
 6844SOL    HW231992   1.288   4.254  11.109  3.9134 -2.4525  0.2874
 6845SOL     OW31993   0.206   2.139   7.774  0.1878  1.0836  0.0480
 6845SOL    HW131994   0.273   2.073   7.755  0.1419  0.6708  1.3409
 6845SOL    HW231995   0.120   2.111   7.740  0.4608  0.3216 -0.0104
 6846SOL     OW31996   4.476   1.964  15.879 -0.0184  0.3743 -0.2210
 6846SOL    HW131997   4.456   1.871  15.871 -1.4073  0.6299  0.3565
 6846SOL    HW231998   4.396   1.994  15.922  1.6039  1.7286  1.8669
 6847SOL     OW31999   0.892   0.160   0.948  0.0927 -0.7295 -0.2719
 6847SOL    HW132000   0.827   0.220   0.985 -1.4154 -2.2454 -0.4430
 6847SOL    HW232001   0.842   0.127   0.873  1.3259 -1.6832 -0.6738
 6848SOL     OW32002   2.713   1.540   5.960 -0.1536  0.1854  0.5730
 6848SOL    HW132003   2.749   1.500   5.881 -0.1963  1.9415 -0.3214
 6848SOL    HW232004   2.651   1.591   5.908 -0.4117 -0.1082  0.5848
 6849SOL     OW32005   2.098   3.794   7.713 -0.4271 -0.4243 -0.8385
 6849SOL    HW132006   2.112   3.830   7.801  1.9951 -0.1691 -1.3325
 6849SOL    HW232007   2.185   3.757   7.697  0.1035  0.1308  0.7027
 6850SOL     OW32008   3.004   1.414   6.698  0.1011  0.3616  0.2295
 6850SOL    HW132009   2.962   1.400   6.613 -0.5324 -1.7007  0.9018
 6850SOL    HW232010   3.043   1.501   6.690  0.9960 -0.0393  0.2327
 6851SOL     OW32011   1.163   4.594   3.983 -0.6010  0.2827  0.5058
 6851SOL    HW132012   1.067   4.593   3.985 -0.6762  1.1703 -2.0779
 6851SOL    HW232013   1.186   4.600   3.890  1.1420  1.3601  1.0028
 6852SOL     OW32014   2.206   4.646   7.254  0.0414 -0.0708 -0.3185
 6852SOL    HW132015   2.167   0.008   7.256 -0.1603 -0.2342  3.9075
 6852SOL    HW232016   2.296   4.673   7.267  0.2444 -0.3902 -1.0678
 6853SOL     OW32017   4.035   3.694   6.316  0.2679  0.4448 -0.1183
 6853SOL    HW132018   3.977   3.630   6.275  0.4687 -0.2653  0.6985
 6853SOL    HW232019   4.119   3.649   6.309 -0.6202 -1.3664  0.6192
 6854SOL     OW32020   3.974   2.842   5.913  0.0656  0.6267 -0.1675
 6854SOL    HW132021   4.048   2.804   5.961  0.8378 -0.0679 -1.9089
 6854SOL    HW232022   3.901   2.794   5.952 -0.3083  0.8777 -0.5506
 6855SOL     OW32023   3.641   1.322  15.841  0.1024  0.0429 -0.3054
 6855SOL    HW132024   3.555   1.297  15.806 -0.5044  1.0097  0.5227
 6855SOL    HW232025   3.632   1.414  15.817  0.1439  0.2129  0.3319
 6856SOL     OW32026   1.169   0.245   1.647 -0.0632  0.3525  0.4963
 6856SOL    HW132027   1.227   0.318   1.625  0.5008  0.6957  3.1795
 6856SOL    HW232028   1.177   0.196   1.565  1.9935 -0.8185  1.3996
 6857SOL     OW32029   1.491   2.468   2.195 -0.5864  0.1421  0.2784
 6857SOL    HW132030   1.401   2.461   2.163 -0.2014 -0.3622 -0.6848
 6857SOL    HW232031   1.535   2.518   2.127  1.4042 -0.3727  1.1919
 6858SOL     OW32032   2.463   0.956   3.717 -0.2181  0.2976 -0.6166
 6858SOL    HW132033   2.540   0.998   3.753  0.9200 -0.9801 -1.5676
 6858SOL    HW232034   2.490   0.869   3.689  2.3721  0.3137  1.7867
 6859SOL     OW32035   4.680   0.159  15.184 -0.2914  0.3154  0.0945
 6859SOL    HW132036   4.588   0.148  15.162  0.0858 -0.2364 -1.1764
 6859SOL    HW232037   4.673   0.174  15.279 -2.6176 -0.2525  0.0093
 6860SOL     OW32038   0.134   4.162   2.144  0.2651  0.6324 -0.1314
 6860SOL    HW132039   0.126   4.215   2.223  1.5223  1.0708 -0.2986
 6860SOL    HW232040   0.058   4.188   2.091 -1.8484  1.6149  3.4295
 6861SOL     OW32041   3.903   0.481  13.485  0.7078 -0.1740 -0.3083
 6861SOL    HW132042   3.837   0.515  13.424  0.1343 -2.0684 -0.7370
 6861SOL    HW232043   3.986   0.514  13.451  0.5799  0.4405 -0.0264
 6862SOL     OW32044   1.068   3.089   6.076 -0.4664 -0.3747 -0.2080
 6862SOL    HW132045   1.131   3.032   6.032 -0.5354  0.7808 -1.8247
 6862SOL    HW232046   1.070   3.160   6.012  1.1315 -0.0284  0.2447
 6863SOL     OW32047   0.799   3.194   6.873 -0.0102 -0.6092 -0.8111
 6863SOL    HW132048   0.827   3.286   6.870 -0.1082 -0.5523 -0.1074
 6863SOL    HW232049   0.887   3.157   6.879 -0.0062 -0.7008 -1.4090
 6864SOL     OW32050   1.859   1.266  13.593  0.4517 -0.0030 -0.0368
 6864SOL    HW132051   1.916   1.235  13.663 -0.2550 -0.8369  0.1676
 6864SOL    HW232052   1.923   1.280  13.524 -1.4408  0.6365 -1.6657
 6865SOL     OW32053   1.296   0.243   3.108 -0.2994 -0.2561  0.1138
 6865SOL    HW132054   1.273   0.155   3.079 -1.0668  1.3194 -3.9266
 6865SOL    HW232055   1.209   0.264   3.142 -0.2648  1.2437 -0.7456
 6866SOL     OW32056   0.684   3.583   9.361 -0.2246 -0.0711 -0.0178
 6866SOL    HW132057   0.754   3.615   9.304 -0.8672 -2.2449 -2.0006
 6866SOL    HW232058   0.638   3.665   9.377 -0.2284 -0.2542  0.9077
 6867SOL     OW32059   4.231   3.194   8.084 -0.2027 -0.6142 -0.0250
 6867SOL    HW132060   4.285   3.119   8.056  2.8084  1.3755  0.4004
 6867SOL    HW232061   4.236   3.179   8.179 -1.8587  2.9515  0.6055
 6868SOL     OW32062   3.777   4.464   9.461 -0.3531  0.4701  0.1789
 6868SOL    HW132063   3.810   4.374   9.469 -0.8698  0.2415 -0.2552
 6868SOL    HW232064   3.858   4.508   9.435  0.6700 -1.3827  0.2097
 6869SOL     OW32065   1.812   4.022  12.350 -0.5065  0.4452 -0.2126
 6869SOL    HW132066   1.819   4.115  12.373  0.4380  0.1692  0.6347
 6869SOL    HW232067   1.797   4.025  12.256  1.7069 -1.0705 -0.6127
 6870SOL     OW32068   0.031   1.035   7.546  0.3243  0.0044 -0.2616
 6870SOL    HW132069   0.089   1.044   7.622  0.8994 -1.5247 -0.5243
 6870SOL    HW232070   4.696   0.975   7.589 -1.1105  1.2514 -0.5299
 6871SOL     OW32071   4.221   0.031   6.808 -0.4166 -0.3237  0.4866
 6871SOL    HW132072   4.163   0.024   6.884 -0.9804 -0.5096  0.0341
 6871SOL    HW232073   4.174   0.094   6.754  0.1167 -0.6467 -0.3567
 6872SOL     OW32074   0.183   3.525  10.558  0.5306  0.5989 -0.4166
 6872SOL    HW132075   0.100   3.487  10.585  0.2705  1.6572  0.2795
 6872SOL    HW232076   0.247   3.468  10.601  0.0011 -0.0459 -0.4950
 6873SOL     OW32077   3.902   3.629   2.174 -0.1693 -0.0209 -0.0872
 6873SOL    HW132078   3.821   3.587   2.145 -0.1135  0.1536 -0.4867
 6873SOL    HW232079   3.885   3.719   2.147 -0.0467  0.1113  0.2792
 6874SOL     OW32080   1.359   2.653  12.874  0.5596  0.1386  0.5294
 6874SOL    HW132081   1.396   2.628  12.789  1.4145  3.8551 -0.1955
 6874SOL    HW232082   1.389   2.577  12.924  0.8545  0.1223  0.3322
 6875SOL     OW32083   0.394   4.513   1.693  0.4407  0.1124 -0.1681
 6875SOL    HW132084   0.379   4.439   1.635 -0.6072  1.1239 -1.1856
 6875SOL    HW232085   0.488   4.518   1.681  0.5123 -1.7509 -0.3803
 6876SOL     OW32086   2.479   1.692   8.733  0.1454  0.0076  0.3219
 6876SOL    HW132087   2.506   1.681   8.642 -0.2477 -0.4638  0.2604
 6876SOL    HW232088   2.549   1.637   8.771 -1.1888 -0.7991  1.6126
 6877SOL     OW32089   3.725   4.710   2.374  0.0706 -0.1053  0.5681
 6877SOL    HW132090   3.698   4.638   2.317 -1.6091 -0.8780  2.3128
 6877SOL    HW232091   3.810   0.015   2.344  0.2345  1.2469  2.4031
 6878SOL     OW32092   0.530   4.361   5.147  0.0028 -0.1681 -0.7902
 6878SOL    HW132093   0.494   4.301   5.212 -0.4592  1.4423  0.4398
 6878SOL    HW232094   0.577   4.293   5.098  2.0059  0.4034  0.3671
 6879SOL     OW32095   4.332   3.606   2.959 -0.5464 -0.1039 -0.6763
 6879SOL    HW132096   4.309   3.589   3.051 -0.1202  0.0301 -0.5404
 6879SOL    HW232097   4.275   3.680   2.938  0.2194  0.8020  0.4100
 6880SOL     OW32098   3.260   1.111   4.173 -0.4206 -0.4084  0.1261
 6880SOL    HW132099   3.331   1.088   4.114  0.3407 -1.0552  1.2794
 6880SOL    HW232100   3.304   1.153   4.247 -2.9416 -0.2270  1.5428
 6881SOL     OW32101   2.678   0.197  14.184 -0.1391 -0.0017 -0.0121
 6881SOL    HW132102   2.626   0.144  14.244 -0.0459  0.9237  0.8750
 6881SOL    HW232103   2.762   0.153  14.192 -0.1786 -0.1798 -0.5829
 6882SOL     OW32104   3.704   3.334   4.209  0.5196 -0.1765  0.5667
 6882SOL    HW132105   3.613   3.334   4.238  0.4842  2.2635  0.4575
 6882SOL    HW232106   3.713   3.242   4.187 -1.0443  0.2982 -1.9857
 6883SOL     OW32107   4.694   0.037  16.738 -0.7803  0.6563  0.3778
 6883SOL    HW132108   4.604   0.068  16.748 -0.9292  0.6108 -0.9045
 6883SOL    HW232109   4.725   0.077  16.657  1.6156  0.1303  1.0147
 6884SOL     OW32110   4.168   3.241   9.309 -0.3814 -0.1236  0.7769
 6884SOL    HW132111   4.079   3.208   9.294 -1.1236  1.9065  0.6857
 6884SOL    HW232112   4.199   3.250   9.219 -0.1462  1.1109  0.9895
 6885SOL     OW32113   0.697   3.633  12.384 -0.0287 -0.3252 -0.2281
 6885SOL    HW132114   0.717   3.583  12.306 -2.3157 -1.0276 -0.3539
 6885SOL    HW232115   0.739   3.716  12.361 -1.1470  0.1958 -0.4048
 6886SOL     OW32116   4.622   4.268   2.068  0.1593 -0.1581  0.4785
 6886SOL    HW132117   4.625   4.259   1.972  1.8265  0.3384  0.4906
 6886SOL    HW232118   4.624   4.363   2.072  0.5167 -0.1539  0.2648
 6887SOL     OW32119   2.837   0.939   4.492  0.7740  0.1003  0.1309
 6887SOL    HW132120   2.810   0.852   4.463  1.9170 -0.9840  2.2777
 6887SOL    HW232121   2.750   0.978   4.492  0.4083 -0.7060  1.8083
 6888SOL     OW32122   1.145   1.590   0.722 -0.3515  0.4284 -0.3058
 6888SOL    HW132123   1.170   1.609   0.632  1.7347  3.2040  0.8587
 6888SOL    HW232124   1.117   1.677   0.751  1.7678  0.8753  0.3488
 6889SOL     OW32125   3.324   2.382   3.729  0.2089 -0.5066  0.4712
 6889SOL    HW132126   3.293   2.443   3.661  1.5052  0.0529  0.3899
 6889SOL    HW232127   3.305   2.294   3.699 -1.5226  0.8492 -2.3831
 6890SOL     OW32128   0.647   4.289   7.111 -0.3290 -0.4775 -0.1521
 6890SOL    HW132129   0.611   4.295   7.023 -1.4770 -1.9735  0.1955
 6890SOL    HW232130   0.714   4.221   7.105  1.0712  0.7931  1.2931
 6891SOL     OW32131   2.982   3.628   5.907 -0.0109 -0.2145  0.2534
 6891SOL    HW132132   2.959   3.682   5.832 -1.9244 -0.8722  0.3616
 6891SOL    HW232133   2.901   3.633   5.957 -0.9486 -0.1991 -1.3020
 6892SOL     OW32134   3.897   0.172   7.135 -0.3457  0.0870  0.0488
 6892SOL    HW132135   3.884   0.128   7.219 -1.9865 -0.0795 -0.3058
 6892SOL    HW232136   3.944   0.252   7.158 -0.0032  0.4839 -2.0270
 6893SOL     OW32137   4.608   0.325  11.980 -1.0399 -0.3400  0.2787
 6893SOL    HW132138   4.612   0.320  12.075  0.5630 -2.2844  0.1203
 6893SOL    HW232139   4.650   0.409  11.963 -0.6745 -0.2159  1.8075
 6894SOL     OW32140   1.697   2.808  13.920  0.2628  0.4764 -0.1057
 6894SOL    HW132141   1.774   2.865  13.921 -0.6647  1.7222  0.9662
 6894SOL    HW232142   1.665   2.829  14.007 -0.8178 -1.5372 -0.0255
 6895SOL     OW32143   1.371   3.781   5.056 -0.2291  0.2688 -0.1332
 6895SOL    HW132144   1.304   3.764   4.989 -0.9849 -1.6283  1.0828
 6895SOL    HW232145   1.456   3.766   5.016 -1.9190 -1.3046 -3.1516
 6896SOL     OW32146   2.276   0.031   6.398 -0.2899  0.1306 -0.0625
 6896SOL    HW132147   2.184   0.059   6.395 -0.2893  0.0474 -1.2612
 6896SOL    HW232148   2.302   0.070   6.481 -0.6203 -0.6353  0.4017
 6897SOL     OW32149   1.801   2.448   8.334  0.4908 -0.0676  0.2205
 6897SOL    HW132150   1.893   2.461   8.311  0.2394  1.4566  0.1120
 6897SOL    HW232151   1.800   2.484   8.423 -0.6406 -0.9156  0.5548
 6898SOL     OW32152   0.083   4.691   8.702 -0.1534 -0.7122 -0.0110
 6898SOL    HW132153   0.139   4.677   8.779  0.7851 -3.4105 -1.1927
 6898SOL    HW232154   0.081   4.606   8.657 -0.7522 -0.4924 -0.3887
 6899SOL     OW32155   2.592   3.673  10.494  0.2134  0.1196  0.5961
 6899SOL    HW132156   2.582   3.579  10.479 -0.7963  0.6405 -2.0278
 6899SOL    HW232157   2.621   3.692  10.405 -2.6572 -0.2347 -0.3929
 6900SOL     OW32158   3.175   2.287   5.420  0.2579  0.5802 -0.3136
 6900SOL    HW132159   3.195   2.222   5.352 -1.4803  1.0354 -1.2502
 6900SOL    HW232160   3.248   2.348   5.407  1.9369 -1.2630  0.3580
 6901SOL     OW32161   1.848   3.407   7.355 -0.2655 -0.3991 -0.0014
 6901SOL    HW132162   1.922   3.463   7.380  0.7182  0.2739 -4.3089
 6901SOL    HW232163   1.902   3.354   7.296 -1.4466  2.1128 -3.3858
 6902SOL     OW32164   4.670   1.540   8.126 -0.1509 -0.6030 -0.3272
 6902SOL    HW132165   4.598   1.478   8.111 -2.6705  1.8422  1.6166
 6902SOL    HW232166   4.641   1.582   8.208  1.5732 -0.9135  0.4285
 6903SOL     OW32167   1.472   3.130   1.418  0.7767 -0.4097  0.1517
 6903SOL    HW132168   1.485   3.224   1.426  0.0676 -0.1874 -1.2806
 6903SOL    HW232169   1.536   3.106   1.350  0.0339 -0.3121 -0.5821
 6904SOL     OW32170   0.271   1.917   4.509 -0.5024 -0.8097 -0.7492
 6904SOL    HW132171   0.273   1.824   4.535 -0.7085 -0.4803  0.4661
 6904SOL    HW232172   0.191   1.954   4.547  0.2776  1.7110 -1.5749
 6905SOL     OW32173   2.286   3.547   2.203 -0.8140  0.4301  0.1914
 6905SOL    HW132174   2.358   3.588   2.156 -1.8495  3.8983  1.6263
 6905SOL    HW232175   2.209   3.573   2.152 -1.1727  1.1041  1.0604
 6906SOL     OW32176   3.982   4.601   7.962  0.6747  0.2123  0.1758
 6906SOL    HW132177   3.995   4.611   8.056  0.1569  2.1073  0.0472
 6906SOL    HW232178   4.001   4.508   7.953  0.0136  0.3029 -2.0421
 6907SOL     OW32179   3.364   3.542  12.153  0.0386 -0.7660 -1.3136
 6907SOL    HW132180   3.362   3.447  12.163 -1.3136 -0.5486  0.5746
 6907SOL    HW232181   3.273   3.554  12.124 -0.6331 -1.0133  0.7019
 6908SOL     OW32182   1.366   4.166   8.906 -0.3593 -0.1619  0.4143
 6908SOL    HW132183   1.412   4.244   8.938 -0.4813  0.0867 -0.0144
 6908SOL    HW232184   1.367   4.112   8.985  0.1447 -2.4284 -1.1326
 6909SOL     OW32185   4.632   0.890   2.291 -0.2449  0.2956 -0.3863
 6909SOL    HW132186   4.621   0.852   2.378 -0.4928  2.0853  0.3579
 6909SOL    HW232187   4.616   0.816   2.232 -2.5625 -1.8539  2.9343
 6910SOL     OW32188   1.609   3.532   5.342  0.3550 -0.0244  0.2532
 6910SOL    HW132189   1.606   3.614   5.391 -0.2647  0.4108 -0.5209
 6910SOL    HW232190   1.522   3.543   5.303  0.6062  0.5230 -0.1476
 6911SOL     OW32191   0.992   4.049   6.746 -0.3066  0.1700  0.1325
 6911SOL    HW132192   0.937   4.127   6.743 -0.2168  0.2397  0.2945
 6911SOL    HW232193   1.080   4.083   6.763 -0.3200  1.2687 -1.9313
 6912SOL     OW32194   3.981   1.641  16.259 -0.1097  0.1433  0.0198
 6912SOL    HW132195   3.943   1.689  16.333 -0.7443 -0.8680  0.3478
 6912SOL    HW232196   3.990   1.554  16.299  0.6146  0.2759  0.1486
 6913SOL     OW32197   0.936   2.314  11.503  0.3078 -0.3175 -0.3438
 6913SOL    HW132198   1.018   2.329  11.550  0.8094  0.8360 -1.5908
 6913SOL    HW232199   0.883   2.312  11.583 -0.1286 -0.2147 -0.6336
 6914SOL     OW32200   1.621   4.135   3.775  0.6624 -0.2055 -0.1344
 6914SOL    HW132201   1.705   4.097   3.802 -0.0494 -0.8647  1.1863
 6914SOL    HW232202   1.649   4.226   3.777 -3.4359  0.9847  1.6362
 6915SOL     OW32203   2.586   2.249   1.841 -0.0084  0.2398 -0.1255
 6915SOL    HW132204   2.647   2.271   1.770 -0.0239 -1.1438 -0.5817
 6915SOL    HW232205   2.577   2.332   1.886  2.5603  1.5786 -2.0932
 6916SOL     OW32206   1.751   1.606  10.510  0.1688 -0.3301  0.1635
 6916SOL    HW132207   1.747   1.526  10.457 -0.5623  0.8145 -1.5295
 6916SOL    HW232208   1.837   1.602  10.551 -0.2109 -1.7170  0.8275
 6917SOL     OW32209   3.910   3.143   5.717 -0.8449 -0.1747  0.4689
 6917SOL    HW132210   3.892   3.225   5.673 -0.2382  0.0691  0.6665
 6917SOL    HW232211   3.895   3.080   5.647 -1.3465 -0.8572  1.1910
 6918SOL     OW32212   2.312   0.656   2.694  0.0304 -0.5590  0.1622
 6918SOL    HW132213   2.391   0.650   2.639  1.4565 -1.0002  2.2866
 6918SOL    HW232214   2.261   0.715   2.639 -0.7653 -1.4483 -0.0597
 6919SOL     OW32215   2.093   3.595   0.234  0.0438 -0.3750 -0.5282
 6919SOL    HW132216   2.021   3.654   0.255  0.0883 -0.3695 -0.3896
 6919SOL    HW232217   2.171   3.652   0.229 -0.3353  0.0502 -1.6355
 6920SOL     OW32218   3.770   3.895  17.590  0.6406 -0.1022 -0.0410
 6920SOL    HW132219   3.786   3.804  17.565 -1.8066 -0.9073  1.3266
 6920SOL    HW232220   3.860   3.915  17.615  0.5849 -0.3409  0.3624
 6921SOL     OW32221   4.381   4.144   2.100  0.1614 -0.3613  0.2472
 6921SOL    HW132222   4.459   4.194   2.121 -0.9375  0.7555  1.6565
 6921SOL    HW232223   4.410   4.061   2.061 -0.2989  0.5025 -1.8951
 6922SOL     OW32224   1.086   0.346   1.057 -0.1696 -0.4750 -0.5228
 6922SOL    HW132225   1.021   0.294   1.011 -1.0137 -1.3010  1.5934
 6922SOL    HW232226   1.160   0.298   1.019  0.9285 -0.2579  1.3586
 6923SOL     OW32227   2.516   3.890  12.659 -0.1193  0.0700 -0.1548
 6923SOL    HW132228   2.496   3.807  12.702 -0.4027 -0.9708 -2.3101
 6923SOL    HW232229   2.458   3.960  12.691 -0.7246 -0.8904  0.8646
 6924SOL     OW32230   2.813   4.350   6.376 -1.0195  0.0228 -0.2992
 6924SOL    HW132231   2.903   4.371   6.400 -0.3715 -1.5607 -1.3014
 6924SOL    HW232232   2.819   4.259   6.346 -1.0441  0.2699 -1.0699
 6925SOL     OW32233   3.255   1.863   4.476  0.2011  0.0600  0.3568
 6925SOL    HW132234   3.299   1.934   4.524  2.0818 -0.0832 -1.1744
 6925SOL    HW232235   3.264   1.798   4.545 -1.1211 -0.9840 -0.4592
 6926SOL     OW32236   1.821   0.466   7.169  0.2956 -0.0593  0.0569
 6926SOL    HW132237   1.882   0.533   7.199 -2.0044  0.7633  2.9558
 6926SOL    HW232238   1.845   0.392   7.225 -1.7111 -0.6847  0.1053
 6927SOL     OW32239   0.292   1.511  17.294  0.5559  0.7865  0.5262
 6927SOL    HW132240   0.198   1.495  17.306  0.2903  1.3399 -0.8740
 6927SOL    HW232241   0.329   1.424  17.310 -2.3243 -0.3206  1.1550
 6928SOL     OW32242   4.309   1.993   0.370  0.1231  0.2244  0.6185
 6928SOL    HW132243   4.215   1.999   0.351  0.2900  0.5599 -0.0876
 6928SOL    HW232244   4.345   2.076   0.339 -0.7158 -0.2249 -1.5230
 6929SOL     OW32245   2.752   3.936   4.522 -0.3846  0.1422  0.6000
 6929SOL    HW132246   2.819   3.877   4.557  1.6626  1.0431 -1.7431
 6929SOL    HW232247   2.777   3.940   4.430 -1.1490  1.9771  0.4607
 6930SOL     OW32248   2.710   0.958  12.680 -0.0281 -0.4594  0.4168
 6930SOL    HW132249   2.628   0.914  12.700  0.3288 -0.6730  1.4239
 6930SOL    HW232250   2.692   1.052  12.687 -1.9125 -0.9229  2.1157
 6931SOL     OW32251   0.086   0.709  17.541  0.0646 -0.3141  0.5212
 6931SOL    HW132252   0.075   0.633  17.597  2.6783 -0.2663  1.1124
 6931SOL    HW232253   0.063   0.779  17.601 -0.8797  0.8030 -1.1389
 6932SOL     OW32254   4.501   2.330  13.151 -0.5694 -0.3069  0.4397
 6932SOL    HW132255   4.433   2.392  13.175  0.8212  1.5219 -0.3786
 6932SOL    HW232256   4.456   2.273  13.088  1.7674 -1.0964 -0.5197
 6933SOL     OW32257   2.663   2.383   4.445  0.2246 -0.1687  0.1154
 6933SOL    HW132258   2.656   2.419   4.357 -0.3056  1.9393  1.0158
 6933SOL    HW232259   2.749   2.414   4.473  0.3449  3.8627 -4.8029
 6934SOL     OW32260   4.408   2.183   1.898  0.4018  0.6074 -0.0635
 6934SOL    HW132261   4.380   2.093   1.918  0.8370  0.9059  1.8128
 6934SOL    HW232262   4.411   2.181   1.802 -1.3605  1.5424 -0.1407
 6935SOL     OW32263   1.291   2.536   7.257  0.7050 -0.0590 -0.2315
 6935SOL    HW132264   1.262   2.446   7.274  0.3026  0.4506  1.8571
 6935SOL    HW232265   1.338   2.555   7.339 -1.1249 -0.5325  0.9372
 6936SOL     OW32266   2.199   3.372   7.901  0.3612 -0.0455  0.3432
 6936SOL    HW132267   2.246   3.436   7.955  1.5092 -0.9956  0.4848
 6936SOL    HW232268   2.256   3.295   7.905 -0.4641 -0.7765 -2.5289
 6937SOL     OW32269   2.050   1.103  13.742  0.4354 -0.5191 -0.3930
 6937SOL    HW132270   1.986   1.049  13.695  1.3630 -0.2032 -2.0311
 6937SOL    HW232271   2.133   1.066  13.710  1.6491  0.6960  1.3769
 6938SOL     OW32272   0.430   2.698   5.004 -0.3407 -0.1200 -0.7107
 6938SOL    HW132273   0.365   2.715   4.936 -1.9080  0.2347  0.8925
 6938SOL    HW232274   0.511   2.666   4.963  0.4507  0.9844 -0.0093
 6939SOL     OW32275   3.074   3.131   4.323  0.3417 -0.5736  0.2088
 6939SOL    HW132276   3.115   3.122   4.237 -0.9705 -0.5598 -0.4216
 6939SOL    HW232277   3.093   3.047   4.364 -1.3653 -0.4407  1.2460
 6940SOL     OW32278   4.521   3.990   1.934 -0.1917 -0.3908  0.4662
 6940SOL    HW132279   4.568   4.053   1.879 -0.3066  0.1009  0.9330
 6940SOL    HW232280   4.459   3.954   1.870 -0.8411 -0.4252  1.1162
 6941SOL     OW32281   4.247   2.511   3.282 -0.2695 -0.4931 -0.1244
 6941SOL    HW132282   4.323   2.533   3.229 -1.1048  0.7132 -0.8209
 6941SOL    HW232283   4.260   2.416   3.288 -2.3042 -0.9069 -2.0464
 6942SOL     OW32284   1.279   1.415  13.435  0.1826  0.0975  0.1692
 6942SOL    HW132285   1.213   1.469  13.479  1.4418  0.7600  1.2401
 6942SOL    HW232286   1.252   1.327  13.461  1.0260 -0.0200  0.6134
 6943SOL     OW32287   3.616   4.647  16.100  0.1546 -0.2140 -0.8709
 6943SOL    HW132288   3.634   0.016  16.096 -0.6752  0.0062  0.6622
 6943SOL    HW232289   3.554   4.647  16.028 -2.7892 -0.3768  1.6810
 6944SOL     OW32290   4.129   1.470   7.517  0.1221  0.3422  0.1142
 6944SOL    HW132291   4.036   1.474   7.541 -0.3396 -2.0454 -1.2225
 6944SOL    HW232292   4.150   1.392   7.568 -1.8424 -0.9843 -1.0649
 6945SOL     OW32293   3.371   1.811   3.669  0.0825 -0.0917  0.0245
 6945SOL    HW132294   3.364   1.791   3.762  1.8115  0.2262  0.2334
 6945SOL    HW232295   3.463   1.785   3.659 -0.0334 -1.1995  1.9519
 6946SOL     OW32296   3.469   3.050  11.515  0.4514 -0.5827 -0.1227
 6946SOL    HW132297   3.484   3.005  11.598  0.8257 -0.3580 -0.0691
 6946SOL    HW232298   3.559   3.043  11.483  0.9704  0.6715  1.0517
 6947SOL     OW32299   1.955   4.720   7.674  0.4940 -0.6457  0.3267
 6947SOL    HW132300   1.952   0.062   7.606 -2.3365 -1.1799 -0.0788
 6947SOL    HW232301   1.932   4.647   7.617  0.3777  0.2732 -0.8218
 6948SOL     OW32302   1.380   2.325  13.039  0.0568 -0.2084 -0.0333
 6948SOL    HW132303   1.428   2.269  12.978 -0.3145  0.1203 -0.6398
 6948SOL    HW232304   1.401   2.271  13.114  1.7999 -0.1621 -0.5046
 6949SOL     OW32305   0.275   1.749   6.835 -0.2109  0.2573 -0.5328
 6949SOL    HW132306   0.301   1.807   6.764  0.8341 -0.5363 -0.7960
 6949SOL    HW232307   0.183   1.738   6.812  0.2721 -0.4920 -2.1138
 6950SOL     OW32308   0.149   3.243  14.897  0.2340  0.3997  0.2134
 6950SOL    HW132309   0.157   3.215  14.988 -0.6892  0.7228  0.3973
 6950SOL    HW232310   0.054   3.257  14.899 -0.2069 -2.3701 -0.6467
 6951SOL     OW32311   0.290   2.798   4.369  0.1394  0.1966  0.6318
 6951SOL    HW132312   0.283   2.870   4.306 -0.0789 -1.3206 -1.0725
 6951SOL    HW232313   0.249   2.839   4.445 -2.4400 -0.8594 -0.2193
 6952SOL     OW32314   4.720   4.491  17.001 -0.2722 -0.6950 -0.5257
 6952SOL    HW132315   4.686   4.523  17.084 -0.6537 -0.9080 -0.6002
 6952SOL    HW232316   0.032   4.412  17.041  0.0491 -1.4533 -2.2778
 6953SOL     OW32317   2.019   2.782   7.480  0.2944  0.0836 -0.2820
 6953SOL    HW132318   1.967   2.859   7.456  0.4100 -0.6848 -2.9784
 6953SOL    HW232319   2.099   2.800   7.431  0.1965  1.0547 -0.0907
 6954SOL     OW32320   3.098   0.012   1.315 -0.1506 -0.3903 -0.3433
 6954SOL    HW132321   3.082   4.703   1.227  0.4660  0.1567 -0.6665
 6954SOL    HW232322   3.125   4.660   1.364  2.6692  0.7412 -0.1306
 6955SOL     OW32323   0.166   3.165  15.425  0.0144  0.4860  0.2829
 6955SOL    HW132324   0.175   3.150  15.331  1.1854  0.2471  0.4367
 6955SOL    HW232325   0.250   3.207  15.440  0.2945  0.3194 -0.8152
 6956SOL     OW32326   4.000   2.566   2.093  0.2519  0.4338  0.0889
 6956SOL    HW132327   3.968   2.607   2.174  0.1715  0.6631 -0.0575
 6956SOL    HW232328   3.949   2.485   2.100  0.0876  0.6191  1.0705
 6957SOL     OW32329   4.632   1.872   9.895  0.1791 -0.7957 -0.0683
 6957SOL    HW132330   4.711   1.892   9.944  0.8427 -1.6773 -0.7611
 6957SOL    HW232331   4.567   1.879   9.965  0.0235  0.1947 -0.3133
 6958SOL     OW32332   1.470   2.278   1.916 -0.2606  0.3783 -0.1059
 6958SOL    HW132333   1.468   2.238   2.003 -1.6127  0.2717 -0.1870
 6958SOL    HW232334   1.379   2.272   1.887 -1.0003  1.1371  2.0492
 6959SOL     OW32335   1.535   3.038  13.055 -0.2899  0.2777  0.4219
 6959SOL    HW132336   1.622   3.060  13.088  0.3413 -0.7767 -0.5334
 6959SOL    HW232337   1.544   3.042  12.959  0.1566 -0.5879  0.4262
 6960SOL     OW32338   0.149   4.131   8.701 -0.2513 -0.0047 -0.8746
 6960SOL    HW132339   0.179   4.143   8.611  1.8154 -2.4625 -0.5250
 6960SOL    HW232340   0.057   4.139   8.674 -0.5502 -0.5312 -0.0231
 6961SOL     OW32341   1.187   3.125   2.982 -0.9511  0.0193  0.3927
 6961SOL    HW132342   1.098   3.092   2.992 -0.8396 -0.2302  0.5720
 6961SOL    HW232343   1.200   3.135   2.887  1.7579 -0.6179  0.6911
 6962SOL     OW32344   2.557   4.079   8.092  0.0652  0.5969  0.0664
 6962SOL    HW132345   2.583   4.164   8.058  0.4210  0.7434  0.7011
 6962SOL    HW232346   2.622   4.067   8.161 -2.2144 -2.1212  1.7766
 6963SOL     OW32347   4.478   3.823   4.222 -0.3213  0.0530 -0.1292
 6963SOL    HW132348   4.446   3.837   4.133 -0.0514  1.2645 -0.0316
 6963SOL    HW232349   4.508   3.732   4.217  0.7524  0.3066  1.7642
 6964SOL     OW32350   3.690   0.331   1.341 -0.0824 -0.1604  0.0821
 6964SOL    HW132351   3.614   0.275   1.330  0.1076 -0.2178 -0.9152
 6964SOL    HW232352   3.652   0.417   1.361  2.2758  0.6078  1.3026
 6965SOL     OW32353   0.945   1.076  17.599 -0.3516  0.0638 -0.0384
 6965SOL    HW132354   0.851   1.064  17.606 -0.0959 -2.3281 -0.7457
 6965SOL    HW232355   0.948   1.170  17.580  1.1560  0.2728  1.2411
 6966SOL     OW32356   3.675   2.940   9.274  0.6875 -0.2735 -0.2930
 6966SOL    HW132357   3.693   2.892   9.193  2.8972 -0.5624  0.3827
 6966SOL    HW232358   3.732   2.890   9.332 -1.6737  0.8609  2.9939
 6967SOL     OW32359   1.338   2.586  11.165 -0.1899 -0.0004  0.1532
 6967SOL    HW132360   1.396   2.645  11.117 -1.5933  0.2600 -1.2020
 6967SOL    HW232361   1.347   2.508  11.111  0.6627  2.0453 -2.6781
 6968SOL     OW32362   3.415   2.509  14.685  0.2828 -0.4753  0.1258
 6968SOL    HW132363   3.474   2.471  14.750 -0.3393  1.1811  1.6545
 6968SOL    HW232364   3.439   2.472  14.600 -0.4162  0.0825 -0.3182
 6969SOL     OW32365   1.146   0.158   9.136 -0.1064 -0.7323  0.5402
 6969SOL    HW132366   1.237   0.178   9.111 -0.9490  0.9486 -1.1854
 6969SOL    HW232367   1.150   0.072   9.177  0.2593 -1.2249 -0.5214
 6970SOL     OW32368   2.789   0.359   4.517 -0.6120 -1.0048  0.3568
 6970SOL    HW132369   2.742   0.283   4.551  0.8555 -1.0665  2.2840
 6970SOL    HW232370   2.831   0.384   4.599 -0.1738  0.6725 -0.3841
 6971SOL     OW32371   2.456   0.637  10.493 -0.1244  0.0465  0.0484
 6971SOL    HW132372   2.541   0.661  10.529 -1.0409  1.1583  1.4926
 6971SOL    HW232373   2.401   0.657  10.569 -0.3679 -2.9835  0.6571
 6972SOL     OW32374   4.388   3.187   0.608  0.1064  0.4737  0.0479
 6972SOL    HW132375   4.384   3.204   0.514  1.2980  1.5920  0.2069
 6972SOL    HW232376   4.380   3.092   0.615  1.0290  0.3941 -0.0252
 6973SOL     OW32377   4.348   1.271  13.619  0.6703  0.0130 -0.2592
 6973SOL    HW132378   4.277   1.266  13.683  1.6607  1.2601  0.9327
 6973SOL    HW232379   4.423   1.242  13.672  0.5344 -1.8524 -1.0897
 6974SOL     OW32380   2.432   4.144   4.990 -0.5502  0.7084  0.5601
 6974SOL    HW132381   2.490   4.181   5.056  1.4565 -0.6346 -0.4597
 6974SOL    HW232382   2.380   4.221   4.967 -1.0366 -0.1647 -1.2343
 6975SOL     OW32383   3.594   4.139   8.135  0.4198 -0.6966 -0.2042
 6975SOL    HW132384   3.689   4.140   8.152  0.7509  2.4556 -2.1203
 6975SOL    HW232385   3.562   4.219   8.178  4.1850  1.0454 -0.5712
 6976SOL     OW32386   1.700   1.217   4.273 -0.3832 -0.0554  0.0770
 6976SOL    HW132387   1.761   1.215   4.198  0.3314  1.6168  0.6018
 6976SOL    HW232388   1.621   1.186   4.230 -0.9001 -0.3044  1.2153
 6977SOL     OW32389   3.742   2.634   4.062 -0.2443  0.1589 -0.2525
 6977SOL    HW132390   3.748   2.729   4.068  0.5588  0.1137 -0.3133
 6977SOL    HW232391   3.831   2.599   4.071 -0.0958  0.9245  1.1431
 6978SOL     OW32392   0.010   0.751  13.024  0.1771 -0.3752  0.1110
 6978SOL    HW132393   4.645   0.743  13.055 -0.5076  0.9744 -1.5075
 6978SOL    HW232394   0.064   0.743  13.103  3.5900  1.5206 -2.0183
 6979SOL     OW32395   0.409   3.043   2.799  0.4545  0.5316  0.4853
 6979SOL    HW132396   0.478   3.109   2.790  0.4791  0.4142 -0.1528
 6979SOL    HW232397   0.375   3.057   2.888 -3.1454 -1.2116 -0.6206
 6980SOL     OW32398   3.773   1.055   7.031  0.0609 -0.1989  0.4638
 6980SOL    HW132399   3.790   1.030   6.940  0.4966  2.7545 -0.2457
 6980SOL    HW232400   3.679   1.073   7.032 -0.1116 -0.8913 -1.3301
 6981SOL     OW32401   3.898   0.107   2.119  0.3451  0.4953  0.2643
 6981SOL    HW132402   3.827   0.156   2.078  1.6018 -0.1275 -2.6585
 6981SOL    HW232403   3.936   0.071   2.040  0.2584  2.6701 -0.7829
 6982SOL     OW32404   3.031   1.460   4.434 -0.0222  0.0817  0.4201
 6982SOL    HW132405   3.061   1.551   4.439  1.6358 -0.4268 -0.3242
 6982SOL    HW232406   2.937   1.461   4.451 -0.4493  1.6248 -2.1358
 6983SOL     OW32407   1.856   3.081   9.068  0.1304  0.3524 -0.1412
 6983SOL    HW132408   1.792   3.022   9.028 -1.7405  0.2453  3.0679
 6983SOL    HW232409   1.807   3.129   9.134 -2.0339 -4.3159  1.6378
 6984SOL     OW32410   0.948   1.008   7.044  0.5214  0.0970 -0.1606
 6984SOL    HW132411   1.012   0.944   7.076 -1.0691 -0.7994  1.2397
 6984SOL    HW232412   0.874   0.971   7.092 -0.7733  0.4351 -1.9023
 6985SOL     OW32413   3.397   3.119   1.343 -0.4699 -0.0065  0.1191
 6985SOL    HW132414   3.365   3.032   1.367 -1.1464 -0.1931 -1.4736
 6985SOL    HW232415   3.414   3.154   1.431 -2.8373  1.2124  0.0802
 6986SOL     OW32416   2.479   3.579  13.022 -0.1891  0.0371  0.3068
 6986SOL    HW132417   2.553   3.639  13.016 -1.4219  1.4979 -0.3013
 6986SOL    HW232418   2.419   3.616  12.957 -1.0434 -0.9425  0.5360
 6987SOL     OW32419   0.962   3.503  14.896 -0.3887 -0.0180 -0.5520
 6987SOL    HW132420   1.010   3.538  14.821  0.6431 -0.4360 -0.0852
 6987SOL    HW232421   0.984   3.412  14.878  1.7981  0.5601 -0.8064
 6988SOL     OW32422   3.281   1.739   1.525 -0.1141 -0.2628  0.4333
 6988SOL    HW132423   3.330   1.666   1.487  0.3380  0.4664 -0.3549
 6988SOL    HW232424   3.190   1.709   1.519  0.0925 -1.0353  1.0577
 6989SOL     OW32425   4.349   4.571   4.689 -0.0330  0.3094  0.4931
 6989SOL    HW132426   4.370   4.486   4.648 -3.0523 -0.9366  1.5413
 6989SOL    HW232427   4.394   4.631   4.630  1.0163  0.2116  1.2025
 6990SOL     OW32428   3.002   1.134   6.730 -0.6088 -0.2835  0.2701
 6990SOL    HW132429   2.995   1.222   6.692  0.3431 -0.9964 -1.5567
 6990SOL    HW232430   3.003   1.091   6.644  2.1019 -1.2983  0.8068
 6991SOL     OW32431   1.009   0.696   2.674  0.4125  0.7977  0.1960
 6991SOL    HW132432   1.077   0.737   2.729  0.3542  1.3792 -0.1701
 6991SOL    HW232433   0.994   0.765   2.610 -0.8119  0.4183  0.0826
 6992SOL     OW32434   3.419   4.133   8.844  0.5429  0.2244  0.4371
 6992SOL    HW132435   3.396   4.042   8.823  2.3423 -0.1669  0.1475
 6992SOL    HW232436   3.330   4.164   8.858  0.3002 -0.0019 -0.5988
 6993SOL     OW32437   3.973   3.406   4.324 -0.5290  1.0437 -0.1760
 6993SOL    HW132438   3.881   3.394   4.300 -0.7752  0.2819  1.1550
 6993SOL    HW232439   3.963   3.470   4.394 -0.8622  0.4625  0.3050
 6994SOL     OW32440   3.121   2.843   3.947  0.1999  0.4885  0.4991
 6994SOL    HW132441   3.110   2.935   3.923  0.4096  0.1421 -0.9410
 6994SOL    HW232442   3.042   2.820   3.997  1.7413 -1.8578  1.8718
 6995SOL     OW32443   4.446   4.616   4.446 -0.1158  0.0704  0.0159
 6995SOL    HW132444   4.404   4.616   4.360  0.3042  4.5948 -0.1899
 6995SOL    HW232445   4.483   4.527   4.448  1.0079  0.4963 -2.0572
 6996SOL     OW32446   2.845   0.927   2.795 -0.0696 -0.1285 -0.1737
 6996SOL    HW132447   2.800   0.852   2.833  0.1687 -0.2890 -0.2103
 6996SOL    HW232448   2.782   0.993   2.826  0.0088  1.6362 -3.7184
 6997SOL     OW32449   0.275   3.481   7.205  0.0124 -0.2843  0.0159
 6997SOL    HW132450   0.231   3.565   7.218 -0.9086 -0.2978 -3.0711
 6997SOL    HW232451   0.197   3.429   7.186 -0.1702 -0.4741  1.2532
 6998SOL     OW32452   3.720   3.809  12.004  0.8730  0.3106  0.1628
 6998SOL    HW132453   3.787   3.843  12.064 -0.8315  2.1245  1.0003
 6998SOL    HW232454   3.644   3.865  12.017  0.6685  0.5144 -1.9055
 6999SOL     OW32455   1.102   0.669  17.163  0.6185  0.3393  0.7723
 6999SOL    HW132456   1.164   0.724  17.116  2.1144 -2.8518 -0.9185
 6999SOL    HW232457   1.055   0.736  17.214 -2.8500 -2.0408  0.6769
 7000SOL     OW32458   2.695   2.401   4.796  0.4732 -0.2228 -0.5181
 7000SOL    HW132459   2.657   2.487   4.779 -1.0048 -0.8903 -0.5069
 7000SOL    HW232460   2.778   2.434   4.832  1.5142 -0.3146 -2.8143
 7001SOL     OW32461   3.557   1.415   2.987 -0.0238  0.4418 -0.3635
 7001SOL    HW132462   3.483   1.358   2.964  0.5799 -0.1900 -0.7377
 7001SOL    HW232463   3.522   1.478   3.050 -0.4904 -0.2075  0.0299
 7002SOL     OW32464   3.368   3.248   6.471 -0.8600  0.0076  0.3675
 7002SOL    HW132465   3.343   3.170   6.522 -0.1190 -0.3136  0.2398
 7002SOL    HW232466   3.429   3.204   6.411 -0.1093 -2.7106  3.1140
 7003SOL     OW32467   0.473   3.905   2.229  0.5848  0.7550 -0.3240
 7003SOL    HW132468   0.491   3.852   2.151  0.0866  1.9141 -1.2393
 7003SOL    HW232469   0.379   3.897   2.240  1.2581 -1.0610  4.0579
 7004SOL     OW32470   2.969   3.310   6.788  0.2434  0.0326  0.1890
 7004SOL    HW132471   3.037   3.349   6.843 -1.6453  0.0961  2.4729
 7004SOL    HW232472   2.914   3.265   6.852  2.5033  0.2371  2.2771
 7005SOL     OW32473   4.669   2.698   4.906 -0.0784  0.1669  0.0952
 7005SOL    HW132474   4.685   2.732   4.818 -0.8946  1.1900  0.3485
 7005SOL    HW232475   4.646   2.611   4.871 -1.9660  1.7935 -2.7279
 7006SOL     OW32476   0.570   2.160   7.971 -0.2858  0.3595 -0.6989
 7006SOL    HW132477   0.477   2.170   7.994 -0.5247 -1.8709 -0.6581
 7006SOL    HW232478   0.584   2.066   7.982  0.2084  0.7084  1.7637
 7007SOL     OW32479   2.093   2.778   6.254  0.9554 -0.0257  0.1574
 7007SOL    HW132480   2.028   2.708   6.248 -0.8388  1.7544 -1.6099
 7007SOL    HW232481   2.157   2.761   6.185  1.1721  1.0982  0.0761
 7008SOL     OW32482   0.415   4.574   9.859  0.2880  0.1591  0.1230
 7008SOL    HW132483   0.436   4.564   9.766 -0.1949  3.1185 -0.2855
 7008SOL    HW232484   0.500   4.552   9.899  0.2384 -0.8218 -0.3053
 7009SOL     OW32485   4.671   1.030  13.954  0.4679 -0.3135  0.1591
 7009SOL    HW132486   4.725   1.012  14.030  0.8365 -0.5595 -0.1611
 7009SOL    HW232487   4.692   0.967  13.885  2.9138 -0.4767  1.0615
 7010SOL     OW32488   4.093   4.178  13.510  0.4429  0.2187 -0.3798
 7010SOL    HW132489   4.036   4.255  13.519  0.4462  0.2519 -0.6484
 7010SOL    HW232490   4.168   4.224  13.473  2.2531 -0.8360  2.0251
 7011SOL     OW32491   0.602   2.198   4.589 -0.0094  0.1231 -0.0771
 7011SOL    HW132492   0.628   2.188   4.498  0.1768 -0.3400  0.0239
 7011SOL    HW232493   0.510   2.207   4.564 -0.2447 -1.2024  0.3131
 7012SOL     OW32494   0.768   3.738   4.005 -0.8011  0.1004 -0.9592
 7012SOL    HW132495   0.840   3.778   3.955 -0.6157  0.6099 -0.2724
 7012SOL    HW232496   0.710   3.687   3.948  0.0059 -0.5478 -1.2113
 7013SOL     OW32497   4.066   0.425   1.990 -0.2357  0.6353 -0.2168
 7013SOL    HW132498   4.136   0.362   1.973  0.8786  1.6998  0.4518
 7013SOL    HW232499   4.098   0.504   1.946  1.4911 -0.1200 -0.3094
 7014SOL     OW32500   4.344   0.072   2.756 -0.7812 -0.4618 -0.0864
 7014SOL    HW132501   4.287   0.135   2.712  0.8114  1.4650  0.6094
 7014SOL    HW232502   4.338   4.715   2.706 -2.2658 -1.2413  1.3846
 7015SOL     OW32503   2.895   2.475   8.921  0.0770  0.7555 -0.6893
 7015SOL    HW132504   2.943   2.393   8.933 -0.1560  0.6072 -0.7902
 7015SOL    HW232505   2.803   2.453   8.909  0.7618 -1.1311 -2.4335
 7016SOL     OW32506   1.364   4.396   3.103 -0.0994 -0.4411 -0.3764
 7016SOL    HW132507   1.458   4.410   3.108 -0.1068 -0.3737 -0.4122
 7016SOL    HW232508   1.371   4.303   3.084  0.7589 -0.9881  2.7169
 7017SOL     OW32509   3.633   0.855   4.094  0.1787  0.0410 -0.1832
 7017SOL    HW132510   3.653   0.796   4.167 -0.3103 -0.7652 -0.7050
 7017SOL    HW232511   3.546   0.822   4.071 -0.4290  1.1951  0.4459
 7018SOL     OW32512   2.618   3.298  10.741 -0.4224  0.2649  0.1761
 7018SOL    HW132513   2.666   3.349  10.807 -1.0935 -0.5570  1.2936
 7018SOL    HW232514   2.536   3.347  10.747  0.5743  1.6774  2.4831
 7019SOL     OW32515   3.711   0.716   4.789 -0.2547  0.2620  0.4933
 7019SOL    HW132516   3.636   0.673   4.747 -0.2147  0.5123  0.1648
 7019SOL    HW232517   3.675   0.804   4.784 -2.3388 -0.5651  0.6311
 7020SOL     OW32518   1.281   0.876   8.304  0.1223 -0.0689 -0.0203
 7020SOL    HW132519   1.248   0.808   8.245 -1.0398  0.2512  0.2710
 7020SOL    HW232520   1.309   0.829   8.382  3.2702 -1.1643 -1.8117
 7021SOL     OW32521   2.111   1.838   2.855  0.3713 -0.1064 -0.5478
 7021SOL    HW132522   2.046   1.897   2.892  2.0815 -0.1748  2.4818
 7021SOL    HW232523   2.194   1.875   2.883  0.2906  1.4518 -2.3436
 7022SOL     OW32524   1.116   4.221   1.686  0.1352  0.2015 -0.3138
 7022SOL    HW132525   1.106   4.293   1.747  1.6352  0.1951 -0.0452
 7022SOL    HW232526   1.209   4.198   1.676  0.2950 -0.2266  2.1839
 7023SOL     OW32527   4.504   4.564  15.237 -0.7865  0.1787  0.1311
 7023SOL    HW132528   4.490   4.565  15.332 -0.7553 -0.4324  0.1442
 7023SOL    HW232529   4.452   4.638  15.206 -2.7134 -1.3572 -0.3070
 7024SOL     OW32530   3.917   1.175  12.190  0.3986  0.1806 -0.0554
 7024SOL    HW132531   3.959   1.128  12.262  1.9073  2.6158  0.6468
 7024SOL    HW232532   3.992   1.179  12.131  0.5896 -1.7419  0.0665
 7025SOL     OW32533   2.478   2.340   4.636 -0.3452 -0.1056  0.2020
 7025SOL    HW132534   2.536   2.345   4.711 -3.3673  0.5713  2.5270
 7025SOL    HW232535   2.533   2.372   4.564  0.7016 -1.7193  0.3107
 7026SOL     OW32536   0.175   0.394   3.561 -0.1233 -0.4530  0.4732
 7026SOL    HW132537   0.123   0.316   3.580  0.1274 -1.1197 -1.5901
 7026SOL    HW232538   0.171   0.428   3.650  0.6700  1.3742 -0.1848
 7027SOL     OW32539   0.399   0.684   3.019 -0.0876  0.4105 -0.5983
 7027SOL    HW132540   0.433   0.762   2.977  2.2038  0.6796  1.7344
 7027SOL    HW232541   0.309   0.716   3.027  0.1394  1.1805 -1.2304
 7028SOL     OW32542   1.169   3.746   4.560  0.1324  0.1813 -0.5197
 7028SOL    HW132543   1.256   3.768   4.525 -0.1942  0.4168 -1.1936
 7028SOL    HW232544   1.140   3.829   4.597  0.3020  0.9754 -2.1712
 7029SOL     OW32545   3.262   3.596   8.165  0.2322 -0.2117  0.1453
 7029SOL    HW132546   3.170   3.622   8.156  0.0868 -0.9287 -0.4620
 7029SOL    HW232547   3.305   3.670   8.121 -0.6125  0.1325 -0.1216
 7030SOL     OW32548   2.858   3.564   4.509  0.0602  0.0225  0.0559
 7030SOL    HW132549   2.892   3.532   4.592  0.5575  0.0802 -0.1292
 7030SOL    HW232550   2.765   3.540   4.506  0.1440 -0.4971  2.0885
 7031SOL     OW32551   4.253   3.163   5.507  0.2340 -0.8203 -0.3036
 7031SOL    HW132552   4.218   3.148   5.595 -0.0772  0.9554 -0.1302
 7031SOL    HW232553   4.209   3.245   5.485 -1.6283 -2.3405 -2.2914
 7032SOL     OW32554   4.367   1.945   8.109  0.1731 -0.5872 -0.3301
 7032SOL    HW132555   4.284   1.949   8.062 -0.7238  0.2073  1.3406
 7032SOL    HW232556   4.409   1.864   8.080 -0.7849 -1.0866 -0.3315
 7033SOL     OW32557   2.846   2.985   1.802 -0.2250  0.5222  0.2898
 7033SOL    HW132558   2.876   3.033   1.725  0.2281 -1.8742 -1.0120
 7033SOL    HW232559   2.923   3.003   1.856  0.3192 -0.2854 -0.2250
 7034SOL     OW32560   0.021   0.616  16.831  0.8803 -0.0101 -0.3792
 7034SOL    HW132561   4.721   0.562  16.756 -0.8171  0.7404 -0.3478
 7034SOL    HW232562   0.079   0.673  16.780 -0.3912  1.2656 -0.4144
 7035SOL     OW32563   2.793   0.435   2.449  0.0956 -0.3144 -0.4022
 7035SOL    HW132564   2.728   0.497   2.416  1.8845  2.0083  0.3814
 7035SOL    HW232565   2.846   0.502   2.492  1.6282 -0.2333 -2.4471
 7036SOL     OW32566   3.133   3.115  15.903 -0.9447 -0.6767 -0.3502
 7036SOL    HW132567   3.093   3.166  15.833 -0.0775 -1.2918 -1.2861
 7036SOL    HW232568   3.059   3.111  15.964 -0.1521 -0.5843  0.6240
 7037SOL     OW32569   2.345   2.156   0.814 -0.0012 -0.0037  0.2093
 7037SOL    HW132570   2.417   2.180   0.756 -0.3608  0.5633 -0.0007
 7037SOL    HW232571   2.282   2.112   0.757  0.8590  0.1451 -0.8683
 7038SOL     OW32572   2.339   4.312   7.008 -0.2157  0.0172  0.2538
 7038SOL    HW132573   2.299   4.254   6.943  1.0891  1.1877 -1.6042
 7038SOL    HW232574   2.280   4.387   7.017  1.8297  1.7874 -1.2506
 7039SOL     OW32575   4.195   1.440   4.517  0.1379 -0.9698 -0.1304
 7039SOL    HW132576   4.184   1.535   4.518 -1.7771 -1.2256  1.2617
 7039SOL    HW232577   4.281   1.435   4.560  0.7097  1.0803 -0.9960
 7040SOL     OW32578   1.988   2.902  14.914 -0.2317 -0.0745  0.9309
 7040SOL    HW132579   1.953   2.982  14.875 -0.0142 -0.6799 -0.4982
 7040SOL    HW232580   2.035   2.868  14.838  0.6303  0.2750  1.3075
 7041SOL     OW32581   2.143   1.083   4.209 -0.2458  0.0008 -0.1249
 7041SOL    HW132582   2.189   1.124   4.136  0.8553 -1.6192 -0.3195
 7041SOL    HW232583   2.148   0.993   4.177 -0.0331 -0.6102  1.6180
 7042SOL     OW32584   2.608   1.203  12.658  0.0953 -0.3734  0.2117
 7042SOL    HW132585   2.572   1.226  12.744 -1.4447  1.4138 -0.9144
 7042SOL    HW232586   2.538   1.240  12.604  0.7992  0.9853  0.2018
 7043SOL     OW32587   3.241   0.919   6.664  0.3345  0.1635  0.3323
 7043SOL    HW132588   3.269   0.915   6.573 -0.2165 -0.8650  0.2044
 7043SOL    HW232589   3.244   1.013   6.683  3.8583 -0.2431  1.8865
 7044SOL     OW32590   4.512   1.012   2.581 -0.1593  0.4453 -0.1054
 7044SOL    HW132591   4.523   0.924   2.547  1.0372  0.8589 -0.7889
 7044SOL    HW232592   4.421   1.008   2.609  0.6685 -1.5564  2.3396
 7045SOL     OW32593   3.767   2.267  11.886  0.1959 -0.1490 -0.5121
 7045SOL    HW132594   3.837   2.247  11.825  2.0266 -2.4491  2.3464
 7045SOL    HW232595   3.731   2.350  11.853  0.5490 -0.4537 -1.6448
 7046SOL     OW32596   3.341   3.211   5.785  0.3157 -0.1232 -0.1660
 7046SOL    HW132597   3.405   3.141   5.766  0.0706 -0.1532 -0.8632
 7046SOL    HW232598   3.381   3.281   5.734  1.5105  1.0686  2.3788
 7047SOL     OW32599   4.429   1.519   4.299 -0.1959  0.4853 -0.2423
 7047SOL    HW132600   4.406   1.521   4.391  2.7345  0.5335  0.4915
 7047SOL    HW232601   4.524   1.525   4.293 -0.3729  0.7620 -2.8085
 7048SOL     OW32602   0.743   3.006  11.190  0.0002  0.6614 -0.4034
 7048SOL    HW132603   0.649   2.991  11.194  0.3726 -0.3422  4.4935
 7048SOL    HW232604   0.770   2.963  11.108 -0.9289 -1.2754  0.2963
 7049SOL     OW32605   0.135   3.124  15.809  0.0150  0.0057  0.0342
 7049SOL    HW132606   0.130   3.072  15.889  2.7443 -3.1930 -1.8607
 7049SOL    HW232607   0.066   3.190  15.820 -0.5579 -0.6725  0.4684
 7050SOL     OW32608   2.207   2.208   2.503  0.1331 -0.3163 -0.3155
 7050SOL    HW132609   2.141   2.215   2.434 -0.5803 -0.1567  0.3850
 7050SOL    HW232610   2.167   2.276   2.557  0.4321 -1.7527  1.7559
 7051SOL     OW32611   0.014   3.747   2.985 -0.1708 -0.0432  0.1056
 7051SOL    HW132612   0.072   3.672   2.997 -0.9152 -0.6563 -0.0967
 7051SOL    HW232613   0.049   3.822   3.034  1.9522 -0.0311 -1.4669
 7052SOL     OW32614   1.268   3.790   9.246  0.0806 -0.5134 -0.0151
 7052SOL    HW132615   1.207   3.815   9.316  1.3141  0.7034  0.6234
 7052SOL    HW232616   1.322   3.755   9.316  0.4880 -1.6726 -0.9105
 7053SOL     OW32617   3.329   4.264   4.177 -0.2304 -0.3443  0.4587
 7053SOL    HW132618   3.259   4.323   4.204 -1.9659 -0.9224 -2.7522
 7053SOL    HW232619   3.291   4.181   4.207 -2.2756 -0.0940 -1.4690
 7054SOL     OW32620   2.794   4.063   0.068  0.6819 -0.5104  0.2571
 7054SOL    HW132621   2.764   4.093   0.153  0.0741  1.6413 -0.7352
 7054SOL    HW232622   2.861   4.001   0.099  2.7657  1.8211  0.4339
 7055SOL     OW32623   3.022   4.327  15.814 -0.4669 -0.3538  0.3663
 7055SOL    HW132624   3.040   4.389  15.885  2.0152 -2.9042  1.9508
 7055SOL    HW232625   2.927   4.318  15.823 -0.3759 -1.0668  0.6200
 7056SOL     OW32626   0.920   2.720   5.945 -0.3780 -0.2602  0.5506
 7056SOL    HW132627   0.867   2.640   5.942 -0.2032 -0.3429 -0.1993
 7056SOL    HW232628   0.888   2.769   6.021 -0.5605  0.0177  0.2904
 7057SOL     OW32629   1.753   1.140   6.015  0.7182  0.1948 -0.2398
 7057SOL    HW132630   1.757   1.087   6.095 -0.5318 -0.4931 -0.6348
 7057SOL    HW232631   1.703   1.214   6.047 -0.3758 -0.7830  0.3307
 7058SOL     OW32632   2.047   2.281   8.947  0.3256  0.0533  0.4709
 7058SOL    HW132633   1.997   2.351   8.989 -2.3108 -0.6477 -1.5623
 7058SOL    HW232634   2.122   2.285   9.006 -0.1250  0.6763  0.9977
 7059SOL     OW32635   3.777   2.682   8.377  0.7853  0.4902  0.5323
 7059SOL    HW132636   3.840   2.753   8.391  1.2975 -0.3370  2.4232
 7059SOL    HW232637   3.694   2.730   8.379 -1.1506 -2.7097 -2.3479
 7060SOL     OW32638   4.253   3.981  11.587  0.1832 -0.2177  0.3123
 7060SOL    HW132639   4.326   4.010  11.533 -0.4472 -0.9258 -0.9106
 7060SOL    HW232640   4.299   3.920  11.644  0.1004  0.1029  0.7215
 7061SOL     OW32641   1.106   3.466   5.782  0.6173 -0.1491  0.4525
 7061SOL    HW132642   1.109   3.442   5.690 -0.9463  0.4518  0.2432
 7061SOL    HW232643   1.197   3.446   5.802  0.7919 -0.1674 -0.3644
 7062SOL     OW32644   0.077   1.371  11.022 -0.1841 -0.1605  0.1564
 7062SOL    HW132645   0.147   1.382  11.087 -0.3976  0.1287  0.3406
 7062SOL    HW232646   0.082   1.462  10.994 -2.3682 -0.5139 -1.3427
 7063SOL     OW32647   2.885   3.878  16.857  0.7605  0.6245 -0.9553
 7063SOL    HW132648   2.858   3.795  16.818 -0.4250 -0.5369  2.3813
 7063SOL    HW232649   2.910   3.848  16.944  0.9980  0.5175 -1.0592
 7064SOL     OW32650   4.150   0.551   3.431  0.6174  0.3591 -0.2909
 7064SOL    HW132651   4.165   0.577   3.340  0.3622  3.2516  0.5188
 7064SOL    HW232652   4.070   0.502   3.414  0.2619  1.2846 -1.2657
 7065SOL     OW32653   4.598   3.589   0.843  0.6957  0.0928 -0.0366
 7065SOL    HW132654   4.613   3.643   0.921 -1.1312 -1.6300  1.5218
 7065SOL    HW232655   4.525   3.535   0.873  1.1466  0.4998  1.8102
 7066SOL     OW32656   3.311   1.679   2.289  0.5361  0.3671  0.6337
 7066SOL    HW132657   3.251   1.748   2.315 -1.9704 -0.9414 -1.6911
 7066SOL    HW232658   3.254   1.609   2.259 -0.3005  0.8412  1.1152
 7067SOL     OW32659   3.992   1.542   4.997  0.2397 -0.0699 -0.1259
 7067SOL    HW132660   4.076   1.506   5.026 -0.7593 -0.8980  1.7063
 7067SOL    HW232661   3.930   1.503   5.059  1.5755 -1.7398  0.1451
 7068SOL     OW32662   3.769   1.947   9.450  0.0528 -0.5232  0.3191
 7068SOL    HW132663   3.830   1.969   9.520 -0.1664  1.6982 -0.1843
 7068SOL    HW232664   3.722   1.885   9.506 -0.0717  0.5501  1.4079
 7069SOL     OW32665   2.953   1.199   0.544  0.0690  0.5335 -0.5847
 7069SOL    HW132666   2.915   1.281   0.512 -1.8393 -0.3605 -0.6112
 7069SOL    HW232667   2.874   1.148   0.562  0.8426 -1.1483 -2.0168
 7070SOL     OW32668   2.154   4.420  11.623 -0.0601 -0.1058  0.1138
 7070SOL    HW132669   2.228   4.478  11.642  0.0256  0.0700 -0.7758
 7070SOL    HW232670   2.089   4.453  11.685  1.2783  1.0834  0.8741
 7071SOL     OW32671   2.506   2.587   8.890  0.2974 -0.4269  0.2542
 7071SOL    HW132672   2.523   2.495   8.912 -0.8472 -0.5256  0.7043
 7071SOL    HW232673   2.437   2.592   8.956 -1.5824  0.2687 -1.7541
 7072SOL     OW32674   2.873   3.030  12.919 -0.1501  0.2094 -0.5159
 7072SOL    HW132675   2.849   3.067  13.005  0.0494 -0.3796 -0.2099
 7072SOL    HW232676   2.925   3.097  12.875  0.9048 -0.0069  0.4069
 7073SOL     OW32677   0.440   3.410   9.729 -0.7927  0.5670 -0.1488
 7073SOL    HW132678   0.363   3.412   9.786 -3.7546 -2.2673 -3.9659
 7073SOL    HW232679   0.438   3.496   9.688  1.9472 -0.0938 -1.6943
 7074SOL     OW32680   3.344   1.902   4.196 -0.4105 -0.0354 -0.0659
 7074SOL    HW132681   3.311   1.989   4.173  0.9967  0.8116  1.0985
 7074SOL    HW232682   3.300   1.885   4.280  2.8157 -0.9327  1.4193
 7075SOL     OW32683   3.259   4.443  17.472  0.5288 -0.1643  0.1763
 7075SOL    HW132684   3.340   4.395  17.454 -0.8464 -2.3480 -0.1771
 7075SOL    HW232685   3.301   4.512  17.522 -0.6008 -0.6649  1.7917
 7076SOL     OW32686   4.294   2.346   3.749 -0.0007 -0.0392  0.4465
 7076SOL    HW132687   4.237   2.388   3.685 -1.6352 -3.1550 -0.1145
 7076SOL    HW232688   4.354   2.300   3.690  0.6003  1.5800 -0.2259
 7077SOL     OW32689   1.603   4.448  13.547 -0.5561  0.4644  0.1901
 7077SOL    HW132690   1.621   4.504  13.621  0.6840 -0.4199  0.5576
 7077SOL    HW232691   1.655   4.371  13.571  1.7177  1.7178 -0.7024
 7078SOL     OW32692   2.407   0.311   0.522  0.0414 -0.3043 -0.4004
 7078SOL    HW132693   2.392   0.343   0.433  0.5541  0.2615 -0.2846
 7078SOL    HW232694   2.401   0.216   0.508  1.1250 -0.2920 -0.9394
 7079SOL     OW32695   3.921   0.709  11.833 -0.3082  0.0108  0.2853
 7079SOL    HW132696   3.856   0.703  11.904  0.1870  0.2468  0.7606
 7079SOL    HW232697   3.910   0.804  11.823 -2.3415 -0.1183  1.1431
 7080SOL     OW32698   1.459   3.930   1.398  0.3592 -0.1469 -0.1067
 7080SOL    HW132699   1.374   3.922   1.355  1.2680  2.4483 -2.3854
 7080SOL    HW232700   1.453   3.856   1.458 -0.2146 -1.1495 -1.3872
 7081SOL     OW32701   2.868   3.666   5.044  0.3189  0.3105  0.7683
 7081SOL    HW132702   2.834   3.743   5.089  1.9946  0.8052  1.1685
 7081SOL    HW232703   2.929   3.696   4.977  1.2996 -1.0177  1.0542
 7082SOL     OW32704   4.177   0.414   7.811  0.3015  0.5571  0.2844
 7082SOL    HW132705   4.114   0.349   7.780  1.0332  0.4550 -1.0016
 7082SOL    HW232706   4.127   0.438   7.888 -0.4733 -0.3518  0.0615
 7083SOL     OW32707   2.893   0.303  12.548 -0.2978  0.1968 -0.0680
 7083SOL    HW132708   2.907   0.265  12.634 -1.2438  2.6570  1.1922
 7083SOL    HW232709   2.927   0.234  12.491 -0.7166 -0.6044  0.6700
 7084SOL     OW32710   1.828   2.859   8.355  0.1068  0.0011  0.3117
 7084SOL    HW132711   1.845   2.891   8.443 -0.8606  3.1269 -0.6314
 7084SOL    HW232712   1.916   2.861   8.317  0.3491  1.1870  0.9416
 7085SOL     OW32713   1.998   1.279   3.195  0.0639  0.1773  0.6786
 7085SOL    HW132714   1.928   1.225   3.233 -0.1448 -1.0402 -1.4569
 7085SOL    HW232715   2.066   1.220   3.230 -0.2669 -0.8099 -0.3407
 7086SOL     OW32716   4.449   2.057   6.164 -0.6345  0.4225  0.9359
 7086SOL    HW132717   4.465   1.966   6.142 -0.1236  0.6328  0.4375
 7086SOL    HW232718   4.355   2.066   6.179 -0.5167  1.2581  1.2146
 7087SOL     OW32719   2.597   1.265   6.614 -0.0140 -0.1751  0.2924
 7087SOL    HW132720   2.626   1.288   6.526  0.0936 -1.9599 -0.1373
 7087SOL    HW232721   2.545   1.185   6.611 -0.6647  0.2453  0.1624
 7088SOL     OW32722   1.387   1.018   7.362  0.0123  0.0237 -0.4364
 7088SOL    HW132723   1.338   0.950   7.316  0.7782 -0.5478 -0.3951
 7088SOL    HW232724   1.362   1.095   7.311  0.1350 -0.2405 -0.8947
 7089SOL     OW32725   1.860   0.990  17.586  0.4030  0.6625 -0.0515
 7089SOL    HW132726   1.767   0.981  17.566 -0.2144  1.9386  2.1667
 7089SOL    HW232727   1.887   0.900  17.608  1.3236  0.8282 -0.4949
 7090SOL     OW32728   1.013   3.950   1.626  0.0647 -0.3261 -0.1377
 7090SOL    HW132729   1.047   4.032   1.662 -0.1669 -0.5805  0.6603
 7090SOL    HW232730   1.087   3.894   1.646 -0.5802 -1.1852 -0.1461
 7091SOL     OW32731   3.138   0.041   1.677  0.2027 -0.3176  0.2215
 7091SOL    HW132732   3.167   4.696   1.735  2.7727  1.7294  1.4165
 7091SOL    HW232733   3.219   0.066   1.634  0.0788 -0.3437 -0.0316
 7092SOL     OW32734   2.290   3.791   9.595  0.1438  0.5167  0.0113
 7092SOL    HW132735   2.257   3.728   9.530 -1.6804  1.9503 -0.4630
 7092SOL    HW232736   2.323   3.730   9.660  0.4497  1.5551  0.8212
 7093SOL     OW32737   3.112   3.919   3.258  0.4441  0.5943 -0.4720
 7093SOL    HW132738   3.025   3.907   3.220 -0.7999  1.0124  2.2526
 7093SOL    HW232739   3.153   3.994   3.215 -0.2625  1.1642 -0.1510
 7094SOL     OW32740   4.345   2.755   6.318 -0.3063  0.1170  0.1761
 7094SOL    HW132741   4.438   2.775   6.329 -0.3594 -0.6001  1.9271
 7094SOL    HW232742   4.312   2.749   6.407  0.1724  1.4000  0.4411
 7095SOL     OW32743   2.784   3.111   4.919  0.3130 -0.3804  0.0413
 7095SOL    HW132744   2.717   3.151   4.862  0.7819 -0.1753 -0.3707
 7095SOL    HW232745   2.755   3.142   5.005  1.4326  0.4168  0.1398
 7096SOL     OW32746   4.151   4.120   9.693  0.2644  0.3552  0.4695
 7096SOL    HW132747   4.238   4.143   9.659  1.2757 -2.5817  1.0514
 7096SOL    HW232748   4.145   4.027   9.675 -0.4541  0.8296 -1.7781
 7097SOL     OW32749   1.538   3.435  13.165 -0.2306  0.2731  0.1054
 7097SOL    HW132750   1.560   3.521  13.200  0.1911  1.4875 -3.2097
 7097SOL    HW232751   1.459   3.409  13.213 -0.0911  2.6785  1.6321
 7098SOL     OW32752   4.151   1.408   2.572  0.1115  0.1382  0.3307
 7098SOL    HW132753   4.177   1.368   2.489 -0.8251  0.7205 -0.2328
 7098SOL    HW232754   4.058   1.390   2.564  0.4174 -0.2960 -2.0735
 7099SOL     OW32755   2.151   2.420   2.648  0.3361 -0.2177  0.1595
 7099SOL    HW132756   2.062   2.435   2.616  0.1298  0.4721  1.0504
 7099SOL    HW232757   2.143   2.410   2.743 -0.5625 -0.7557  0.0223
 7100SOL     OW32758   0.775   0.766   5.839 -0.8188 -0.4459  0.6494
 7100SOL    HW132759   0.696   0.820   5.828  0.0313  1.1445  2.2632
 7100SOL    HW232760   0.799   0.768   5.932 -0.9533  0.0228  0.6738
 7101SOL     OW32761   4.701   2.993   3.112 -0.2074  0.0614 -0.7202
 7101SOL    HW132762   4.679   2.929   3.179  1.0711 -0.4301 -0.7651
 7101SOL    HW232763   4.651   3.072   3.131  1.0393  0.1597  2.1073
 7102SOL     OW32764   3.578   3.517   2.357 -0.7051 -0.0438 -0.1272
 7102SOL    HW132765   3.624   3.434   2.369  0.8998  0.9916  0.8786
 7102SOL    HW232766   3.607   3.538   2.268  1.9425  0.0641  0.7462
 7103SOL     OW32767   3.886   0.068   2.833 -0.1711 -0.6853  0.0026
 7103SOL    HW132768   3.971   0.061   2.876  0.8079 -0.3223 -1.8838
 7103SOL    HW232769   3.882   4.711   2.785 -1.6476 -0.6546  0.0663
 7104SOL     OW32770   2.961   1.418   6.410  1.3605  0.3339 -0.2953
 7104SOL    HW132771   2.916   1.436   6.327  2.0570  0.4433 -0.6477
 7104SOL    HW232772   3.046   1.428   6.368  1.5289  0.7581  0.1346
 7105SOL     OW32773   0.961   3.019  11.455  0.1715  0.2764  0.3287
 7105SOL    HW132774   1.026   2.951  11.436  0.9379  1.3813 -0.9720
 7105SOL    HW232775   0.978   3.048  11.544  1.5493 -0.2275  0.2289
 7106SOL     OW32776   4.170   3.490   7.699 -0.2559  0.1974  0.4693
 7106SOL    HW132777   4.117   3.569   7.688 -0.9016 -0.1496  1.0767
 7106SOL    HW232778   4.130   3.435   7.631 -0.7448 -0.5228  1.3377
 7107SOL     OW32779   2.314   4.367  17.532  0.1444  0.3405 -0.0737
 7107SOL    HW132780   2.239   4.312  17.507  0.7729 -1.4009  1.8828
 7107SOL    HW232781   2.290   4.455  17.504 -1.0811 -0.1406 -0.5274
 7108SOL     OW32782   2.183   1.151   3.347  0.2944  0.4255 -0.5506
 7108SOL    HW132783   2.187   1.132   3.441 -3.7853 -1.6673 -0.7784
 7108SOL    HW232784   2.270   1.180   3.319  1.0308  0.8944  2.2041
 7109SOL     OW32785   0.320   0.528  17.104 -0.1874 -0.3537 -0.2340
 7109SOL    HW132786   0.294   0.610  17.062 -1.5230  0.6677  2.5353
 7109SOL    HW232787   0.324   0.549  17.198 -0.0756 -3.3509  0.4208
 7110SOL     OW32788   3.886   0.622  11.571  0.4068 -0.0394  0.1813
 7110SOL    HW132789   3.904   0.620  11.665 -1.5228 -0.2338  0.5558
 7110SOL    HW232790   3.919   0.706  11.540  1.0762  0.2219  1.6153
 7111SOL     OW32791   1.648   0.541   0.739 -0.3530 -0.2559 -0.1257
 7111SOL    HW132792   1.674   0.605   0.805  0.1237  0.8499 -1.3896
 7111SOL    HW232793   1.552   0.546   0.741 -0.4822 -3.0194  0.3237
 7112SOL     OW32794   0.034   3.987  11.036  0.1661 -0.0214 -0.1871
 7112SOL    HW132795   4.708   4.068  11.026  0.3406  0.0432 -0.5603
 7112SOL    HW232796   0.034   3.967  10.943  0.9712 -2.6459  0.3840
 7113SOL     OW32797   2.771   3.487  16.232 -0.3633 -0.2513 -0.6807
 7113SOL    HW132798   2.694   3.525  16.190  0.1755  0.1580 -1.3053
 7113SOL    HW232799   2.809   3.442  16.157 -0.6292 -0.6647 -0.5662
 7114SOL     OW32800   1.539   2.349   6.779 -0.1379 -0.1513  0.4311
 7114SOL    HW132801   1.544   2.288   6.706  0.2756  0.5575 -0.1432
 7114SOL    HW232802   1.569   2.289   6.847  3.3860 -1.9476 -2.7311
 7115SOL     OW32803   0.740   0.691  13.007  0.5013 -0.2935  0.4169
 7115SOL    HW132804   0.668   0.669  12.948 -0.2184  2.7984  0.1763
 7115SOL    HW232805   0.799   0.733  12.945  0.7202 -1.4009 -0.1318
 7116SOL     OW32806   2.687   3.097   6.862  0.2698 -0.6009  0.5411
 7116SOL    HW132807   2.618   3.084   6.927  1.2449 -2.2549  1.2472
 7116SOL    HW232808   2.765   3.074   6.913  0.6787  0.5050  0.4109
 7117SOL     OW32809   2.829   3.700   9.722  0.0301  0.4844  0.4401
 7117SOL    HW132810   2.779   3.631   9.765  0.7923 -1.1508 -1.3532
 7117SOL    HW232811   2.793   3.683   9.635  0.1617 -1.0370  0.6915
 7118SOL     OW32812   4.082   1.482   2.975 -0.1811 -0.4084 -0.1442
 7118SOL    HW132813   4.082   1.575   2.993  2.4472 -0.6653  1.1018
 7118SOL    HW232814   4.008   1.473   2.914 -1.1561  0.5723  0.9066
 7119SOL     OW32815   1.482   4.143  12.805 -0.6812  0.1619 -0.2590
 7119SOL    HW132816   1.390   4.119  12.819 -0.4642 -1.3328 -1.4411
 7119SOL    HW232817   1.472   4.210  12.738 -0.4996 -1.0858 -1.5239
 7120SOL     OW32818   0.331   1.584   7.446 -0.3978 -0.1632 -0.3740
 7120SOL    HW132819   0.262   1.599   7.382  0.4137 -0.3859 -1.2915
 7120SOL    HW232820   0.287   1.511   7.491 -2.3507  0.5467 -1.1728
 7121SOL     OW32821   1.090   2.257   6.378 -0.3119  0.2300 -0.3527
 7121SOL    HW132822   1.130   2.253   6.465 -1.5692 -1.6017  0.1461
 7121SOL    HW232823   1.028   2.330   6.381  0.0463  0.4188  2.5626
 7122SOL     OW32824   0.049   0.303   5.353  0.6018 -0.3201  0.5013
 7122SOL    HW132825   0.108   0.378   5.361  2.3262 -1.5742 -0.3420
 7122SOL    HW232826   4.724   0.323   5.274  2.3124  0.3276 -0.4238
 7123SOL     OW32827   1.058   2.860   0.675  0.3172  0.4071  0.2010
 7123SOL    HW132828   1.085   2.772   0.649  1.7821  1.1795 -0.8916
 7123SOL    HW232829   0.963   2.858   0.660  0.0668 -2.3168  2.1468
 7124SOL     OW32830   4.612   1.740  11.114  0.0097  0.1759  0.1963
 7124SOL    HW132831   4.542   1.682  11.143 -1.2738  1.1305 -0.9587
 7124SOL    HW232832   4.564   1.821  11.096  0.4520  0.6278  1.0759
 7125SOL     OW32833   1.195   1.208   1.997  0.1829 -0.1476 -0.1968
 7125SOL    HW132834   1.148   1.132   2.033 -0.4668  0.8978  1.1746
 7125SOL    HW232835   1.165   1.280   2.052 -2.1374 -0.4256 -1.0583
 7126SOL     OW32836   1.875   2.832   3.155  0.1554  0.4941  0.5259
 7126SOL    HW132837   1.959   2.786   3.150 -0.4763 -0.4179 -1.8334
 7126SOL    HW232838   1.828   2.767   3.103  2.4211 -0.4125 -0.3998
 7127SOL     OW32839   4.041   2.581  10.292  0.5295 -0.1654  0.2749
 7127SOL    HW132840   4.124   2.593  10.338  0.8626 -2.1601  0.2153
 7127SOL    HW232841   3.983   2.545  10.359 -0.1967  2.1118  0.8503
 7128SOL     OW32842   4.001   3.176  13.992 -0.6073  0.7438 -0.1836
 7128SOL    HW132843   3.937   3.246  14.009  0.4755  1.6548  0.1468
 7128SOL    HW232844   4.083   3.219  14.016 -0.5939  0.7602 -0.2571
 7129SOL     OW32845   2.500   2.520   3.522 -0.0900  0.1287  0.3839
 7129SOL    HW132846   2.513   2.473   3.605  1.7057 -1.0377 -0.5593
 7129SOL    HW232847   2.482   2.451   3.458  2.3015 -1.0661  0.9732
 7130SOL     OW32848   1.203   0.251   2.768 -0.1815 -0.1656 -0.3569
 7130SOL    HW132849   1.157   0.170   2.793  0.0709 -0.3965 -0.6522
 7130SOL    HW232850   1.136   0.317   2.785  1.4763  1.1995  0.8956
 7131SOL     OW32851   4.333   0.101  12.791 -0.5580  0.6608  0.5533
 7131SOL    HW132852   4.319   0.193  12.768  0.8445  0.7982  0.2620
 7131SOL    HW232853   4.427   0.095  12.806 -0.3330  1.8489 -0.4272
 7132SOL     OW32854   1.464   3.212   7.421  0.2485 -0.1929  0.4830
 7132SOL    HW132855   1.438   3.259   7.500  0.5868  2.9074 -1.2366
 7132SOL    HW232856   1.539   3.163   7.454 -0.2011 -1.2156 -0.0098
 7133SOL     OW32857   4.578   4.719  12.864 -0.0292 -0.2208  0.3813
 7133SOL    HW132858   4.536   4.648  12.914  2.1662 -2.0213 -0.3332
 7133SOL    HW232859   4.670   4.695  12.858 -0.4585 -1.0702 -2.6878
 7134SOL     OW32860   3.762   0.239   5.295  0.0648  0.0142 -0.4128
 7134SOL    HW132861   3.735   0.173   5.231  1.2545 -0.9199  0.0486
 7134SOL    HW232862   3.853   0.261   5.272  1.6063 -4.2226  1.5407
 7135SOL     OW32863   0.922   1.473   9.659 -0.3056 -0.2330  0.2173
 7135SOL    HW132864   0.857   1.537   9.629  1.7152  2.0793  0.8392
 7135SOL    HW232865   0.996   1.531   9.640 -0.2226 -0.8382 -1.3143
 7136SOL     OW32866   3.570   2.297   7.520 -0.4967 -0.4196 -0.4453
 7136SOL    HW132867   3.657   2.331   7.544 -0.5717 -0.0508 -0.7017
 7136SOL    HW232868   3.550   2.234   7.589  2.3656  1.5586  2.2258
 7137SOL     OW32869   0.420   2.785   4.072  0.6882  0.1814  0.0267
 7137SOL    HW132870   0.381   2.856   4.124 -1.3734 -0.9350  0.0137
 7137SOL    HW232871   0.511   2.812   4.068  1.3592 -1.8255  1.8714
 7138SOL     OW32872   1.557   1.879   6.135 -0.1879  0.1080  0.2991
 7138SOL    HW132873   1.596   1.846   6.055 -0.3529  2.2400 -0.6548
 7138SOL    HW232874   1.550   1.971   6.110  2.0157  0.4169  0.8131
 7139SOL     OW32875   3.019   3.942   0.174 -0.1202 -0.2178  0.4491
 7139SOL    HW132876   3.081   3.942   0.247  1.6055 -1.0202 -1.0254
 7139SOL    HW232877   3.070   3.921   0.096  0.7003  0.5724  0.7713
 7140SOL     OW32878   1.612   4.610   4.610 -0.2299 -0.6065  0.3650
 7140SOL    HW132879   1.525   4.619   4.648 -0.3592  1.5207 -0.4622
 7140SOL    HW232880   1.588   4.565   4.529  0.0477 -2.2327  1.1896
 7141SOL     OW32881   4.013   0.680  15.814  0.7238 -0.3810  0.0636
 7141SOL    HW132882   3.939   0.702  15.871 -0.0051  0.5021 -1.2338
 7141SOL    HW232883   3.998   0.586  15.812 -0.2451 -0.2376  0.6504
 7142SOL     OW32884   2.303   2.014   8.963 -0.0112 -0.0465 -0.2584
 7142SOL    HW132885   2.363   2.023   8.889  0.8193  2.6864  0.7391
 7142SOL    HW232886   2.216   2.013   8.924 -1.0127 -0.5176  1.9943
 7143SOL     OW32887   4.173   3.650  11.619 -0.0518  0.0414  0.4572
 7143SOL    HW132888   4.164   3.616  11.708 -2.0314  0.1684  0.3060
 7143SOL    HW232889   4.161   3.743  11.635  0.0889  0.1837 -0.2604
 7144SOL     OW32890   4.196   1.139   3.923  0.4744 -0.3755 -0.0953
 7144SOL    HW132891   4.178   1.177   3.837  2.6566  0.9485  0.0130
 7144SOL    HW232892   4.259   1.205   3.955 -0.9012  0.5270  0.7395
 7145SOL     OW32893   1.292   4.122   2.460 -0.1833 -0.3216 -0.1458
 7145SOL    HW132894   1.222   4.099   2.398  0.7395 -0.2222 -1.2283
 7145SOL    HW232895   1.292   4.218   2.453  1.1373 -0.3374 -0.4036
 7146SOL     OW32896   2.066   0.877   1.007 -0.1366  0.3475 -0.1840
 7146SOL    HW132897   1.988   0.853   1.056  0.2397 -0.5963 -0.0288
 7146SOL    HW232898   2.054   0.844   0.918 -2.0375 -1.3533  0.7051
 7147SOL     OW32899   1.025   0.305   2.321 -0.4423  0.6618  0.1963
 7147SOL    HW132900   1.059   0.329   2.235 -1.6434  0.1083 -0.4415
 7147SOL    HW232901   1.108   0.308   2.368 -1.1174 -0.6996  1.5166
 7148SOL     OW32902   0.551   1.693   4.967 -0.0086 -0.6250 -0.4379
 7148SOL    HW132903   0.458   1.709   4.952  0.0384 -1.1317 -1.2428
 7148SOL    HW232904   0.555   1.607   5.009  1.4837 -0.5028 -0.3119
 7149SOL     OW32905   1.347   1.821   7.822  0.1721  0.5821  0.2404
 7149SOL    HW132906   1.344   1.749   7.759 -0.3091 -0.2415  1.2008
 7149SOL    HW232907   1.317   1.776   7.902  0.6608  1.8018  1.0958
 7150SOL     OW32908   2.499   1.770  11.340  0.6799  0.4173  0.6229
 7150SOL    HW132909   2.471   1.679  11.353  0.4708  0.4437  0.3584
 7150SOL    HW232910   2.418   1.818  11.355 -1.0135 -2.3497  0.4212
 7151SOL     OW32911   4.425   3.358  10.273  0.0169 -0.3095 -0.2650
 7151SOL    HW132912   4.518   3.350  10.252  0.1512  1.1004 -0.2242
 7151SOL    HW232913   4.421   3.453  10.272  0.9788 -0.2451  1.1370
 7152SOL     OW32914   1.523   4.393   9.052  0.3151  0.2037  0.1390
 7152SOL    HW132915   1.563   4.476   9.027 -0.2772 -0.3574 -2.6375
 7152SOL    HW232916   1.431   4.416   9.062  0.3776  0.7639 -0.6453
 7153SOL     OW32917   2.454   1.914  16.181 -0.0654 -0.5195 -0.2189
 7153SOL    HW132918   2.504   1.994  16.193 -0.5054 -0.2107 -0.4233
 7153SOL    HW232919   2.365   1.948  16.175 -0.1223 -0.3900  1.4142
 7154SOL     OW32920   3.751   2.978   4.598 -0.2210  0.3614  0.0605
 7154SOL    HW132921   3.717   2.971   4.509 -1.3472  0.0228  0.5184
 7154SOL    HW232922   3.735   2.888   4.626  0.4635  0.7251  1.6515
 7155SOL     OW32923   1.581   2.465   7.977  0.7476  0.0822  0.0193
 7155SOL    HW132924   1.643   2.397   7.947 -0.0946 -0.4917 -0.4188
 7155SOL    HW232925   1.636   2.539   7.952 -0.6278  1.0513 -0.1161
 7156SOL     OW32926   2.622   2.832   1.694 -0.2622 -0.0389 -0.7558
 7156SOL    HW132927   2.684   2.889   1.739  0.5907 -1.6169  0.0775
 7156SOL    HW232928   2.671   2.755   1.723 -0.0075  0.1490 -0.6927
 7157SOL     OW32929   0.137   3.502   2.564  0.6711  0.3571 -0.2311
 7157SOL    HW132930   0.176   3.587   2.543  2.8411 -0.9218 -1.3123
 7157SOL    HW232931   0.215   3.467   2.605  0.2031 -0.0599  0.3057
 7158SOL     OW32932   2.263   2.258   9.131 -0.2786 -0.4965 -0.3549
 7158SOL    HW132933   2.252   2.240   9.225  1.7648  1.1459  0.2049
 7158SOL    HW232934   2.287   2.176   9.087  1.5519  0.1364 -0.5200
 7159SOL     OW32935   3.940   1.081   0.068  0.2473  0.1095  0.2992
 7159SOL    HW132936   3.889   1.005   0.042 -0.1821  0.5623 -0.1698
 7159SOL    HW232937   3.884   1.115   0.138 -0.1211  2.5545 -1.1897
 7160SOL     OW32938   1.369   3.120   4.799  0.3487 -0.0469 -0.4911
 7160SOL    HW132939   1.275   3.135   4.782  0.6913  1.3005 -1.2643
 7160SOL    HW232940   1.369   3.082   4.886  1.9824  1.0180 -0.0347
 7161SOL     OW32941   3.213   1.710   6.429 -0.1907 -0.3868 -0.4339
 7161SOL    HW132942   3.213   1.686   6.522  1.5425  0.9731 -0.0808
 7161SOL    HW232943   3.147   1.779   6.419  1.2269  0.8472 -1.2429
 7162SOL     OW32944   3.019   2.598   8.522  0.0033 -0.2136 -0.4131
 7162SOL    HW132945   3.074   2.604   8.600  0.6555  0.9236 -0.9632
 7162SOL    HW232946   3.014   2.688   8.490  0.6224 -0.0024  0.0712
 7163SOL     OW32947   0.381   1.985   8.551 -0.0877  0.1827  0.0661
 7163SOL    HW132948   0.429   2.061   8.520 -0.5514  0.0875 -0.8812
 7163SOL    HW232949   0.293   2.018   8.570  0.0616  1.6684 -1.7953
 7164SOL     OW32950   2.427   3.119   7.705  0.2999  0.1817 -0.4345
 7164SOL    HW132951   2.514   3.145   7.676  0.6531  2.4854  2.7704
 7164SOL    HW232952   2.444   3.106   7.798  0.5929  0.7041 -0.4196
 7165SOL     OW32953   0.350   1.307   4.110 -0.5052  0.0800  0.2757
 7165SOL    HW132954   0.309   1.235   4.062  2.2358 -0.9902 -0.4300
 7165SOL    HW232955   0.439   1.323   4.079 -0.7935  0.4929 -0.3428
 7166SOL     OW32956   2.637   3.929   7.243  0.5062 -0.6001 -0.4306
 7166SOL    HW132957   2.613   3.958   7.154 -0.3353  0.4252  0.1148
 7166SOL    HW232958   2.597   3.842   7.247  1.2795 -0.8470  1.5411
 7167SOL     OW32959   4.201   2.473   2.991  0.0093 -0.3889 -0.4191
 7167SOL    HW132960   4.265   2.544   2.985  0.1831 -0.5757 -0.7398
 7167SOL    HW232961   4.263   2.399   2.996  0.9302  0.3411 -1.0330
 7168SOL     OW32962   2.202   3.064  13.363 -0.0713  0.0376 -0.5479
 7168SOL    HW132963   2.245   3.143  13.396 -0.1292 -0.1693  0.0372
 7168SOL    HW232964   2.143   3.108  13.302 -0.8049 -0.6382 -0.3219
 7169SOL     OW32965   2.625   1.476   2.662 -0.1935  0.5781  0.3838
 7169SOL    HW132966   2.697   1.528   2.696 -0.0015  0.8119 -0.3893
 7169SOL    HW232967   2.620   1.407   2.729  1.3112 -0.2302 -0.3378
 7170SOL     OW32968   4.290   4.373   7.507 -0.0357  0.1315 -0.4717
 7170SOL    HW132969   4.364   4.434   7.512  1.1117 -1.2162 -1.0294
 7170SOL    HW232970   4.259   4.368   7.597 -0.4842 -1.1162 -0.7054
 7171SOL     OW32971   0.317   1.057  10.588 -0.0696 -0.0092 -0.2314
 7171SOL    HW132972   0.233   1.039  10.546 -0.0731  0.1836 -0.3027
 7171SOL    HW232973   0.368   1.055  10.507 -0.6631  1.3718 -0.6267
 7172SOL     OW32974   2.802   1.966   5.740  0.5073 -0.5891 -0.1448
 7172SOL    HW132975   2.727   2.025   5.734 -1.7070 -3.3817 -0.1687
 7172SOL    HW232976   2.870   2.032   5.750  0.5466 -0.8945  1.5340
 7173SOL     OW32977   2.689   3.125   8.677  0.1815  0.1630  1.1638
 7173SOL    HW132978   2.648   3.047   8.640  0.0031  0.8428 -0.0972
 7173SOL    HW232979   2.780   3.094   8.672  0.9977  2.7267 -0.1742
 7174SOL     OW32980   1.052   2.380   8.596 -0.0433 -0.1738 -0.1766
 7174SOL    HW132981   1.015   2.366   8.509  1.0083 -2.8289 -0.2006
 7174SOL    HW232982   1.001   2.321   8.652 -0.5552  1.5642  1.1731
 7175SOL     OW32983   4.173   4.398  17.058 -0.6548  0.1534 -0.3924
 7175SOL    HW132984   4.197   4.420  17.148 -0.5410  0.7641 -0.5714
 7175SOL    HW232985   4.181   4.488  17.027  0.5214  0.1365 -0.1561
 7176SOL     OW32986   3.912   2.288  14.698 -0.3758  0.2409  0.1206
 7176SOL    HW132987   4.004   2.304  14.679  0.0280 -0.1140  1.8206
 7176SOL    HW232988   3.914   2.202  14.741  2.2677  0.4407  0.3585
 7177SOL     OW32989   2.108   2.945   8.734  0.5791  0.2720 -0.1944
 7177SOL    HW132990   2.037   2.883   8.750  0.7832 -0.2010 -1.1447
 7177SOL    HW232991   2.149   2.949   8.821  0.5104  1.2951 -0.2077
 7178SOL     OW32992   2.517   0.761   6.830 -0.2424  0.1110  0.4646
 7178SOL    HW132993   2.584   0.708   6.874 -0.2090  1.7532  2.3991
 7178SOL    HW232994   2.497   0.834   6.889  2.6253 -0.8686  2.6545
 7179SOL     OW32995   2.400   0.480  15.979 -0.1499 -0.5403  0.1976
 7179SOL    HW132996   2.484   0.526  15.984  0.8640 -2.2101 -1.6150
 7179SOL    HW232997   2.382   0.473  16.073 -4.3999  1.0677 -0.5079
 7180SOL     OW32998   0.514   1.498  12.357 -0.3808  0.3012 -0.4804
 7180SOL    HW132999   0.425   1.495  12.319 -0.1389  0.2191 -1.0474
 7180SOL    HW233000   0.521   1.581  12.404 -1.4347 -0.0001  0.2044
 7181SOL     OW33001   2.696   1.806   6.919 -0.3345 -0.1846 -0.1110
 7181SOL    HW133002   2.706   1.834   7.010 -0.8179 -0.1827 -0.0613
 7181SOL    HW233003   2.742   1.722   6.918  1.8141  0.9916 -0.3649
 7182SOL     OW33004   3.027   1.031   2.055  0.0580  0.4754  0.0646
 7182SOL    HW133005   2.987   1.118   2.047 -0.4211  0.1295 -1.3244
 7182SOL    HW233006   2.990   0.984   1.980 -0.8191 -1.6707  1.8667
 7183SOL     OW33007   0.818   3.000   2.396 -0.4704 -0.5545 -0.1170
 7183SOL    HW133008   0.748   3.063   2.412 -0.7816 -0.2207 -2.7644
 7183SOL    HW233009   0.834   3.007   2.302  0.8552  1.2053  0.2172
 7184SOL     OW33010   1.960   0.210   7.461 -0.1304 -0.1371 -0.3437
 7184SOL    HW133011   1.951   0.165   7.377 -0.9278 -1.3283  0.3789
 7184SOL    HW233012   2.048   0.245   7.467 -0.6917  1.3151 -0.4563
 7185SOL     OW33013   2.168   4.179   3.637  0.1913 -0.0549  0.4975
 7185SOL    HW133014   2.229   4.118   3.595  0.8381  0.9305  0.0013
 7185SOL    HW233015   2.118   4.195   3.557  0.9429 -3.1819 -0.6059
 7186SOL     OW33016   0.976   0.867   3.114 -0.2649  0.1471 -0.2428
 7186SOL    HW133017   0.924   0.789   3.134 -0.1190  0.7345  2.3457
 7186SOL    HW233018   1.026   0.866   3.196 -0.9144  0.0519  0.1511
 7187SOL     OW33019   4.684   0.236   6.526  0.1026 -0.0658  0.0863
 7187SOL    HW133020   4.684   0.315   6.580 -0.6019 -0.2332  0.3371
 7187SOL    HW233021   4.589   0.228   6.512 -0.1491  2.7693  0.2550
 7188SOL     OW33022   2.011   2.854  13.432  0.3483  0.0869 -0.3747
 7188SOL    HW133023   1.966   2.934  13.460 -1.2364 -0.6887 -0.7477
 7188SOL    HW233024   2.079   2.894  13.377 -0.0371 -0.0312 -0.9296
 7189SOL     OW33025   4.638   2.638   7.608 -0.0656  0.1300  0.7730
 7189SOL    HW133026   4.626   2.546   7.632 -0.6349  0.3766  1.4495
 7189SOL    HW233027   4.558   2.661   7.560  0.8680  1.3620 -0.1889
 7190SOL     OW33028   0.648   1.883   5.171 -0.0114  0.0337  0.3702
 7190SOL    HW133029   0.555   1.875   5.193  0.1133  0.6573  1.1003
 7190SOL    HW233030   0.655   1.798   5.126 -0.1386 -1.2695  2.8211
 7191SOL     OW33031   2.438   0.002   1.691  0.2227  0.3630 -0.0533
 7191SOL    HW133032   2.509   4.665   1.674 -0.2984 -0.6598  1.5477
 7191SOL    HW233033   2.358   4.675   1.687 -0.0727  0.6221  2.3747
 7192SOL     OW33034   0.209   3.765   6.296  0.3292 -0.1988  0.5443
 7192SOL    HW133035   0.171   3.838   6.346 -0.4239  0.7382 -1.4275
 7192SOL    HW233036   0.299   3.797   6.303  0.2868  0.0816 -0.2328
 7193SOL     OW33037   0.336   3.037   1.196 -0.0509 -0.2153 -0.2281
 7193SOL    HW133038   0.278   2.993   1.134 -1.8262  1.9250 -0.1059
 7193SOL    HW233039   0.406   3.065   1.137  0.3571 -2.7645 -0.9113
 7194SOL     OW33040   3.052   0.645   0.247  0.1895  0.1856  0.4232
 7194SOL    HW133041   3.019   0.594   0.321  1.0516 -0.8638  0.0956
 7194SOL    HW233042   3.099   0.712   0.296  1.2506  0.8324 -1.5161
 7195SOL     OW33043   3.019   1.242   5.281 -0.4367  0.2172  0.4329
 7195SOL    HW133044   2.923   1.234   5.282 -0.5184  1.5488  2.9548
 7195SOL    HW233045   3.044   1.171   5.221 -2.8658 -0.0125 -0.3231
 7196SOL     OW33046   3.794   1.594   7.078 -0.3875  0.3685 -0.4123
 7196SOL    HW133047   3.844   1.673   7.099  0.8649 -0.4020 -0.4702
 7196SOL    HW233048   3.707   1.630   7.063 -1.1914 -1.2788  0.1978
 7197SOL     OW33049   4.384   1.498   6.440  0.1579 -0.3174 -0.6309
 7197SOL    HW133050   4.305   1.510   6.493 -1.3394 -0.1602 -2.9245
 7197SOL    HW233051   4.397   1.586   6.406 -0.7585  0.2353  0.4348
 7198SOL     OW33052   1.019   3.971   4.172 -0.4761  0.2906  0.5718
 7198SOL    HW133053   0.996   4.061   4.146 -2.2159  0.2030  1.8240
 7198SOL    HW233054   0.954   3.915   4.130  1.2816 -0.9732 -0.4316
 7199SOL     OW33055   3.363   0.153   7.131 -0.3740 -0.5710 -0.0852
 7199SOL    HW133056   3.382   0.073   7.179 -0.1493 -0.1744  0.4851
 7199SOL    HW233057   3.452   0.188   7.131 -0.4742 -0.3399  2.9621
 7200SOL     OW33058   1.873   0.709  16.399 -0.1129  0.1637  0.7862
 7200SOL    HW133059   1.837   0.782  16.450 -0.8764  1.2283 -1.2805
 7200SOL    HW233060   1.937   0.759  16.348 -0.7524 -0.7332 -0.9123
 7201SOL     OW33061   3.297   1.645   7.205  0.5412  0.2896  0.1046
 7201SOL    HW133062   3.251   1.695   7.138 -1.6084 -0.6911  0.8668
 7201SOL    HW233063   3.383   1.686   7.190  1.2900 -0.3174  2.7189
 7202SOL     OW33064   3.531   0.987  11.421  0.1715 -0.3611  0.3665
 7202SOL    HW133065   3.517   0.940  11.339 -0.0114  0.7596 -0.2516
 7202SOL    HW233066   3.479   1.065  11.401  0.7930 -0.5497 -1.9866
 7203SOL     OW33067   1.075   0.368   4.539 -0.1838 -0.0915  0.3263
 7203SOL    HW133068   1.026   0.365   4.621 -1.8195  0.5810 -0.6344
 7203SOL    HW233069   1.144   0.308   4.567  2.9934  2.9087 -1.0829
 7204SOL     OW33070   2.934   0.915  16.355 -0.6802 -0.7214 -0.0514
 7204SOL    HW133071   2.979   0.914  16.440 -0.1463  4.4655 -0.3214
 7204SOL    HW233072   2.940   1.009  16.342  0.7457 -0.5907  1.5522
 7205SOL     OW33073   3.436   0.863   7.412  0.2650 -0.2977 -0.6718
 7205SOL    HW133074   3.397   0.781   7.382  1.7479 -0.7943 -1.2165
 7205SOL    HW233075   3.413   0.929   7.347  0.4130 -0.1694 -0.5955
 7206SOL     OW33076   3.323   0.161   6.478 -0.3937 -0.0564  0.0518
 7206SOL    HW133077   3.331   0.256   6.470 -0.8393 -0.0747 -0.6581
 7206SOL    HW233078   3.235   0.154   6.441 -0.1157 -0.0222 -0.6205
 7207SOL     OW33079   1.114   1.389   2.164  0.2716  0.4261 -0.2087
 7207SOL    HW133080   1.115   1.403   2.259 -0.8531 -0.9811  0.0030
 7207SOL    HW233081   1.031   1.430   2.143 -0.5526 -1.2647 -0.2716
 7208SOL     OW33082   4.414   1.748   0.416  0.4389  0.6128  0.0958
 7208SOL    HW133083   4.358   1.825   0.408  0.6098  0.7111 -0.1396
 7208SOL    HW233084   4.347   1.687   0.385 -0.6884  0.9236  1.9468
 7209SOL     OW33085   3.778   4.545   4.379 -0.1345 -0.6242 -0.3496
 7209SOL    HW133086   3.807   4.603   4.309 -0.5487  0.4330  0.3585
 7209SOL    HW233087   3.837   4.570   4.450 -1.2300  0.6859  0.0823
 7210SOL     OW33088   0.955   1.858   6.118  0.5344 -0.2404  0.0781
 7210SOL    HW133089   0.961   1.902   6.203 -0.1186 -0.7785  0.4023
 7210SOL    HW233090   1.048   1.852   6.096 -0.0918  0.3457 -2.7625
 7211SOL     OW33091   4.283   1.640   7.215 -0.5702 -0.3691 -0.3617
 7211SOL    HW133092   4.357   1.625   7.156  1.6392  2.8426  1.5658
 7211SOL    HW233093   4.307   1.728   7.244  1.3699 -2.2149  3.7117
 7212SOL     OW33094   1.171   3.355   3.842  0.1240  0.0025 -0.2240
 7212SOL    HW133095   1.176   3.259   3.843  0.4453  0.0477  1.2561
 7212SOL    HW233096   1.087   3.375   3.801  0.0576  0.6600  0.2406
 7213SOL     OW33097   3.246   0.329  13.396 -0.6578 -0.5967  0.3162
 7213SOL    HW133098   3.229   0.306  13.487  0.4361 -0.1836  0.6274
 7213SOL    HW233099   3.161   0.347  13.356 -0.4186  0.0059  0.0749
 7214SOL     OW33100   0.920   1.616   8.022 -0.1662  0.0059  0.3559
 7214SOL    HW133101   0.842   1.598   8.073  0.0844 -1.3593  0.2550
 7214SOL    HW233102   0.979   1.567   8.079 -0.8374 -1.4869 -0.2190
 7215SOL     OW33103   4.175   4.266  15.348  0.3074  0.4387  0.5016
 7215SOL    HW133104   4.268   4.278  15.368  0.4171  1.6188 -0.7204
 7215SOL    HW233105   4.143   4.356  15.351 -1.4070 -0.2019  1.7076
 7216SOL     OW33106   4.566   0.576   0.724 -0.5058  0.0230 -0.4863
 7216SOL    HW133107   4.617   0.584   0.644 -0.0768  1.6071 -0.0634
 7216SOL    HW233108   4.479   0.566   0.685 -0.6706 -0.6695  0.0595
 7217SOL     OW33109   2.500   0.736  10.238 -0.2535 -0.4159  0.2984
 7217SOL    HW133110   2.586   0.772  10.258  0.1313  0.3140 -2.6093
 7217SOL    HW233111   2.490   0.682  10.316  0.1096 -0.6564  0.1792
 7218SOL     OW33112   1.867   0.840   7.674  0.3897 -0.0124  0.3656
 7218SOL    HW133113   1.805   0.774   7.644  0.5955 -0.5343  1.0738
 7218SOL    HW233114   1.941   0.840   7.614 -0.3459 -0.1303 -0.5355
 7219SOL     OW33115   4.604   1.863   6.327 -0.5501 -0.0057  0.3028
 7219SOL    HW133116   4.516   1.836   6.352  0.4825 -2.4344  1.2774
 7219SOL    HW233117   4.585   1.953   6.356 -0.3924  0.9614 -2.5640
 7220SOL     OW33118   1.065   0.011  11.914  0.6694 -0.2799  0.6171
 7220SOL    HW133119   1.053   0.105  11.930  0.1858 -0.0580 -1.0460
 7220SOL    HW233120   1.039   4.692  11.995 -2.6033 -0.3858 -0.4940
 7221SOL     OW33121   3.358   3.587   2.880 -0.2547 -0.2554 -0.5884
 7221SOL    HW133122   3.320   3.675   2.888 -0.8213 -0.4820 -0.7718
 7221SOL    HW233123   3.351   3.571   2.786  2.2574 -0.7906 -0.6768
 7222SOL     OW33124   3.088   3.055   4.820  0.4773  0.1524 -0.1168
 7222SOL    HW133125   3.091   3.107   4.900  0.6410 -1.4813  0.9375
 7222SOL    HW233126   3.038   2.978   4.849 -0.2212  0.6870  0.0890
 7223SOL     OW33127   1.532   2.504   2.823 -0.2980 -0.3720  0.1328
 7223SOL    HW133128   1.477   2.582   2.824 -1.3422 -1.1041  1.3511
 7223SOL    HW233129   1.543   2.509   2.729 -4.0619 -1.7012 -0.3908
 7224SOL     OW33130   0.352   0.589   3.740 -0.4343  0.0713 -0.2587
 7224SOL    HW133131   0.424   0.549   3.788  0.0978  2.1663  0.6847
 7224SOL    HW233132   0.389   0.597   3.652  1.3604  0.1100  0.5019
 7225SOL     OW33133   1.928   1.544   0.013  0.1536  0.4293  0.2125
 7225SOL    HW133134   1.848   1.512  17.673  0.6352  1.8236 -1.7845
 7225SOL    HW233135   1.888   1.616   0.062 -1.2075 -0.3844  0.2815
 7226SOL     OW33136   3.553   1.209   6.589 -0.2474  0.0720  0.4813
 7226SOL    HW133137   3.475   1.246   6.549  2.4172  3.1698 -1.8738
 7226SOL    HW233138   3.530   1.231   6.680  0.0672  2.0641  0.0727
 7227SOL     OW33139   1.982   4.308   7.107 -0.1615  0.1228 -0.0840
 7227SOL    HW133140   1.919   4.242   7.078  0.4094 -0.2572 -0.4649
 7227SOL    HW233141   1.976   4.299   7.202 -0.2853  1.0504 -0.0014
 7228SOL     OW33142   3.336   3.968  17.406  0.0449 -0.1761  0.2079
 7228SOL    HW133143   3.366   3.883  17.375  3.3887  0.5734  1.3964
 7228SOL    HW233144   3.391   3.978  17.484  0.3003 -0.7864  0.1056
 7229SOL     OW33145   4.457   4.045   7.244  0.2896 -0.5297 -0.0767
 7229SOL    HW133146   4.362   4.052   7.243  0.2235 -1.4474  0.5337
 7229SOL    HW233147   4.485   4.083   7.160 -1.6348  1.0570  0.0123
 7230SOL     OW33148   3.453   2.449   0.816  0.0104 -0.3086 -0.6333
 7230SOL    HW133149   3.467   2.503   0.738  2.4407  0.5402  0.3756
 7230SOL    HW233150   3.532   2.397   0.802 -0.4488 -1.3047  0.5090
 7231SOL     OW33151   3.529   3.806   4.140 -0.6901 -0.3200 -0.3629
 7231SOL    HW133152   3.440   3.824   4.108 -0.2491 -0.6510 -1.7881
 7231SOL    HW233153   3.580   3.871   4.092 -1.0396 -0.6754 -1.2230
 7232SOL     OW33154   1.889   2.825  17.250  0.1298 -0.6586  0.0723
 7232SOL    HW133155   1.977   2.821  17.288 -0.2928 -0.4417  1.0716
 7232SOL    HW233156   1.897   2.749  17.192  1.8929 -1.9635  2.0379
 7233SOL     OW33157   3.760   1.289  10.951 -0.4226 -0.5807 -0.1260
 7233SOL    HW133158   3.801   1.251  11.029  1.8852 -0.5662 -1.3245
 7233SOL    HW233159   3.839   1.323  10.908 -0.6986  1.3080  0.8518
 7234SOL     OW33160   2.596   3.928   7.700 -0.3689  0.7143 -0.8366
 7234SOL    HW133161   2.522   3.942   7.642 -1.1547  2.1551  0.5130
 7234SOL    HW233162   2.647   4.009   7.696  0.4147  0.3366  1.4989
 7235SOL     OW33163   1.001   2.212   2.501  0.0624 -0.1166 -0.2156
 7235SOL    HW133164   1.083   2.164   2.495  1.3872  1.7290  2.7325
 7235SOL    HW233165   0.985   2.217   2.595 -0.5849 -0.7005 -0.2954
 7236SOL     OW33166   0.900   0.704  17.439  0.1646  0.0260  0.9970
 7236SOL    HW133167   0.931   0.768  17.375 -0.1787 -0.5393  0.2623
 7236SOL    HW233168   0.955   0.742  17.507 -1.3314  0.9307  1.6964
 7237SOL     OW33169   3.646   4.266  12.082  0.6349 -0.3351 -0.0292
 7237SOL    HW133170   3.739   4.272  12.102  0.9168  0.1503 -1.5493
 7237SOL    HW233171   3.618   4.259  12.174 -1.3166  0.4830 -0.5619
 7238SOL     OW33172   2.184   2.189   8.429  0.3080 -0.0705  0.0554
 7238SOL    HW133173   2.094   2.217   8.446  0.2059  0.3924 -1.2907
 7238SOL    HW233174   2.208   2.146   8.511 -0.4160 -1.1447 -0.2976
 7239SOL     OW33175   2.601   0.602   9.423 -0.4815  0.8917  0.7103
 7239SOL    HW133176   2.525   0.659   9.435  0.6906  2.5497  0.3712
 7239SOL    HW233177   2.565   0.519   9.453  0.7631 -0.2698 -1.0565
 7240SOL     OW33178   2.947   2.795   8.073  0.3345 -0.3007 -0.2298
 7240SOL    HW133179   2.885   2.796   8.000 -0.6106 -0.6191  0.5634
 7240SOL    HW233180   2.898   2.750   8.141 -0.9071  1.4051  0.0232
 7241SOL     OW33181   1.933   0.947  12.088 -0.4951  0.0439 -0.2724
 7241SOL    HW133182   1.981   0.987  12.161  0.4249 -2.6306  0.5736
 7241SOL    HW233183   2.004   0.942  12.025  1.0574 -1.5120  1.5976
 7242SOL     OW33184   1.499   0.866   9.436 -0.2811  0.6292 -0.0472
 7242SOL    HW133185   1.583   0.877   9.393  0.4492 -2.4411  0.5430
 7242SOL    HW233186   1.479   0.778   9.405  0.4683 -0.1262  1.5907
 7243SOL     OW33187   2.341   4.645  14.019  0.3840  0.2510  0.1361
 7243SOL    HW133188   2.309   0.002  14.059 -1.1749  0.1983 -0.9827
 7243SOL    HW233189   2.260   4.596  14.032 -0.2718  1.1386 -0.5507
 7244SOL     OW33190   3.462   4.437   8.531 -0.3775 -0.1678  0.2367
 7244SOL    HW133191   3.477   4.350   8.493  0.9875 -0.0335  0.4485
 7244SOL    HW233192   3.367   4.439   8.534 -0.3577  1.9435 -0.5131
 7245SOL     OW33193   2.016   2.104   7.938  0.6826 -1.1232 -0.0603
 7245SOL    HW133194   1.932   2.063   7.962  0.2387  0.0073  0.2839
 7245SOL    HW233195   2.049   2.116   8.027  0.2508 -0.1859 -0.0252
 7246SOL     OW33196   4.163   4.718   7.279  0.0587 -0.0412  0.2508
 7246SOL    HW133197   4.134   4.668   7.355 -0.1495 -1.1991 -0.5924
 7246SOL    HW233198   4.112   4.669   7.214  1.4049 -2.7251  1.2121
 7247SOL     OW33199   1.527   1.912  13.228 -0.0037  0.1540  0.0875
 7247SOL    HW133200   1.443   1.875  13.253  0.1731 -0.2183  0.1307
 7247SOL    HW233201   1.580   1.878  13.301 -0.7130 -0.2895  0.3952
 7248SOL     OW33202   2.505   3.564   6.914  0.3457 -0.4721  0.2512
 7248SOL    HW133203   2.537   3.496   6.855 -1.9598  0.6857 -2.3117
 7248SOL    HW233204   2.486   3.506   6.988  1.6993 -1.6844 -0.3371
 7249SOL     OW33205   0.504   2.729   7.075  0.1520  0.7060  0.3520
 7249SOL    HW133206   0.578   2.703   7.019 -0.5400 -2.4217  0.8960
 7249SOL    HW233207   0.448   2.783   7.020  0.1779 -0.0288 -0.3921
 7250SOL     OW33208   1.307   3.776   2.364 -0.1047 -0.1916  0.4798
 7250SOL    HW133209   1.252   3.834   2.417  0.6616  0.8414  0.1227
 7250SOL    HW233210   1.249   3.700   2.354  1.4339 -1.0302 -2.0067
 7251SOL     OW33211   4.270   4.681   5.627  0.2023 -0.2420 -0.5384
 7251SOL    HW133212   4.187   4.721   5.602 -0.2244 -0.5267  0.4358
 7251SOL    HW233213   4.263   4.600   5.577  1.4642 -0.3837 -0.4936
 7252SOL     OW33214   3.151   2.411  16.974  1.1903  0.4234 -0.2791
 7252SOL    HW133215   3.194   2.346  17.030 -0.1942 -1.8251 -1.7968
 7252SOL    HW233216   3.122   2.476  17.038  2.3863  0.2907  0.3814
 7253SOL     OW33217   0.663   0.794   8.622  0.0018  0.0717 -0.1374
 7253SOL    HW133218   0.735   0.763   8.677 -1.0110 -1.0642  0.5343
 7253SOL    HW233219   0.671   0.739   8.544  0.2438  0.1109 -0.1401
 7254SOL     OW33220   4.236   2.105   4.482  0.8731 -0.2074  0.0184
 7254SOL    HW133221   4.269   2.057   4.559 -2.4791 -0.7198  1.1813
 7254SOL    HW233222   4.264   2.040   4.417  2.2661 -0.9352  1.3449
 7255SOL     OW33223   0.158   0.378  12.373  0.5945 -0.0013  0.4621
 7255SOL    HW133224   0.211   0.411  12.445  1.8128 -0.4823 -0.2171
 7255SOL    HW233225   0.198   0.296  12.345 -1.9663 -0.4657 -1.8634
 7256SOL     OW33226   2.623   2.613   2.433 -0.5025 -0.1741  0.6159
 7256SOL    HW133227   2.554   2.678   2.449 -0.6595 -0.3556  0.6770
 7256SOL    HW233228   2.580   2.530   2.454 -2.0388  0.5833  0.4794
 7257SOL     OW33229   3.457   4.360  16.949 -0.2095  0.1811 -0.1070
 7257SOL    HW133230   3.399   4.290  16.919 -0.4487  0.7154 -0.8923
 7257SOL    HW233231   3.526   4.360  16.883 -0.0667  2.2725  0.0427
 7258SOL     OW33232   2.545   1.038   7.458  0.4803 -0.0212  0.3229
 7258SOL    HW133233   2.529   1.118   7.508 -1.4752  0.2318 -0.6931
 7258SOL    HW233234   2.539   1.078   7.372 -1.1160 -2.0143 -0.5137
 7259SOL     OW33235   1.604   3.124  16.470 -0.1050  0.2600 -0.3788
 7259SOL    HW133236   1.544   3.143  16.542 -0.3109  0.2509 -0.5492
 7259SOL    HW233237   1.645   3.210  16.461  3.1262 -0.8396  3.6796
 7260SOL     OW33238   3.419   3.134   2.322  0.0913  0.0553  0.8521
 7260SOL    HW133239   3.469   3.175   2.252  0.5424 -1.7108  0.1399
 7260SOL    HW233240   3.389   3.206   2.378  0.8506  0.9065  0.1630
 7261SOL     OW33241   3.080   0.395   5.480 -0.2972  0.2241 -0.3580
 7261SOL    HW133242   3.123   0.422   5.560 -0.4860 -0.8480  0.1136
 7261SOL    HW233243   2.991   0.413   5.511 -0.7607 -0.2779 -1.3704
 7262SOL     OW33244   2.602   2.009   6.502  0.3860 -0.3895  0.6289
 7262SOL    HW133245   2.540   1.992   6.573 -3.3759  0.3692 -2.4606
 7262SOL    HW233246   2.657   2.075   6.542  0.0701  1.2578 -1.6692
 7263SOL     OW33247   3.211   3.211   3.303  0.3682 -0.3748 -0.6112
 7263SOL    HW133248   3.221   3.215   3.398 -1.9377 -0.0663 -0.3720
 7263SOL    HW233249   3.301   3.226   3.274  0.0542  1.6694 -0.5462
 7264SOL     OW33250   2.533   3.427   4.602  0.3093  0.4067  0.2924
 7264SOL    HW133251   2.547   3.431   4.508  0.8965 -0.0949  0.3600
 7264SOL    HW233252   2.616   3.396   4.637  0.8740  0.7860 -0.7272
 7265SOL     OW33253   0.741   1.554   0.381 -0.5304  0.2950  0.3859
 7265SOL    HW133254   0.826   1.588   0.351 -0.0839 -0.1048  1.1817
 7265SOL    HW233255   0.707   1.632   0.425  1.4028  2.9794 -2.8108
 7266SOL     OW33256   4.078   4.303   7.936  0.5161 -0.1280  0.3462
 7266SOL    HW133257   4.027   4.253   8.000 -2.8797  2.3318 -0.4936
 7266SOL    HW233258   4.104   4.232   7.878 -1.7655 -2.2757  1.9563
 7267SOL     OW33259   1.872   4.477   3.924 -0.4049  0.2051  0.3947
 7267SOL    HW133260   1.941   4.411   3.920  0.2414  0.8603  0.6733
 7267SOL    HW233261   1.818   4.458   3.847  1.8020 -1.0653 -0.8296
 7268SOL     OW33262   2.446   1.288  12.461  0.1266 -0.4807  0.0293
 7268SOL    HW133263   2.461   1.278  12.367  1.0333 -2.4451  0.3827
 7268SOL    HW233264   2.406   1.375  12.471 -0.5893 -1.0027  1.7878
 7269SOL     OW33265   2.288   0.331   6.295 -0.2920  0.0087  0.1489
 7269SOL    HW133266   2.366   0.291   6.258 -0.5781  0.7043 -1.2095
 7269SOL    HW233267   2.236   0.251   6.302 -1.5146  0.7582 -0.3109
 7270SOL     OW33268   2.667   1.830   2.508  0.0599  0.1492 -0.2638
 7270SOL    HW133269   2.722   1.908   2.498  0.8099 -0.1805  1.3667
 7270SOL    HW233270   2.579   1.866   2.502 -0.3311 -0.5906  1.0096
 7271SOL     OW33271   3.726   0.639   5.555  0.5993  0.1546 -0.1762
 7271SOL    HW133272   3.816   0.610   5.573  0.0303 -1.9613 -0.7909
 7271SOL    HW233273   3.688   0.552   5.565 -0.3589  0.6877  0.8434
 7272SOL     OW33274   0.420   1.072   1.872 -0.3348  0.4918  0.1978
 7272SOL    HW133275   0.495   1.026   1.834  0.6431  0.4931  2.1500
 7272SOL    HW233276   0.429   1.150   1.817 -1.4346  1.6669  1.6966
 7273SOL     OW33277   2.449   2.210   4.969  0.7079  0.0128 -0.4048
 7273SOL    HW133278   2.451   2.177   4.879  1.6362  0.1081 -0.4151
 7273SOL    HW233279   2.541   2.204   4.995  0.3272  1.9871  1.4539
 7274SOL     OW33280   1.112   1.862   5.577  0.2723  0.1580  0.8350
 7274SOL    HW133281   1.205   1.852   5.556  0.1542  0.0685  0.3531
 7274SOL    HW233282   1.106   1.948   5.618 -0.2137  0.8801 -0.7314
 7275SOL     OW33283   4.431   1.051   3.506  0.3238 -0.4586 -0.1061
 7275SOL    HW133284   4.463   1.124   3.559  1.5555 -2.3146  1.7262
 7275SOL    HW233285   4.514   1.004   3.500  0.4345 -0.1940 -0.6215
 7276SOL     OW33286   1.878   0.011  13.588 -0.2729 -0.4922 -0.2039
 7276SOL    HW133287   1.791   4.707  13.562 -0.5660 -1.6039  2.0341
 7276SOL    HW233288   1.920   4.654  13.613  0.3254 -0.6560 -1.7724
 7277SOL     OW33289   3.797   1.293   6.277  0.9696  0.4508  0.1614
 7277SOL    HW133290   3.866   1.268   6.216 -1.1769  0.1122 -2.1405
 7277SOL    HW233291   3.743   1.339   6.212  1.0165  0.4512  0.1227
 7278SOL     OW33292   1.297   4.376   6.859  0.0266  0.2606  0.1781
 7278SOL    HW133293   1.367   4.391   6.795  0.3916 -0.9958  0.2762
 7278SOL    HW233294   1.340   4.314   6.917  1.6933  0.1785 -1.1253
 7279SOL     OW33295   1.663   2.793   6.316 -0.4265 -0.0337  0.5055
 7279SOL    HW133296   1.654   2.860   6.248 -1.8156 -0.8990 -0.1518
 7279SOL    HW233297   1.709   2.844   6.383 -2.3335 -0.1044  1.8459
 7280SOL     OW33298   3.862   2.146   1.884 -0.2802  0.6629  0.3395
 7280SOL    HW133299   3.794   2.111   1.826  0.1023  1.9453 -0.8605
 7280SOL    HW233300   3.939   2.133   1.829 -0.6365 -0.4788  0.1045
 7281SOL     OW33301   2.012   1.967   4.336  0.0315 -0.3891 -0.6105
 7281SOL    HW133302   2.063   1.931   4.408 -0.6862  0.0126  0.0877
 7281SOL    HW233303   2.027   2.060   4.356  2.3449 -0.8750 -0.1049
 7282SOL     OW33304   1.162   2.761   1.868 -0.2693  0.2654 -0.0989
 7282SOL    HW133305   1.100   2.812   1.816  1.0475  3.1134  1.1715
 7282SOL    HW233306   1.105   2.691   1.901 -1.5741 -0.1554 -3.2250
 7283SOL     OW33307   3.675   3.818   8.367 -0.3862 -0.0079 -0.2008
 7283SOL    HW133308   3.583   3.827   8.344 -0.4925 -2.3357 -0.7589
 7283SOL    HW233309   3.672   3.796   8.460 -0.4751  0.2100 -0.1536
 7284SOL     OW33310   0.527   3.279   1.979  0.8288 -0.2827 -0.3371
 7284SOL    HW133311   0.500   3.198   2.023  3.0973 -0.2335  1.1493
 7284SOL    HW233312   0.438   3.315   1.977  0.0643 -2.1259  0.5434
 7285SOL     OW33313   0.360   0.487   3.187 -0.0368  0.0763 -0.5574
 7285SOL    HW133314   0.375   0.572   3.145 -1.4443  0.5154 -0.1475
 7285SOL    HW233315   0.279   0.510   3.232  0.2887 -0.0601  0.1063
 7286SOL     OW33316   2.820   4.399  10.193  0.3838  0.2993  0.7375
 7286SOL    HW133317   2.817   4.483  10.149  0.1597  0.5630  1.2489
 7286SOL    HW233318   2.811   4.416  10.287  1.5630  2.4588  0.4469
 7287SOL     OW33319   1.507   3.742  15.011 -0.4929  0.0811  0.0717
 7287SOL    HW133320   1.457   3.823  14.999 -0.8312 -0.2743 -0.8970
 7287SOL    HW233321   1.530   3.743  15.104 -2.3469  0.7607  0.5110
 7288SOL     OW33322   2.072   1.084   8.109  0.1856 -0.2699 -0.5776
 7288SOL    HW133323   2.039   1.035   8.034 -3.6050  1.0754  0.2328
 7288SOL    HW233324   2.017   1.052   8.180 -0.0670 -2.6601 -1.8616
 7289SOL     OW33325   2.205   2.897   4.737 -0.5793 -0.3649 -0.2548
 7289SOL    HW133326   2.216   2.957   4.811 -0.0192  1.6713 -1.9845
 7289SOL    HW233327   2.120   2.931   4.709  0.1456  2.2625  0.7174
 7290SOL     OW33328   0.067   2.668  14.245 -0.0468  0.0442 -0.3977
 7290SOL    HW133329   0.105   2.688  14.331 -2.4056  1.1673  0.3707
 7290SOL    HW233330   4.704   2.702  14.255  0.0471  0.7752 -1.9826
 7291SOL     OW33331   0.082   4.209   6.571 -0.2168  0.6186  0.3630
 7291SOL    HW133332   0.019   4.269   6.531 -0.9177 -0.0094  0.5295
 7291SOL    HW233333   0.131   4.278   6.617  1.7773 -0.6733  0.1899
 7292SOL     OW33334   2.225   0.903   9.290 -0.1648 -0.0781  0.0557
 7292SOL    HW133335   2.163   0.977   9.293 -0.1894 -0.1346  0.8021
 7292SOL    HW233336   2.295   0.960   9.259 -0.2011 -0.2431 -0.3318
 7293SOL     OW33337   0.933   2.278   2.979  0.2146  0.5433  0.2609
 7293SOL    HW133338   0.907   2.216   2.911  0.1445  1.1102 -0.2311
 7293SOL    HW233339   0.928   2.357   2.925 -0.6655  1.0894  1.1484
 7294SOL     OW33340   1.455   2.786  12.338 -0.3621 -0.0158 -0.1440
 7294SOL    HW133341   1.434   2.716  12.400 -0.2335 -0.0042 -0.0858
 7294SOL    HW233342   1.424   2.866  12.381 -1.2064 -0.8543  0.8179
 7295SOL     OW33343   4.350   2.236   3.011  0.2370 -0.0736  0.3475
 7295SOL    HW133344   4.383   2.156   2.970 -1.4478 -0.3434 -0.5037
 7295SOL    HW233345   4.430   2.269   3.053  0.2803 -1.0738  1.0311
 7296SOL     OW33346   0.990   1.966   8.580 -0.0310 -0.1578  0.4645
 7296SOL    HW133347   1.012   2.024   8.653 -2.0642 -0.1491  1.0702
 7296SOL    HW233348   1.026   2.023   8.512 -1.9379  0.1780 -0.2505
 7297SOL     OW33349   0.746   1.832   1.366 -0.3310  0.0264 -0.5344
 7297SOL    HW133350   0.723   1.913   1.412 -0.9800  1.0558 -2.6942
 7297SOL    HW233351   0.780   1.867   1.284 -1.2313  1.6988 -0.2008
 7298SOL     OW33352   3.530   3.338  10.692 -0.1131  0.0215  0.4026
 7298SOL    HW133353   3.508   3.393  10.767 -2.8143 -1.4005  0.6684
 7298SOL    HW233354   3.516   3.395  10.615  1.8350  0.6260  0.4902
 7299SOL     OW33355   1.441   0.842   8.574 -0.1598  0.1720  0.0873
 7299SOL    HW133356   1.378   0.911   8.593 -1.7667 -1.4174  0.4828
 7299SOL    HW233357   1.524   0.890   8.572 -0.2799  0.4144  0.9565
 7300SOL     OW33358   0.879   2.886   1.830  0.6063 -0.1407  0.6222
 7300SOL    HW133359   0.918   2.871   1.744  2.0537  2.4945  0.8391
 7300SOL    HW233360   0.797   2.836   1.822  0.6361 -0.1077  0.0991
 7301SOL     OW33361   2.132   1.710   6.678 -0.3224  1.0426  0.1879
 7301SOL    HW133362   2.167   1.677   6.595 -0.0068 -0.0572  0.7668
 7301SOL    HW233363   2.202   1.677   6.734 -3.3009 -1.6566  2.3084
 7302SOL     OW33364   0.147   2.205   5.088  0.5640  0.8251 -0.0641
 7302SOL    HW133365   0.179   2.269   5.024 -1.5152  2.4617  0.5343
 7302SOL    HW233366   0.131   2.267   5.159 -0.4707 -0.1996  0.5926
 7303SOL     OW33367   0.879   4.318   4.720 -0.2208 -0.2349  0.8639
 7303SOL    HW133368   0.923   4.383   4.776 -0.3441  1.6535 -1.2408
 7303SOL    HW233369   0.951   4.294   4.662 -0.8322  0.7216 -0.2744
 7304SOL     OW33370   3.610   2.754  14.440 -0.2116 -0.2232 -0.0987
 7304SOL    HW133371   3.663   2.678  14.462  0.9140  0.4988 -0.2857
 7304SOL    HW233372   3.586   2.734  14.350 -1.2163 -1.6793  0.5105
 7305SOL     OW33373   3.149   1.134   7.291 -0.0053  0.4851 -0.1037
 7305SOL    HW133374   3.170   1.161   7.381  0.8813  1.3816 -0.5833
 7305SOL    HW233375   3.232   1.101   7.257  0.4499  1.5949 -0.0642
 7306SOL     OW33376   2.887   3.869   7.160 -0.4477  0.1120  0.6562
 7306SOL    HW133377   2.929   3.828   7.236  1.2775  0.0781 -0.3122
 7306SOL    HW233378   2.808   3.899   7.206 -0.9059  0.2843 -0.2484
 7307SOL     OW33379   2.615   2.210   4.103  0.1203 -0.8693 -0.0548
 7307SOL    HW133380   2.658   2.131   4.068  1.7872 -0.8569  1.9991
 7307SOL    HW233381   2.545   2.194   4.039 -1.2622  1.3136  0.9143
 7308SOL     OW33382   1.518   2.595   6.824 -0.1439 -0.1679  0.1940
 7308SOL    HW133383   1.434   2.621   6.786  0.0429  1.1012  0.6608
 7308SOL    HW233384   1.516   2.500   6.816  0.1003 -0.2709  1.3822
 7309SOL     OW33385   3.814   0.664   3.275 -0.3993 -0.1291  0.2156
 7309SOL    HW133386   3.726   0.668   3.238 -0.7884 -2.1903  0.9293
 7309SOL    HW233387   3.858   0.696   3.196  1.2878 -1.7495  0.4793
 7310SOL     OW33388   4.470   0.603   9.810  0.9032 -0.0266 -0.5263
 7310SOL    HW133389   4.426   0.626   9.729 -3.3795 -0.4967  1.6771
 7310SOL    HW233390   4.455   0.508   9.808 -0.1965  0.0707  2.2188
 7311SOL     OW33391   0.766   2.579  11.887  0.3652  0.4654 -0.1115
 7311SOL    HW133392   0.695   2.582  11.952  0.0009 -2.5457 -0.3719
 7311SOL    HW233393   0.808   2.501  11.923  2.6817  3.1237  2.9510
 7312SOL     OW33394   1.102   2.214   8.873 -0.1825 -0.2961  0.1402
 7312SOL    HW133395   1.105   2.294   8.926  1.6021 -1.1279  1.2877
 7312SOL    HW233396   1.149   2.152   8.929 -1.3677 -0.7390  0.6387
 7313SOL     OW33397   3.918   4.063   3.662 -0.5173 -0.4592 -0.0906
 7313SOL    HW133398   3.961   4.051   3.577 -2.4477  1.9589 -1.4280
 7313SOL    HW233399   3.833   4.024   3.641  0.4252 -2.5237 -0.0519
 7314SOL     OW33400   0.142   3.589   0.228 -0.2085 -0.5746  0.4065
 7314SOL    HW133401   0.217   3.556   0.178  1.4325  3.4018  0.1830
 7314SOL    HW233402   0.132   3.677   0.190 -1.4295 -0.4866  0.9634
 7315SOL     OW33403   2.234   0.454  16.595  0.1304 -0.3206  0.5740
 7315SOL    HW133404   2.157   0.473  16.541 -0.8391 -1.8259  1.3928
 7315SOL    HW233405   2.254   0.544  16.618  1.9465 -0.1282 -1.8674
 7316SOL     OW33406   0.806   1.727  15.183  0.5423  0.0772 -0.3311
 7316SOL    HW133407   0.756   1.674  15.245 -0.1927  1.7849  0.5279
 7316SOL    HW233408   0.742   1.751  15.116 -0.9392 -2.1520  0.2519
 7317SOL     OW33409   0.010   2.692  17.175 -0.0248 -0.4872  0.1649
 7317SOL    HW133410   4.658   2.636  17.161 -1.5411  1.2995  1.3356
 7317SOL    HW233411   4.709   2.760  17.237 -0.0557 -0.5279  0.1970
 7318SOL     OW33412   2.300   3.427   2.850 -0.3774 -0.1192  0.0087
 7318SOL    HW133413   2.389   3.459   2.832  0.1682 -1.6827 -0.0825
 7318SOL    HW233414   2.302   3.351   2.791 -0.5895  0.3951 -0.6641
 7319SOL     OW33415   1.588   3.988   8.321  0.2040  0.6124  0.2703
 7319SOL    HW133416   1.662   4.004   8.380 -1.2330  0.7803  2.0226
 7319SOL    HW233417   1.517   3.966   8.382  1.1947  0.6085  1.4436
 7320SOL     OW33418   0.077   3.354   9.274 -0.0240 -0.1859 -0.2998
 7320SOL    HW133419   0.083   3.438   9.320  0.4516 -1.4165  1.9139
 7320SOL    HW233420   0.138   3.311   9.334  0.1267 -1.0552 -1.0698
 7321SOL     OW33421   0.342   0.502   8.207  0.1700  0.2197 -0.1477
 7321SOL    HW133422   0.352   0.428   8.146  1.3676 -0.2967  0.6695
 7321SOL    HW233423   0.252   0.532   8.193 -0.0977 -0.6039 -0.1781
 7322SOL     OW33424   1.975   1.373   7.441  0.8360  0.4205  0.0419
 7322SOL    HW133425   2.017   1.452   7.473  1.4159  0.0802  0.1324
 7322SOL    HW233426   1.968   1.405   7.351 -0.2254 -2.6034 -0.9616
 7323SOL     OW33427   2.155   3.369   3.083  0.1962  0.5405  0.3227
 7323SOL    HW133428   2.108   3.327   3.012 -0.7913  1.4634  0.4270
 7323SOL    HW233429   2.225   3.412   3.034 -0.7120 -1.8869 -3.0940
 7324SOL     OW33430   2.165   2.480   3.323 -0.3610  0.0184  0.3311
 7324SOL    HW133431   2.070   2.467   3.328 -0.5773  0.2489 -2.6462
 7324SOL    HW233432   2.183   2.514   3.410 -2.1074  0.2878  0.5878
 7325SOL     OW33433   3.929   4.346   2.393  0.4351 -0.2360 -0.2334
 7325SOL    HW133434   3.849   4.297   2.375  1.9644 -3.0331  0.6075
 7325SOL    HW233435   3.957   4.377   2.307 -1.7678 -0.4887 -1.0397
 7326SOL     OW33436   0.822   0.734  13.471 -0.5968 -0.0570 -0.0595
 7326SOL    HW133437   0.753   0.799  13.482  0.5584  1.4388 -1.6143
 7326SOL    HW233438   0.793   0.669  13.535 -0.4158 -2.6946 -2.6400
 7327SOL     OW33439   0.689   1.586   6.608  0.2264  0.5682 -0.1647
 7327SOL    HW133440   0.702   1.659   6.547 -0.0497 -1.1199 -2.2529
 7327SOL    HW233441   0.597   1.611   6.617  0.3900  1.5585 -1.1041
 7328SOL     OW33442   4.139   3.353  11.050 -0.0611  0.9144  0.1112
 7328SOL    HW133443   4.202   3.284  11.033 -2.0710 -0.9164  0.0617
 7328SOL    HW233444   4.163   3.375  11.140 -0.9231 -1.0255  0.8038
 7329SOL     OW33445   0.119   2.055   8.265  0.2459  0.0821  0.8089
 7329SOL    HW133446   0.032   2.018   8.280  1.5372 -2.9912  0.5800
 7329SOL    HW233447   0.090   2.119   8.200  1.2718 -1.0377 -0.7430
 7330SOL     OW33448   1.460   2.104   2.744 -0.0359  0.0847  0.1664
 7330SOL    HW133449   1.429   2.090   2.834  0.0476 -2.3559 -0.1699
 7330SOL    HW233450   1.440   2.020   2.701  3.1255 -0.0969 -0.9394
 7331SOL     OW33451   1.322   1.358   4.184 -0.3251  0.3288  0.1629
 7331SOL    HW133452   1.343   1.436   4.235 -1.8657  1.5796 -1.1284
 7331SOL    HW233453   1.241   1.383   4.140  1.3522  3.7400 -0.9640
 7332SOL     OW33454   0.137   2.631   5.088 -0.2663 -0.0184  0.0292
 7332SOL    HW133455   0.102   2.656   5.174 -2.6712  0.4461 -1.0929
 7332SOL    HW233456   0.067   2.661   5.030 -0.0732  0.2654 -0.0578
 7333SOL     OW33457   0.793   3.386   6.511 -0.0999  0.2533 -0.1522
 7333SOL    HW133458   0.850   3.419   6.580 -1.4225  1.7351  0.2304
 7333SOL    HW233459   0.816   3.453   6.447 -1.5790 -0.6700 -1.6411
 7334SOL     OW33460   0.817   0.050   3.135 -0.3003 -0.4910 -0.5512
 7334SOL    HW133461   0.846   0.115   3.071  1.0257  1.0282  1.6056
 7334SOL    HW233462   0.895   0.026   3.183 -0.5669  0.2904  0.2880
 7335SOL     OW33463   4.112   3.848  10.544  0.3815  0.4850 -0.2194
 7335SOL    HW133464   4.043   3.845  10.478 -0.1959  2.9142  0.2663
 7335SOL    HW233465   4.081   3.795  10.617  0.5028  1.3560  0.4632
 7336SOL     OW33466   2.027   0.981  10.069 -0.0428 -0.2701  0.1349
 7336SOL    HW133467   2.015   0.906  10.129 -1.5619  1.3511  1.8557
 7336SOL    HW233468   1.937   0.973  10.035  0.3965  1.0368 -1.2808
 7337SOL     OW33469   1.824   0.785   8.525 -0.3808 -0.6380 -0.8504
 7337SOL    HW133470   1.834   0.732   8.446 -0.5619 -1.6163 -0.2178
 7337SOL    HW233471   1.793   0.716   8.584  0.1523  0.6631  0.9785
 7338SOL     OW33472   4.168   0.093   8.771 -0.1552  0.2226 -0.0512
 7338SOL    HW133473   4.159   0.131   8.683 -2.5443  0.4778  0.2929
 7338SOL    HW233474   4.188   0.000   8.757 -0.4533  0.3636 -1.4804
 7339SOL     OW33475   2.850   3.651   3.461  0.4057  0.2157 -0.6573
 7339SOL    HW133476   2.853   3.669   3.367 -0.0625 -2.2362 -1.1426
 7339SOL    HW233477   2.901   3.724   3.497 -1.0997  1.4042 -0.9363
 7340SOL     OW33478   2.296   4.365   5.736 -0.1501 -0.3503  0.6069
 7340SOL    HW133479   2.339   4.430   5.790 -0.4231 -2.0513  2.8639
 7340SOL    HW233480   2.366   4.348   5.673  2.0993  0.7461  2.8708
 7341SOL     OW33481   0.195   0.607   0.880 -0.7152 -0.9337  0.1799
 7341SOL    HW133482   0.196   0.672   0.951  0.1803 -0.4066 -0.3158
 7341SOL    HW233483   0.117   0.557   0.904 -1.1178  1.0144  2.9689
 7342SOL     OW33484   2.733   3.248  16.978  0.3391 -0.5645  0.2461
 7342SOL    HW133485   2.786   3.327  16.991 -0.6125  0.2753 -0.9471
 7342SOL    HW233486   2.660   3.286  16.928 -0.2764 -0.5726  1.1494
 7343SOL     OW33487   1.403   0.946   1.585  0.0559 -1.0106 -0.3870
 7343SOL    HW133488   1.338   1.014   1.601  0.2366 -1.2538  1.3620
 7343SOL    HW233489   1.452   0.958   1.666 -0.4717  0.5295 -0.2935
 7344SOL     OW33490   3.038   4.042  14.790  0.1257 -0.1075 -0.2223
 7344SOL    HW133491   3.093   3.994  14.727  1.3722  2.2852 -0.9468
 7344SOL    HW233492   3.003   3.963  14.833  2.1966 -1.0876 -0.3195
 7345SOL     OW33493   2.110   1.534  14.277  0.4304 -0.3120  0.0262
 7345SOL    HW133494   2.120   1.618  14.233 -0.6379 -0.7858 -1.1369
 7345SOL    HW233495   2.119   1.477  14.200  1.0732  0.3015 -0.3588
 7346SOL     OW33496   3.264   3.443   4.882 -0.0544  0.1311 -0.1648
 7346SOL    HW133497   3.275   3.374   4.816  1.8847 -0.7541  1.0937
 7346SOL    HW233498   3.236   3.517   4.828  0.4770  1.9825  2.1372
 7347SOL     OW33499   3.414   4.078   2.318  0.3819  0.0702  1.2334
 7347SOL    HW133500   3.414   4.006   2.381 -1.4421  0.4846  1.7045
 7347SOL    HW233501   3.350   4.043   2.256  1.3321  1.4921 -0.5433
 7348SOL     OW33502   3.674   4.412  16.734 -0.2007 -0.6215 -0.9637
 7348SOL    HW133503   3.729   4.409  16.656  1.3863 -1.0203  0.1663
 7348SOL    HW233504   3.622   4.331  16.730  0.0225 -0.8048 -0.1266
 7349SOL     OW33505   2.589   1.236   4.369  0.3759 -0.2285  0.0261
 7349SOL    HW133506   2.549   1.322   4.382 -1.2372 -0.8842 -0.6042
 7349SOL    HW233507   2.516   1.187   4.330  0.1600 -0.8619  1.2232
 7350SOL     OW33508   1.894   3.248   7.710  0.1804 -0.0814  0.0728
 7350SOL    HW133509   1.925   3.334   7.738  0.3976  0.1088 -0.7547
 7350SOL    HW233510   1.977   3.201   7.698 -0.6887 -1.3680 -0.9973
 7351SOL     OW33511   3.735   2.469   0.949  0.3564 -0.1755  0.2078
 7351SOL    HW133512   3.672   2.417   0.999  2.5622 -1.8468  1.2510
 7351SOL    HW233513   3.822   2.440   0.977  0.6218 -0.9183 -1.4244
 7352SOL     OW33514   2.490   2.589   0.370  0.2872 -0.1574  0.1834
 7352SOL    HW133515   2.510   2.679   0.396  2.1481 -0.4563 -0.2540
 7352SOL    HW233516   2.447   2.548   0.445  0.8672  1.4663  1.3837
 7353SOL     OW33517   2.245   1.332   3.002  0.1074  0.4565  0.0480
 7353SOL    HW133518   2.170   1.274   3.015  0.3946  0.1277  0.2515
 7353SOL    HW233519   2.220   1.405   3.059  0.9058  0.2301  0.6855
 7354SOL     OW33520   0.876   3.735   8.589  0.4310  0.5963 -0.0904
 7354SOL    HW133521   0.877   3.692   8.674 -1.2987  0.2351 -0.2574
 7354SOL    HW233522   0.966   3.766   8.584  1.0249 -0.6861  2.5468
 7355SOL     OW33523   2.228   4.307  10.433  0.2097 -0.0720  0.0444
 7355SOL    HW133524   2.214   4.385  10.380 -3.2760 -0.5566  0.2108
 7355SOL    HW233525   2.142   4.265  10.425 -0.8699  2.1992 -0.1577
 7356SOL     OW33526   0.805   3.452   3.403 -0.0913 -0.5286 -0.1451
 7356SOL    HW133527   0.840   3.468   3.315 -1.2842  0.5883 -0.4253
 7356SOL    HW233528   0.809   3.357   3.411 -0.1096 -0.4773  0.4875
 7357SOL     OW33529   1.958   3.433   6.693 -0.1117  0.1413 -0.2833
 7357SOL    HW133530   1.958   3.342   6.723 -0.7320 -0.4942 -2.1927
 7357SOL    HW233531   1.896   3.467   6.758  1.1319  0.7832  0.5647
 7358SOL     OW33532   4.607   4.623   5.965  0.4650  0.6296  0.5869
 7358SOL    HW133533   4.670   4.576   5.910 -0.3042  1.5867 -1.1230
 7358SOL    HW233534   4.582   4.553   6.025 -0.1856 -0.3199 -0.8078
 7359SOL     OW33535   3.120   3.173  12.100 -0.1957 -0.5510  0.1288
 7359SOL    HW133536   3.025   3.182  12.109 -0.1676  1.7165 -1.7562
 7359SOL    HW233537   3.127   3.099  12.040 -2.7829 -2.2336  1.9561
 7360SOL     OW33538   2.507   1.982   7.403 -0.2745 -0.0239  0.2489
 7360SOL    HW133539   2.485   2.042   7.474 -1.5398  0.6760 -0.7324
 7360SOL    HW233540   2.603   1.980   7.410 -0.2580  0.0714  0.0400
 7361SOL     OW33541   1.314   0.032   5.544  0.0236  0.0519  0.0201
 7361SOL    HW133542   1.324   0.032   5.639 -0.2384 -3.4074  0.0225
 7361SOL    HW233543   1.222   0.005   5.542  0.9644 -3.0201 -0.9699
 7362SOL     OW33544   3.303   3.829   1.873 -0.2495 -0.6989 -0.4281
 7362SOL    HW133545   3.221   3.797   1.835 -1.4772  0.0451  1.6528
 7362SOL    HW233546   3.289   3.923   1.881 -1.3250 -1.0299  1.4970
 7363SOL     OW33547   3.203   0.636   7.881 -0.5496 -0.1749 -0.1664
 7363SOL    HW133548   3.270   0.690   7.924 -0.3386 -1.8884  1.6663
 7363SOL    HW233549   3.171   0.582   7.953 -0.1661 -0.4325 -0.1878
 7364SOL     OW33550   2.645   4.602   1.660 -0.2807 -0.3997 -0.4802
 7364SOL    HW133551   2.685   4.688   1.652 -0.6424 -0.1490  0.3076
 7364SOL    HW233552   2.700   4.538   1.614  0.1301 -1.3390  1.3060
 7365SOL     OW33553   4.017   2.424   7.119 -0.1601  0.1534 -0.0340
 7365SOL    HW133554   4.095   2.372   7.138  1.5498  1.7904 -2.5937
 7365SOL    HW233555   3.947   2.359   7.109  0.5415 -1.3688  4.8755
 7366SOL     OW33556   0.946   0.656  13.257  0.1138  0.3329  0.1581
 7366SOL    HW133557   0.902   0.696  13.333  0.7199 -1.1677  1.2933
 7366SOL    HW233558   0.870   0.614  13.217 -0.0648  2.7815 -2.0688
 7367SOL     OW33559   2.923   1.621  15.548  0.3864 -0.0547 -0.2251
 7367SOL    HW133560   2.939   1.543  15.495  0.2097  0.7419 -1.4494
 7367SOL    HW233561   2.932   1.575  15.632  0.4589 -2.0892 -1.3473
 7368SOL     OW33562   1.083   0.984  13.367  0.7656  0.3925  0.1714
 7368SOL    HW133563   1.017   1.039  13.325  1.8473  0.9760 -0.7581
 7368SOL    HW233564   1.109   0.937  13.288 -3.0545 -0.5902 -0.5232
 7369SOL     OW33565   3.749   1.709  15.092  0.3806  0.1885 -0.3708
 7369SOL    HW133566   3.742   1.615  15.106  1.0983 -0.2400 -2.7817
 7369SOL    HW233567   3.702   1.735  15.171  0.6502  0.2541 -0.2320
 7370SOL     OW33568   3.246   1.830   9.917 -0.3458  0.8387 -0.5604
 7370SOL    HW133569   3.266   1.899   9.854  2.3272  0.6497  0.0582
 7370SOL    HW233570   3.305   1.762   9.882 -1.1765  0.4770 -1.2431
 7371SOL     OW33571   1.451   3.670   8.491 -0.1790  0.5518  0.0189
 7371SOL    HW133572   1.441   3.682   8.396 -0.0966 -0.6320 -0.1386
 7371SOL    HW233573   1.392   3.598   8.514  0.0965  0.1435 -0.5342
 7372SOL     OW33574   2.749   4.459   4.082  0.7374  0.3907 -0.0832
 7372SOL    HW133575   2.754   4.536   4.025  0.8295 -1.3796 -2.5071
 7372SOL    HW233576   2.768   4.505   4.163 -1.2410 -1.6586  1.5378
 7373SOL     OW33577   3.435   1.559   3.191  0.7472  0.2724 -0.1716
 7373SOL    HW133578   3.406   1.649   3.199 -0.8682 -0.3398  0.9222
 7373SOL    HW233579   3.372   1.517   3.251 -1.0683 -0.0072 -2.2647
 7374SOL     OW33580   2.574   2.352  13.083  0.1895 -0.2216 -0.2524
 7374SOL    HW133581   2.669   2.342  13.074  0.0962  0.0957 -1.5479
 7374SOL    HW233582   2.565   2.268  13.127 -0.2770 -1.2216 -2.2562
 7375SOL     OW33583   0.465   1.032   5.543 -0.6821 -0.2544  0.4905
 7375SOL    HW133584   0.440   1.012   5.453  1.9225  0.5114 -0.3786
 7375SOL    HW233585   0.496   1.120   5.526  0.7142 -0.5927  1.3464
 7376SOL     OW33586   3.366   0.105  11.109  0.4616  0.0748 -0.5877
 7376SOL    HW133587   3.442   0.103  11.050 -0.0439  1.6636 -1.2657
 7376SOL    HW233588   3.302   0.159  11.063  0.1885  1.5626  1.5297
 7377SOL     OW33589   1.729   4.427   0.525  0.2894 -0.0135  0.5551
 7377SOL    HW133590   1.727   4.506   0.578  0.8968  0.1199  0.3712
 7377SOL    HW233591   1.662   4.446   0.459 -0.6762 -2.2559  0.8669
 7378SOL     OW33592   3.817   3.817   6.674  0.6346  0.0389 -0.5151
 7378SOL    HW133593   3.757   3.892   6.667  0.9660  0.3278 -0.2218
 7378SOL    HW233594   3.779   3.759   6.608  0.4683 -1.2619  0.7293
 7379SOL     OW33595   3.105   0.421   4.051  0.7340 -0.0975 -0.2763
 7379SOL    HW133596   3.194   0.427   4.016  0.1865  3.2218 -1.0439
 7379SOL    HW233597   3.080   0.513   4.054 -1.0512 -0.6147  0.7851
 7380SOL     OW33598   4.116   3.548   0.388  0.2951 -0.0780  0.0754
 7380SOL    HW133599   4.049   3.615   0.405  1.1413  0.7072  0.3212
 7380SOL    HW233600   4.135   3.508   0.473 -0.3021 -1.7010 -0.5630
 7381SOL     OW33601   1.822   3.462  14.722 -0.6354  0.4723 -0.1066
 7381SOL    HW133602   1.867   3.458  14.807 -1.9587  0.5232  0.6042
 7381SOL    HW233603   1.752   3.398  14.733 -0.7215  0.2492 -2.0608
 7382SOL     OW33604   1.807   4.136  10.628  0.2162 -0.1370  0.8829
 7382SOL    HW133605   1.804   4.220  10.582  0.4227 -0.2704  0.6255
 7382SOL    HW233606   1.719   4.102  10.619  0.2423 -0.8364  3.1519
 7383SOL     OW33607   4.128   1.240   7.650  0.3627  0.0978  0.0428
 7383SOL    HW133608   4.033   1.228   7.642 -0.0642  4.1230 -1.1020
 7383SOL    HW233609   4.154   1.153   7.679  0.1101 -0.4817 -1.4854
 7384SOL     OW33610   1.335   1.050   9.570 -0.5324 -0.1725 -0.0535
 7384SOL    HW133611   1.248   1.068   9.534 -2.2295 -0.8841  3.7448
 7384SOL    HW233612   1.361   0.990   9.500  0.9016  1.1766 -0.6625
 7385SOL     OW33613   1.092   2.646   2.299 -0.1333 -0.5407 -0.2672
 7385SOL    HW133614   1.140   2.725   2.273 -0.9803  0.8659  2.4667
 7385SOL    HW233615   1.002   2.678   2.296 -0.7428 -2.1818  0.6294
 7386SOL     OW33616   3.664   0.923  16.697  0.1220 -0.1366  0.3423
 7386SOL    HW133617   3.730   0.901  16.631  0.8106  0.9180  0.6752
 7386SOL    HW233618   3.647   0.840  16.741  1.8580 -0.4866  0.3616
 7387SOL     OW33619   0.740   0.048   1.213 -0.3144  0.4110  0.1154
 7387SOL    HW133620   0.729   0.097   1.295 -1.6475  0.0544  0.1500
 7387SOL    HW233621   0.835   0.038   1.215 -0.1993  1.2664 -1.0822
 7388SOL     OW33622   3.232   0.973  17.341 -0.4531  0.0821 -0.2939
 7388SOL    HW133623   3.197   1.062  17.331 -1.1980 -0.4497 -2.3124
 7388SOL    HW233624   3.310   0.979  17.286 -0.0944  0.0340  0.2162
 7389SOL     OW33625   4.205   4.360   2.780  0.4885 -0.2944 -0.2722
 7389SOL    HW133626   4.127   4.369   2.726  0.5668 -0.0723 -0.3480
 7389SOL    HW233627   4.198   4.266   2.795  2.1431 -0.0283  2.1745
 7390SOL     OW33628   4.099   2.857   3.007  1.1505 -0.3455  0.3477
 7390SOL    HW133629   4.112   2.768   2.975  3.1511 -0.1250  0.5440
 7390SOL    HW233630   4.057   2.831   3.089  1.1125  0.4397  0.5831
 7391SOL     OW33631   4.540   3.073   5.436 -0.2919  0.4528  0.1233
 7391SOL    HW133632   4.459   3.109   5.400 -0.5318 -0.8141 -0.6183
 7391SOL    HW233633   4.513   2.981   5.432  0.1786  0.3812 -1.6261
 7392SOL     OW33634   0.280   0.951   9.714 -0.3804  0.0027 -0.4300
 7392SOL    HW133635   0.336   0.961   9.790  0.1813  0.7739 -0.9483
 7392SOL    HW233636   0.335   0.979   9.640 -1.9633  0.5690 -1.4116
 7393SOL     OW33637   0.605   3.035   9.282 -0.4870 -0.0058 -0.2244
 7393SOL    HW133638   0.628   3.124   9.311  2.5919 -1.2794  1.1893
 7393SOL    HW233639   0.630   3.038   9.190  0.8709  1.2140  0.1937
 7394SOL     OW33640   1.761   1.301   8.029  0.5018 -0.8947  0.4960
 7394SOL    HW133641   1.671   1.319   8.056 -0.3223 -2.3958 -1.3006
 7394SOL    HW233642   1.752   1.215   7.988  0.9767 -1.4988  1.6645
 7395SOL     OW33643   2.327   4.148   6.756 -0.0970  0.4473  0.4287
 7395SOL    HW133644   2.243   4.188   6.732 -0.0726  0.7965  0.9302
 7395SOL    HW233645   2.332   4.083   6.686 -0.1367  0.5303  0.3482
 7396SOL     OW33646   3.841   1.185  14.860  0.7004  0.3915 -0.1092
 7396SOL    HW133647   3.839   1.181  14.956  0.5622  2.4482 -0.0186
 7396SOL    HW233648   3.894   1.111  14.831 -0.4815  0.1512 -1.6343
 7397SOL     OW33649   0.004   2.869   2.857 -0.1743  0.4539 -0.0967
 7397SOL    HW133650   4.703   2.898   2.944  0.1102  1.5891 -0.3974
 7397SOL    HW233651   0.096   2.857   2.880 -0.1844  0.7374  0.0885
 7398SOL     OW33652   4.188   0.918  12.992 -0.3828  0.3128 -0.5821
 7398SOL    HW133653   4.256   0.898  13.056  1.0648 -0.2310 -2.2931
 7398SOL    HW233654   4.151   0.833  12.966 -0.1324  0.4792 -1.4920
 7399SOL     OW33655   1.045   1.091   2.997  0.0215  0.3029  0.0425
 7399SOL    HW133656   1.105   1.109   3.069  0.4244 -0.1834 -0.1679
 7399SOL    HW233657   1.015   1.003   3.021 -0.3748  0.4031 -0.0908
 7400SOL     OW33658   1.430   3.956   2.624 -0.2713  0.4612 -0.2442
 7400SOL    HW133659   1.410   4.016   2.697  0.4185 -1.6066  1.6508
 7400SOL    HW233660   1.385   4.008   2.558  0.1185  3.0864  1.5329
 7401SOL     OW33661   0.057   1.913   8.010 -0.3539 -0.0935  0.3635
 7401SOL    HW133662   0.122   1.938   8.076 -0.6653  2.8549 -0.4718
 7401SOL    HW233663   0.029   1.996   7.973  2.0029  0.8023  0.5986
 7402SOL     OW33664   1.158   2.020  13.913 -0.4196  0.0848  0.2598
 7402SOL    HW133665   1.125   2.067  13.990 -1.6117  2.1212 -1.5102
 7402SOL    HW233666   1.085   1.981  13.867  1.1163 -1.0206 -1.2123
 7403SOL     OW33667   1.652   0.834   9.651 -0.4494 -0.1967  0.5620
 7403SOL    HW133668   1.586   0.837   9.582 -0.5432 -0.1876  0.6509
 7403SOL    HW233669   1.658   0.922   9.689 -1.5810 -1.0212  2.6660
 7404SOL     OW33670   2.196   4.281   7.424  0.6869  0.3866 -0.3315
 7404SOL    HW133671   2.276   4.280   7.371  2.5097  2.4075  2.4110
 7404SOL    HW233672   2.151   4.200   7.396 -0.0209  0.9857 -0.9313
 7405SOL     OW33673   3.475   0.197   3.874 -0.1535 -0.5467 -0.2336
 7405SOL    HW133674   3.421   0.193   3.953 -1.0173  0.0756 -0.8001
 7405SOL    HW233675   3.528   0.117   3.874  0.9105  0.1667 -0.9700
 7406SOL     OW33676   1.814   2.534   2.098  0.4200 -0.2234 -0.5802
 7406SOL    HW133677   1.774   2.523   2.011 -0.3667  2.9785 -0.6448
 7406SOL    HW233678   1.880   2.602   2.083 -0.1341 -0.0240 -2.1526
 7407SOL     OW33679   2.482   0.178   0.173  0.5689  0.2260  0.1093
 7407SOL    HW133680   2.443   0.262   0.197 -0.3643 -1.0560  3.1336
 7407SOL    HW233681   2.415   0.132   0.123  0.3109 -0.0007  0.6618
 7408SOL     OW33682   0.330   0.519   9.106  0.4722  0.2420  0.5092
 7408SOL    HW133683   0.386   0.474   9.169 -0.0248  1.6398  1.9550
 7408SOL    HW233684   0.371   0.605   9.094 -0.0284  0.6316  1.5235
 7409SOL     OW33685   3.639   0.897  10.274 -0.0360 -0.4295  0.3051
 7409SOL    HW133686   3.548   0.874  10.296 -0.7890  2.7813  0.4745
 7409SOL    HW233687   3.691   0.897  10.354  0.4687 -1.3988 -0.0211
 7410SOL     OW33688   3.064   1.744   3.786  0.8232  0.2322 -0.3386
 7410SOL    HW133689   3.109   1.710   3.709  0.2676 -1.5073  0.1227
 7410SOL    HW233690   3.139   1.744   3.846 -0.6423  0.0590  1.4964
 7411SOL     OW33691   1.335   0.886  17.427  0.4193  0.0204 -0.1846
 7411SOL    HW133692   1.267   0.830  17.464  1.2633 -0.7920  0.1572
 7411SOL    HW233693   1.290   0.965  17.397 -0.2469 -0.5960 -0.8048
 7412SOL     OW33694   0.438   3.235  11.279 -0.0988 -0.1616  0.6625
 7412SOL    HW133695   0.492   3.255  11.202  0.3068 -4.1561 -0.0566
 7412SOL    HW233696   0.442   3.140  11.282  0.6594 -0.0043  4.7091
 7413SOL     OW33697   0.356   1.338   5.312 -0.2901 -0.6605  0.2258
 7413SOL    HW133698   0.429   1.286   5.279  1.3873  0.5170  2.1197
 7413SOL    HW233699   0.290   1.301   5.254 -1.0194  1.3222 -0.2308
 7414SOL     OW33700   1.687   2.709   2.982  0.3868 -0.3985 -0.4178
 7414SOL    HW133701   1.725   2.711   2.894  3.2085  2.3269  0.8876
 7414SOL    HW233702   1.600   2.679   2.955 -0.5122  1.6855  0.1767
 7415SOL     OW33703   3.961   0.610   7.742 -0.1356 -0.6884  0.3301
 7415SOL    HW133704   3.962   0.518   7.769  2.8813 -0.7795 -0.0222
 7415SOL    HW233705   3.918   0.656   7.814  3.3235  0.7972  1.4484
 7416SOL     OW33706   0.451   3.114   2.201  0.3526 -0.6340 -0.1543
 7416SOL    HW133707   0.371   3.091   2.248 -0.8470  1.8089 -0.9761
 7416SOL    HW233708   0.493   3.157   2.275 -2.4261  0.2369  0.9272
 7417SOL     OW33709   0.699   3.701  12.668  0.3564  0.0588 -0.7028
 7417SOL    HW133710   0.605   3.705  12.684  0.7899  2.3144  1.3660
 7417SOL    HW233711   0.710   3.674  12.577 -0.2184 -1.5116 -0.3071
 7418SOL     OW33712   0.402   3.203   3.746 -0.0750  0.5723 -0.0171
 7418SOL    HW133713   0.372   3.291   3.724 -1.3381  0.4378  1.1702
 7418SOL    HW233714   0.322   3.153   3.763 -0.1488  0.7517  0.1652
 7419SOL     OW33715   0.087   1.727   7.754  0.2757 -0.4462  0.1404
 7419SOL    HW133716   0.179   1.753   7.750  0.1007 -0.4805 -3.7415
 7419SOL    HW233717   0.075   1.768   7.840 -0.4894 -1.4127  0.4939
 7420SOL     OW33718   1.521   1.519  13.344 -0.1035  0.2886 -1.1605
 7420SOL    HW133719   1.442   1.504  13.396  0.1729 -1.1251 -1.1556
 7420SOL    HW233720   1.569   1.439  13.364  0.8258  0.9714 -0.6239
 7421SOL     OW33721   2.168   0.605   7.961 -0.6867  0.1750  0.1139
 7421SOL    HW133722   2.150   0.667   8.031 -0.1371  0.4709 -0.0066
 7421SOL    HW233723   2.222   0.548   8.016 -0.1372  0.6265  0.0511
 7422SOL     OW33724   2.220   0.017   7.704  0.2423 -0.1154  0.7126
 7422SOL    HW133725   2.237   4.679   7.634  0.6404  0.8751 -0.0830
 7422SOL    HW233726   2.132   4.711   7.727 -0.0726 -0.2801 -0.7459
 7423SOL     OW33727   0.424   3.614   7.827 -0.3131  0.3455 -0.2862
 7423SOL    HW133728   0.409   3.589   7.918 -0.0221  1.1973  0.0008
 7423SOL    HW233729   0.436   3.709   7.828  1.2506  0.0746  3.4673
 7424SOL     OW33730   0.027   4.017  10.289  0.1958  0.1391 -0.1938
 7424SOL    HW133731   4.679   3.986  10.235  1.5342  1.4388 -2.7588
 7424SOL    HW233732   0.044   3.936  10.336  0.4081  2.0833  3.0589
 7425SOL     OW33733   2.159   0.536   4.679 -0.2985 -0.5958  0.1934
 7425SOL    HW133734   2.094   0.585   4.729 -1.3279 -0.5225 -1.2503
 7425SOL    HW233735   2.213   0.600   4.632 -1.4294 -0.8025 -1.3686
 7426SOL     OW33736   3.267   0.417   6.134  0.4805  0.0019 -0.2171
 7426SOL    HW133737   3.258   0.487   6.070 -3.8362 -1.3293 -1.0260
 7426SOL    HW233738   3.190   0.367   6.108  0.8744 -0.1180 -1.1493
 7427SOL     OW33739   0.106   1.776   3.458 -0.1029 -0.5607 -0.1675
 7427SOL    HW133740   0.034   1.714   3.466  1.0608 -1.7814  0.8814
 7427SOL    HW233741   0.084   1.836   3.529  1.3906 -0.5614  0.3049
 7428SOL     OW33742   1.599   0.834   7.343  0.5487 -0.3575  0.4554
 7428SOL    HW133743   1.564   0.753   7.306  0.0924  0.8326 -1.6856
 7428SOL    HW233744   1.527   0.894   7.329  2.8014  2.1003 -0.5538
 7429SOL     OW33745   2.461   1.958  15.498 -0.4041 -0.5770 -0.2356
 7429SOL    HW133746   2.555   1.938  15.505 -0.2837 -1.3395 -3.9995
 7429SOL    HW233747   2.468   2.053  15.495  1.0826 -0.6790 -0.2596
 7430SOL     OW33748   0.788   1.633   0.978 -0.2357 -0.4261 -0.1217
 7430SOL    HW133749   0.741   1.682   1.045 -1.0345 -0.2399 -0.8140
 7430SOL    HW233750   0.724   1.646   0.908  0.5273 -1.0498 -0.9285
 7431SOL     OW33751   2.103   0.729  14.709 -0.2479  0.2384 -0.0620
 7431SOL    HW133752   2.074   0.784  14.637 -1.2651 -1.1178 -0.6994
 7431SOL    HW233753   2.015   0.721  14.748 -0.3131  0.8339 -0.0940
 7432SOL     OW33754   1.778   1.006  15.115  0.5346 -0.1053 -0.1421
 7432SOL    HW133755   1.731   0.933  15.155 -0.6941  1.7681  1.8208
 7432SOL    HW233756   1.801   1.063  15.188  0.7598 -2.0232  1.2635
 7433SOL     OW33757   2.121   0.989  14.340  0.3698  0.0376 -0.3051
 7433SOL    HW133758   2.115   0.945  14.255  1.4478 -0.5943 -0.0491
 7433SOL    HW233759   2.210   0.969  14.368  0.6402  0.0153 -1.1995
 7434SOL     OW33760   0.395   3.397   8.744  0.0534  0.0748  0.0672
 7434SOL    HW133761   0.427   3.487   8.752  0.0556  0.1076 -0.3008
 7434SOL    HW233762   0.321   3.414   8.686  1.2675  0.3430 -1.4145
 7435SOL     OW33763   2.608   3.015   1.950 -0.1313 -0.5222 -0.3153
 7435SOL    HW133764   2.692   2.982   1.918  0.2467 -0.2055  0.3475
 7435SOL    HW233765   2.620   3.110   1.942 -2.9836 -0.0465  1.3154
 7436SOL     OW33766   2.822   2.174   8.383 -0.0054 -0.1273 -0.1263
 7436SOL    HW133767   2.743   2.120   8.375  0.7007 -1.2264  0.3590
 7436SOL    HW233768   2.798   2.236   8.452  1.6059 -0.6840  0.9375
 7437SOL     OW33769   2.947   0.374   6.599 -0.6913 -0.4005 -0.5104
 7437SOL    HW133770   2.986   0.288   6.614 -0.7388 -0.0602  1.5532
 7437SOL    HW233771   3.027   0.426   6.588 -1.4428  0.1342 -3.4548
 7438SOL     OW33772   3.047   3.398   5.713 -0.1644 -0.1128  0.7969
 7438SOL    HW133773   2.963   3.420   5.675 -0.3790 -1.0959  0.6876
 7438SOL    HW233774   3.047   3.455   5.790 -1.3136  1.7858 -0.6361
 7439SOL     OW33775   3.667   2.500   7.124 -0.1048  0.1217 -0.3715
 7439SOL    HW133776   3.673   2.542   7.210 -0.7306 -2.1628  0.7874
 7439SOL    HW233777   3.646   2.410   7.148 -0.3047 -0.2574 -1.9809
 7440SOL     OW33778   3.689   3.844   5.934  0.1517 -0.2169  0.0987
 7440SOL    HW133779   3.753   3.848   5.862 -2.0285  1.8888 -1.7435
 7440SOL    HW233780   3.754   3.834   6.003  1.1244 -2.6196 -1.1383
 7441SOL     OW33781   4.223   1.242   1.822 -0.0342 -0.3299 -0.1487
 7441SOL    HW133782   4.302   1.288   1.852  1.5311 -1.4496 -2.4721
 7441SOL    HW233783   4.268   1.181   1.763  0.0960 -0.1880 -0.1959
 7442SOL     OW33784   3.170   0.459   1.127 -0.2013  0.1846  0.4635
 7442SOL    HW133785   3.176   0.386   1.189  0.5394 -1.2956 -1.3559
 7442SOL    HW233786   3.164   0.522   1.199 -1.6260  2.3309 -1.5658
 7443SOL     OW33787   2.265   3.863   6.746  0.5577  0.3832  0.2186
 7443SOL    HW133788   2.302   3.867   6.834 -0.6502 -1.1013  0.7948
 7443SOL    HW233789   2.170   3.862   6.763  0.5935 -1.3772  0.2474
 7444SOL     OW33790   0.982   2.966  13.004 -0.6237  0.6454 -0.2801
 7444SOL    HW133791   0.951   2.964  12.913  0.6792  2.9411 -0.7924
 7444SOL    HW233792   1.005   2.876  13.024  0.3359  0.5237 -1.8970
 7445SOL     OW33793   1.662   3.055   7.145 -0.5083 -0.4300 -0.3821
 7445SOL    HW133794   1.597   2.999   7.187 -0.3248 -0.3479  0.0119
 7445SOL    HW233795   1.701   3.107   7.215 -1.3489  0.6875 -0.7490
 7446SOL     OW33796   4.517   2.931   9.024  0.5321  0.7366  0.5297
 7446SOL    HW133797   4.510   2.866   8.954  1.2244  1.7311 -0.4491
 7446SOL    HW233798   4.556   3.002   8.973  1.4523 -0.1108  0.0595
 7447SOL     OW33799   2.758   1.460   3.236  0.2236 -0.1554 -0.3497
 7447SOL    HW133800   2.782   1.389   3.295  0.6149 -0.3080 -0.6914
 7447SOL    HW233801   2.732   1.403   3.164 -3.3286 -0.7553  1.4078
 7448SOL     OW33802   0.967   0.901   1.435 -0.4095  0.6080 -0.5092
 7448SOL    HW133803   1.041   0.959   1.418  1.0243 -1.4111 -1.0567
 7448SOL    HW233804   1.015   0.819   1.450 -0.6895  0.2746 -1.4552
 7449SOL     OW33805   0.235   2.989   9.406  0.2616  0.2463  0.0492
 7449SOL    HW133806   0.237   3.073   9.451  0.7999 -0.1053  0.6805
 7449SOL    HW233807   0.181   3.011   9.329  1.0749  2.5095  0.1164
 7450SOL     OW33808   2.104   1.070   5.123  0.2672  0.4586 -0.4674
 7450SOL    HW133809   2.104   1.165   5.139 -1.6106  0.1719  1.1672
 7450SOL    HW233810   2.131   1.029   5.205 -0.2746 -0.2291 -0.6331
 7451SOL     OW33811   4.318   2.088  10.919  0.1455  0.1906  0.1794
 7451SOL    HW133812   4.259   2.016  10.941  0.7746 -1.2379 -2.7354
 7451SOL    HW233813   4.262   2.165  10.913 -1.2048 -0.6666  1.7383
 7452SOL     OW33814   2.704   2.849  11.899  0.3409 -0.0656 -0.4070
 7452SOL    HW133815   2.642   2.920  11.914  1.2836  0.8919 -0.9916
 7452SOL    HW233816   2.770   2.894  11.845 -0.7471  2.9649  0.7832
 7453SOL     OW33817   0.077   1.264   7.390 -0.6844 -0.4468  0.6639
 7453SOL    HW133818   0.106   1.355   7.387  1.2964 -1.1056  0.2176
 7453SOL    HW233819   0.108   1.234   7.475  2.9439  3.2872  0.6347
 7454SOL     OW33820   3.916   3.448   4.810 -0.4754  0.2676 -0.1336
 7454SOL    HW133821   3.979   3.438   4.881  0.6039 -2.1223 -1.4188
 7454SOL    HW233822   3.935   3.361   4.775 -1.3972  0.5288 -1.2744
 7455SOL     OW33823   3.160   4.063  10.677  0.2468 -0.6763  0.5433
 7455SOL    HW133824   3.226   4.120  10.716 -1.7133  1.3646  0.8829
 7455SOL    HW233825   3.197   4.057  10.589 -1.3669 -1.3413 -0.1015
 7456SOL     OW33826   2.924   1.772   7.276 -0.1409 -0.0772 -0.0288
 7456SOL    HW133827   2.953   1.783   7.186 -0.8523  0.4446 -0.1920
 7456SOL    HW233828   2.918   1.676   7.277 -0.8368 -0.0518 -1.8449
 7457SOL     OW33829   3.365   3.070   3.106  0.0750 -0.5522 -0.5317
 7457SOL    HW133830   3.452   3.032   3.118  0.4331  0.8180  1.3079
 7457SOL    HW233831   3.388   3.150   3.059 -0.1783 -0.7181 -0.9361
 7458SOL     OW33832   3.044   2.119   7.711 -0.2023  0.2094 -0.2734
 7458SOL    HW133833   3.085   2.152   7.791 -0.2592 -0.0233 -0.1483
 7458SOL    HW233834   2.983   2.061   7.758 -1.4073  1.3504 -0.4435
 7459SOL     OW33835   3.324   2.650  11.530 -0.1148  0.1462  0.0226
 7459SOL    HW133836   3.305   2.569  11.484 -2.9439  0.8644 -0.0900
 7459SOL    HW233837   3.346   2.622  11.619 -1.2778  1.4955  0.7405
 7460SOL     OW33838   3.358   0.497   3.992  0.3365 -0.3824 -0.1133
 7460SOL    HW133839   3.431   0.496   3.930  0.8019 -0.0860  0.4352
 7460SOL    HW233840   3.336   0.590   3.987  3.0617  0.2555 -0.2172
 7461SOL     OW33841   2.021   0.723   9.331  0.4142 -1.3359 -0.6399
 7461SOL    HW133842   2.092   0.660   9.328 -0.1307 -1.9672 -0.4422
 7461SOL    HW233843   2.079   0.798   9.323  0.6397 -1.2942  1.3600
 7462SOL     OW33844   1.255   1.594   2.016 -0.5542 -0.2530 -0.8485
 7462SOL    HW133845   1.245   1.539   1.938 -0.5872  0.9178 -1.6708
 7462SOL    HW233846   1.199   1.547   2.078  2.0198 -2.0829  0.0880
 7463SOL     OW33847   3.866   2.887   4.173  0.1063 -0.1846 -0.3467
 7463SOL    HW133848   3.793   2.922   4.224  0.8985  0.4710  0.3233
 7463SOL    HW233849   3.875   2.957   4.109  0.0220  1.4755  1.4750
 7464SOL     OW33850   3.198   4.131   2.804  0.1426 -0.0188 -0.5387
 7464SOL    HW133851   3.224   4.218   2.776 -1.7964 -0.3831 -3.4526
 7464SOL    HW233852   3.221   4.082   2.726 -1.1145 -2.1796  0.4307
 7465SOL     OW33853   0.277   1.587   4.278  0.0568 -0.2700 -0.2131
 7465SOL    HW133854   0.261   1.646   4.352  2.5722 -1.0886  0.9653
 7465SOL    HW233855   0.321   1.512   4.318  0.0611 -0.1942 -0.0750
 7466SOL     OW33856   3.897   2.592   3.389  0.2404  0.4147 -0.1627
 7466SOL    HW133857   3.803   2.597   3.375 -0.1281 -0.2271  2.1199
 7466SOL    HW233858   3.902   2.497   3.383  2.0465  0.3130  2.9560
 7467SOL     OW33859   3.945   1.705  17.258  0.9449  0.7965 -0.6402
 7467SOL    HW133860   3.858   1.717  17.295 -0.4513 -2.0999 -2.9598
 7467SOL    HW233861   3.921   1.666  17.174  2.2776 -2.9786  0.7118
 7468SOL     OW33862   3.136   0.495   8.114 -0.0018  0.6409 -0.2552
 7468SOL    HW133863   3.136   0.494   8.210 -0.0425 -1.1647 -0.2644
 7468SOL    HW233864   3.054   0.542   8.100  0.5844  1.9094  0.5596
 7469SOL     OW33865   1.622   4.099   5.226  0.3280  0.5316 -0.4947
 7469SOL    HW133866   1.536   4.094   5.186  0.7970  2.5967 -1.7549
 7469SOL    HW233867   1.622   4.192   5.249  0.5250  0.3233  0.3649
 7470SOL     OW33868   3.079   4.029  10.001  0.0219  0.0475 -0.9605
 7470SOL    HW133869   2.995   4.072  10.018 -0.0248 -1.4562  2.5258
 7470SOL    HW233870   3.069   3.986   9.916  0.7649  1.2441 -1.6617
 7471SOL     OW33871   4.227   2.051   7.833 -0.5361 -0.6812  0.3696
 7471SOL    HW133872   4.232   2.144   7.856  2.2004 -0.3214 -1.6660
 7471SOL    HW233873   4.133   2.043   7.848 -0.2450 -1.8368  1.5341
 7472SOL     OW33874   0.631   1.067   2.542  0.3791  0.5300 -0.0537
 7472SOL    HW133875   0.582   0.985   2.538 -0.2244  0.8896  0.0546
 7472SOL    HW233876   0.666   1.076   2.454 -0.1312  0.8169 -0.2229
 7473SOL     OW33877   0.200   2.127   4.758 -0.2107  0.3132 -0.4092
 7473SOL    HW133878   0.131   2.068   4.728 -0.1479 -1.1967  2.4202
 7473SOL    HW233879   0.194   2.108   4.852  0.3845  0.1014 -0.4154
 7474SOL     OW33880   1.272   3.949   8.081 -0.0296  0.5062 -0.3357
 7474SOL    HW133881   1.355   3.914   8.048  1.5734  4.7685 -0.8550
 7474SOL    HW233882   1.215   3.913   8.014  0.1972 -0.5037  0.0081
 7475SOL     OW33883   0.976   1.221   0.384  0.0833 -0.1617 -0.2009
 7475SOL    HW133884   0.979   1.316   0.371  1.4608 -0.1971 -0.1584
 7475SOL    HW233885   0.965   1.217   0.479 -1.8793 -0.7318 -0.4681
 7476SOL     OW33886   2.327   2.269  10.898 -0.4241 -0.2297  0.4510
 7476SOL    HW133887   2.283   2.260  10.813  0.1845  1.7017 -0.0690
 7476SOL    HW233888   2.263   2.311  10.954 -0.7860  0.8972 -0.7983
 7477SOL     OW33889   0.706   3.846   0.818 -0.7271  0.0809  0.2744
 7477SOL    HW133890   0.771   3.797   0.768 -0.8205 -0.6354  0.8397
 7477SOL    HW233891   0.741   3.838   0.906 -0.4565  2.6334  0.3854
 7478SOL     OW33892   2.303   3.009  14.384 -0.2499 -0.2790  0.6845
 7478SOL    HW133893   2.235   3.049  14.329  0.2416 -1.4703 -0.8188
 7478SOL    HW233894   2.347   3.085  14.420 -0.8774  1.4547 -2.1984
 7479SOL     OW33895   0.156   0.499   4.561  0.5984 -0.1021 -0.2615
 7479SOL    HW133896   0.227   0.534   4.615 -0.6938 -0.4258  1.6718
 7479SOL    HW233897   0.207   0.420   4.545 -0.9983 -1.0204 -0.8239
 7480SOL     OW33898   1.812   4.617  13.910  0.3544  0.1371 -0.1740
 7480SOL    HW133899   1.817   4.685  13.977 -1.5802 -2.5595  2.7366
 7480SOL    HW233900   1.758   4.551  13.953  1.4672 -0.2341  0.6427
 7481SOL     OW33901   1.281   2.363   5.849  0.2101 -0.5512  0.6121
 7481SOL    HW133902   1.309   2.272   5.856 -0.6319 -0.8043  0.6687
 7481SOL    HW233903   1.231   2.383   5.928 -0.9576 -0.3404 -0.1822
 7482SOL     OW33904   2.288   4.196   4.084 -0.1191  0.8134 -0.3969
 7482SOL    HW133905   2.346   4.247   4.140  0.2274 -1.2726  1.1479
 7482SOL    HW233906   2.226   4.148   4.139  0.5239 -0.4800 -0.8018
 7483SOL     OW33907   0.954   4.718  12.223 -0.5511  0.4346 -0.0876
 7483SOL    HW133908   1.039   4.705  12.264  0.8479 -1.8626 -3.7232
 7483SOL    HW233909   0.943   0.083  12.254 -0.3574 -0.0709  1.4320
 7484SOL     OW33910   2.669   3.207  16.108 -0.1346  0.1556  0.2224
 7484SOL    HW133911   2.663   3.270  16.180  1.1403 -0.8562  1.2168
 7484SOL    HW233912   2.595   3.238  16.055  0.8368  1.3734 -0.4195
 7485SOL     OW33913   1.051   0.503   7.998 -0.2813  0.0275 -0.4190
 7485SOL    HW133914   1.038   0.517   7.904  2.9459 -1.8941 -1.1455
 7485SOL    HW233915   1.058   0.408   7.996  2.0686  0.1460  1.4407
 7486SOL     OW33916   1.766   3.340  15.048  0.1915 -0.2126  0.0864
 7486SOL    HW133917   1.705   3.308  14.981  1.8131 -1.6474 -0.7166
 7486SOL    HW233918   1.776   3.430  15.015 -0.2523  0.1749  1.0182
 7487SOL     OW33919   2.081   0.383   5.020  0.0279 -0.4153  0.3970
 7487SOL    HW133920   2.140   0.457   5.035  0.1396 -0.8585  2.2149
 7487SOL    HW233921   1.995   0.423   5.023  0.4585  0.4519  1.2252
 7488SOL     OW33922   4.594   3.376   1.148  0.1918 -0.0106  0.5991
 7488SOL    HW133923   4.594   3.281   1.157  2.0125  0.0538  1.2198
 7488SOL    HW233924   4.505   3.392   1.117 -0.3455 -2.1747  1.0169
 7489SOL     OW33925   3.683   0.343  10.930  0.4957 -0.4306  0.4972
 7489SOL    HW133926   3.737   0.389  10.865  0.3537  0.4854  1.0292
 7489SOL    HW233927   3.592   0.354  10.901  0.5202 -3.1625 -0.5914
 7490SOL     OW33928   0.009   3.852   7.892  1.0540 -0.0277 -0.0425
 7490SOL    HW133929   4.650   3.860   7.936 -0.3867 -0.9250 -2.6535
 7490SOL    HW233930   4.724   3.921   7.826 -0.8193 -0.2360  0.0264
 7491SOL     OW33931   4.182   3.353   8.608  0.2473 -0.1569 -0.2985
 7491SOL    HW133932   4.106   3.383   8.657 -0.3772 -0.7883 -0.8842
 7491SOL    HW233933   4.226   3.292   8.667  0.0624  0.4380  0.4505
 7492SOL     OW33934   1.964   1.656   8.908  0.1020 -0.3663 -0.4414
 7492SOL    HW133935   2.057   1.640   8.889  0.3923 -1.5442  1.9999
 7492SOL    HW233936   1.926   1.655   8.820  0.8426 -1.1993 -0.7582
 7493SOL     OW33937   3.255   0.529  10.095  0.0663  0.1757 -0.4472
 7493SOL    HW133938   3.298   0.495  10.173  1.1039 -1.0722 -1.5586
 7493SOL    HW233939   3.202   0.594  10.141  0.1117 -0.2537  0.2145
 7494SOL     OW33940   0.243   1.394  11.228  0.2474  0.0847 -0.3051
 7494SOL    HW133941   0.200   1.451  11.291  0.2634 -1.8847  1.4962
 7494SOL    HW233942   0.245   1.316  11.283 -0.8759  0.7549  0.6741
 7495SOL     OW33943   2.838   0.515   5.605 -0.5716 -0.1735 -0.1488
 7495SOL    HW133944   2.767   0.573   5.579 -0.8419 -0.6118 -0.3736
 7495SOL    HW233945   2.861   0.578   5.674  2.4266 -0.4203 -0.9073
 7496SOL     OW33946   2.822   4.068   7.947 -0.9621  0.1362 -0.1174
 7496SOL    HW133947   2.745   4.011   7.949 -1.2556  0.5476  0.0930
 7496SOL    HW233948   2.778   4.152   7.940 -0.9619  0.0753 -0.8791
 7497SOL     OW33949   4.605   1.721   1.537  0.5842  0.3261 -0.2231
 7497SOL    HW133950   4.630   1.628   1.538 -1.6724 -0.2810  1.9070
 7497SOL    HW233951   4.512   1.710   1.516  0.6092 -0.9753  0.3582
 7498SOL     OW33952   2.569   4.202   1.456 -0.0703  0.4937 -0.6193
 7498SOL    HW133953   2.514   4.280   1.455 -0.9587 -0.1281 -0.3844
 7498SOL    HW233954   2.510   4.127   1.463 -0.2919  0.8291  1.0841
 7499SOL     OW33955   2.815   4.036   3.824  0.1855  0.0550  0.0123
 7499SOL    HW133956   2.894   3.985   3.844  0.0785 -0.4258 -0.8116
 7499SOL    HW233957   2.842   4.059   3.735  1.8164  2.7042  1.1829
 7500SOL     OW33958   3.171   2.983   2.800 -0.1140 -0.0446  0.0289
 7500SOL    HW133959   3.127   2.912   2.753  1.4705 -0.2677 -1.1055
 7500SOL    HW233960   3.254   2.948   2.831 -1.3883 -1.4236  1.8800
 7501SOL     OW33961   2.038   0.888   7.268 -0.6002 -0.2664 -0.1139
 7501SOL    HW133962   1.964   0.941   7.298 -0.6909  0.1016 -0.9946
 7501SOL    HW233963   2.119   0.935   7.288 -0.5218 -0.2547 -0.4685
 7502SOL     OW33964   2.050   0.572   0.507 -0.1816  0.4763  1.1900
 7502SOL    HW133965   2.050   0.486   0.550 -2.5572 -0.9465 -1.6462
 7502SOL    HW233966   2.123   0.620   0.546  0.8753 -1.0785  1.1574
 7503SOL     OW33967   1.135   3.533   1.925 -0.1787 -0.5068 -0.7595
 7503SOL    HW133968   1.069   3.504   1.988 -1.0464  2.4108 -0.3307
 7503SOL    HW233969   1.084   3.550   1.846  0.1501 -1.1095 -1.1032
 7504SOL     OW33970   3.324   4.483   3.393 -0.1743 -0.2414  0.1762
 7504SOL    HW133971   3.314   4.576   3.413  0.8188  0.1635 -1.2741
 7504SOL    HW233972   3.371   4.477   3.311 -0.4158  1.3379 -0.0691
 7505SOL     OW33973   1.631   3.895   8.821  0.2364  0.2574  0.6398
 7505SOL    HW133974   1.628   3.851   8.906  0.1569  2.1671  1.6246
 7505SOL    HW233975   1.712   3.947   8.819  0.2166  0.2143 -1.3537
 7506SOL     OW33976   2.641   0.461  11.854  0.2031 -0.1787 -0.9218
 7506SOL    HW133977   2.614   0.512  11.930  2.4932  3.4743 -2.5543
 7506SOL    HW233978   2.639   0.530  11.788 -0.5308 -0.1629 -0.8848
 7507SOL     OW33979   0.921   4.076  15.611  0.3344 -0.1491 -0.1868
 7507SOL    HW133980   0.849   4.022  15.578 -0.8714  0.5060  1.4174
 7507SOL    HW233981   0.994   4.055  15.552 -0.7957 -0.1862 -1.5507
 7508SOL     OW33982   2.952   4.551   3.628 -0.2046  0.0497  0.6243
 7508SOL    HW133983   2.990   4.481   3.575  0.6182  0.2912  0.8978
 7508SOL    HW233984   2.965   4.515   3.715 -0.6381 -0.0910  0.6295
 7509SOL     OW33985   2.932   4.409   8.319 -0.0743 -0.0404  0.1535
 7509SOL    HW133986   2.891   4.435   8.237  0.4468 -0.6660 -0.3013
 7509SOL    HW233987   2.868   4.427   8.388 -0.0382 -1.3428  0.5094
 7510SOL     OW33988   2.285   1.582   7.284 -0.3449 -0.0290  0.5434
 7510SOL    HW133989   2.324   1.658   7.241 -0.0147 -0.3283  0.3085
 7510SOL    HW233990   2.354   1.562   7.347  1.4581 -3.1585 -2.4161
 7511SOL     OW33991   2.987   4.233   8.721 -0.2067  0.0298  0.2217
 7511SOL    HW133992   2.997   4.154   8.773 -0.1481 -0.5489 -0.6795
 7511SOL    HW233993   2.984   4.198   8.632 -4.5664  1.7670 -0.3387
 7512SOL     OW33994   2.418   0.765   6.183  0.3874 -0.3899 -0.0473
 7512SOL    HW133995   2.369   0.698   6.135  0.3493  0.0986 -0.6786
 7512SOL    HW233996   2.342   0.815   6.210 -0.0033 -0.0708 -1.7533
 7513SOL     OW33997   1.100   2.450   9.064 -0.1170  0.3903 -0.6313
 7513SOL    HW133998   1.038   2.491   9.003 -0.4459 -0.1345 -0.6476
 7513SOL    HW233999   1.166   2.520   9.067  0.2115  0.1121 -1.4115
 7514SOL     OW34000   1.764   0.208  14.808  0.2495  0.0095 -0.3243
 7514SOL    HW134001   1.753   0.121  14.771 -2.2838  0.2545 -0.2104
 7514SOL    HW234002   1.816   0.187  14.885  2.0956 -1.3516 -1.9479
 7515SOL     OW34003   3.138   1.400   3.018  0.0866 -0.1332  0.4454
 7515SOL    HW134004   3.060   1.360   2.978 -2.2627  3.5554  1.3657
 7515SOL    HW234005   3.170   1.450   2.943  0.6031 -2.4640 -0.8724
 7516SOL     OW34006   2.524   0.154   3.073 -0.6310 -0.0836 -0.1627
 7516SOL    HW134007   2.589   0.207   3.026 -1.0233 -0.8330 -1.5432
 7516SOL    HW234008   2.573   0.077   3.102 -2.1909 -1.3957 -1.0111
 7517SOL     OW34009   3.171   1.206   1.046  0.7020 -0.9036  0.2106
 7517SOL    HW134010   3.124   1.263   0.985  1.0570 -1.7504 -0.8639
 7517SOL    HW234011   3.108   1.136   1.062 -0.5047  0.4063  1.1522
 7518SOL     OW34012   4.522   4.582   8.163 -0.2846 -0.1757  0.6207
 7518SOL    HW134013   4.470   4.654   8.200 -0.3013 -0.5569  1.3454
 7518SOL    HW234014   4.451   4.536   8.119 -1.9034  0.9760  2.0189
 7519SOL     OW34015   0.130   0.390   2.192  0.1141 -0.1106  0.6453
 7519SOL    HW134016   0.051   0.416   2.143  0.0530 -0.9410  0.2993
 7519SOL    HW234017   0.162   0.322   2.132 -1.8265 -1.3011  0.9488
 7520SOL     OW34018   2.274   4.701  13.192  0.0533 -0.5847  0.6164
 7520SOL    HW134019   2.351   4.648  13.171  1.5820  1.9833 -0.2848
 7520SOL    HW234020   2.238   4.719  13.105  0.5828  0.0037  0.5212
 7521SOL     OW34021   0.300   3.255  14.167  0.2366 -0.0922 -0.1649
 7521SOL    HW134022   0.215   3.232  14.206  0.0439  1.5494  0.3697
 7521SOL    HW234023   0.274   3.269  14.076  1.7302 -1.6189 -0.8276
 7522SOL     OW34024   2.343   1.410   6.717 -0.5370  0.2715 -0.1255
 7522SOL    HW134025   2.404   1.347   6.680 -0.6819  1.5181 -2.5349
 7522SOL    HW234026   2.259   1.364   6.721 -0.0243 -0.7703 -1.3047
 7523SOL     OW34027   4.472   3.792   9.823 -0.3408 -0.0536  0.0626
 7523SOL    HW134028   4.425   3.794   9.739  0.4398  0.5452 -0.3501
 7523SOL    HW234029   4.412   3.843   9.878  0.2219  0.1200  0.5111
 7524SOL     OW34030   3.815   0.037   0.257  0.0191 -0.5537  0.0469
 7524SOL    HW134031   3.897   0.079   0.284 -0.7303  0.1092  1.3084
 7524SOL    HW234032   3.788   0.115   0.208  0.3450  1.5996  3.3152
 7525SOL     OW34033   0.093   3.820   0.085  1.0688 -0.1840  0.1822
 7525SOL    HW134034   0.021   3.777   0.039  1.4177  2.8308 -3.1578
 7525SOL    HW234035   0.075   3.910   0.059  2.7612  0.4144  1.1114
 7526SOL     OW34036   1.337   2.709   7.917  0.4236  0.7616  0.3974
 7526SOL    HW134037   1.259   2.757   7.890  1.9550  2.9663 -0.1014
 7526SOL    HW234038   1.378   2.695   7.831  1.0032  0.3869  0.7320
 7527SOL     OW34039   1.311   3.014   4.297 -0.0834 -0.5582 -0.4522
 7527SOL    HW134040   1.321   3.008   4.392 -0.7477 -3.3952 -0.5440
 7527SOL    HW234041   1.319   2.919   4.287  0.2259 -0.7753  1.9713
 7528SOL     OW34042   0.576   1.207   8.109 -0.0646  0.5862  0.3866
 7528SOL    HW134043   0.534   1.173   8.188  0.9407 -1.0973  0.1845
 7528SOL    HW234044   0.554   1.300   8.119 -1.8893 -0.1054  2.7176
 7529SOL     OW34045   1.797   2.838   5.774  0.4209 -0.4610  0.6122
 7529SOL    HW134046   1.767   2.907   5.714  1.1423 -0.7684 -0.1120
 7529SOL    HW234047   1.839   2.893   5.840  1.9216 -0.0530 -0.6520
 7530SOL     OW34048   0.252   0.364   1.774 -0.1414  0.3179  0.3952
 7530SOL    HW134049   0.166   0.332   1.747  0.5584 -1.1216 -0.1016
 7530SOL    HW234050   0.302   0.346   1.694 -2.3488 -0.9119 -0.7072
 7531SOL     OW34051   2.247   0.871   7.830 -0.1707 -0.6438 -0.1124
 7531SOL    HW134052   2.328   0.900   7.790  0.6389  0.2278  2.1584
 7531SOL    HW234053   2.280   0.783   7.850  3.9498  0.6912 -1.0031
 7532SOL     OW34054   2.652   1.561   4.052  0.2082 -0.6584 -0.0805
 7532SOL    HW134055   2.727   1.620   4.051 -0.6036  0.3735 -1.4686
 7532SOL    HW234056   2.582   1.616   4.087  0.6827 -0.6894  0.9114
 7533SOL     OW34057   0.961   3.703   3.029 -0.1886  0.1319  0.1349
 7533SOL    HW134058   0.987   3.631   3.086 -0.3936 -1.0654 -1.2851
 7533SOL    HW234059   0.894   3.668   2.970 -0.7595  1.3154  0.0832
 7534SOL     OW34060   3.492   2.681   6.066  0.1396  0.0798  0.2710
 7534SOL    HW134061   3.522   2.603   6.112 -1.1184  1.7110  3.8842
 7534SOL    HW234062   3.451   2.645   5.988  2.8063  0.9027 -1.4814
 7535SOL     OW34063   4.032   3.905   7.891  0.1516  0.2960 -0.3153
 7535SOL    HW134064   3.938   3.897   7.874  0.1458 -1.2980  0.4354
 7535SOL    HW234065   4.064   3.817   7.910 -0.7379  0.3030  1.1490
 7536SOL     OW34066   0.888   0.639   1.708 -0.1228 -0.1542 -0.2947
 7536SOL    HW134067   0.836   0.578   1.655 -2.4226 -0.7602  2.6095
 7536SOL    HW234068   0.964   0.648   1.651 -0.9366 -0.5543 -1.4575
 7537SOL     OW34069   3.057   0.308   8.877  0.3444 -0.1965  0.2105
 7537SOL    HW134070   3.020   0.231   8.921  0.1032 -0.8002 -1.0721
 7537SOL    HW234071   3.019   0.385   8.919 -0.3070  0.4180 -1.5104
 7538SOL     OW34072   1.281   1.922   4.282 -0.1948  0.5684 -0.4195
 7538SOL    HW134073   1.289   1.906   4.188 -0.2723 -2.4303  0.0832
 7538SOL    HW234074   1.270   2.017   4.290  3.9287  0.9695  0.8288
 7539SOL     OW34075   0.340   3.504   9.389 -0.2789  0.4282 -0.2406
 7539SOL    HW134076   0.409   3.445   9.358 -2.8142 -3.3311  1.2575
 7539SOL    HW234077   0.313   3.539   9.304 -1.0823  0.4638  0.0350
 7540SOL     OW34078   2.007   4.351   4.377  0.0307  0.6190 -0.1326
 7540SOL    HW134079   1.997   4.444   4.398 -1.2194  0.3586  0.4500
 7540SOL    HW234080   2.061   4.356   4.299  0.7196 -1.0565  0.2408
 7541SOL     OW34081   0.398   4.083   2.928 -0.0721  0.0376  0.1383
 7541SOL    HW134082   0.339   4.088   2.853  0.4950 -1.5613 -0.4096
 7541SOL    HW234083   0.413   3.989   2.935 -0.4429  0.0432  1.0909
 7542SOL     OW34084   4.064   0.592  14.094 -0.2825 -0.0916  0.9507
 7542SOL    HW134085   4.052   0.681  14.060  0.8101 -0.5557 -0.6167
 7542SOL    HW234086   4.010   0.612  14.171 -0.5668  0.7304  0.5395
 7543SOL     OW34087   0.375   0.221   8.993  0.0640 -0.3622 -0.5276
 7543SOL    HW134088   0.360   0.240   8.901 -0.1604 -0.5295 -0.5256
 7543SOL    HW234089   0.315   0.283   9.034  0.0972  0.0762 -1.1440
 7544SOL     OW34090   3.158   3.109   3.877  0.4690 -0.1016 -0.2652
 7544SOL    HW134091   3.125   3.196   3.901 -1.0176 -1.0363  1.0299
 7544SOL    HW234092   3.209   3.096   3.957 -1.2772  2.0315  1.1829
 7545SOL     OW34093   0.095   2.324   9.106 -0.0005 -0.0670 -0.4331
 7545SOL    HW134094   0.095   2.420   9.096  0.0812  0.0362  0.5709
 7545SOL    HW234095   0.010   2.304   9.143  0.4729 -1.5321 -0.1538
 7546SOL     OW34096   1.789   0.877   3.464  0.0274  0.3162  0.5169
 7546SOL    HW134097   1.761   0.950   3.409  1.6828  0.6661  0.1440
 7546SOL    HW234098   1.783   0.909   3.554  0.4329 -0.2991  0.7639
 7547SOL     OW34099   3.529   1.977   2.615 -0.3932  0.0566 -0.6992
 7547SOL    HW134100   3.457   1.938   2.665  1.0278  1.1486  2.1765
 7547SOL    HW234101   3.501   2.068   2.619  1.9552  0.7164  0.5156
 7548SOL     OW34102   1.229   4.194   4.144 -0.1475 -0.4263  0.1731
 7548SOL    HW134103   1.143   4.217   4.178  0.5979  2.8856 -0.1854
 7548SOL    HW234104   1.207   4.147   4.064  0.4894 -0.7850  0.2018
 7549SOL     OW34105   2.938   1.337   8.216 -0.2379  0.1040  0.6534
 7549SOL    HW134106   2.919   1.287   8.137  2.6143  0.0915  0.0027
 7549SOL    HW234107   2.933   1.427   8.182 -0.4435 -1.0818 -2.3802
 7550SOL     OW34108   0.362   2.784   2.751  0.1589  0.2435 -0.3203
 7550SOL    HW134109   0.387   2.873   2.775  1.4497  0.6864 -3.3385
 7550SOL    HW234110   0.305   2.761   2.825 -1.5973 -0.5370 -1.9153
 7551SOL     OW34111   0.772   2.218   6.810  0.1812 -0.2083  1.1316
 7551SOL    HW134112   0.812   2.246   6.892  1.8579  0.6394  0.0189
 7551SOL    HW234113   0.759   2.305   6.772  0.9772 -0.2009  0.8825
 7552SOL     OW34114   1.422   3.368   7.191 -0.0983 -0.0003  0.1620
 7552SOL    HW134115   1.507   3.403   7.215 -0.1335  1.3270 -1.6124
 7552SOL    HW234116   1.407   3.303   7.259 -0.3554  0.7467  0.8178
 7553SOL     OW34117   2.818   1.214   2.071 -0.0160 -0.4576  0.0929
 7553SOL    HW134118   2.778   1.292   2.109  0.2279 -0.6060  0.6522
 7553SOL    HW234119   2.767   1.216   1.990 -0.3028  0.8573  0.2976
 7554SOL     OW34120   1.061   1.567   5.593  0.1775  0.0298 -0.0621
 7554SOL    HW134121   1.079   1.660   5.591 -2.2401  0.4979 -0.2868
 7554SOL    HW234122   1.024   1.533   5.511 -1.5066 -0.2970  0.8149
 7555SOL     OW34123   1.219   0.944   5.111 -0.0772  1.0638  0.5877
 7555SOL    HW134124   1.293   0.904   5.066 -1.1002  0.5251 -0.6422
 7555SOL    HW234125   1.164   0.933   5.033 -0.0942 -1.7752  0.9957
 7556SOL     OW34126   0.474   4.564   4.027  0.1452 -0.1770 -0.1421
 7556SOL    HW134127   0.524   4.494   3.985 -1.5541 -0.1567 -2.2043
 7556SOL    HW234128   0.426   4.600   3.953 -0.8812 -0.6134  0.3094
 7557SOL     OW34129   0.869   2.052  16.417 -0.0304 -0.0272 -0.2392
 7557SOL    HW134130   0.897   2.036  16.508  2.7801 -0.8794 -1.2499
 7557SOL    HW234131   0.869   1.967  16.374  0.2785 -0.8298  1.3238
 7558SOL     OW34132   3.091   2.237   4.681  0.6204  0.2473  0.0948
 7558SOL    HW134133   3.126   2.152   4.708  2.6525  0.0302 -3.2069
 7558SOL    HW234134   2.999   2.220   4.698  0.5971  1.2710  1.0474
 7559SOL     OW34135   4.127   2.132   2.721 -0.4219  0.0475  0.0890
 7559SOL    HW134136   4.212   2.160   2.688  0.6548  0.3890  3.1188
 7559SOL    HW234137   4.149   2.049   2.763  1.7841  0.6147  0.0212
 7560SOL     OW34138   4.000   1.730  11.238  0.0065 -0.0293  0.6741
 7560SOL    HW134139   3.919   1.770  11.269 -0.6762 -0.0209 -1.1191
 7560SOL    HW234140   3.967   1.665  11.176 -0.3836  1.0289 -0.2221
 7561SOL     OW34141   2.636   1.376   6.358  0.0333  0.3926 -0.3167
 7561SOL    HW134142   2.677   1.316   6.296  1.1755  2.0516 -1.1432
 7561SOL    HW234143   2.680   1.456   6.329  3.9702 -2.4312 -2.1097
 7562SOL     OW34144   1.098   3.119   1.600 -0.0074 -0.5030 -0.8712
 7562SOL    HW134145   1.062   3.206   1.590 -0.3510 -0.5477  0.0123
 7562SOL    HW234146   1.160   3.134   1.672 -1.8509  0.3145  0.5307
 7563SOL     OW34147   4.704   3.348  17.677 -0.5651 -0.5443  0.1287
 7563SOL    HW134148   0.003   3.285   0.043  2.9784  0.4239 -0.2268
 7563SOL    HW234149   4.611   3.328  17.665 -0.7523  0.3121  0.1603
 7564SOL     OW34150   1.610   4.293   5.897  0.2318 -0.2439  0.0317
 7564SOL    HW134151   1.599   4.388   5.893 -0.0529 -0.3842 -2.2603
 7564SOL    HW234152   1.521   4.258   5.890  0.1124 -0.1510  1.0255
 7565SOL     OW34153   4.021   4.577   8.219  0.0316  0.2303 -0.2417
 7565SOL    HW134154   3.974   4.507   8.265  0.1320 -0.2235 -0.8364
 7565SOL    HW234155   4.071   4.620   8.288  0.0025 -3.2427  1.9169
 7566SOL     OW34156   4.603   4.043  14.882 -0.5664 -0.0187 -0.6182
 7566SOL    HW134157   4.687   3.997  14.883 -1.3558 -1.4478 -0.8432
 7566SOL    HW234158   4.586   4.051  14.976 -0.8176 -1.2820 -0.5587
 7567SOL     OW34159   2.977   3.645  11.983 -0.1561 -0.1823  0.4988
 7567SOL    HW134160   3.009   3.566  11.940 -1.6357 -1.3945  1.6623
 7567SOL    HW234161   2.997   3.637  12.076  0.2133 -2.6203  0.1996
 7568SOL     OW34162   2.240   0.281   7.377  0.7458  0.3540  0.4316
 7568SOL    HW134163   2.294   0.357   7.396  0.2334  0.9033 -0.3069
 7568SOL    HW234164   2.263   0.268   7.286  2.9211  0.5620  0.9634
 7569SOL     OW34165   0.626   3.487   6.732 -0.4090  0.4424 -0.0191
 7569SOL    HW134166   0.693   3.436   6.687  0.2515  2.6599 -1.5899
 7569SOL    HW234167   0.654   3.474   6.822 -2.6249 -0.2369  0.5633
 7570SOL     OW34168   4.232   0.728   7.747 -0.2762  0.3498 -0.3567
 7570SOL    HW134169   4.139   0.706   7.746 -0.3367  0.5838  1.2254
 7570SOL    HW234170   4.264   0.664   7.811 -0.2985  1.3623  0.6475
 7571SOL     OW34171   2.199   2.330   8.120 -0.5102  0.0016 -0.4597
 7571SOL    HW134172   2.183   2.258   8.180 -2.2902 -0.9022 -2.0152
 7571SOL    HW234173   2.231   2.287   8.041 -1.1515  0.1420 -0.8001
 7572SOL     OW34174   0.560   1.437   3.163  0.2265 -0.3158 -0.1331
 7572SOL    HW134175   0.478   1.388   3.170  1.0974 -1.6057  1.0176
 7572SOL    HW234176   0.517   1.522   3.162 -0.0360 -0.4506 -0.3639
 7573SOL     OW34177   0.973   0.811   5.650  0.6191 -0.4973  0.2473
 7573SOL    HW134178   0.924   0.801   5.731 -0.1628  1.1049 -0.0401
 7573SOL    HW234179   0.982   0.723   5.613 -0.5438 -1.1312  1.5112
 7574SOL     OW34180   2.006   3.618   1.655  0.4389 -0.1610 -0.2765
 7574SOL    HW134181   1.947   3.606   1.581  0.4223 -0.8892 -0.1418
 7574SOL    HW234182   2.011   3.528   1.688  0.5358  0.7416  2.1868
 7575SOL     OW34183   1.526   3.638   4.072  0.1958  0.3380 -0.3696
 7575SOL    HW134184   1.583   3.609   4.143  0.2743  1.3227 -0.0261
 7575SOL    HW234185   1.569   3.597   3.997 -1.4624 -1.8380 -0.1513
 7576SOL     OW34186   0.160   0.933   6.132 -0.5540 -0.2299 -0.0376
 7576SOL    HW134187   0.137   0.977   6.051  2.5952  0.5130 -0.5345
 7576SOL    HW234188   0.079   0.886   6.152  0.1905 -1.1635  0.8074
 7577SOL     OW34189   0.453   2.897   3.165 -0.8527  0.2550 -0.0945
 7577SOL    HW134190   0.449   2.885   3.260 -2.3736 -2.1929 -0.4728
 7577SOL    HW234191   0.377   2.953   3.149 -0.6758 -0.3035 -2.8606
 7578SOL     OW34192   1.788   0.074   6.045  0.0373 -0.0529 -0.0120
 7578SOL    HW134193   1.703   0.113   6.022  0.2258 -0.2036 -0.9583
 7578SOL    HW234194   1.794   4.720   5.992 -0.5265  0.6652 -1.1510
 7579SOL     OW34195   2.542   3.512  16.074 -0.1756 -0.1468 -0.2038
 7579SOL    HW134196   2.475   3.444  16.082  2.2474 -2.9055 -2.8367
 7579SOL    HW234197   2.483   3.581  16.046 -1.5926 -0.7931  1.1719
 7580SOL     OW34198   4.724   0.841   0.899  0.6068  0.8280 -0.4695
 7580SOL    HW134199   0.015   0.753   0.864 -4.7360 -1.0155  1.7148
 7580SOL    HW234200   0.059   0.852   0.972  0.1113  1.5050 -0.1737
 7581SOL     OW34201   1.212   3.338  16.960  0.1750 -0.1361  0.3058
 7581SOL    HW134202   1.124   3.338  16.999 -0.6996  2.7053 -1.6083
 7581SOL    HW234203   1.246   3.411  17.012 -1.1702 -0.0305  1.0523
 7582SOL     OW34204   4.499   4.150   3.925 -0.3633  0.2235 -0.1903
 7582SOL    HW134205   4.529   4.174   3.837  0.0190 -1.7188 -0.5815
 7582SOL    HW234206   4.544   4.215   3.978  1.0742 -1.1417  0.2530
 7583SOL     OW34207   1.717   1.576   7.406 -0.1051  0.3316 -0.1171
 7583SOL    HW134208   1.802   1.570   7.362  0.8284  0.9154  1.6413
 7583SOL    HW234209   1.722   1.489   7.444  1.4110 -0.0167 -1.1046
 7584SOL     OW34210   4.396   1.160   5.498 -0.6599  0.0022  0.6129
 7584SOL    HW134211   4.455   1.088   5.476  1.8360  2.4851 -0.7157
 7584SOL    HW234212   4.371   1.141   5.588 -1.0283 -1.2887  0.2453
 7585SOL     OW34213   4.560   3.078  14.850  0.6052 -0.1431  0.4931
 7585SOL    HW134214   4.566   3.172  14.832  1.1538 -0.0741  1.0704
 7585SOL    HW234215   4.471   3.073  14.886  0.5589  0.7048  0.5086
 7586SOL     OW34216   3.713   2.259   3.545 -0.6347  0.0294 -0.9759
 7586SOL    HW134217   3.723   2.322   3.617 -0.7979 -1.3122  0.2178
 7586SOL    HW234218   3.630   2.292   3.511 -0.4114  2.1923  0.5578
 7587SOL     OW34219   0.006   0.082   0.585 -0.1483  0.6030  0.3740
 7587SOL    HW134220   0.069   0.070   0.515 -0.0611  1.4765  0.3061
 7587SOL    HW234221   4.706   0.173   0.570  1.0470  1.1686  1.8589
 7588SOL     OW34222   1.794   3.389   8.504  0.4204  0.7161 -0.6034
 7588SOL    HW134223   1.746   3.343   8.574  1.1984  0.4950 -0.2199
 7588SOL    HW234224   1.748   3.367   8.423  0.1053 -0.3333 -0.1451
 7589SOL     OW34225   2.294   4.351  12.969 -0.8380 -0.8037 -0.5527
 7589SOL    HW134226   2.311   4.396  13.051 -2.3091  1.4241 -1.4660
 7589SOL    HW234227   2.304   4.423  12.907  0.6285 -1.5101 -1.1591
 7590SOL     OW34228   3.240   2.039   6.642  0.5142  0.0642  0.0946
 7590SOL    HW134229   3.184   2.008   6.571  0.4116  1.2848 -0.3609
 7590SOL    HW234230   3.198   1.995   6.716  0.0989  2.0292  1.0465
 7591SOL     OW34231   3.322   2.128   4.916 -0.0496  0.1833  0.0933
 7591SOL    HW134232   3.405   2.086   4.893 -1.5598 -1.3533 -2.4925
 7591SOL    HW234233   3.259   2.063   4.886 -0.9224  0.4933  1.2487
 7592SOL     OW34234   1.080   2.459   7.045  0.0098  0.2687 -0.3732
 7592SOL    HW134235   1.154   2.512   7.075  1.2580 -2.0063  0.5626
 7592SOL    HW234236   1.120   2.405   6.977 -0.8366  0.4118 -0.9756
 7593SOL     OW34237   4.698   4.068   2.841  0.1599 -0.1355 -0.3944
 7593SOL    HW134238   4.724   4.047   2.931  2.4078 -1.6870 -1.4114
 7593SOL    HW234239   4.608   4.036   2.847 -0.0342  0.5076  0.1781
 7594SOL     OW34240   4.270   4.488   8.116  0.8781 -0.0292 -0.0038
 7594SOL    HW134241   4.201   4.501   8.181  0.4011 -1.3209 -0.2452
 7594SOL    HW234242   4.233   4.418   8.063 -2.3203 -0.5141  2.8308
 7595SOL     OW34243   0.352   3.265   0.503  0.3976  0.6060  0.0085
 7595SOL    HW134244   0.367   3.355   0.532  0.3944  0.4394  0.5196
 7595SOL    HW234245   0.290   3.240   0.571 -0.9748  1.0012 -1.1037
 7596SOL     OW34246   4.128   2.859   1.286 -0.2299 -0.1255  0.2200
 7596SOL    HW134247   4.064   2.851   1.358 -0.4240  1.3425  0.2225
 7596SOL    HW234248   4.196   2.804   1.324  1.3333  0.0878 -2.2660
 7597SOL     OW34249   1.684   1.822   7.261  0.1270 -0.3477  0.0847
 7597SOL    HW134250   1.731   1.767   7.198 -2.1841 -1.5627 -0.5794
 7597SOL    HW234251   1.659   1.741   7.306  0.7060 -0.0802  0.8899
 7598SOL     OW34252   3.788   3.296   3.177  0.1380  0.3324 -0.5553
 7598SOL    HW134253   3.801   3.204   3.201  0.0701  0.3448 -0.4721
 7598SOL    HW234254   3.715   3.294   3.115  0.5993  0.0706 -1.0930
 7599SOL     OW34255   2.064   3.040   2.425 -0.6075 -0.2182 -0.1626
 7599SOL    HW134256   1.978   3.064   2.391 -0.0121  1.0106 -0.8153
 7599SOL    HW234257   2.042   2.954   2.461  1.9310 -0.2543  1.3114
 7600SOL     OW34258   1.908   2.405   3.315  0.2362  0.1505  0.0597
 7600SOL    HW134259   1.860   2.472   3.364 -0.9632 -1.5857  1.2518
 7600SOL    HW234260   1.867   2.323   3.341  0.0431  0.2789  0.1587
 7601SOL     OW34261   3.702   2.677   7.336  0.5688  0.1874 -0.2798
 7601SOL    HW134262   3.612   2.707   7.321  0.7590  1.4698  1.1906
 7601SOL    HW234263   3.741   2.740   7.396 -0.0775  1.5247 -1.2777
 7602SOL     OW34264   1.562   0.964   4.718 -0.7221  0.5147  0.2153
 7602SOL    HW134265   1.648   0.973   4.676 -1.3545 -0.0972 -1.2060
 7602SOL    HW234266   1.562   0.881   4.766  0.6796  0.4621  0.1307
 7603SOL     OW34267   3.641   2.914   4.348  0.4888  0.2813 -0.1232
 7603SOL    HW134268   3.578   2.980   4.319  1.4638  0.3217 -2.1716
 7603SOL    HW234269   3.583   2.838   4.357  0.7249  0.2019  0.6669
 7604SOL     OW34270   1.914   4.552  10.362 -0.4644  0.8571 -0.5031
 7604SOL    HW134271   1.959   4.508  10.289  1.0764  0.9501  0.3899
 7604SOL    HW234272   1.864   4.478  10.397  1.4981 -0.4027 -0.3388
 7605SOL     OW34273   2.802   2.385   7.552 -0.3166  0.3982  0.2713
 7605SOL    HW134274   2.753   2.303   7.540 -3.4137  2.3885 -0.4837
 7605SOL    HW234275   2.884   2.365   7.506 -1.5273 -4.3652  0.0993
 7606SOL     OW34276   3.052   4.665   4.258  0.5936 -0.2404  0.5083
 7606SOL    HW134277   3.045   4.572   4.279 -0.4237  0.2320  2.3291
 7606SOL    HW234278   3.088   4.701   4.340  0.6037 -0.8338  0.7646
 7607SOL     OW34279   1.020   1.379   1.626  0.6028  0.2740  0.8777
 7607SOL    HW134280   0.951   1.348   1.685 -1.0998  0.1586 -1.1906
 7607SOL    HW234281   0.966   1.401   1.551 -0.3413  0.0604  1.4943
 7608SOL     OW34282   3.098   1.788   3.020 -0.3949  0.2424  0.2577
 7608SOL    HW134283   3.038   1.847   3.066  0.3892 -0.1250  1.7439
 7608SOL    HW234284   3.079   1.707   3.066  0.9931 -0.7456 -0.9146
 7609SOL     OW34285   2.588   0.087   8.093 -0.0118 -0.3085 -0.2459
 7609SOL    HW134286   2.520   0.131   8.144  0.9366  0.5615  0.2630
 7609SOL    HW234287   2.530   0.020   8.057 -0.1727 -1.4090  2.1142
 7610SOL     OW34288   2.727   4.365  11.231 -0.8562  0.0563 -0.3571
 7610SOL    HW134289   2.796   4.373  11.297 -2.0873  3.5293  0.5572
 7610SOL    HW234290   2.783   4.332  11.160  1.1773 -1.3631  1.9055
 7611SOL     OW34291   2.940   1.982   8.238 -0.2155  0.7567 -0.6720
 7611SOL    HW134292   2.902   2.069   8.246  0.4869  0.9546  0.4906
 7611SOL    HW234293   2.886   1.929   8.296  0.4995 -0.0149 -0.7190
 7612SOL     OW34294   2.523   4.431   0.605  0.0077  0.0052 -0.1478
 7612SOL    HW134295   2.610   4.438   0.643  0.1201  1.1770 -0.6173
 7612SOL    HW234296   2.537   4.478   0.523  2.6428 -1.0095 -0.2767
 7613SOL     OW34297   0.754   2.282   8.126  0.5083 -0.0702 -0.5084
 7613SOL    HW134298   0.686   2.342   8.157 -0.5562 -0.3199 -2.3711
 7613SOL    HW234299   0.701   2.228   8.068  1.7247  0.0995 -1.7670
 7614SOL     OW34300   0.740   3.710   8.103 -0.4600  0.4882  0.5758
 7614SOL    HW134301   0.700   3.629   8.071 -1.0867  0.0245  2.5733
 7614SOL    HW234302   0.697   3.771   8.043  0.0147  0.4879  0.2325
 7615SOL     OW34303   0.220   3.312  13.894 -0.5293  1.3363 -0.1822
 7615SOL    HW134304   0.280   3.373  13.851  0.4963  0.7336  0.3861
 7615SOL    HW234305   0.143   3.290  13.841  0.2816 -2.6189  0.2247
 7616SOL     OW34306   3.161   3.263   3.580 -0.2519 -0.0523  0.1052
 7616SOL    HW134307   3.117   3.186   3.617  0.5384 -0.1824  0.7708
 7616SOL    HW234308   3.105   3.339   3.593  0.3496  0.7286 -1.9102
 7617SOL     OW34309   4.613   3.858   0.692 -0.4513 -0.0095  0.7612
 7617SOL    HW134310   4.568   3.924   0.744  0.3768  1.1404  0.0243
 7617SOL    HW234311   4.613   3.794   0.763 -0.6878 -0.3290  0.4740
 7618SOL     OW34312   3.581   4.356   7.547 -0.1294 -0.0088 -0.3423
 7618SOL    HW134313   3.499   4.381   7.590  1.1643  1.9828  0.9646
 7618SOL    HW234314   3.638   4.336   7.621 -0.2245  0.6286 -0.0909
 7619SOL     OW34315   2.704   4.301   2.240 -0.5594 -0.4611 -0.0764
 7619SOL    HW134316   2.716   4.347   2.157 -0.6877 -0.5208 -0.1286
 7619SOL    HW234317   2.612   4.276   2.230 -0.1729 -2.7685  2.0476
 7620SOL     OW34318   0.649   4.042   1.278 -0.1907 -0.2099 -0.1050
 7620SOL    HW134319   0.623   4.123   1.320  3.2209  0.4083  0.8081
 7620SOL    HW234320   0.603   3.986   1.341 -0.4731 -0.7759 -0.8142
 7621SOL     OW34321   4.000   3.250   2.384  0.2741 -0.0877  0.2097
 7621SOL    HW134322   3.992   3.218   2.474  0.0495 -0.4857  0.0445
 7621SOL    HW234323   4.018   3.163   2.349  1.5993  0.5526 -0.6987
 7622SOL     OW34324   4.095   1.988  11.186  0.3995 -0.3381  0.2061
 7622SOL    HW134325   4.183   2.006  11.220  0.7801  1.3651 -1.6506
 7622SOL    HW234326   4.078   1.899  11.217 -0.9197 -0.2408 -0.2145
 7623SOL     OW34327   3.557   4.254   7.286  0.2957 -0.0179  0.2920
 7623SOL    HW134328   3.465   4.230   7.296  0.0963 -0.8529 -3.5893
 7623SOL    HW234329   3.579   4.271   7.378  0.7900 -2.2689  0.5889
 7624SOL     OW34330   2.979   0.265   6.089 -0.0055 -0.6603 -0.0446
 7624SOL    HW134331   2.957   0.236   6.000  0.3854  1.6260 -0.8753
 7624SOL    HW234332   2.951   0.355   6.100 -1.4395 -0.9030 -1.7281
 7625SOL     OW34333   3.015   2.782   2.070 -0.4175  0.3427 -0.6778
 7625SOL    HW134334   2.937   2.804   2.122  0.0682 -0.2965  0.3349
 7625SOL    HW234335   3.033   2.853   2.009  1.1715  0.9576  0.4984
 7626SOL     OW34336   3.569   0.507   8.976 -0.2377 -0.2615 -0.1397
 7626SOL    HW134337   3.636   0.441   8.993  0.0497 -0.2667 -1.3408
 7626SOL    HW234338   3.505   0.453   8.930 -1.2732 -1.0188  2.2171
 7627SOL     OW34339   0.981   1.302   3.326 -0.1469  0.7913 -0.1771
 7627SOL    HW134340   1.053   1.311   3.264  0.3866  0.7414  0.4399
 7627SOL    HW234341   0.901   1.298   3.273 -0.0453 -1.2789 -0.1520
 7628SOL     OW34342   0.444   0.957  14.033 -0.6586 -0.3902 -0.0668
 7628SOL    HW134343   0.481   0.964  13.945 -2.0649  1.2807 -0.5269
 7628SOL    HW234344   0.353   0.955  14.005 -0.4840 -0.7704 -0.6042
 7629SOL     OW34345   0.974   2.945  12.687  0.1130 -0.5218  0.3366
 7629SOL    HW134346   1.025   3.026  12.686  0.3172 -0.6491  0.6192
 7629SOL    HW234347   1.030   2.897  12.627  0.1704  0.0837 -0.0954
 7630SOL     OW34348   1.562   1.880  16.412 -0.2478 -0.0947  0.1170
 7630SOL    HW134349   1.559   1.972  16.438  0.6785  0.2027 -0.8295
 7630SOL    HW234350   1.653   1.852  16.400 -0.8233 -1.5270 -0.8358
 7631SOL     OW34351   3.328   4.313   5.285  0.4004 -0.3350 -0.5678
 7631SOL    HW134352   3.291   4.312   5.373  0.6782  0.3998 -0.4426
 7631SOL    HW234353   3.332   4.404   5.254  0.5804 -0.2803 -0.3811
 7632SOL     OW34354   0.009   1.135   1.236 -0.1364 -0.9593 -0.7377
 7632SOL    HW134355   4.722   1.146   1.141 -1.4770  2.7228 -0.1208
 7632SOL    HW234356   0.100   1.164   1.240 -0.0478 -1.3734  0.1412
 7633SOL     OW34357   2.397   0.688   9.109 -0.1777  0.1764 -0.1632
 7633SOL    HW134358   2.451   0.735   9.172 -0.2129 -0.4050  0.3001
 7633SOL    HW234359   2.404   0.721   9.019 -1.6329  0.9816  0.0156
 7634SOL     OW34360   2.806   2.988   3.094 -0.3951 -0.3686 -0.2720
 7634SOL    HW134361   2.778   2.973   3.184  0.0920 -0.3182 -0.1119
 7634SOL    HW234362   2.880   3.048   3.097 -0.9328  0.2054  1.4985
 7635SOL     OW34363   1.526   0.097   5.950  0.4869  0.0981 -0.2194
 7635SOL    HW134364   1.434   0.108   5.971  0.7564  2.0283 -0.0767
 7635SOL    HW234365   1.546   0.170   5.891  1.0383  1.8444  2.1367
 7636SOL     OW34366   2.751   3.804   2.888  0.1521  0.3955  0.1122
 7636SOL    HW134367   2.676   3.777   2.940  0.6027  0.2002  0.6663
 7636SOL    HW234368   2.812   3.808   2.961 -0.7154  2.0762  0.7322
 7637SOL     OW34369   1.325   1.139   7.037  0.2006 -0.0699 -0.2836
 7637SOL    HW134370   1.401   1.157   6.982 -0.7993  2.1200 -0.9249
 7637SOL    HW234371   1.249   1.172   6.988  0.0572  0.4984  0.3225
 7638SOL     OW34372   0.318   0.612  12.278 -0.0726  0.1941  0.2582
 7638SOL    HW134373   0.227   0.642  12.278 -0.2291 -0.2508 -0.9348
 7638SOL    HW234374   0.318   0.559  12.358 -2.4470  1.7161  1.2395
 7639SOL     OW34375   3.268   2.428   2.377 -0.0660 -0.0471  0.9609
 7639SOL    HW134376   3.263   2.491   2.305 -2.0172 -1.6954 -0.3313
 7639SOL    HW234377   3.356   2.393   2.368  0.2169  0.7359  0.6474
 7640SOL     OW34378   0.835   4.365   3.927 -0.5359  0.1932 -0.1505
 7640SOL    HW134379   0.812   4.275   3.903 -0.7614  0.6747 -1.7017
 7640SOL    HW234380   0.782   4.377   4.006  0.4973  1.8621  0.2901
 7641SOL     OW34381   0.867   3.105  14.210 -0.3697  0.2810  0.1825
 7641SOL    HW134382   0.806   3.041  14.173  0.2867 -0.2071 -0.0394
 7641SOL    HW234383   0.813   3.137  14.283 -0.7136 -0.7960  0.3977
 7642SOL     OW34384   2.838   0.893   0.238 -0.0397 -0.3506 -0.1595
 7642SOL    HW134385   2.856   0.884   0.331  2.2006 -1.6692 -0.7143
 7642SOL    HW234386   2.925   0.923   0.211 -0.0985  0.3522  0.4405
 7643SOL     OW34387   1.262   0.842  15.850 -0.3430  0.7802 -0.2539
 7643SOL    HW134388   1.200   0.885  15.909  2.0529  1.4652  1.7787
 7643SOL    HW234389   1.205   0.818  15.778  1.3103 -0.4213 -1.1557
 7644SOL     OW34390   0.275   2.190   2.072 -0.1566  0.1922  0.1987
 7644SOL    HW134391   0.255   2.257   2.137  1.6132  0.8021  0.1073
 7644SOL    HW234392   0.189   2.170   2.034  0.2554  0.3669 -0.8237
 7645SOL     OW34393   2.152   0.985  13.995 -0.4312 -0.2757 -0.0189
 7645SOL    HW134394   2.097   0.934  14.055  3.1111 -0.8931  2.6814
 7645SOL    HW234395   2.100   0.995  13.915 -0.9268  2.0647  0.6014
 7646SOL     OW34396   2.004   2.875   4.490  0.2058 -0.0501 -0.6210
 7646SOL    HW134397   1.963   2.792   4.512  0.0702 -0.3036 -1.8109
 7646SOL    HW234398   1.944   2.948   4.505  0.7969  0.7423 -2.0935
 7647SOL     OW34399   1.593   2.059   8.869 -0.1542  0.0260 -0.4490
 7647SOL    HW134400   1.548   2.140   8.891 -0.3523  0.4191 -2.2802
 7647SOL    HW234401   1.685   2.082   8.858  0.4958 -0.7623  3.2742
 7648SOL     OW34402   2.455   4.275   3.453 -0.6912  0.1088  0.0250
 7648SOL    HW134403   2.404   4.256   3.375  0.8052 -1.3463 -0.5834
 7648SOL    HW234404   2.381   4.288   3.512 -0.2930  1.4996  0.2300
 7649SOL     OW34405   3.442   0.357  11.272 -0.2071 -0.2250 -0.3106
 7649SOL    HW134406   3.538   0.360  11.272 -0.1368 -2.8621  1.0188
 7649SOL    HW234407   3.425   0.265  11.252 -0.5724 -0.4669  1.0784
 7650SOL     OW34408   0.792   2.145   7.767  0.0576  0.2475  0.5122
 7650SOL    HW134409   0.721   2.162   7.829 -0.4566 -1.1577  0.3055
 7650SOL    HW234410   0.846   2.224   7.774  0.3601 -0.0500  1.6146
 7651SOL     OW34411   0.350   4.339   4.179 -0.3650 -0.2196 -0.1594
 7651SOL    HW134412   0.371   4.421   4.135  1.9714  0.0130  1.4152
 7651SOL    HW234413   0.269   4.314   4.134 -1.2015  0.3294  1.0505
 7652SOL     OW34414   0.004   0.471  17.701  0.0561 -0.1860  0.3934
 7652SOL    HW134415   4.709   0.522   0.078  0.3896 -0.7975  0.8702
 7652SOL    HW234416   0.005   0.381   0.032  0.1517 -1.3608 -2.8914
 7653SOL     OW34417   4.017   2.372  16.064 -0.1113  0.3153  0.0656
 7653SOL    HW134418   4.049   2.361  15.975 -0.1455 -0.4147  0.1499
 7653SOL    HW234419   4.101   2.392  16.105 -0.1019 -0.0138  0.2056
 7654SOL     OW34420   3.651   0.188   3.353  0.6216  0.4201  0.6220
 7654SOL    HW134421   3.559   0.202   3.334  0.8932  2.9666  1.2484
 7654SOL    HW234422   3.634   0.138   3.433 -2.6846  1.3175  0.4809
 7655SOL     OW34423   1.189   0.747   7.299 -0.2182  0.4656  0.7144
 7655SOL    HW134424   1.209   0.653   7.290 -1.9569 -0.1763  3.4611
 7655SOL    HW234425   1.231   0.776   7.219  1.9545 -0.1109  1.6336
 7656SOL     OW34426   1.448   0.559   8.177 -0.1596 -0.5633 -0.0110
 7656SOL    HW134427   1.473   0.641   8.221  0.9675 -0.5467 -0.6856
 7656SOL    HW234428   1.355   0.559   8.200  0.2211  1.8338  1.6247
 7657SOL     OW34429   2.095   2.426   5.028  0.8429  0.4456 -0.2026
 7657SOL    HW134430   2.147   2.451   4.951 -0.1285 -0.4107 -1.1461
 7657SOL    HW234431   2.125   2.492   5.090 -0.9015  1.7664 -0.7341
 7658SOL     OW34432   3.995   3.642   5.587  0.2720  0.3304  0.0092
 7658SOL    HW134433   4.007   3.666   5.495 -2.1193  1.0259 -0.1086
 7658SOL    HW234434   4.086   3.639   5.618  0.2273  3.1744  0.3723
 7659SOL     OW34435   4.437   3.977  16.485  0.2850  0.0743  0.2529
 7659SOL    HW134436   4.380   3.977  16.407  0.5450 -0.3617  0.0624
 7659SOL    HW234437   4.369   3.984  16.551 -1.5878  0.8189 -1.7386
 7660SOL     OW34438   3.681   2.107  15.038  0.2558  0.2884 -0.2099
 7660SOL    HW134439   3.620   2.052  15.086  0.1089 -1.1029 -1.9844
 7660SOL    HW234440   3.622   2.157  14.981 -1.2713 -0.6727  0.5390
 7661SOL     OW34441   1.594   0.056   3.075 -0.3401  0.6156  0.2785
 7661SOL    HW134442   1.513   0.106   3.065 -1.2128 -0.6067  1.2231
 7661SOL    HW234443   1.632   0.118   3.137 -0.9070  0.2841  0.9564
 7662SOL     OW34444   1.859   1.856  15.852 -0.6091 -0.3219  0.4033
 7662SOL    HW134445   1.894   1.787  15.909  0.1239 -0.5569 -0.3366
 7662SOL    HW234446   1.779   1.815  15.822 -0.3234  1.2631 -2.5602
 7663SOL     OW34447   0.732   2.892   3.226  0.4949 -0.1872  0.4329
 7663SOL    HW134448   0.781   2.947   3.165 -0.5337 -0.3233 -0.5133
 7663SOL    HW234449   0.652   2.884   3.174  0.1133 -0.3092  1.0361
 7664SOL     OW34450   1.437   4.039   5.779 -0.4890 -0.1147 -0.2172
 7664SOL    HW134451   1.410   4.083   5.859  0.4087  0.4719 -0.2452
 7664SOL    HW234452   1.413   3.947   5.792  1.0623 -0.3271  1.0886
 7665SOL     OW34453   1.409   4.593   7.811 -0.4863  0.0842 -0.4393
 7665SOL    HW134454   1.418   4.554   7.898 -0.5148 -0.4608 -0.6827
 7665SOL    HW234455   1.400   4.687   7.829 -1.8574  0.1812 -1.5870
 7666SOL     OW34456   3.284   3.636   5.700  0.5235  0.5320  0.2963
 7666SOL    HW134457   3.364   3.678   5.734  1.1902 -0.5765  0.0759
 7666SOL    HW234458   3.297   3.543   5.716  1.4901  0.0844 -3.0201
 7667SOL     OW34459   0.994   3.664   1.251  0.2377  0.1333  0.3880
 7667SOL    HW134460   1.081   3.644   1.284 -0.2661 -0.4252  1.4077
 7667SOL    HW234461   0.981   3.611   1.172  0.3043  0.4640  0.1560
 7668SOL     OW34462   1.280   0.297  13.187 -0.0851 -0.2582  0.3177
 7668SOL    HW134463   1.368   0.290  13.223 -0.5233 -0.2732  1.3713
 7668SOL    HW234464   1.224   0.316  13.262 -0.9337  0.7977 -0.5776
 7669SOL     OW34465   1.462   3.820   0.401  0.0603 -0.2883 -0.0282
 7669SOL    HW134466   1.506   3.801   0.484  2.5337  0.9487 -1.0445
 7669SOL    HW234467   1.373   3.789   0.420 -0.2023  0.3428 -0.2303
 7670SOL     OW34468   2.747   4.480   9.772  0.2787 -0.2874 -0.4314
 7670SOL    HW134469   2.768   4.529   9.692  1.9503  1.2674  0.9393
 7670SOL    HW234470   2.831   4.491   9.816 -0.3757 -1.1528  1.0107
 7671SOL     OW34471   1.702   2.711   9.070 -0.4362 -0.0868 -0.6106
 7671SOL    HW134472   1.649   2.632   9.080 -2.6990  1.4844 -0.1880
 7671SOL    HW234473   1.647   2.761   9.131  0.8788  2.0822 -1.2186
 7672SOL     OW34474   3.566   0.316  13.831  0.5446 -0.3446  0.6709
 7672SOL    HW134475   3.480   0.286  13.802 -0.2827 -1.2535  3.9906
 7672SOL    HW234476   3.561   0.410  13.813  0.0395 -1.1218 -3.1706
 7673SOL     OW34477   3.647   0.972   7.828  0.2268 -0.0532 -0.1776
 7673SOL    HW134478   3.680   0.882   7.820  0.3931  0.0794 -1.0083
 7673SOL    HW234479   3.595   0.988   7.749  0.0353  0.0889 -0.0226
 7674SOL     OW34480   3.344   4.464  12.509  0.0054 -0.2880  0.5495
 7674SOL    HW134481   3.357   4.485  12.417  0.2759  1.3015  0.9635
 7674SOL    HW234482   3.248   4.465  12.506 -0.0228 -4.8023 -0.3349
 7675SOL     OW34483   3.898   0.648   1.766  0.0367  0.0266  0.3797
 7675SOL    HW134484   3.861   0.657   1.854 -1.8979  0.3982 -0.4743
 7675SOL    HW234485   3.822   0.615   1.718  0.1946  0.1835  0.0251
 7676SOL     OW34486   1.201   0.620   6.760  0.5183  0.1152  0.0655
 7676SOL    HW134487   1.191   0.580   6.674  0.7304  0.7224 -0.2465
 7676SOL    HW234488   1.114   0.659   6.756  0.9630  1.0407 -0.6979
 7677SOL     OW34489   1.587   0.004  14.156 -0.3428 -0.2775  0.0433
 7677SOL    HW134490   1.512   4.673  14.138 -0.7955  0.5654 -0.6349
 7677SOL    HW234491   1.549   0.081  14.196  0.5747  0.6204 -0.8173
 7678SOL     OW34492   3.147   2.402   3.134  0.2022  0.5897 -0.2607
 7678SOL    HW134493   3.176   2.372   3.048 -0.2673 -0.2293 -0.1231
 7678SOL    HW234494   3.052   2.402   3.127  0.1335  0.5349  0.6858
 7679SOL     OW34495   0.633   1.043   8.518 -0.1412 -0.5454  0.0630
 7679SOL    HW134496   0.542   1.024   8.494 -0.2258 -1.1374  0.8402
 7679SOL    HW234497   0.663   0.954   8.540  0.8118 -0.4272 -0.7213
 7680SOL     OW34498   4.234   1.081   2.192 -0.1059 -0.3337  0.0313
 7680SOL    HW134499   4.231   0.995   2.235 -2.0316 -0.2651  0.0373
 7680SOL    HW234500   4.329   1.092   2.192 -0.2996  1.2927 -1.4052
 7681SOL     OW34501   3.094   3.973   1.178  0.2504 -0.1442 -0.2639
 7681SOL    HW134502   3.172   3.947   1.130  0.3317  0.2445 -0.3399
 7681SOL    HW234503   3.102   4.067   1.195 -2.0779  0.0635 -0.2408
 7682SOL     OW34504   3.683   4.576   6.659  0.0827  0.8642 -0.4100
 7682SOL    HW134505   3.598   4.557   6.620 -0.6178  2.7482  0.1970
 7682SOL    HW234506   3.689   4.508   6.726  0.0658  0.9792 -0.2910
 7683SOL     OW34507   0.030   4.481  15.025  0.2535 -0.4736 -0.3491
 7683SOL    HW134508   0.087   4.408  15.046 -0.5526 -0.9787  0.0740
 7683SOL    HW234509   4.692   4.433  14.972 -0.4435  2.1442 -1.9154
 7684SOL     OW34510   2.821   4.656   3.910  0.2660  0.1876  0.2569
 7684SOL    HW134511   2.908   4.691   3.890  1.2281 -2.7589 -0.8031
 7684SOL    HW234512   2.795   4.637   3.820  0.9781 -0.5150  0.1976
 7685SOL     OW34513   0.984   0.888  17.271  0.5468 -0.3502 -0.0735
 7685SOL    HW134514   1.063   0.931  17.238  1.0154 -2.6709 -2.0261
 7685SOL    HW234515   0.919   0.957  17.265 -0.2533 -1.3451 -2.8412
 7686SOL     OW34516   3.331   4.378   3.922 -0.4665 -0.4247  0.6350
 7686SOL    HW134517   3.398   4.322   3.882 -2.1627 -2.8078  1.0960
 7686SOL    HW234518   3.343   4.333   4.005  2.4103 -0.1769  0.3309
 7687SOL     OW34519   0.844   0.022   9.425 -0.4498 -0.7251 -0.3105
 7687SOL    HW134520   0.915   0.085   9.411 -0.9477  0.0559  0.6446
 7687SOL    HW234521   0.879   4.677   9.481 -0.4100 -0.4583 -0.0029
 7688SOL     OW34522   0.737   2.154  16.058  0.2029 -0.4426  0.0077
 7688SOL    HW134523   0.665   2.140  16.120  0.8754 -2.7803  0.2514
 7688SOL    HW234524   0.703   2.222  15.999  2.8243  2.4859  1.8523
 7689SOL     OW34525   0.113   2.090  13.489 -0.3273  0.1218  0.6436
 7689SOL    HW134526   0.115   2.178  13.525  3.5232  0.8748 -1.4247
 7689SOL    HW234527   0.038   2.101  13.431 -0.5011  0.3253  0.9072
 7690SOL     OW34528   1.698   0.676   3.232  0.5460  0.4650  0.2545
 7690SOL    HW134529   1.647   0.651   3.155  3.7326  2.3535 -2.5120
 7690SOL    HW234530   1.712   0.770   3.239 -2.2629  0.7221  2.2724
 7691SOL     OW34531   1.697   0.329   0.551  0.2968  0.0154  0.1048
 7691SOL    HW134532   1.703   0.398   0.617  0.0067 -0.2454  0.4050
 7691SOL    HW234533   1.601   0.330   0.542  0.2971 -0.2317  0.0790
 7692SOL     OW34534   1.390   0.823   7.881  0.3316 -0.3961 -0.2147
 7692SOL    HW134535   1.427   0.873   7.808 -0.4262  0.1787 -0.2001
 7692SOL    HW234536   1.402   0.732   7.854  0.5144  0.6960 -3.7549
 7693SOL     OW34537   0.713   3.395   0.682  0.2993  0.4697  0.0974
 7693SOL    HW134538   0.664   3.390   0.764 -2.0345  0.3931 -1.2980
 7693SOL    HW234539   0.668   3.458   0.626 -1.7443  0.6187  1.9133
 7694SOL     OW34540   3.745   4.078  14.502 -0.6193  0.3165 -0.6395
 7694SOL    HW134541   3.751   4.171  14.526 -2.3104  0.0550  0.8067
 7694SOL    HW234542   3.668   4.077  14.446 -1.3055  0.6773  0.3049
 7695SOL     OW34543   2.223   4.325   6.379 -0.6683 -0.3385  0.3309
 7695SOL    HW134544   2.302   4.375   6.401 -1.0044  0.1095  0.5245
 7695SOL    HW234545   2.171   4.388   6.329 -0.1070 -1.6462 -1.9399
 7696SOL     OW34546   1.844   0.647   9.539  0.3369 -0.4474 -0.3553
 7696SOL    HW134547   1.913   0.673   9.479 -0.3657  1.2138 -0.4524
 7696SOL    HW234548   1.783   0.721   9.540  0.3001 -0.4489 -2.8104
 7697SOL     OW34549   2.234   3.485  14.412  0.3512  0.6969  0.7037
 7697SOL    HW134550   2.148   3.499  14.451  0.1036  0.0723  0.3734
 7697SOL    HW234551   2.286   3.546  14.464  2.2509 -0.5956  0.3253
 7698SOL     OW34552   2.720   1.335  10.805 -0.1887 -0.2363  0.7661
 7698SOL    HW134553   2.660   1.266  10.777  0.8221 -0.4578 -0.8501
 7698SOL    HW234554   2.749   1.289  10.883  0.7332  0.0856  0.6134
 7699SOL     OW34555   0.394   4.634   7.439  0.2982  0.2192  0.2580
 7699SOL    HW134556   0.424   4.568   7.376  1.4483 -0.1622  1.2245
 7699SOL    HW234557   0.303   4.603   7.445  0.3362  0.4973  2.3114
 7700SOL     OW34558   4.037   2.063   7.233 -0.4240 -0.0097  0.1224
 7700SOL    HW134559   4.071   2.019   7.311 -2.8603 -0.8990  0.6628
 7700SOL    HW234560   3.993   2.142   7.264 -1.1412 -0.6072  0.6239
 7701SOL     OW34561   1.319   1.913  15.399  0.4210 -0.0878 -0.3296
 7701SOL    HW134562   1.361   1.897  15.484 -3.4059 -1.1905  1.3736
 7701SOL    HW234563   1.259   1.837  15.399  0.1796  0.0926  1.8341
 7702SOL     OW34564   3.539   3.727   5.666 -0.3980  0.3057 -0.1287
 7702SOL    HW134565   3.575   3.799   5.716 -0.1100  0.4531 -0.5472
 7702SOL    HW234566   3.561   3.750   5.576 -1.0097  2.0647  0.1834
 7703SOL     OW34567   1.016   2.722   5.358 -0.1936  0.0670 -0.1135
 7703SOL    HW134568   1.092   2.673   5.389  0.3438  2.0510  1.6934
 7703SOL    HW234569   1.033   2.811   5.389 -2.3491  0.4633 -0.0588
 7704SOL     OW34570   3.989   3.810   9.327  0.2545 -0.0902  0.3011
 7704SOL    HW134571   3.907   3.832   9.371  0.1153 -0.4498  0.2179
 7704SOL    HW234572   3.964   3.725   9.292  2.4526 -0.8834  0.6541
 7705SOL     OW34573   0.563   1.414   5.005  0.1161  0.0039 -0.0471
 7705SOL    HW134574   0.585   1.382   5.092  2.7311 -0.6094 -0.9311
 7705SOL    HW234575   0.506   1.344   4.974  2.0233 -1.8448  0.6303
 7706SOL     OW34576   1.316   0.151   4.552  0.1628  0.4547  0.2054
 7706SOL    HW134577   1.366   0.127   4.474  1.0223  0.4614  0.7531
 7706SOL    HW234578   1.343   0.075   4.603  2.7706 -0.7824 -2.9768
 7707SOL     OW34579   3.661   4.670   7.586 -0.3940 -0.3413 -0.3272
 7707SOL    HW134580   3.607   0.016   7.620 -0.0288  0.5086 -1.5410
 7707SOL    HW234581   3.744   4.702   7.619 -0.1893 -0.2118 -0.9681
 7708SOL     OW34582   4.119   4.111   7.759  0.4904  0.4596  0.3632
 7708SOL    HW134583   4.163   4.080   7.680  0.1083 -0.8911  0.6858
 7708SOL    HW234584   4.073   4.031   7.784  1.1782  0.9572  3.2747
 7709SOL     OW34585   3.090   2.262   8.333  0.3522 -0.0738  0.3179
 7709SOL    HW134586   3.076   2.279   8.240  0.4407  1.6164  0.6176
 7709SOL    HW234587   2.999   2.266   8.361  0.0030  1.4132 -1.0357
 7710SOL     OW34588   4.619   1.354   1.694 -0.6321 -0.1522 -1.1900
 7710SOL    HW134589   4.613   1.258   1.685  2.4055 -0.5684  0.9988
 7710SOL    HW234590   4.594   1.370   1.603  0.5322  0.2074 -1.4400
 7711SOL     OW34591   0.745   4.525   6.451  0.2437  0.5005 -0.2225
 7711SOL    HW134592   0.708   4.538   6.539  0.1676 -1.7059  0.0790
 7711SOL    HW234593   0.672   4.557   6.398 -1.0475 -0.2079  1.1360
 7712SOL     OW34594   1.996   3.297   5.062  0.1285 -0.6524  0.1999
 7712SOL    HW134595   2.074   3.354   5.057 -0.5617  0.2021 -0.7631
 7712SOL    HW234596   2.019   3.230   5.126  2.1102  0.5684  0.7635
 7713SOL     OW34597   4.616   0.360   5.152 -0.0207 -0.2541  0.0505
 7713SOL    HW134598   4.633   0.300   5.080 -1.2359  2.5534 -2.5813
 7713SOL    HW234599   4.604   0.447   5.113 -4.4284 -1.1050 -0.4187
 7714SOL     OW34600   3.318   2.843  12.513  0.6944  0.0415 -0.0857
 7714SOL    HW134601   3.250   2.902  12.546  0.6342 -0.2807  0.3705
 7714SOL    HW234602   3.390   2.898  12.483  0.2722  0.5577 -0.1541
 7715SOL     OW34603   4.199   4.080   7.269  0.1557 -0.0479  0.1024
 7715SOL    HW134604   4.129   4.044   7.214  0.7494 -0.0724 -0.6282
 7715SOL    HW234605   4.166   4.168   7.289  1.3517  0.3199  0.4477
 7716SOL     OW34606   0.958   3.035   3.720  0.6162  0.5987 -0.7368
 7716SOL    HW134607   0.919   3.106   3.669  0.0496  2.6946  2.6020
 7716SOL    HW234608   1.039   3.015   3.672 -0.1074 -0.4185 -1.5281
 7717SOL     OW34609   0.593   0.856  13.551  0.0190 -0.1033 -0.4330
 7717SOL    HW134610   0.518   0.798  13.561 -1.5884  2.0105 -0.3408
 7717SOL    HW234611   0.563   0.933  13.503 -0.1103 -0.1638 -0.4475
 7718SOL     OW34612   0.275   4.507   8.073 -0.0249 -0.1179  0.2461
 7718SOL    HW134613   0.270   4.488   7.979 -0.1962 -1.2616  0.4954
 7718SOL    HW234614   0.237   4.595   8.061 -0.4230 -0.2903  0.2362
 7719SOL     OW34615   4.360   0.201  16.342 -0.0828  0.0450  0.0956
 7719SOL    HW134616   4.416   0.277  16.363  0.6681 -1.4360  3.4353
 7719SOL    HW234617   4.409   0.128  16.379 -0.0390  0.5745  1.1018
 7720SOL     OW34618   1.272   3.917   6.162  0.6332 -0.0240  0.1413
 7720SOL    HW134619   1.262   4.006   6.197 -0.3540  0.2848 -0.9446
 7720SOL    HW234620   1.317   3.947   6.082  1.0002  0.3004  0.4670
 7721SOL     OW34621   3.649   3.808   2.154 -0.4346 -0.7942 -0.1416
 7721SOL    HW134622   3.653   3.900   2.128  1.0991 -1.0607 -0.8107
 7721SOL    HW234623   3.609   3.769   2.076 -1.3596 -0.5546  0.2086
 7722SOL     OW34624   3.039   1.083   6.470 -0.4984  0.5263  0.2297
 7722SOL    HW134625   2.998   1.002   6.439 -1.3726  0.7348  0.8472
 7722SOL    HW234626   3.089   1.110   6.393  0.5172  0.5513  0.8968
 7723SOL     OW34627   2.282   1.677   3.939 -0.3204 -0.2747  1.1346
 7723SOL    HW134628   2.320   1.673   4.027 -2.8734  1.5965  2.3324
 7723SOL    HW234629   2.259   1.585   3.928  2.2044 -0.7950  0.2481
 7724SOL     OW34630   0.418   4.489  15.995  0.4256  0.4777 -0.0811
 7724SOL    HW134631   0.450   4.524  15.911  2.6113 -1.0917  0.0965
 7724SOL    HW234632   0.423   4.568  16.048  0.6930 -0.6706  1.6027
 7725SOL     OW34633   4.441   4.153   6.675  0.2823  0.8186 -0.3882
 7725SOL    HW134634   4.369   4.106   6.716  1.6013  0.2309  1.2529
 7725SOL    HW234635   4.425   4.245   6.698  1.8988  0.3347  2.6793
 7726SOL     OW34636   1.852   0.039  10.654 -0.1508 -0.2646 -0.2028
 7726SOL    HW134637   1.886   0.087  10.729  0.7899  0.9469 -1.3830
 7726SOL    HW234638   1.764   0.021  10.687  1.2066  0.8809  4.0156
 7727SOL     OW34639   4.205   2.627   1.905  0.4415  0.4150 -0.2649
 7727SOL    HW134640   4.231   2.536   1.893 -3.3044 -0.8782  1.4562
 7727SOL    HW234641   4.120   2.615   1.949  1.8123  0.0371  2.3028
 7728SOL     OW34642   2.237   3.412   5.406  0.5232 -0.3150 -0.1724
 7728SOL    HW134643   2.227   3.504   5.383 -0.3391 -0.1389  0.9158
 7728SOL    HW234644   2.330   3.410   5.427  0.6345 -0.7109 -0.7173
 7729SOL     OW34645   1.668   4.672   9.122  0.2395  0.2265 -0.0833
 7729SOL    HW134646   1.648   4.694   9.031 -1.7415  0.0446  0.3089
 7729SOL    HW234647   1.663   0.035   9.160  0.4911  1.1347 -2.1789
 7730SOL     OW34648   1.219   2.894   0.904 -0.6630 -0.2893  0.4427
 7730SOL    HW134649   1.287   2.842   0.861 -0.0192 -0.0602  1.1927
 7730SOL    HW234650   1.144   2.900   0.845  0.4273 -0.2047 -0.9491
 7731SOL     OW34651   0.991   4.208   8.100  0.0855 -0.0419  0.3096
 7731SOL    HW134652   1.080   4.185   8.127 -0.0192  1.8554  2.2837
 7731SOL    HW234653   0.988   4.300   8.127 -0.5524  0.3852 -1.2083
 7732SOL     OW34654   3.066   0.797   5.463  0.2269 -0.1268  0.1767
 7732SOL    HW134655   3.108   0.740   5.399 -1.8447  1.4636 -2.6169
 7732SOL    HW234656   3.007   0.734   5.505  0.2774  0.1881  0.7254
 7733SOL     OW34657   0.034   1.442   5.977 -0.4515  0.4971 -0.5048
 7733SOL    HW134658   4.723   1.357   6.000 -0.0192  0.6170  0.6227
 7733SOL    HW234659   4.681   1.482   5.939  0.0979  1.1955 -0.9124
 7734SOL     OW34660   0.238   4.431   6.044 -0.3237  0.0780 -0.1199
 7734SOL    HW134661   0.228   4.467   6.132  1.2290 -0.2886  0.2082
 7734SOL    HW234662   0.290   4.354   6.066  1.0038  1.2155  0.7184
 7735SOL     OW34663   3.718   1.086   2.870  0.3542  0.4041  0.4362
 7735SOL    HW134664   3.793   1.130   2.910 -0.1230  0.9778  0.7008
 7735SOL    HW234665   3.707   1.131   2.786  3.4496  0.6486  0.1642
 7736SOL     OW34666   4.484   1.641   2.294 -0.2616  0.2159  0.4661
 7736SOL    HW134667   4.437   1.643   2.378 -0.7445  1.6730  0.1562
 7736SOL    HW234668   4.485   1.733   2.268 -1.5796  0.3049  0.6983
 7737SOL     OW34669   2.277   0.378  10.939  0.5976  0.1486 -0.1889
 7737SOL    HW134670   2.304   0.326  11.015 -0.3028  0.4632  0.3340
 7737SOL    HW234671   2.321   0.463  10.944  1.6621 -0.3515 -1.0621
 7738SOL     OW34672   3.916   0.122   4.500 -0.3554  0.5148 -0.3942
 7738SOL    HW134673   3.933   0.186   4.430  2.9352 -0.0282 -0.0728
 7738SOL    HW234674   3.944   0.177   4.573 -0.3485 -1.1578  0.8632
 7739SOL     OW34675   0.863   0.827   1.887 -0.0008 -0.0510 -0.0096
 7739SOL    HW134676   0.873   0.746   1.838  0.4749 -0.6082  0.9975
 7739SOL    HW234677   0.797   0.791   1.946 -0.6033  1.1692  0.0607
 7740SOL     OW34678   0.603   2.291  15.852  0.1160  0.1476  0.3248
 7740SOL    HW134679   0.621   2.334  15.768  0.8293  2.1112  1.4820
 7740SOL    HW234680   0.545   2.355  15.893 -0.3804 -0.3421  0.3861
 7741SOL     OW34681   0.008   1.294   0.965 -0.2110  0.3525  0.3764
 7741SOL    HW134682   0.055   1.233   0.908  1.7729  1.0438  1.2669
 7741SOL    HW234683   4.668   1.332   0.905  0.4192  0.0209 -0.5302
 7742SOL     OW34684   3.005   0.384  17.600  0.4641  0.0090  0.3970
 7742SOL    HW134685   3.059   0.452  17.640  0.3168  0.0688  0.4949
 7742SOL    HW234686   2.998   0.406  17.507 -1.2402 -1.3552  0.2054
 7743SOL     OW34687   1.433   1.475   5.391  0.1187 -0.0921  0.0048
 7743SOL    HW134688   1.527   1.459   5.383  0.0691 -0.6827  0.6117
 7743SOL    HW234689   1.408   1.487   5.299  1.1201  0.1763 -0.2353
 7744SOL     OW34690   4.681   0.278   5.622  0.1418  0.3746  0.4221
 7744SOL    HW134691   4.714   0.335   5.553 -0.8193 -1.1394 -1.2892
 7744SOL    HW234692   4.670   0.195   5.576  0.7632 -0.1219  1.1845
 7745SOL     OW34693   4.209   0.020   7.888  0.0265  0.5899  0.0874
 7745SOL    HW134694   4.132   4.701   7.921  0.0909  0.1622 -0.3447
 7745SOL    HW234695   4.174   0.074   7.817 -0.8635 -1.2958 -0.8819
 7746SOL     OW34696   2.812   4.162   2.641 -0.2119  0.4765  0.3699
 7746SOL    HW134697   2.759   4.107   2.583  0.2913 -0.4218  0.7531
 7746SOL    HW234698   2.852   4.221   2.578  0.8037 -0.0832  0.4810
 7747SOL     OW34699   4.277   3.221  12.724  0.0817 -0.1231 -0.3127
 7747SOL    HW134700   4.258   3.313  12.745 -2.1941 -0.9080  1.0527
 7747SOL    HW234701   4.371   3.225  12.705  0.1847  1.9241  0.6270
 7748SOL     OW34702   2.081   2.292   7.298  0.5346  0.2956 -0.0978
 7748SOL    HW134703   2.100   2.355   7.368  1.6858 -0.2359  0.0752
 7748SOL    HW234704   2.115   2.209   7.331  0.8501 -0.7213 -2.9833
 7749SOL     OW34705   1.599   3.779   2.465 -0.4473 -0.5163  0.1366
 7749SOL    HW134706   1.530   3.728   2.423  0.7472 -2.0925  0.0489
 7749SOL    HW234707   1.542   3.842   2.508  0.3826  0.6211 -0.4365
 7750SOL     OW34708   2.116   4.113   9.354  0.0717 -0.6124  0.6544
 7750SOL    HW134709   2.179   4.177   9.320 -0.2726 -2.2363 -3.1612
 7750SOL    HW234710   2.165   4.092   9.433  0.1520  1.6182  1.1744
 7751SOL     OW34711   4.499   4.615  15.525  0.2589 -0.0187 -0.8585
 7751SOL    HW134712   4.510   4.626  15.620 -2.3001  0.7457 -0.6537
 7751SOL    HW234713   4.512   4.706  15.500 -0.4382 -0.1170 -1.5916
 7752SOL     OW34714   4.468   4.216   9.971  0.2478  0.1064  0.0067
 7752SOL    HW134715   4.539   4.153   9.989  0.7206  0.3723 -0.9748
 7752SOL    HW234716   4.437   4.214  10.062  1.1603  0.4564  0.3334
 7753SOL     OW34717   4.622   3.313  12.919 -0.8137 -0.2172  0.4004
 7753SOL    HW134718   4.595   3.260  12.845 -0.3974  0.1892 -0.0386
 7753SOL    HW234719   4.538   3.336  12.960 -1.3042 -0.9121 -0.2238
 7754SOL     OW34720   2.119   0.540   7.670 -0.2425 -0.3846  0.3435
 7754SOL    HW134721   2.116   0.587   7.753 -0.9428  0.0569  0.0739
 7754SOL    HW234722   2.127   0.447   7.688  1.2429 -0.7320 -2.1167
 7755SOL     OW34723   3.154   2.050  11.780  0.0874 -0.4195  0.4271
 7755SOL    HW134724   3.204   1.970  11.797  0.2390 -0.6375 -0.9919
 7755SOL    HW234725   3.072   2.015  11.745  0.3467  0.7358 -1.3143
 7756SOL     OW34726   4.029   4.039  13.238 -0.3034 -0.2552  0.2335
 7756SOL    HW134727   4.028   4.124  13.281 -0.4890  0.7860 -1.8046
 7756SOL    HW234728   3.936   4.031  13.217 -0.5563  0.4554  1.0622
 7757SOL     OW34729   3.639   2.860   7.616  0.8670  0.5206  0.2733
 7757SOL    HW134730   3.652   2.767   7.636 -1.3164  0.4363  1.2863
 7757SOL    HW234731   3.729   2.887   7.599  1.6000 -1.0534  1.6021
 7758SOL     OW34732   2.972   3.342   3.362 -0.1334  0.4640  0.0225
 7758SOL    HW134733   2.904   3.276   3.375  0.7348 -0.9735 -2.6723
 7758SOL    HW234734   3.053   3.293   3.350 -0.9934 -0.9372 -0.0860
 7759SOL     OW34735   1.744   1.987  14.291 -0.1918 -0.8438 -0.2888
 7759SOL    HW134736   1.678   2.029  14.235  0.1133  1.3773  1.0164
 7759SOL    HW234737   1.691   1.925  14.340 -2.0837 -0.4808 -1.8485
 7760SOL     OW34738   3.234   3.349  15.509  0.5122  0.0430  0.0213
 7760SOL    HW134739   3.300   3.309  15.566  0.3006  0.0501  0.2663
 7760SOL    HW234740   3.284   3.425  15.477 -0.8396  1.2000  0.6472
 7761SOL     OW34741   2.381   0.997   4.681  0.0363 -0.1317  0.0218
 7761SOL    HW134742   2.293   1.029   4.663 -0.9239 -1.4501  2.3339
 7761SOL    HW234743   2.426   1.079   4.660 -1.5910  0.6223 -0.4627
 7762SOL     OW34744   2.984   0.051   8.955  0.8499 -0.2902 -0.4132
 7762SOL    HW134745   3.054   4.716   8.982 -0.7244 -2.3678 -0.9466
 7762SOL    HW234746   2.932   0.055   9.036  0.6763 -0.6264 -0.5117
 7763SOL     OW34747   3.190   2.342  14.993 -0.2333  0.9154 -0.0931
 7763SOL    HW134748   3.110   2.288  14.990  1.7477 -2.0984  1.0616
 7763SOL    HW234749   3.166   2.406  15.059 -1.2049 -0.4267  0.8478
 7764SOL     OW34750   3.497   1.636   0.666  0.8439  0.0648 -0.7209
 7764SOL    HW134751   3.406   1.611   0.684  0.9131 -0.2107 -0.7536
 7764SOL    HW234752   3.515   1.704   0.731 -2.5037  0.4751 -0.1943
 7765SOL     OW34753   4.053   0.049   1.442 -0.1601 -0.1273  0.8633
 7765SOL    HW134754   4.110   0.060   1.366  0.2142 -2.8358  0.7239
 7765SOL    HW234755   4.004   4.697   1.413  0.2021  1.1664 -3.0779
 7766SOL     OW34756   1.747   2.258   1.890 -0.6324  0.1642 -0.2441
 7766SOL    HW134757   1.771   2.348   1.868 -0.8923  0.8810  2.4653
 7766SOL    HW234758   1.651   2.254   1.894 -0.5943  0.7451  1.2920
 7767SOL     OW34759   2.546   2.238  15.593  0.6126  0.0023 -0.1434
 7767SOL    HW134760   2.623   2.288  15.619 -0.5131  0.4521  2.2390
 7767SOL    HW234761   2.524   2.295  15.519  3.2889  0.0752 -0.8748
 7768SOL     OW34762   2.649   4.535   0.144 -0.0119 -0.1103 -0.1501
 7768SOL    HW134763   2.690   4.456   0.109  0.2938  0.0571 -0.1721
 7768SOL    HW234764   2.642   4.590   0.066 -1.9998 -1.1746 -0.7243
 7769SOL     OW34765   1.890   1.029   9.617  0.3538  0.3525  0.4545
 7769SOL    HW134766   1.827   1.051   9.548 -1.4424 -1.3345  1.5625
 7769SOL    HW234767   1.834   1.029   9.694 -1.0746 -1.0440 -0.5947
 7770SOL     OW34768   3.033   1.606   1.058  0.5984 -0.2824 -0.0772
 7770SOL    HW134769   3.035   1.528   1.002  2.1346 -1.7853  2.0561
 7770SOL    HW234770   3.006   1.671   0.994 -0.0825  0.4970  1.0203
 7771SOL     OW34771   3.799   4.166  13.728 -0.0867  0.3531 -0.1276
 7771SOL    HW134772   3.865   4.235  13.719  0.3042  0.0016  0.0431
 7771SOL    HW234773   3.746   4.182  13.650  1.4265 -2.0620 -1.6523
 7772SOL     OW34774   3.346   2.577   5.826  0.3678  0.8281  0.0742
 7772SOL    HW134775   3.285   2.504   5.838 -0.2395  1.5286  1.2546
 7772SOL    HW234776   3.304   2.619   5.751  1.1827  0.3297 -0.6666
 7773SOL     OW34777   0.443   3.390   4.009 -0.3177 -0.0707  0.2359
 7773SOL    HW134778   0.354   3.354   4.007 -0.7836  0.8675  3.1580
 7773SOL    HW234779   0.420   3.483   4.000  0.3436  0.0168 -0.5854
 7774SOL     OW34780   0.491   2.248   5.809 -0.6812  0.5818  0.8191
 7774SOL    HW134781   0.560   2.311   5.787 -0.9221  0.6680  0.3196
 7774SOL    HW234782   0.454   2.288   5.888 -2.0635  1.9588 -0.5446
 7775SOL     OW34783   2.102   2.720  14.673 -0.1873 -0.1086  0.0864
 7775SOL    HW134784   2.168   2.669  14.626 -0.4588  0.5377 -0.9865
 7775SOL    HW234785   2.136   2.808  14.655  1.1725 -0.5035  0.7222
 7776SOL     OW34786   3.607   1.603  15.842  0.3992 -0.1866 -0.3980
 7776SOL    HW134787   3.530   1.660  15.845  1.1690  0.8031  0.8698
 7776SOL    HW234788   3.665   1.641  15.908  1.2651 -0.3555 -1.0553
 7777SOL     OW34789   3.120   3.738   7.837  0.1115  0.0090 -0.2952
 7777SOL    HW134790   3.059   3.798   7.794  1.3024  0.7201 -1.0061
 7777SOL    HW234791   3.073   3.718   7.918 -1.0594  0.7579 -0.7832
 7778SOL     OW34792   3.892   2.267   7.363  0.0147  0.3995 -0.1012
 7778SOL    HW134793   3.808   2.221   7.358  0.5774 -0.9877  3.4520
 7778SOL    HW234794   3.919   2.220   7.442  0.4057  2.5986  1.0500
 7779SOL     OW34795   1.478   1.749   2.141 -0.3270  0.3695 -0.1969
 7779SOL    HW134796   1.400   1.738   2.195  0.9300 -0.7133  1.3861
 7779SOL    HW234797   1.522   1.824   2.181  0.9499 -0.5173  0.0545
 7780SOL     OW34798   2.526   2.387   2.719  0.0600  0.5136 -0.1776
 7780SOL    HW134799   2.598   2.328   2.698 -0.9360 -0.3170 -1.2757
 7780SOL    HW234800   2.476   2.378   2.637 -0.3684  0.6828  0.0673
 7781SOL     OW34801   1.016   4.618   7.803  0.1123  0.4482 -0.5326
 7781SOL    HW134802   0.943   4.663   7.760 -1.9095  0.2474  2.6722
 7781SOL    HW234803   0.996   4.628   7.896 -1.5933 -0.2740 -0.8170
 7782SOL     OW34804   3.322   1.305   2.690 -0.8725  0.2837 -0.1767
 7782SOL    HW134805   3.377   1.340   2.621  0.5905  0.1402  0.9326
 7782SOL    HW234806   3.347   1.215   2.670  1.2178  0.2065  2.7763
 7783SOL     OW34807   3.888   4.239   3.867 -0.8893  0.3927  0.1804
 7783SOL    HW134808   3.898   4.183   3.790  2.3956 -0.0383  0.8862
 7783SOL    HW234809   3.940   4.183   3.925  1.2738  2.3889  0.1656
 7784SOL     OW34810   0.119   0.624   6.918 -0.3624  0.0886  0.2358
 7784SOL    HW134811   0.087   0.659   7.001 -0.7144  0.8894 -0.2402
 7784SOL    HW234812   0.036   0.605   6.874 -0.9750 -0.7810  1.7337
 7785SOL     OW34813   1.306   2.930  12.861 -0.0443  0.9679  0.2079
 7785SOL    HW134814   1.268   2.894  12.781  1.3115 -0.1043  0.0543
 7785SOL    HW234815   1.315   2.848  12.910  1.4862  0.5597 -0.7765
 7786SOL     OW34816   0.167   4.140   8.438  0.0794 -0.7232  0.0421
 7786SOL    HW134817   0.261   4.143   8.418  0.0111  0.2894 -0.1421
 7786SOL    HW234818   0.131   4.178   8.358 -1.7016 -0.8878  0.7864
 7787SOL     OW34819   2.538   3.662  10.178  0.3108  0.3545 -0.3785
 7787SOL    HW134820   2.540   3.745  10.131  1.9892  0.4156 -0.2170
 7787SOL    HW234821   2.624   3.625  10.158  0.1405  1.3643 -2.9713
 7788SOL     OW34822   3.133   1.074   5.072 -0.1778  0.5198 -0.5021
 7788SOL    HW134823   3.169   1.121   4.997  0.2059  0.1216 -0.5708
 7788SOL    HW234824   3.207   1.058   5.132 -0.3755 -0.3454 -0.4834
 7789SOL     OW34825   0.992   0.404   5.093 -0.2323 -0.1966  0.3113
 7789SOL    HW134826   0.952   0.397   5.180 -1.6251  1.3470 -0.2094
 7789SOL    HW234827   1.057   0.473   5.106 -0.0817 -0.4784  1.0608
 7790SOL     OW34828   2.373   3.309   9.401  0.2007  0.5468 -0.5018
 7790SOL    HW134829   2.287   3.310   9.443  0.7740  1.6791  0.6529
 7790SOL    HW234830   2.432   3.308   9.477  0.3192  0.0299 -0.5981
 7791SOL     OW34831   2.564   2.528   5.443 -0.6142 -0.0369  0.7166
 7791SOL    HW134832   2.508   2.601   5.415 -1.5004 -0.9002  0.2119
 7791SOL    HW234833   2.508   2.496   5.514 -2.9123 -1.7368 -1.8247
 7792SOL     OW34834   0.668   0.610   5.639 -0.2793 -0.7268  0.3894
 7792SOL    HW134835   0.718   0.666   5.699 -0.2840 -1.1995  0.8326
 7792SOL    HW234836   0.583   0.653   5.653 -0.2525 -1.0891  1.7379
 7793SOL     OW34837   1.315   2.735   4.238 -0.0640  0.1000  0.1343
 7793SOL    HW134838   1.267   2.660   4.274 -3.3044  1.9423 -0.2973
 7793SOL    HW234839   1.397   2.699   4.205  1.0628 -0.4969  3.5430
 7794SOL     OW34840   2.136   3.901   7.963 -0.6475 -0.1187  0.5088
 7794SOL    HW134841   2.224   3.897   8.000 -0.6640 -0.1403  0.5450
 7794SOL    HW234842   2.088   3.904   8.045 -2.4551  3.4241 -0.6950
 7795SOL     OW34843   1.858   3.094   4.575 -0.2981  0.2831  0.1579
 7795SOL    HW134844   1.920   3.092   4.647  0.3813  1.0750 -0.4008
 7795SOL    HW234845   1.889   3.170   4.526  1.5929  0.1346  1.1128
 7796SOL     OW34846   0.141   2.401   8.707 -0.3266 -0.1866  0.4035
 7796SOL    HW134847   0.200   2.436   8.773  0.7501  1.3336 -1.3683
 7796SOL    HW234848   0.075   2.354   8.758 -0.0203  0.1970  1.1555
 7797SOL     OW34849   2.147   1.337  13.795 -0.3299  0.5683  0.1914
 7797SOL    HW134850   2.207   1.338  13.720 -0.1760  2.9341  0.3595
 7797SOL    HW234851   2.098   1.255  13.790  0.1598  0.4701 -2.7697
 7798SOL     OW34852   0.078   3.957   9.518  0.3375  0.6529 -0.1977
 7798SOL    HW134853   4.710   3.964   9.498  0.1174 -1.4174  0.0511
 7798SOL    HW234854   0.114   3.947   9.430  1.0402 -1.6142  0.3532
 7799SOL     OW34855   3.791   2.412   7.635  0.1981  0.0697 -0.2019
 7799SOL    HW134856   3.836   2.327   7.645 -1.1240 -0.6579 -0.4758
 7799SOL    HW234857   3.865   2.471   7.622 -1.2105  1.1141 -3.3930
 7800SOL     OW34858   2.863   2.263   2.118  0.3114  0.6234  0.0703
 7800SOL    HW134859   2.888   2.235   2.206 -0.9592 -0.3225  0.1314
 7800SOL    HW234860   2.874   2.186   2.061 -2.0796  0.7332 -0.5247
 7801SOL     OW34861   0.182   3.663   2.015 -0.1653  0.3713 -0.7002
 7801SOL    HW134862   0.148   3.608   1.945  1.0731 -0.0248 -0.9893
 7801SOL    HW234863   0.233   3.725   1.962  0.5482  0.9282  0.6228
 7802SOL     OW34864   1.838   3.598   9.169  0.3445  0.4608 -0.4556
 7802SOL    HW134865   1.820   3.689   9.193  1.5094  1.0115 -1.6763
 7802SOL    HW234866   1.819   3.599   9.075  3.1845  1.3394 -1.0131
 7803SOL     OW34867   3.616   4.368  10.978 -0.5238  0.2987  0.4450
 7803SOL    HW134868   3.700   4.347  10.938 -1.5076 -1.3549 -0.7839
 7803SOL    HW234869   3.583   4.278  10.975  3.6336 -1.2550  0.8621
 7804SOL     OW34870   3.282   2.344   4.013  0.5124 -0.2525  0.8410
 7804SOL    HW134871   3.195   2.329   3.976  0.7866 -0.8018  0.4154
 7804SOL    HW234872   3.315   2.365   3.925  0.7266 -0.4511  0.8723
 7805SOL     OW34873   2.712   4.174   7.347 -0.1303  0.3627  0.7776
 7805SOL    HW134874   2.754   4.163   7.432 -1.0297  1.7335  1.4111
 7805SOL    HW234875   2.675   4.088   7.331 -1.7144  0.9707  1.1609
 7806SOL     OW34876   3.647   0.623   4.278 -0.0891  0.6573 -0.7049
 7806SOL    HW134877   3.631   0.673   4.358 -0.1327 -1.8457  0.8480
 7806SOL    HW234878   3.743   0.626   4.275  0.0479 -0.8774  2.1100
 7807SOL     OW34879   4.592   3.469   2.585 -0.5903 -0.6375  0.3922
 7807SOL    HW134880   4.570   3.525   2.659  0.2335  0.8776 -0.5058
 7807SOL    HW234881   4.687   3.480   2.581 -0.6767  0.1693  0.5316
 7808SOL     OW34882   1.380   1.847  12.916  0.7134  0.2382 -0.0362
 7808SOL    HW134883   1.286   1.859  12.929  0.6630 -0.0505 -0.1310
 7808SOL    HW234884   1.396   1.754  12.935  0.6560  0.4131  0.8552
 7809SOL     OW34885   0.490   3.667   3.304  0.3150 -0.7006 -0.5549
 7809SOL    HW134886   0.506   3.644   3.212  0.0493 -1.8077 -0.3223
 7809SOL    HW234887   0.411   3.612   3.308 -0.8339  1.0932  0.8979
 7810SOL     OW34888   0.418   2.250   8.256 -0.0874 -0.0525 -0.6970
 7810SOL    HW134889   0.372   2.197   8.190 -1.4164 -0.0025  0.1854
 7810SOL    HW234890   0.394   2.340   8.235  0.1387  0.0151 -0.6645
 7811SOL     OW34891   2.663   4.674   1.183  0.2611  0.4223  1.0401
 7811SOL    HW134892   2.750   4.651   1.216  1.1996  0.7412 -1.2422
 7811SOL    HW234893   2.614   4.597   1.213  1.9462 -1.1715 -0.2410
 7812SOL     OW34894   0.938   4.125   1.286  0.3586 -0.2721 -0.2863
 7812SOL    HW134895   0.955   4.219   1.276  0.1099 -0.3339 -1.2862
 7812SOL    HW234896   0.852   4.134   1.328 -0.2806  1.3485 -1.9522
 7813SOL     OW34897   0.556   0.810  10.974  0.1389 -0.0989 -0.3314
 7813SOL    HW134898   0.589   0.883  11.026 -1.4350  0.0905  0.4205
 7813SOL    HW234899   0.486   0.865  10.938  0.1340  0.2484  0.2048
 7814SOL     OW34900   1.965   0.278   0.581  0.1112 -0.1408 -0.1694
 7814SOL    HW134901   1.871   0.282   0.564 -0.1043  0.5968  1.1752
 7814SOL    HW234902   2.005   0.229   0.509  0.3963  0.8525 -0.6892
 7815SOL     OW34903   1.560   0.587   5.435  0.0578  0.7173 -0.2296
 7815SOL    HW134904   1.525   0.597   5.523  2.9936 -1.1363  1.1683
 7815SOL    HW234905   1.628   0.655   5.438  0.1301  0.4987  2.7401
 7816SOL     OW34906   2.127   0.963   8.823 -0.1844  0.1255 -0.1804
 7816SOL    HW134907   2.131   1.043   8.771  2.8740  0.0828  0.0209
 7816SOL    HW234908   2.193   0.906   8.783  0.9225  0.5563  1.0364
 7817SOL     OW34909   2.242   2.809   6.021 -0.2439  0.4231 -0.3450
 7817SOL    HW134910   2.328   2.773   6.002 -1.0585 -1.5566 -0.2196
 7817SOL    HW234911   2.219   2.846   5.936 -0.6030 -0.8984 -0.8128
 7818SOL     OW34912   2.067   0.167  14.771 -0.0159 -0.1759 -0.2649
 7818SOL    HW134913   2.094   0.247  14.726 -0.7564  0.8706  1.1550
 7818SOL    HW234914   2.021   0.203  14.847  0.6544 -1.3103  0.6762
 7819SOL     OW34915   0.328   1.802   6.191  0.1443 -0.0951 -0.1978
 7819SOL    HW134916   0.424   1.793   6.187  0.4097  1.7966  1.7813
 7819SOL    HW234917   0.297   1.719   6.155 -0.7784 -0.3238  1.1506
 7820SOL     OW34918   0.735   1.997   6.023 -0.6838  0.3157  0.3238
 7820SOL    HW134919   0.758   2.085   6.052 -1.2471 -0.4161  3.0210
 7820SOL    HW234920   0.791   1.934   6.069 -2.6755 -0.9466  1.0573
 7821SOL     OW34921   0.124   0.729  17.052  0.2138  0.2437 -0.1573
 7821SOL    HW134922   0.091   0.683  16.974 -0.3024 -0.3823  0.4257
 7821SOL    HW234923   0.056   0.794  17.064  0.6542  0.9093 -1.2916
 7822SOL     OW34924   4.708   3.034   3.468 -0.3135  0.3685  0.0213
 7822SOL    HW134925   4.652   3.014   3.543 -1.1225  0.8591 -0.4537
 7822SOL    HW234926   0.041   2.957   3.467  0.1208  0.6851  0.8365
 7823SOL     OW34927   4.257   0.202   2.076  0.0507  0.7579 -0.0438
 7823SOL    HW134928   4.260   0.125   2.133  1.8763  0.0042 -1.1667
 7823SOL    HW234929   4.283   0.173   1.988  0.9705 -0.8083  0.7543
 7824SOL     OW34930   3.623   4.426   1.059 -0.6905  0.1465  0.4663
 7824SOL    HW134931   3.622   4.342   1.013  0.3039 -0.0598  0.8382
 7824SOL    HW234932   3.535   4.463   1.048  0.6408  2.8953 -0.8495
 7825SOL     OW34933   3.587   4.724   4.196  0.2161 -0.5352  0.1129
 7825SOL    HW134934   3.618   4.663   4.263  0.8825 -2.2191 -1.7495
 7825SOL    HW234935   3.672   0.022   4.159  2.0997 -0.1781  4.6722
 7826SOL     OW34936   4.237   1.775   4.068  0.6272 -0.2644 -0.0122
 7826SOL    HW134937   4.213   1.713   4.137 -0.2561 -0.2611 -0.3206
 7826SOL    HW234938   4.248   1.718   3.992  2.3857  0.4367 -0.2824
 7827SOL     OW34939   0.648   3.300   9.827 -0.0683 -0.1016 -0.0819
 7827SOL    HW134940   0.684   3.359   9.894 -0.4795  0.8624 -0.7016
 7827SOL    HW234941   0.571   3.347   9.797 -0.8547 -0.3060  1.6317
 7828SOL     OW34942   4.520   3.516   5.558  0.7412  0.3438  0.3524
 7828SOL    HW134943   4.614   3.521   5.543  0.3195 -0.8036 -2.7591
 7828SOL    HW234944   4.517   3.593   5.614 -0.9695  1.1007 -0.7662
 7829SOL     OW34945   3.628   4.716   5.419  0.4243  0.3574  0.8123
 7829SOL    HW134946   3.666   0.007   5.332  0.3257 -0.2176  0.6663
 7829SOL    HW234947   3.627   0.075   5.465 -0.2781  0.1561  1.1563
 7830SOL     OW34948   4.226   0.443  10.472 -0.1725 -0.2869 -0.3134
 7830SOL    HW134949   4.208   0.536  10.464  1.1157  0.1143  1.5882
 7830SOL    HW234950   4.321   0.447  10.466 -0.1985  0.2479 -0.3406
 7831SOL     OW34951   2.025   2.026  15.383 -0.3100  0.5227  0.2860
 7831SOL    HW134952   2.094   2.033  15.449  1.0921  0.0540 -1.1418
 7831SOL    HW234953   2.008   2.120  15.372 -0.9180  0.4434  0.5183
 7832SOL     OW34954   3.676   4.095   7.109 -0.0507  0.0859  0.4373
 7832SOL    HW134955   3.594   4.050   7.086  1.2878 -2.3943  0.5131
 7832SOL    HW234956   3.646   4.156   7.177 -1.0677 -0.8726  0.8652
 7833SOL     OW34957   4.191   1.937   3.654  0.4339  0.2623 -0.1512
 7833SOL    HW134958   4.109   1.935   3.705 -0.1754 -1.1899 -1.2050
 7833SOL    HW234959   4.167   1.982   3.574 -0.6203 -2.1005 -1.1721
 7834SOL     OW34960   4.267   1.395   1.481 -0.3014 -0.0620  0.5859
 7834SOL    HW134961   4.254   1.350   1.398  1.1845 -0.1745  0.4129
 7834SOL    HW234962   4.192   1.373   1.536  0.9992 -1.0300  1.9820
 7835SOL     OW34963   4.706   1.424   6.819  0.0547  0.6393  0.0267
 7835SOL    HW134964   4.707   1.512   6.782  3.9116  0.7203  0.3375
 7835SOL    HW234965   4.688   1.381   6.736  0.7620  1.5712 -0.6018
 7836SOL     OW34966   1.236   3.073   8.941  0.0453 -0.2951 -0.5592
 7836SOL    HW134967   1.237   3.042   9.031  0.0447 -0.4803 -0.6236
 7836SOL    HW234968   1.172   3.144   8.947 -1.0593 -1.4628  1.5102
 7837SOL     OW34969   2.713   3.928   9.816  0.4781 -0.2592  0.1355
 7837SOL    HW134970   2.763   4.002   9.781  1.4912 -0.3238  1.4233
 7837SOL    HW234971   2.773   3.854   9.808  0.2661 -0.3862 -0.2977
 7838SOL     OW34972   1.450   1.636   7.184 -0.2790 -0.2445  0.4589
 7838SOL    HW134973   1.435   1.711   7.242 -1.2316  0.7625 -1.0945
 7838SOL    HW234974   1.360   1.628   7.154 -0.0356  0.8762 -0.5661
 7839SOL     OW34975   2.556   2.386   3.772  0.2236 -0.1139 -0.2270
 7839SOL    HW134976   2.650   2.395   3.758 -0.2711  3.4242 -1.3501
 7839SOL    HW234977   2.554   2.303   3.820  0.1649 -0.1057 -0.2160
 7840SOL     OW34978   3.175   2.521   4.977 -0.0204 -0.3498  0.0613
 7840SOL    HW134979   3.237   2.571   5.031  0.9421  0.5271 -1.8707
 7840SOL    HW234980   3.094   2.557   5.012 -0.6397 -0.0424 -1.6819
 7841SOL     OW34981   3.956   3.790   0.422  0.4014  0.3429 -0.1618
 7841SOL    HW134982   3.861   3.777   0.429  0.0584  3.0219  0.0978
 7841SOL    HW234983   3.962   3.816   0.330  0.2779 -0.6527 -0.4572
 7842SOL     OW34984   2.813   0.367  14.398 -0.3676 -0.4563 -0.3559
 7842SOL    HW134985   2.734   0.398  14.354 -0.9179  1.7144  2.1090
 7842SOL    HW234986   2.883   0.409  14.348  0.1051 -0.6153  0.1709
 7843SOL     OW34987   1.790   3.568   8.896  0.3376 -0.1941 -0.5246
 7843SOL    HW134988   1.780   3.620   8.817 -2.1246  1.0799  0.6205
 7843SOL    HW234989   1.851   3.499   8.872 -1.2179 -1.9265  0.4749
 7844SOL     OW34990   0.586   0.687  11.325 -0.4945  0.2181  0.0185
 7844SOL    HW134991   0.524   0.738  11.377  0.6938  1.4866  0.2070
 7844SOL    HW234992   0.669   0.706  11.369 -1.2062 -1.1722  1.9724
 7845SOL     OW34993   2.696   2.474   4.189  0.5583  0.0572  0.0717
 7845SOL    HW134994   2.783   2.435   4.183  0.5604  0.0285  0.2822
 7845SOL    HW234995   2.644   2.422   4.129 -0.0044  0.4661  0.2037
 7846SOL     OW34996   0.361   0.701  11.990  0.2705  0.1314 -0.3827
 7846SOL    HW134997   0.333   0.614  11.963  1.4396  0.2028 -1.7926
 7846SOL    HW234998   0.346   0.688  12.084 -1.1463  0.9637 -0.5009
 7847SOL     OW34999   0.334   3.210   9.955 -0.4411  0.0555  0.1880
 7847SOL    HW135000   0.368   3.299   9.966  0.8091 -0.4628  0.5522
 7847SOL    HW235001   0.242   3.235   9.956 -1.3368 -3.1207 -1.2341
 7848SOL     OW35002   3.819   1.202   7.396 -0.2335  0.2796 -0.1219
 7848SOL    HW135003   3.795   1.242   7.480 -1.6448 -0.4235 -0.1947
 7848SOL    HW235004   3.814   1.109   7.416 -1.7753 -0.3866 -3.7289
 7849SOL     OW35005   2.283   3.103  11.042  0.4851  0.3080 -0.5860
 7849SOL    HW135006   2.260   3.109  10.949  1.7481  0.5085 -0.8881
 7849SOL    HW235007   2.282   3.009  11.062  2.0698  0.6563  1.1728
 7850SOL     OW35008   3.949   4.200   6.876 -0.0140  0.1038 -0.5519
 7850SOL    HW135009   3.932   4.118   6.922 -1.9648  0.7817 -0.0866
 7850SOL    HW235010   3.866   4.247   6.881  0.8528  1.9806 -3.9026
 7851SOL     OW35011   1.110   3.516  10.436 -0.1823  0.5558 -0.1722
 7851SOL    HW135012   1.184   3.501  10.495 -2.2902  0.9953  2.5578
 7851SOL    HW235013   1.063   3.588  10.476 -0.3393  0.2267  0.2369
 7852SOL     OW35014   0.046   3.953   1.698 -0.0440  0.7154 -0.4191
 7852SOL    HW135015   0.107   3.952   1.624 -0.0385  1.1757 -0.4209
 7852SOL    HW235016   4.697   3.905   1.661  1.2710 -1.2071 -0.5381
 7853SOL     OW35017   1.974   4.105   7.824  0.7576 -0.3105  0.1216
 7853SOL    HW135018   2.048   4.061   7.865  0.8120 -0.4383 -0.1133
 7853SOL    HW235019   2.024   4.165   7.768 -1.1614  1.2574  0.0644
 7854SOL     OW35020   4.089   2.101   1.714  0.1592 -0.5699  0.7890
 7854SOL    HW135021   4.179   2.121   1.687 -0.2081 -0.6833 -0.5554
 7854SOL    HW235022   4.093   2.007   1.726  1.6909 -0.7671 -1.1281
 7855SOL     OW35023   0.100   1.083   0.796  0.2467  0.1561 -0.4413
 7855SOL    HW135024   0.077   0.997   0.832  0.7660 -0.5378 -1.7740
 7855SOL    HW235025   0.187   1.072   0.757  0.5581  0.3056  0.2222
 7856SOL     OW35026   2.454   0.506  13.595 -0.0462  0.6348  0.0748
 7856SOL    HW135027   2.430   0.416  13.618 -1.3822  1.7369  3.0483
 7856SOL    HW235028   2.455   0.502  13.499 -0.3144  4.4265 -0.0860
 7857SOL     OW35029   2.228   0.531  17.084 -0.1600  0.4256 -0.5352
 7857SOL    HW135030   2.282   0.479  17.025  0.4887 -0.2829  0.6874
 7857SOL    HW235031   2.186   0.472  17.146 -0.3632  0.4903 -0.6097
 7858SOL     OW35032   1.875   1.425   6.571  0.1629 -0.6999  0.2707
 7858SOL    HW135033   1.820   1.503   6.557  1.4518  0.0874 -0.3623
 7858SOL    HW235034   1.861   1.386   6.485 -0.7386  1.4955 -0.5950
 7859SOL     OW35035   0.618   3.630   1.553 -0.4742 -0.1013 -0.2353
 7859SOL    HW135036   0.605   3.564   1.485  0.0281  0.5665 -0.9808
 7859SOL    HW235037   0.709   3.660   1.545  0.2868 -1.9211  1.7191
 7860SOL     OW35038   2.147   0.785   2.500  0.4320  0.1997 -0.0787
 7860SOL    HW135039   2.065   0.748   2.467 -0.0269  0.2232  1.0568
 7860SOL    HW235040   2.187   0.806   2.415  0.3872 -2.0541 -0.6406
 7861SOL     OW35041   2.994   3.328  17.106  0.4532  0.0303 -0.2317
 7861SOL    HW135042   3.074   3.341  17.157  1.4147 -2.5005 -1.1377
 7861SOL    HW235043   3.008   3.385  17.031 -0.2694 -3.8152 -3.2758
 7862SOL     OW35044   3.935   4.256   5.100 -1.2772 -0.3168  0.1303
 7862SOL    HW135045   3.935   4.160   5.094 -2.4967 -0.4155  1.6938
 7862SOL    HW235046   3.902   4.286   5.015 -1.7078  0.2441  0.4946
 7863SOL     OW35047   1.260   0.850   5.525 -0.1387  0.0257  0.4168
 7863SOL    HW135048   1.344   0.831   5.569  0.4455  0.3622 -0.5510
 7863SOL    HW235049   1.193   0.843   5.593  1.4731 -2.4168  1.7934
 7864SOL     OW35050   1.793   3.148  14.080 -0.3547  0.3098  0.8102
 7864SOL    HW135051   1.717   3.111  14.124 -0.5078  2.0059  1.9357
 7864SOL    HW235052   1.837   3.065  14.057 -0.0643  0.4033  1.0326
 7865SOL     OW35053   3.230   4.371   3.013  0.1224 -0.3883  0.3917
 7865SOL    HW135054   3.267   4.361   2.926 -1.4393 -2.1449 -0.0666
 7865SOL    HW235055   3.255   4.463   3.025  1.3159 -0.7203  0.4754
 7866SOL     OW35056   3.833   0.813   1.353 -0.3067 -0.0611  0.0105
 7866SOL    HW135057   3.738   0.811   1.341 -0.4217 -0.1988  1.0140
 7866SOL    HW235058   3.856   0.725   1.381  2.4580  0.5218 -0.4143
 7867SOL     OW35059   1.023   1.481   0.993  0.1234 -0.4014  0.3513
 7867SOL    HW135060   0.937   1.515   1.015 -0.3150 -1.3841  0.1499
 7867SOL    HW235061   1.057   1.570   0.979 -1.6001 -0.0329 -1.5384
 7868SOL     OW35062   1.882   1.376   2.818 -0.0534 -0.0457  0.1012
 7868SOL    HW135063   1.954   1.312   2.816 -0.5216 -0.4864 -2.5204
 7868SOL    HW235064   1.807   1.316   2.817 -1.5138  1.8804 -3.6463
 7869SOL     OW35065   1.705   2.739   2.724 -0.1401 -0.0831 -0.1578
 7869SOL    HW135066   1.684   2.654   2.686 -0.0925 -0.8038  1.4075
 7869SOL    HW235067   1.623   2.789   2.727  0.7870  1.5332 -1.8414
 7870SOL     OW35068   3.655   3.575   3.973  0.2075  0.2459 -0.4652
 7870SOL    HW135069   3.665   3.618   4.058  0.0412  2.4619 -1.5663
 7870SOL    HW235070   3.631   3.652   3.921  2.1996 -0.0607 -1.8345
 7871SOL     OW35071   3.447   4.166   8.444  0.2086 -0.0297 -0.2493
 7871SOL    HW135072   3.354   4.167   8.468  0.0201  1.5120 -0.9979
 7871SOL    HW235073   3.474   4.075   8.454 -1.9335 -0.6509 -0.2247
 7872SOL     OW35074   0.157   3.282   2.969 -0.0704 -0.4580  0.0784
 7872SOL    HW135075   0.078   3.271   2.917 -0.1331  2.2074 -0.3877
 7872SOL    HW235076   0.176   3.375   2.981  0.2316 -1.0194  3.6622
 7873SOL     OW35077   3.014   2.437   9.728 -0.1678  0.1426  0.0820
 7873SOL    HW135078   2.942   2.394   9.775 -0.6227  0.3767 -0.4001
 7873SOL    HW235079   3.013   2.525   9.764  1.1390  0.5567 -0.9071
 7874SOL     OW35080   1.689   1.280   5.088  0.0560  0.6682 -0.3325
 7874SOL    HW135081   1.748   1.245   5.021  0.3161 -2.0191  1.2850
 7874SOL    HW235082   1.643   1.344   5.035 -1.9144 -1.3540 -1.0623
 7875SOL     OW35083   3.578   2.155  12.051 -0.0411  0.8095  0.6550
 7875SOL    HW135084   3.649   2.165  11.988 -0.2995 -1.0036  0.0776
 7875SOL    HW235085   3.602   2.230  12.106 -0.4781  2.5382 -1.5210
 7876SOL     OW35086   3.500   1.067   6.949 -0.6464 -0.7788  0.1977
 7876SOL    HW135087   3.431   1.044   6.886  1.9418 -1.1232 -2.5397
 7876SOL    HW235088   3.516   1.157   6.922 -0.3706  0.1539  3.4460
 7877SOL     OW35089   4.473   4.389   6.083 -0.0555  0.2744 -0.2604
 7877SOL    HW135090   4.451   4.410   6.174 -0.1986  0.4280 -0.3305
 7877SOL    HW235091   4.386   4.381   6.045  0.7671 -0.5348 -1.9544
 7878SOL     OW35092   0.613   2.451   2.146  0.3199 -0.3458  0.1851
 7878SOL    HW135093   0.661   2.415   2.221  0.7078  2.1382  1.1268
 7878SOL    HW235094   0.544   2.500   2.189 -0.1333 -0.9353  0.1278
 7879SOL     OW35095   3.310   4.557   2.237  0.1104 -0.5213 -0.6455
 7879SOL    HW135096   3.343   4.629   2.185  2.4467 -0.4785  0.8992
 7879SOL    HW235097   3.346   4.479   2.196 -2.1095 -0.5879 -2.4695
 7880SOL     OW35098   3.258   0.031   8.040 -0.2640 -0.3481  0.6158
 7880SOL    HW135099   3.236   4.705   8.118 -2.1374 -0.8854 -0.2549
 7880SOL    HW235100   3.307   0.105   8.076  0.3674  1.0704 -3.2025
 7881SOL     OW35101   2.793   2.992   6.229  0.7430  0.4425  0.2947
 7881SOL    HW135102   2.878   3.011   6.189  1.6177 -0.2658  1.8383
 7881SOL    HW235103   2.803   2.902   6.260 -1.1583 -0.3313 -1.3319
 7882SOL     OW35104   0.893   1.029   9.843 -0.6368  0.4789 -0.1699
 7882SOL    HW135105   0.914   1.110   9.797  0.9663 -1.1183 -2.2792
 7882SOL    HW235106   0.945   1.045   9.922 -0.3526 -0.5177 -0.1507
 7883SOL     OW35107   4.498   3.488  10.942 -0.4695  0.4442 -0.4536
 7883SOL    HW135108   4.467   3.562  10.995  2.6655  0.6606  1.1231
 7883SOL    HW235109   4.566   3.456  11.002 -0.9580 -0.1072 -0.1932
 7884SOL     OW35110   2.603   4.219  17.498 -0.1738  0.2178 -0.4738
 7884SOL    HW135111   2.664   4.256  17.562 -2.1870  0.2624  1.4396
 7884SOL    HW235112   2.522   4.265  17.524 -0.1920  0.2122 -0.5214
 7885SOL     OW35113   3.921   2.073  14.888  0.4529  0.4652  0.2727
 7885SOL    HW135114   3.826   2.084  14.900  0.4677 -2.3815  3.0678
 7885SOL    HW235115   3.933   1.982  14.916  0.9757  0.9596  1.6860
 7886SOL     OW35116   0.702   0.045  13.081  0.1791 -0.2142 -0.2359
 7886SOL    HW135117   0.696   0.069  12.989 -1.7678  0.5002  0.0739
 7886SOL    HW235118   0.793   0.017  13.090  0.0729 -1.0554 -1.8929
 7887SOL     OW35119   4.022   2.017   3.434 -0.4307  0.1526  0.0080
 7887SOL    HW135120   4.008   1.964   3.356 -3.2675  0.4241  0.3469
 7887SOL    HW235121   3.932   2.015   3.466 -1.7615  0.4594 -3.7088
 7888SOL     OW35122   1.702   1.711   9.754  0.1770  0.7728 -0.1775
 7888SOL    HW135123   1.612   1.726   9.785  1.1448  2.8064  1.7069
 7888SOL    HW235124   1.726   1.804   9.752  0.6659  0.6772  1.1461
 7889SOL     OW35125   2.227   0.546  10.063 -0.3599  0.0012  0.0866
 7889SOL    HW135126   2.250   0.476  10.125 -0.2821  0.4100  0.5180
 7889SOL    HW235127   2.213   0.500   9.980  1.0452 -1.1686  0.4896
 7890SOL     OW35128   2.072   2.912   7.232  0.6612 -0.1993  0.4480
 7890SOL    HW135129   2.119   2.905   7.150  0.6646 -1.3988  0.5499
 7890SOL    HW235130   1.987   2.882   7.201  0.9840  0.3458 -0.9580
 7891SOL     OW35131   3.805   3.637  17.576 -0.1894  0.3218  0.0812
 7891SOL    HW135132   3.785   3.612  17.666  2.4807  1.4462  0.9874
 7891SOL    HW235133   3.753   3.574  17.526  1.2963  0.6863 -1.9596
 7892SOL     OW35134   2.593   3.366   4.333  0.0314 -0.2591  0.0813
 7892SOL    HW135135   2.681   3.368   4.296  0.5589  0.1495  1.3513
 7892SOL    HW235136   2.541   3.342   4.256 -0.6261  2.1853 -0.2452
 7893SOL     OW35137   3.422   2.031   2.082  0.8071  0.4003  0.0965
 7893SOL    HW135138   3.442   1.939   2.062 -0.1627  0.1171  0.4192
 7893SOL    HW235139   3.483   2.034   2.156  0.3351  0.5048  0.4810
 7894SOL     OW35140   0.680   0.566  13.644 -0.1138  0.1896  0.3892
 7894SOL    HW135141   0.665   0.476  13.674  1.3462 -0.4621 -0.8327
 7894SOL    HW235142   0.603   0.608  13.681  0.0686  2.0320 -1.2920
 7895SOL     OW35143   1.166   3.852  16.238  0.3219  0.1398 -0.4390
 7895SOL    HW135144   1.241   3.875  16.293  1.4946  2.3691 -2.9943
 7895SOL    HW235145   1.136   3.938  16.209 -2.8980 -0.8180  0.0034
 7896SOL     OW35146   2.880   0.576  10.715  0.0926  0.0915  0.0324
 7896SOL    HW135147   2.857   0.598  10.805 -1.3714 -0.4183 -0.2118
 7896SOL    HW235148   2.929   0.496  10.736 -0.8924 -0.0264  1.8429
 7897SOL     OW35149   0.102   4.704  14.826 -0.1494  0.3147  0.1908
 7897SOL    HW135150   0.087   4.626  14.880  0.8886 -0.3198 -0.4312
 7897SOL    HW235151   0.144   4.676  14.744 -1.4745  0.8981 -0.6864
 7898SOL     OW35152   3.660   0.250   9.962 -0.1304 -1.3271 -0.1079
 7898SOL    HW135153   3.722   0.299   9.908  1.1518 -1.2619  1.4272
 7898SOL    HW235154   3.721   0.239  10.035  1.2144  1.5648 -0.8049
 7899SOL     OW35155   3.832   2.065   6.931  0.0313 -0.5430 -0.1350
 7899SOL    HW135156   3.860   1.993   6.988 -0.2916  0.0511  0.7705
 7899SOL    HW235157   3.892   2.053   6.858  0.3344  1.2272 -0.1802
 7900SOL     OW35158   0.140   1.187   1.860  0.5658 -0.4223 -0.3962
 7900SOL    HW135159   0.066   1.137   1.895 -0.3219  1.1463 -0.0183
 7900SOL    HW235160   0.211   1.140   1.903  0.7709  0.8897  0.6707
 7901SOL     OW35161   2.781   3.262   5.979 -0.1607 -0.1053 -0.2225
 7901SOL    HW135162   2.717   3.328   5.951  0.2015  0.5377  0.4793
 7901SOL    HW235163   2.757   3.233   6.067 -0.9673  1.8796  0.2134
 7902SOL     OW35164   1.568   3.167   6.386  0.3060 -0.0590  0.7310
 7902SOL    HW135165   1.488   3.187   6.337 -0.1067 -1.3691  0.8928
 7902SOL    HW235166   1.526   3.128   6.463 -1.5422 -1.3717 -0.9513
 7903SOL     OW35167   4.479   3.889  11.798 -0.3877 -0.1595 -0.0452
 7903SOL    HW135168   4.494   3.807  11.751 -2.8660 -1.3012  1.1430
 7903SOL    HW235169   4.389   3.876  11.829 -0.9296  1.4641 -0.9408
 7904SOL     OW35170   1.375   4.142   5.125 -0.4134  0.8563 -0.2487
 7904SOL    HW135171   1.321   4.221   5.134  0.4577  1.0981  2.9380
 7904SOL    HW235172   1.310   4.073   5.135  1.9439 -1.5703 -1.5593
 7905SOL     OW35173   3.450   4.381  15.961  0.0836  0.0167  0.1574
 7905SOL    HW135174   3.499   4.371  15.880  2.1340 -0.3763  1.4652
 7905SOL    HW235175   3.428   4.475  15.961  0.9364  0.2191 -1.4618
 7906SOL     OW35176   0.693   3.857   3.692  0.0107 -0.7276 -0.4658
 7906SOL    HW135177   0.707   3.784   3.752  1.1093  0.0998  0.3118
 7906SOL    HW235178   0.705   3.811   3.610 -0.3945 -0.2693 -0.7825
 7907SOL     OW35179   3.898   2.315  10.916 -0.2929  0.0424 -0.0099
 7907SOL    HW135180   3.865   2.227  10.896  0.4427 -0.5028  1.1512
 7907SOL    HW235181   3.814   2.359  10.909 -0.6470 -0.2426  2.2897
 7908SOL     OW35182   3.408   0.749   6.157  0.0822 -0.8227 -0.1188
 7908SOL    HW135183   3.407   0.736   6.251 -0.8614  0.6380  0.0819
 7908SOL    HW235184   3.439   0.838   6.138  0.8040 -0.8363  1.0031
 7909SOL     OW35185   2.997   1.404   5.562  0.6179 -0.3338 -0.0238
 7909SOL    HW135186   2.916   1.395   5.512  0.9236 -1.3563 -0.3483
 7909SOL    HW235187   3.063   1.420   5.494 -0.6446  0.8740 -0.9375
 7910SOL     OW35188   3.767   1.426   6.530 -0.2641  0.6124  0.0921
 7910SOL    HW135189   3.689   1.371   6.536  1.0339 -1.0739  1.5891
 7910SOL    HW235190   3.801   1.409   6.442  2.5767 -2.3242  1.7615
 7911SOL     OW35191   3.436   1.529  15.035 -0.2849 -0.0481 -0.9414
 7911SOL    HW135192   3.472   1.508  14.949  0.5881  1.0884 -0.8529
 7911SOL    HW235193   3.364   1.592  15.027 -1.7847 -1.6244  0.1394
 7912SOL     OW35194   1.817   2.396   2.801 -0.4034  0.4320 -0.5724
 7912SOL    HW135195   1.854   2.425   2.885  0.5985 -0.4151 -0.7209
 7912SOL    HW235196   1.722   2.404   2.808 -0.4282 -1.7588  1.4403
 7913SOL     OW35197   4.161   2.446   1.531  0.2617 -0.1511  0.0240
 7913SOL    HW135198   4.096   2.450   1.601  0.4552 -0.6180  0.2308
 7913SOL    HW235199   4.182   2.354   1.545  0.6755  0.2669  2.1240
 7914SOL     OW35200   2.550   0.475   0.069 -0.2020  0.6663 -0.4606
 7914SOL    HW135201   2.612   0.412   0.032  0.3631  1.8355 -1.4664
 7914SOL    HW235202   2.619   0.532   0.102 -0.3258 -0.1799  1.2940
 7915SOL     OW35203   4.578   1.667   3.488  0.5206  0.1240 -0.1549
 7915SOL    HW135204   4.577   1.597   3.424 -0.9356  0.0341 -0.0275
 7915SOL    HW235205   4.494   1.708   3.465  2.1048  2.5649 -1.6053
 7916SOL     OW35206   3.457   4.393   9.958 -0.1345 -0.1791 -0.6529
 7916SOL    HW135207   3.450   4.315  10.013 -0.4761 -1.3599 -2.3697
 7916SOL    HW235208   3.546   4.379   9.925 -0.6204  0.0175 -2.0730
 7917SOL     OW35209   3.061   1.063   0.179 -0.6481 -0.4120  0.2945
 7917SOL    HW135210   3.129   1.091   0.239  0.8385 -0.8754 -1.1669
 7917SOL    HW235211   3.109   1.070   0.096 -0.2778 -0.4123  0.5103
 7918SOL     OW35212   1.323   3.326   6.228  0.2866  0.3007 -0.1019
 7918SOL    HW135213   1.405   3.306   6.185  0.8068 -0.4167  1.2086
 7918SOL    HW235214   1.329   3.419   6.251  5.5786 -0.2334  0.4814
 7919SOL     OW35215   2.711   3.686   2.660 -0.5791  0.1083  0.2443
 7919SOL    HW135216   2.751   3.733   2.733  0.2581 -0.4346  0.1453
 7919SOL    HW235217   2.741   3.744   2.590  0.5720 -1.6988 -0.7703
 7920SOL     OW35218   2.458   2.969   8.933 -0.0169 -0.3426 -0.8878
 7920SOL    HW135219   2.529   2.910   8.908  0.3037 -0.2643 -0.1552
 7920SOL    HW235220   2.411   2.924   9.003  0.8550  0.0453 -0.0620
 7921SOL     OW35221   3.235   1.863  17.654 -0.5405  0.3791  0.1766
 7921SOL    HW135222   3.144   1.892  17.660 -0.0584  1.9634  0.0385
 7921SOL    HW235223   3.223   1.806  17.578 -1.2003  0.6550  0.0771
 7922SOL     OW35224   3.501   2.365   3.418 -0.0797 -0.1570 -0.3933
 7922SOL    HW135225   3.487   2.459   3.433 -0.1368 -0.3631  0.8422
 7922SOL    HW235226   3.410   2.341   3.404 -0.0051  0.7167 -2.4512
 7923SOL     OW35227   3.925   2.594   6.770  0.0816  0.4215 -0.2228
 7923SOL    HW135228   3.981   2.593   6.848  0.5867 -0.0305 -0.5949
 7923SOL    HW235229   3.938   2.678   6.726  1.2727 -0.1171 -0.8928
 7924SOL     OW35230   4.350   0.627  14.859  0.2990  0.9058  0.0806
 7924SOL    HW135231   4.402   0.673  14.926  1.5170 -0.3891  0.0150
 7924SOL    HW235232   4.260   0.630  14.890  0.2284  0.6301 -0.1037
 7925SOL     OW35233   4.155   3.075   4.045 -0.2186 -0.1047 -0.1263
 7925SOL    HW135234   4.063   3.057   4.059 -0.7839  2.0291 -1.0021
 7925SOL    HW235235   4.171   3.135   4.118  1.9664 -1.9982  0.9380
 7926SOL     OW35236   2.878   2.753   2.973  0.0407  0.6600 -0.2248
 7926SOL    HW135237   2.794   2.719   2.939 -0.6105  1.7158  0.3525
 7926SOL    HW235238   2.858   2.841   3.004  0.3049  1.3368 -1.9635
 7927SOL     OW35239   2.370   4.043   5.506  0.2002 -0.1108 -0.1045
 7927SOL    HW135240   2.412   4.020   5.589  1.4748  0.3487 -0.6168
 7927SOL    HW235241   2.430   4.114   5.483 -1.7054  1.4944 -0.0331
 7928SOL     OW35242   1.248   3.426   7.905  0.7068 -0.0305  0.0008
 7928SOL    HW135243   1.261   3.478   7.984 -0.5910 -1.2992  1.0419
 7928SOL    HW235244   1.202   3.489   7.849  1.2742  1.4990  1.2570
 7929SOL     OW35245   4.539   1.830  11.395 -0.1151  0.2760  0.1906
 7929SOL    HW135246   4.633   1.843  11.409  0.1955  0.7327 -2.3893
 7929SOL    HW235247   4.535   1.866  11.307  0.2197  2.8642  1.2417
 7930SOL     OW35248   3.443   1.843   7.552  0.5059  0.7259  0.4008
 7930SOL    HW135249   3.367   1.865   7.497 -0.2255  2.9929  2.3193
 7930SOL    HW235250   3.412   1.797   7.630  0.4496  0.2568  0.1005
 7931SOL     OW35251   0.706   2.059  13.105 -0.4181 -0.5411  0.1070
 7931SOL    HW135252   0.734   1.991  13.166  0.7862 -2.1131 -2.2317
 7931SOL    HW235253   0.682   2.126  13.170  0.0922 -0.7040  0.4580
 7932SOL     OW35254   1.804   3.141   1.941  0.4248 -0.2640  0.0708
 7932SOL    HW135255   1.850   3.190   1.873  1.8078 -2.1894 -0.3747
 7932SOL    HW235256   1.803   3.063   1.886  0.6734 -0.3848  0.2406
 7933SOL     OW35257   0.803   2.861   9.409 -0.1501  0.5739  0.6160
 7933SOL    HW135258   0.758   2.832   9.488 -1.2712 -0.1098 -0.2765
 7933SOL    HW235259   0.742   2.920   9.365 -0.6744 -0.0673  0.4945
 7934SOL     OW35260   3.672   3.759  15.307  0.0222  0.3580  0.1384
 7934SOL    HW135261   3.652   3.842  15.264 -0.9360 -0.0883 -0.2821
 7934SOL    HW235262   3.748   3.724  15.260  1.7818  3.3831  0.6969
 7935SOL     OW35263   1.911   2.784   1.783 -0.1148  0.5265  0.5716
 7935SOL    HW135264   1.922   2.765   1.690 -1.0809 -0.6701  0.7163
 7935SOL    HW235265   1.994   2.752   1.820  0.4560  0.0165 -1.1877
 7936SOL     OW35266   1.795   2.754   6.621 -0.2764 -0.1182 -0.0540
 7936SOL    HW135267   1.773   2.762   6.714  1.6161 -2.1940  0.5819
 7936SOL    HW235268   1.791   2.846   6.596 -2.0703 -0.7170 -2.0240
 7937SOL     OW35269   3.007   2.608   5.800 -0.2910 -0.0942  0.0829
 7937SOL    HW135270   2.952   2.567   5.734 -0.8410 -0.5155  0.8004
 7937SOL    HW235271   2.970   2.695   5.818  0.5765  1.2329 -4.5853
 7938SOL     OW35272   0.789   3.740   1.826 -0.2466 -0.0137 -0.2538
 7938SOL    HW135273   0.818   3.766   1.914 -0.2258 -0.6095 -0.0864
 7938SOL    HW235274   0.785   3.645   1.833 -1.2942  0.1072  0.8532
 7939SOL     OW35275   2.367   3.202   8.013  0.1213 -0.3140  0.1857
 7939SOL    HW135276   2.321   3.177   8.093  2.4466 -0.2037  1.5613
 7939SOL    HW235277   2.432   3.261   8.051 -0.6335  0.7116 -0.1071
 7940SOL     OW35278   0.921   1.718  13.142  0.7945  0.2266  0.1746
 7940SOL    HW135279   0.869   1.656  13.091  0.6198  0.8622 -0.4206
 7940SOL    HW235280   0.855   1.785  13.158 -0.3055 -0.5401 -1.2267
 7941SOL     OW35281   3.801   0.018   5.878  0.0255 -0.0718  0.1691
 7941SOL    HW135282   3.866   4.694   5.929  1.2243  0.7911 -0.5293
 7941SOL    HW235283   3.722   4.691   5.894 -0.1605 -0.3440 -1.6512
 7942SOL     OW35284   3.812   1.655  17.016  0.1555  0.7038  0.3350
 7942SOL    HW135285   3.725   1.618  17.004  1.6503 -3.0745  1.0797
 7942SOL    HW235286   3.823   1.696  16.930 -1.5066  2.3961  0.9211
 7943SOL     OW35287   2.871   0.436   0.393  0.2245 -0.3393  0.2577
 7943SOL    HW135288   2.789   0.429   0.442  0.9881 -0.8754  1.4665
 7943SOL    HW235289   2.863   0.351   0.349  0.2759 -0.8156  1.1745
 7944SOL     OW35290   3.503   3.894  16.024 -0.7474 -0.2057  0.4559
 7944SOL    HW135291   3.433   3.875  15.962 -0.1477 -1.3064  0.1293
 7944SOL    HW235292   3.469   3.941  16.100 -0.2618  1.1690 -0.1808
 7945SOL     OW35293   2.771   2.351  13.904  0.5024  0.3701  0.7401
 7945SOL    HW135294   2.811   2.373  13.821 -1.0271 -1.4193 -0.4820
 7945SOL    HW235295   2.679   2.372  13.886  0.4131 -2.5696 -2.2108
 7946SOL     OW35296   3.580   2.981   7.367 -0.2508 -0.2785 -0.0205
 7946SOL    HW135297   3.486   3.002   7.366 -0.2214 -0.1050  0.4420
 7946SOL    HW235298   3.600   2.987   7.461  0.5139  0.9822 -0.2685
 7947SOL     OW35299   1.402   2.429   6.155 -0.4643  0.3628  0.4523
 7947SOL    HW135300   1.374   2.337   6.155  0.5312  0.0462 -2.3203
 7947SOL    HW235301   1.314   2.464   6.168 -0.1628  1.5404 -0.6671
 7948SOL     OW35302   0.505   3.360   8.023  0.5638  0.0417 -0.2279
 7948SOL    HW135303   0.520   3.363   8.117  2.5559 -0.2995 -0.5485
 7948SOL    HW235304   0.422   3.408   8.025 -0.1149 -1.2184  1.7594
 7949SOL     OW35305   0.655   2.130   3.177  0.1838  0.1619  0.0245
 7949SOL    HW135306   0.568   2.171   3.178  0.2194  0.2702 -1.0207
 7949SOL    HW235307   0.707   2.210   3.168  0.2365  0.0798 -0.3950
 7950SOL     OW35308   0.476   0.463   6.978 -0.6117  0.1003 -0.3626
 7950SOL    HW135309   0.448   0.491   6.891  0.9154 -0.2000 -0.9492
 7950SOL    HW235310   0.495   0.543   7.027  1.4671 -0.3498 -0.4631
 7951SOL     OW35311   3.625   2.832   6.775  0.4601  0.5058  0.3761
 7951SOL    HW135312   3.584   2.805   6.857  0.0747 -0.2839 -0.0835
 7951SOL    HW235313   3.591   2.770   6.711 -1.6068  1.6335  0.3681
 7952SOL     OW35314   1.694   0.951   3.039 -0.1080 -0.0752 -0.0973
 7952SOL    HW135315   1.782   0.916   3.053 -0.3519  0.0486  1.8473
 7952SOL    HW235316   1.659   0.930   3.126 -1.5128 -0.9042 -0.8640
 7953SOL     OW35317   3.944   2.134   8.367 -0.0754  0.3694  0.8710
 7953SOL    HW135318   3.963   2.218   8.326  0.6320 -1.7401 -3.1209
 7953SOL    HW235319   3.928   2.160   8.458 -0.7164  0.0443  0.8495
 7954SOL     OW35320   0.976   1.314   7.099 -0.0318 -0.5670 -0.3499
 7954SOL    HW135321   0.978   1.221   7.078 -1.0997 -0.0783 -2.5973
 7954SOL    HW235322   0.979   1.314   7.195  2.0801  1.4592 -0.4056
 7955SOL     OW35323   0.497   0.075   5.692  0.2721 -0.3144  0.5523
 7955SOL    HW135324   0.491   0.053   5.600  2.4438  1.6693 -0.0705
 7955SOL    HW235325   0.585   0.113   5.693  0.3899 -0.5315 -2.5333
 7956SOL     OW35326   2.634   0.932   6.286  0.0181 -0.3064 -0.5007
 7956SOL    HW135327   2.576   0.888   6.224  0.9196 -1.5612 -0.4663
 7956SOL    HW235328   2.580   0.930   6.364 -0.6681  0.3062 -0.9619
 7957SOL     OW35329   4.484   0.859   4.002  0.2988  0.1391 -0.0660
 7957SOL    HW135330   4.507   0.921   3.933  2.0503 -0.7279 -0.2737
 7957SOL    HW235331   4.533   0.893   4.077  1.0024 -1.3950  0.1834
 7958SOL     OW35332   1.143   3.842   2.550  0.2648  0.6185  0.0869
 7958SOL    HW135333   1.147   3.837   2.646  0.2169 -1.9955 -0.0228
 7958SOL    HW235334   1.079   3.912   2.546 -1.4197 -0.8925  0.8172
 7959SOL     OW35335   3.177   0.424  11.254  0.3473  0.3933 -0.9581
 7959SOL    HW135336   3.263   0.385  11.267  0.6620  0.8385 -1.7173
 7959SOL    HW235337   3.156   0.433  11.347  2.6466  1.3312 -0.5366
 7960SOL     OW35338   1.055   4.353   4.997 -0.3764 -0.3979  0.8748
 7960SOL    HW135339   1.095   4.415   5.058 -0.2283 -1.8709  2.2851
 7960SOL    HW235340   0.965   4.384   4.991  1.0677  3.2539 -1.4303
 7961SOL     OW35341   0.526   1.923   1.135 -0.1428  0.3712 -0.0173
 7961SOL    HW135342   0.455   1.979   1.167 -2.6585 -2.9473  0.2632
 7961SOL    HW235343   0.593   1.991   1.136 -0.5015  0.7232  0.2237
 7962SOL     OW35344   2.015   2.093  11.821  0.8095 -0.4200 -0.0975
 7962SOL    HW135345   2.089   2.120  11.767  1.0457 -3.4377 -1.2794
 7962SOL    HW235346   1.951   2.097  11.749 -0.0551 -0.5761  0.6656
 7963SOL     OW35347   3.658   4.037  10.014  0.2033  0.2558 -0.0629
 7963SOL    HW135348   3.570   4.015  10.045  0.9344  0.8215  2.4064
 7963SOL    HW235349   3.661   3.973   9.943  0.3054 -0.0836  0.2469
 7964SOL     OW35350   0.564   3.427   1.369  0.2044  0.0815  0.2415
 7964SOL    HW135351   0.561   3.333   1.387 -0.4667 -0.0510 -0.5587
 7964SOL    HW235352   0.613   3.423   1.287  3.1821  3.5538  1.8706
 7965SOL     OW35353   0.348   1.652   9.361 -0.3266 -0.1968  0.5382
 7965SOL    HW135354   0.320   1.739   9.387  0.1375 -0.0512  0.5544
 7965SOL    HW235355   0.439   1.676   9.342 -0.5997 -1.6262 -2.6589
 7966SOL     OW35356   2.447   4.721   7.318  1.0444 -0.5103 -0.2306
 7966SOL    HW135357   2.518   4.715   7.382 -0.4011 -1.3110  1.3045
 7966SOL    HW235358   2.499   4.686   7.246 -0.7001 -0.4349 -1.5122
 7967SOL     OW35359   3.776   1.858   5.523 -0.2962 -0.5446 -0.1159
 7967SOL    HW135360   3.682   1.841   5.522 -0.6700  1.4803  0.3139
 7967SOL    HW235361   3.814   1.803   5.455 -1.8856 -2.3080  0.4379
 7968SOL     OW35362   4.531   4.006  12.888 -0.1371  0.5438  0.0454
 7968SOL    HW135363   4.607   3.985  12.833  0.0064  0.3152  0.3342
 7968SOL    HW235364   4.539   4.101  12.897  1.0307  0.3788  0.6928
 7969SOL     OW35365   0.416   1.819   1.870 -0.1036  0.0282 -0.4769
 7969SOL    HW135366   0.508   1.844   1.869  0.1833 -0.9734  0.6363
 7969SOL    HW235367   0.400   1.852   1.959 -1.3270 -2.0529  0.0663
 7970SOL     OW35368   2.713   4.531  13.482 -0.4429 -0.3362  0.6893
 7970SOL    HW135369   2.652   4.482  13.538  0.2428  1.2158  2.8338
 7970SOL    HW235370   2.753   4.581  13.554 -3.0653  0.7916  1.3851
 7971SOL     OW35371   2.387   0.862   7.565 -0.1301 -0.9608  0.4133
 7971SOL    HW135372   2.458   0.917   7.532 -0.6647 -0.8243 -0.5078
 7971SOL    HW235373   2.427   0.813   7.636 -0.1897 -1.0383  0.3935
 7972SOL     OW35374   3.580   0.401   5.425  0.3217  0.1036 -0.3726
 7972SOL    HW135375   3.526   0.327   5.451  0.4120 -0.4177 -1.6871
 7972SOL    HW235376   3.659   0.353   5.401  0.2959 -1.2724  2.2895
 7973SOL     OW35377   4.143   3.752  12.224 -0.2285  0.0010  0.2061
 7973SOL    HW135378   4.067   3.770  12.168 -0.0235 -1.4356 -0.5392
 7973SOL    HW235379   4.174   3.843  12.229 -0.2275  0.0319 -0.2963
 7974SOL     OW35380   2.280   1.892   1.683  0.3811  0.1180 -0.3153
 7974SOL    HW135381   2.188   1.916   1.695 -0.3155 -1.3930 -2.6520
 7974SOL    HW235382   2.319   1.963   1.734  0.2113 -1.1566  1.5707
 7975SOL     OW35383   4.666   0.929   3.593 -0.3492  0.7192 -0.2315
 7975SOL    HW135384   4.657   0.835   3.575  1.3137  0.6393 -0.6502
 7975SOL    HW235385   0.013   0.948   3.533 -0.3948 -0.1819 -0.5770
 7976SOL     OW35386   1.244   1.446   5.750 -0.3791  0.5011  0.0998
 7976SOL    HW135387   1.287   1.377   5.699  0.8456  0.4079  1.2296
 7976SOL    HW235388   1.179   1.483   5.690 -0.7075 -1.0336 -0.4841
 7977SOL     OW35389   0.588   2.311   3.405 -0.4113 -0.4818 -0.5833
 7977SOL    HW135390   0.670   2.315   3.454 -0.7642 -0.5613  0.0191
 7977SOL    HW235391   0.536   2.270   3.475 -0.4002  0.0169 -0.2846
 7978SOL     OW35392   1.022   3.639   8.840  0.2900 -0.7132  0.1652
 7978SOL    HW135393   1.035   3.682   8.924 -0.2507  0.1672 -0.2032
 7978SOL    HW235394   1.110   3.604   8.829  0.5434 -0.3720  1.2075
 7979SOL     OW35395   3.562   4.611   6.116  0.3229  0.4101 -0.2670
 7979SOL    HW135396   3.647   4.573   6.140  1.5819  3.1451 -0.4569
 7979SOL    HW235397   3.524   4.618   6.203  0.3771  1.6001 -0.3460
 7980SOL     OW35398   1.789   2.166   4.538  0.0195 -0.1265  0.2561
 7980SOL    HW135399   1.767   2.126   4.453  0.3090 -0.4585  0.3379
 7980SOL    HW235400   1.703   2.187   4.574  1.0274  1.5678  1.6556
 7981SOL     OW35401   0.001   2.839   5.726  0.3273  0.0378  0.7740
 7981SOL    HW135402   4.682   2.923   5.728 -0.6609 -0.4669 -0.2050
 7981SOL    HW235403   0.012   2.823   5.820  0.6534 -1.3086  0.5054
 7982SOL     OW35404   4.032   3.025   7.268 -0.0017  0.0658 -0.0041
 7982SOL    HW135405   4.127   3.014   7.265  0.1457  0.5675  2.6578
 7982SOL    HW235406   4.018   3.078   7.347  0.3160  0.5038 -0.2414
 7983SOL     OW35407   4.580   3.576  13.920  0.0262 -0.3139 -0.1912
 7983SOL    HW135408   4.516   3.629  13.871  0.1115 -1.2756 -1.3557
 7983SOL    HW235409   4.659   3.627  13.903 -0.6156  0.8410  0.3048
 7984SOL     OW35410   0.595   0.498   3.908  0.4320  0.0842 -0.1033
 7984SOL    HW135411   0.591   0.592   3.923 -2.7230 -0.1452  0.6057
 7984SOL    HW235412   0.677   0.471   3.951  0.6208 -0.2482 -0.6729
 7985SOL     OW35413   3.213   0.614   2.217 -0.5209 -0.2556 -0.4525
 7985SOL    HW135414   3.299   0.593   2.255  0.5360  2.5832 -1.2441
 7985SOL    HW235415   3.173   0.527   2.218  0.5194 -0.7249  0.0753
 7986SOL     OW35416   0.815   1.387   5.193 -0.4631  0.7303 -0.7573
 7986SOL    HW135417   0.879   1.428   5.135  0.0876  0.5527 -0.2633
 7986SOL    HW235418   0.825   1.443   5.269 -0.5737 -0.4284  0.1106
 7987SOL     OW35419   3.956   1.286   8.113 -0.3097 -0.4198 -0.0775
 7987SOL    HW135420   4.021   1.229   8.154  0.9085  0.6596 -0.5010
 7987SOL    HW235421   3.893   1.218   8.090  0.6498 -1.1280 -0.5905
 7988SOL     OW35422   3.411   3.242   4.708  0.0408  0.4648  0.0311
 7988SOL    HW135423   3.374   3.154   4.713  2.7853 -0.7257 -0.8037
 7988SOL    HW235424   3.436   3.251   4.616  0.3474  1.6579  0.2238
 7989SOL     OW35425   0.045   0.696   5.537 -0.4493  0.1865 -0.2217
 7989SOL    HW135426   0.133   0.691   5.573 -0.6547  0.9816  0.3980
 7989SOL    HW235427   0.067   0.654   5.454 -1.1400  1.3974 -1.0156
 7990SOL     OW35428   0.221   4.262   1.731  0.2726  0.2705 -0.0178
 7990SOL    HW135429   0.272   4.181   1.727  0.0751  0.2188 -1.3949
 7990SOL    HW235430   0.271   4.309   1.664  1.5031  1.4018  1.6685
 7991SOL     OW35431   0.559   4.632   1.937 -0.7702  0.3270  0.2346
 7991SOL    HW135432   0.554   4.666   2.026  1.8200  0.0666  0.4559
 7991SOL    HW235433   0.468   4.607   1.920 -0.1499 -1.7928  0.0363
 7992SOL     OW35434   4.249   0.283   9.882  0.3345 -0.2201  0.0435
 7992SOL    HW135435   4.314   0.306   9.948  0.2888  0.5108 -0.1685
 7992SOL    HW235436   4.277   0.333   9.805 -0.3572 -0.1732 -0.1815
 7993SOL     OW35437   3.752   2.526   0.654  0.1499  0.3235 -0.0975
 7993SOL    HW135438   3.674   2.573   0.625 -1.7903 -0.1162  4.3727
 7993SOL    HW235439   3.738   2.510   0.748  0.0824  0.1364 -0.1401
 7994SOL     OW35440   2.796   4.534   4.786 -0.1366  0.1360  0.4949
 7994SOL    HW135441   2.753   4.567   4.865  1.3579  3.7176 -0.1621
 7994SOL    HW235442   2.735   4.464   4.762  2.3906 -1.4129 -1.3818
 7995SOL     OW35443   1.291   3.421   6.942  0.0510  0.6770 -0.2923
 7995SOL    HW135444   1.198   3.421   6.967  0.2175  1.4621  0.3374
 7995SOL    HW235445   1.334   3.391   7.022 -1.5494  1.0781  0.7465
 7996SOL     OW35446   2.596   1.868   5.140  0.2604  0.4212 -0.1561
 7996SOL    HW135447   2.680   1.908   5.161  0.2280 -0.4944  1.7744
 7996SOL    HW235448   2.550   1.876   5.224  1.7484 -0.6640  0.7733
 7997SOL     OW35449   1.380   4.576   7.083 -0.5719 -0.8072 -0.3554
 7997SOL    HW135450   1.461   4.558   7.130 -1.6235  0.7809  2.0640
 7997SOL    HW235451   1.324   4.532   7.146 -2.5089  0.1591 -1.3969
 7998SOL     OW35452   0.179   3.632   1.183 -0.3013 -0.2721  0.7060
 7998SOL    HW135453   0.236   3.602   1.254  1.3536  0.3395 -0.3589
 7998SOL    HW235454   0.213   3.565   1.124  0.1900  2.2119 -1.8456
 7999SOL     OW35455   2.312   2.124   4.530 -0.6647 -0.3303 -0.0997
 7999SOL    HW135456   2.384   2.120   4.467  0.7507  0.0201  1.4979
 7999SOL    HW235457   2.351   2.181   4.595  0.8625  0.9583 -2.1485
 8000SOL     OW35458   2.999   2.344   6.887 -1.0247  0.1403 -0.0284
 8000SOL    HW135459   3.078   2.381   6.846 -0.9864  2.6914  2.3630
 8000SOL    HW235460   2.933   2.391   6.837 -2.4889 -0.0212  1.7755
 8001SOL     OW35461   0.153   0.437   8.515 -0.7928  0.0915 -0.1609
 8001SOL    HW135462   0.145   0.443   8.419 -0.4578  0.8234 -0.1444
 8001SOL    HW235463   0.103   0.357   8.530 -1.2249  0.1761 -1.1443
 8002SOL     OW35464   4.436   1.681   9.253  0.0257 -0.4182 -0.1158
 8002SOL    HW135465   4.488   1.761   9.243 -0.8322  0.0393 -0.9625
 8002SOL    HW235466   4.380   1.712   9.324  1.6432 -0.6606  1.2668
 8003SOL     OW35467   0.477   0.835   2.540  0.2996 -0.2397  0.3691
 8003SOL    HW135468   0.403   0.825   2.480  1.7608 -0.2855 -1.4242
 8003SOL    HW235469   0.526   0.755   2.519  3.1565  1.2951  1.2304
 8004SOL     OW35470   0.478   2.927   6.288  0.1271 -0.0718 -0.3806
 8004SOL    HW135471   0.385   2.916   6.268 -0.3123  2.0118  0.5391
 8004SOL    HW235472   0.479   2.909   6.382  1.6009 -1.1545 -0.6051
 8005SOL     OW35473   0.222   1.945  16.648 -0.6407 -0.2390  0.1823
 8005SOL    HW135474   0.176   2.025  16.673 -0.4634  0.0704 -0.4768
 8005SOL    HW235475   0.313   1.975  16.645 -0.8813  0.2553 -2.1207
 8006SOL     OW35476   1.232   3.343   4.494 -0.2844  0.4363  0.4224
 8006SOL    HW135477   1.197   3.264   4.537  0.9295 -1.2664 -1.7415
 8006SOL    HW235478   1.324   3.340   4.520 -0.2739 -0.2364  0.3205
 8007SOL     OW35479   3.438   1.562  15.292  0.2030 -0.0924 -0.0281
 8007SOL    HW135480   3.449   1.533  15.202  0.3981 -1.9959  0.6126
 8007SOL    HW235481   3.469   1.652  15.287 -1.8527  0.5813 -0.9136
 8008SOL     OW35482   0.638   3.260   7.749 -0.2317 -0.7033  0.0647
 8008SOL    HW135483   0.604   3.173   7.767 -0.2420 -0.8868 -0.8328
 8008SOL    HW235484   0.572   3.309   7.797  0.5368  0.6243 -0.2000
 8009SOL     OW35485   1.843   0.617   8.311  0.3361  0.2262 -0.3189
 8009SOL    HW135486   1.859   0.665   8.230  0.3005  0.1714 -0.3588
 8009SOL    HW235487   1.818   0.530   8.279 -0.6302 -0.0917  1.3289
 8010SOL     OW35488   4.422   0.625   6.535 -0.3911 -0.5877  0.3191
 8010SOL    HW135489   4.408   0.594   6.446  2.0682 -1.9627  0.4019
 8010SOL    HW235490   4.332   0.631   6.567 -0.1871 -1.7364  1.1128
 8011SOL     OW35491   0.305   3.886   8.857  0.4575  0.7633 -0.0397
 8011SOL    HW135492   0.238   3.940   8.815 -0.9739  0.2865  1.6335
 8011SOL    HW235493   0.364   3.958   8.878  2.0516 -0.2065 -1.2112
 8012SOL     OW35494   0.390   1.512   6.801 -0.3474  0.5249 -0.3469
 8012SOL    HW135495   0.444   1.489   6.877  0.1928 -0.6538 -1.0960
 8012SOL    HW235496   0.344   1.582   6.847  1.7254 -0.8391  3.7925
 8013SOL     OW35497   3.283   3.870   4.056 -0.3718  0.3866  0.0723
 8013SOL    HW135498   3.268   3.808   3.985  1.5450 -1.4000  1.2323
 8013SOL    HW235499   3.246   3.949   4.015  0.0614  1.0138  0.8894
 8014SOL     OW35500   3.754   0.824   5.806 -0.6272 -0.3199 -1.1483
 8014SOL    HW135501   3.840   0.826   5.848 -0.8073 -1.5652 -0.7150
 8014SOL    HW235502   3.754   0.735   5.771 -3.4742  0.5699 -3.3798
 8015SOL     OW35503   1.811   2.351   4.842  0.8592  0.1309  0.0702
 8015SOL    HW135504   1.770   2.282   4.895  0.4554  0.3567  0.0474
 8015SOL    HW235505   1.887   2.306   4.804  1.6570  0.5526  1.1846
 8016SOL     OW35506   1.929   3.856   8.903  0.4958 -0.2858  0.1017
 8016SOL    HW135507   2.018   3.891   8.911  0.6247 -0.5444 -0.1674
 8016SOL    HW235508   1.929   3.848   8.807  0.5674  1.5212 -0.0446
 8017SOL     OW35509   1.997   0.840   9.797  0.1064 -0.1227 -0.1467
 8017SOL    HW135510   1.972   0.868   9.709 -2.6825  1.3111  1.1117
 8017SOL    HW235511   1.916   0.868   9.840  1.1220  0.6189  1.2752
 8018SOL     OW35512   3.632   2.909   7.972  0.3206 -0.6450  0.4322
 8018SOL    HW135513   3.574   2.834   7.957 -0.6232  0.1439  0.1659
 8018SOL    HW235514   3.591   2.968   8.035  1.9216  0.8851  0.0206
 8019SOL     OW35515   1.831   3.300   6.237 -0.0884  0.0034 -0.9612
 8019SOL    HW135516   1.909   3.347   6.209  0.5922 -1.1365 -0.9803
 8019SOL    HW235517   1.858   3.225   6.291  0.1528  0.4488 -0.4607
 8020SOL     OW35518   1.284   2.547   9.917  0.0097  0.0258 -0.7951
 8020SOL    HW135519   1.230   2.624   9.903  2.9616  2.5178  1.6519
 8020SOL    HW235520   1.290   2.539  10.012 -0.8259 -0.9027 -0.8186
 8021SOL     OW35521   1.352   2.106   6.991  0.3342 -0.4452 -0.2482
 8021SOL    HW135522   1.429   2.050   6.998 -0.1927 -0.8966  2.2863
 8021SOL    HW235523   1.319   2.110   7.082  2.1936 -0.1824  0.4021
 8022SOL     OW35524   2.392   1.308   2.596 -0.4669  0.4123 -0.5233
 8022SOL    HW135525   2.484   1.305   2.568 -0.3579  0.1316 -0.1298
 8022SOL    HW235526   2.345   1.275   2.520  0.1249  0.3356 -0.8592
 8023SOL     OW35527   0.726   2.447   6.698  0.0186 -0.6483 -0.4330
 8023SOL    HW135528   0.714   2.542   6.702 -0.3270 -0.8277  2.6043
 8023SOL    HW235529   0.635   2.421   6.687  0.3155 -2.8471  2.5139
 8024SOL     OW35530   4.622   4.206   4.865 -0.9054  0.3470 -0.4664
 8024SOL    HW135531   4.679   4.133   4.843 -0.4738  1.1305 -1.9633
 8024SOL    HW235532   4.588   4.218   4.777 -0.6252  0.1081 -0.6056
 8025SOL     OW35533   3.613   3.070   6.984 -0.1923  0.0366  0.6370
 8025SOL    HW135534   3.676   3.049   7.053  0.0891 -0.3370  0.2653
 8025SOL    HW235535   3.560   2.991   6.987  2.7710 -2.0740 -1.9462
 8026SOL     OW35536   0.881   1.877   4.151 -0.5299  0.5600  0.0504
 8026SOL    HW135537   0.814   1.865   4.084 -0.0750  0.0416 -0.3137
 8026SOL    HW235538   0.954   1.901   4.094 -0.4506 -1.0795 -0.5526
 8027SOL     OW35539   3.024   3.476  11.604 -0.2752  0.1649  0.5655
 8027SOL    HW135540   3.008   3.426  11.684 -0.0311  1.6655  1.5558
 8027SOL    HW235541   2.956   3.540  11.627 -0.2842 -0.2463  1.6458
 8028SOL     OW35542   2.767   1.426   7.530  0.0877 -0.5504  0.3128
 8028SOL    HW135543   2.810   1.370   7.595  1.5463 -0.1730 -0.3323
 8028SOL    HW235544   2.843   1.473   7.497 -1.1221 -0.3041 -2.1334
 8029SOL     OW35545   1.559   0.152   5.528  0.3254 -0.1351 -0.6292
 8029SOL    HW135546   1.646   0.111   5.533 -0.4916 -1.6388  0.9519
 8029SOL    HW235547   1.510   0.092   5.472 -0.6798  0.9814 -0.9498
 8030SOL     OW35548   0.292   1.659   4.545  0.2273 -0.1610  0.5338
 8030SOL    HW135549   0.378   1.617   4.542  0.3904  0.1762  0.4756
 8030SOL    HW235550   0.277   1.649   4.639 -0.3010 -2.1951  0.2390
 8031SOL     OW35551   3.714   1.926   7.577  0.1391 -0.4468 -0.6090
 8031SOL    HW135552   3.621   1.914   7.557  0.9888 -2.2064 -3.3694
 8031SOL    HW235553   3.730   1.849   7.633  2.5177  0.0241 -0.6396
 8032SOL     OW35554   3.663   0.241  17.177  0.0288 -0.2297 -0.1610
 8032SOL    HW135555   3.663   0.187  17.256  1.8918 -0.2149 -0.1477
 8032SOL    HW235556   3.654   0.321  17.230  2.2700 -1.1041  1.5286
 8033SOL     OW35557   1.673   2.676   7.838  0.0807  0.3252 -0.6322
 8033SOL    HW135558   1.750   2.667   7.783  0.0535 -0.8865 -0.4668
 8033SOL    HW235559   1.654   2.769   7.826 -0.1636  0.4081  0.3844
 8034SOL     OW35560   4.717   3.583   3.984 -0.0202 -0.4655  0.0043
 8034SOL    HW135561   4.673   3.576   4.069 -1.4451  2.3987 -0.4995
 8034SOL    HW235562   0.057   3.653   3.986 -0.3503 -0.2270  2.0171
 8035SOL     OW35563   4.403   0.027   5.100 -0.2034  0.2306  0.1990
 8035SOL    HW135564   4.307   0.025   5.096 -0.1144  1.0194 -2.0396
 8035SOL    HW235565   4.419   0.080   5.178 -2.1313  1.0230  0.0474
 8036SOL     OW35566   1.690   0.219   4.974 -0.7158 -0.3507 -0.0676
 8036SOL    HW135567   1.597   0.223   4.950 -0.6241  2.4670  0.0145
 8036SOL    HW235568   1.693   0.314   4.991 -2.6212 -0.6105  1.7547
 8037SOL     OW35569   3.376   0.225   3.286 -0.1101  0.1845  0.4095
 8037SOL    HW135570   3.298   0.276   3.305 -1.9058 -2.9080  1.3821
 8037SOL    HW235571   3.370   0.222   3.190  1.5311  2.1886  0.2485
 8038SOL     OW35572   0.574   2.444  16.423  0.2979 -0.1431 -0.2853
 8038SOL    HW135573   0.588   2.433  16.517 -0.3209 -2.0579 -0.4317
 8038SOL    HW235574   0.618   2.366  16.390  0.3723 -0.4504  0.5460
 8039SOL     OW35575   3.282   2.992   4.555  0.0044  0.1143  0.1035
 8039SOL    HW135576   3.318   2.929   4.617 -1.5395 -0.3361  0.5393
 8039SOL    HW235577   3.190   2.964   4.561  0.3597 -0.8791  0.8315
 8040SOL     OW35578   4.202   2.832   7.970  0.2712 -0.6990 -0.9929
 8040SOL    HW135579   4.275   2.893   7.958  0.5375 -1.0474 -1.1800
 8040SOL    HW235580   4.196   2.835   8.065  1.2146 -1.7448 -0.8936
 8041SOL     OW35581   2.175   4.483   9.975  0.0422  0.7248 -0.5832
 8041SOL    HW135582   2.109   4.414   9.972  0.4308  0.3505 -0.3997
 8041SOL    HW235583   2.175   4.523   9.888  0.3588 -1.4497 -1.5633
 8042SOL     OW35584   2.969   1.543  11.151 -0.0440  0.3535 -0.3165
 8042SOL    HW135585   2.907   1.611  11.178  1.0292  1.0252  0.4728
 8042SOL    HW235586   3.042   1.585  11.105 -0.6422  0.8056 -0.8533
 8043SOL     OW35587   1.876   3.477   4.903 -0.1159 -0.1644 -0.0111
 8043SOL    HW135588   1.948   3.525   4.861 -0.9053  0.8035 -0.2762
 8043SOL    HW235589   1.920   3.430   4.974  2.1862 -0.2981 -1.5302
 8044SOL     OW35590   2.323   0.493  17.629 -0.5227 -0.1368 -0.3629
 8044SOL    HW135591   2.401   0.507  17.682 -1.0739  0.1554  0.3640
 8044SOL    HW235592   2.361   0.443  17.557  0.0080  0.0338 -0.1960
 8045SOL     OW35593   4.113   0.090  17.152  0.2356 -0.5067  0.5171
 8045SOL    HW135594   4.043   0.029  17.174  0.2487 -0.1596  1.5100
 8045SOL    HW235595   4.168   0.030  17.102 -0.0448 -1.1609  0.9916
 8046SOL     OW35596   3.374   3.277  17.126 -0.0824  0.2134  0.3784
 8046SOL    HW135597   3.302   3.312  17.178 -2.0883 -0.4618 -1.9154
 8046SOL    HW235598   3.329   3.195  17.107 -0.1161 -0.0703  1.6886
 8047SOL     OW35599   4.141   2.060   3.909  0.4866  0.3547 -0.1740
 8047SOL    HW135600   4.230   2.089   3.890  0.9770  0.5379  2.4254
 8047SOL    HW235601   4.158   1.969   3.930  1.6705  0.0565 -2.4408
 8048SOL     OW35602   0.779   0.675   3.184  0.3863 -0.0892 -0.3624
 8048SOL    HW135603   0.799   0.611   3.252  1.5616 -1.2023 -1.7944
 8048SOL    HW235604   0.708   0.621   3.150 -0.1619  0.4327 -0.0520
 8049SOL     OW35605   0.844   2.325   3.527 -0.3400 -0.1859  0.4410
 8049SOL    HW135606   0.892   2.346   3.447 -1.6572 -0.9345 -0.5527
 8049SOL    HW235607   0.894   2.252   3.564  2.7441  0.6399 -2.0983
 8050SOL     OW35608   4.347   1.436   4.037 -0.0924 -0.7630  0.0710
 8050SOL    HW135609   4.432   1.460   4.000 -1.7378  3.7012 -0.8193
 8050SOL    HW235610   4.359   1.485   4.119 -1.6573  1.6004 -1.1073
 8051SOL     OW35611   2.910   3.302   8.038  0.0316  0.0653  0.8177
 8051SOL    HW135612   2.922   3.308   8.133  1.2177  1.2933  0.5953
 8051SOL    HW235613   2.997   3.285   8.003 -0.1650 -1.0619  0.8882
 8052SOL     OW35614   4.094   4.000   5.093  0.3028 -0.2589 -0.9027
 8052SOL    HW135615   4.146   4.058   5.037  2.4249 -2.6196 -1.3428
 8052SOL    HW235616   4.141   3.917   5.093  2.7552  1.1208  3.1666
 8053SOL     OW35617   4.327   2.181   7.358 -0.2425 -0.4402  0.4138
 8053SOL    HW135618   4.420   2.197   7.369 -0.1477  0.0674 -1.0988
 8053SOL    HW235619   4.283   2.191   7.442  0.6675 -1.9814  1.0661
 8054SOL     OW35620   3.033   0.144   7.444  0.3300 -0.3081 -0.1103
 8054SOL    HW135621   2.982   0.117   7.368  0.6458  0.0156 -0.4372
 8054SOL    HW235622   2.972   0.202   7.490 -0.4428  0.4842 -2.1558
 8055SOL     OW35623   3.669   4.415   3.905 -0.1925 -0.2008  0.0272
 8055SOL    HW135624   3.741   4.354   3.893  0.5778  0.6392  0.3841
 8055SOL    HW235625   3.630   4.370   3.980 -0.7583 -1.7728 -1.2093
 8056SOL     OW35626   2.912   1.497  10.390  0.3236 -0.0230  0.0921
 8056SOL    HW135627   2.900   1.578  10.340  0.3019 -0.5449 -0.7495
 8056SOL    HW235628   2.849   1.506  10.462  0.8364  1.6499  0.3282
 8057SOL     OW35629   0.846   1.675  15.980 -0.2492  0.4720  0.3986
 8057SOL    HW135630   0.845   1.767  16.008  1.0092  0.2912  1.0625
 8057SOL    HW235631   0.766   1.646  16.026 -0.1925 -0.5027 -0.1264
 8058SOL     OW35632   1.836   2.418  15.630  0.1188 -0.6553 -0.3585
 8058SOL    HW135633   1.755   2.434  15.582 -0.1397 -0.5066  0.1286
 8058SOL    HW235634   1.827   2.493  15.688 -0.5483 -1.1452  0.1704
 8059SOL     OW35635   3.949   2.146   5.887  0.0205  0.0503  0.0102
 8059SOL    HW135636   3.883   2.107   5.830  1.5958  0.0271 -1.8190
 8059SOL    HW235637   3.980   2.205   5.818 -2.9065  1.8233  0.2011
 8060SOL     OW35638   4.168   0.969   7.668  0.4651  0.4849 -0.3183
 8060SOL    HW135639   4.174   0.875   7.687  0.0263  0.7760  1.2497
 8060SOL    HW235640   4.156   0.963   7.574 -0.5595 -1.0824 -0.0964
 8061SOL     OW35641   3.061   1.608   5.750  1.0137 -0.7735  0.2573
 8061SOL    HW135642   3.153   1.608   5.724  1.0826  0.4507  0.4976
 8061SOL    HW235643   3.036   1.540   5.688 -1.7434  0.1649  0.3267
 8062SOL     OW35644   2.549   0.502   7.882  0.0162  0.1974  0.4401
 8062SOL    HW135645   2.515   0.463   7.962 -1.2211  0.6570  0.1425
 8062SOL    HW235646   2.611   0.434   7.856 -2.9320 -1.5146 -2.2015
 8063SOL     OW35647   1.421   2.989   9.403 -0.4478 -0.1388 -0.7233
 8063SOL    HW135648   1.473   3.068   9.417  0.6285 -1.1907  1.2206
 8063SOL    HW235649   1.487   2.923   9.421  0.3310  0.5404 -1.0674
 8064SOL     OW35650   4.343   3.799   9.581  0.8249  0.0906  0.6517
 8064SOL    HW135651   4.392   3.742   9.521  1.2186  0.9053  0.2033
 8064SOL    HW235652   4.254   3.790   9.548  1.7020 -2.2923 -1.0469
 8065SOL     OW35653   2.508   3.684   3.012  1.1194  0.4099 -0.6143
 8065SOL    HW135654   2.516   3.637   2.929 -0.7306 -0.6095 -0.2091
 8065SOL    HW235655   2.538   3.626   3.081 -1.6488  0.2782  0.4960
 8066SOL     OW35656   4.566   2.780   5.509 -0.1994 -0.0420  0.1782
 8066SOL    HW135657   4.605   2.775   5.596  3.1940 -0.5478 -1.3749
 8066SOL    HW235658   4.473   2.761   5.524  0.3182 -2.3050  0.4744
 8067SOL     OW35659   4.108   2.472  12.984  0.3074 -0.1378 -0.2063
 8067SOL    HW135660   4.028   2.422  12.968 -0.2368  1.0068 -1.0765
 8067SOL    HW235661   4.148   2.485  12.898  2.3397  0.4448  0.8332
 8068SOL     OW35662   2.822   0.547   3.357  0.2120  0.0348 -0.4182
 8068SOL    HW135663   2.763   0.499   3.415  0.1244 -0.1205 -0.6308
 8068SOL    HW235664   2.877   0.479   3.318  1.6038  0.8613  0.1260
 8069SOL     OW35665   4.057   3.108   3.554 -0.5231  0.0738 -0.3875
 8069SOL    HW135666   4.102   3.118   3.638 -0.6821 -0.5244 -0.2300
 8069SOL    HW235667   4.044   3.013   3.547  0.6892 -0.2879  1.9185
 8070SOL     OW35668   0.538   3.646   3.019 -0.3404 -0.0862  0.0077
 8070SOL    HW135669   0.611   3.677   2.965 -0.2403  1.0960  0.8289
 8070SOL    HW235670   0.481   3.722   3.010  1.0565  0.7908 -1.3176
 8071SOL     OW35671   0.544   2.520   2.880  0.1253  0.2573  0.3240
 8071SOL    HW135672   0.516   2.453   2.942  0.9762 -0.9186 -0.5532
 8071SOL    HW235673   0.532   2.591   2.942  0.1239  0.5311  0.0139
 8072SOL     OW35674   1.282   4.404   2.553 -0.0253  0.9123  0.1761
 8072SOL    HW135675   1.232   4.481   2.579 -0.7496  0.4319  0.1905
 8072SOL    HW235676   1.372   4.434   2.564 -0.1508  1.6327 -0.7848
 8073SOL     OW35677   1.902   2.948   0.892 -0.2006 -0.7294 -0.2682
 8073SOL    HW135678   1.814   2.969   0.860  0.9478  0.7979 -2.4596
 8073SOL    HW235679   1.966   2.997   0.839  0.8325  0.0107  1.6288
 8074SOL     OW35680   0.484   3.278   3.245  0.2170  0.3765 -0.6180
 8074SOL    HW135681   0.525   3.338   3.182  1.2411  0.2822 -0.0386
 8074SOL    HW235682   0.472   3.203   3.187  0.7425  1.3048 -1.9103
 8075SOL     OW35683   3.769   1.120   8.024  0.5926  0.3799  0.2842
 8075SOL    HW135684   3.779   1.060   8.099 -0.2415  1.3882  1.2076
 8075SOL    HW235685   3.719   1.065   7.965  0.6102 -0.8533  1.4098
 8076SOL     OW35686   4.130   3.042   4.677 -0.0571 -0.6155 -0.4257
 8076SOL    HW135687   4.162   2.998   4.756 -0.3748 -0.0188  0.0333
 8076SOL    HW235688   4.183   3.004   4.607 -0.3742  1.4324 -1.8022
 8077SOL     OW35689   4.546   3.064   1.450 -0.4675 -0.1864  0.0807
 8077SOL    HW135690   4.523   3.044   1.359 -1.1959 -0.0516  0.2341
 8077SOL    HW235691   4.484   3.132   1.475  0.4578  0.2134  1.3040
 8078SOL     OW35692   2.129   3.914  12.573 -0.2035  0.0105 -0.3581
 8078SOL    HW135693   2.149   3.829  12.612  0.9205 -0.4688 -2.0055
 8078SOL    HW235694   2.154   3.880  12.487  1.7859  0.9704 -0.1744
 8079SOL     OW35695   0.219   1.066   7.106  0.6398  0.4367 -0.3493
 8079SOL    HW135696   0.267   0.989   7.075 -0.6259  0.1728 -1.6699
 8079SOL    HW235697   0.181   1.104   7.027  0.5795 -0.0792 -0.5718
 8080SOL     OW35698   2.819   3.715   1.983  0.3537  0.1928 -0.2891
 8080SOL    HW135699   2.732   3.736   2.015  1.3863 -0.3163  2.8430
 8080SOL    HW235700   2.792   3.664   1.907 -1.9095  2.5178 -1.0494
 8081SOL     OW35701   3.756   4.385   8.546  0.2358  0.2308  0.1972
 8081SOL    HW135702   3.735   4.308   8.598  1.4042  0.4876  1.0705
 8081SOL    HW235703   3.670   4.412   8.516  0.8956  2.0551 -0.0581
 8082SOL     OW35704   4.579   2.036   8.281  0.4534 -0.3036 -0.4029
 8082SOL    HW135705   4.496   2.031   8.233  1.1439 -1.4001 -1.4651
 8082SOL    HW235706   4.553   2.023   8.372  0.6709  0.3673 -0.2459
 8083SOL     OW35707   2.566   3.718   0.452  0.0990  0.0235  0.1720
 8083SOL    HW135708   2.594   3.644   0.399 -0.6090 -0.9575  1.1746
 8083SOL    HW235709   2.587   3.693   0.542  0.3953 -0.9646 -0.1746
 8084SOL     OW35710   0.328   3.874   3.111  0.3942 -0.1782 -0.2644
 8084SOL    HW135711   0.273   3.946   3.078 -1.1466 -1.0007  0.5064
 8084SOL    HW235712   0.306   3.881   3.204 -0.6892 -0.8043 -0.4719
 8085SOL     OW35713   0.683   4.667   7.296  0.1722 -0.0413 -0.3802
 8085SOL    HW135714   0.760   4.667   7.238 -0.1630 -1.1368 -0.8383
 8085SOL    HW235715   0.683   0.035   7.318  4.0339 -0.1236 -0.0326
 8086SOL     OW35716   0.849   3.138  17.015 -0.4424 -0.1300 -0.2696
 8086SOL    HW135717   0.783   3.206  16.999  0.7382  0.9320 -0.6534
 8086SOL    HW235718   0.899   3.193  17.075 -2.9587  1.7150  0.1432
 8087SOL     OW35719   2.630   3.960   6.912  0.4713  0.6264 -0.1531
 8087SOL    HW135720   2.702   3.930   6.856 -0.8880  1.5314 -2.3936
 8087SOL    HW235721   2.620   4.048   6.875 -1.2982  0.3477 -0.3294
 8088SOL     OW35722   3.594   1.684   6.854 -0.0618  0.4115  0.5178
 8088SOL    HW135723   3.672   1.726   6.817 -0.4449  1.4194  0.8434
 8088SOL    HW235724   3.561   1.637   6.778 -1.3854  1.2292  0.5682
 8089SOL     OW35725   0.747   2.697   4.977  0.0455 -0.0466 -1.1013
 8089SOL    HW135726   0.817   2.651   5.024  1.0946 -0.9967 -3.5841
 8089SOL    HW235727   0.730   2.777   5.028  0.8348  0.7932 -2.1718
 8090SOL     OW35728   1.779   2.084   2.479 -0.0771  0.0281 -0.7790
 8090SOL    HW135729   1.752   2.056   2.566  1.3812  2.2733  0.3917
 8090SOL    HW235730   1.702   2.132   2.449  0.1422  0.3519 -0.8260
 8091SOL     OW35731   2.650   0.444   2.956 -0.3258 -0.0447  0.0687
 8091SOL    HW135732   2.667   0.522   2.904 -1.3259  0.4165  0.4373
 8091SOL    HW235733   2.610   0.489   3.031 -1.4198  0.8667 -1.0609
 8092SOL     OW35734   3.097   4.486   9.100  0.1205 -0.1065  0.0233
 8092SOL    HW135735   3.016   4.457   9.059  0.8514 -0.1827 -1.3687
 8092SOL    HW235736   3.077   4.501   9.192  0.7276  0.4100  0.0771
 8093SOL     OW35737   3.443   3.483  11.421  0.0285  0.9351  0.2031
 8093SOL    HW135738   3.370   3.423  11.439  1.2096 -0.3276  0.8327
 8093SOL    HW235739   3.500   3.412  11.393  0.5251  1.6874 -0.6707
 8094SOL     OW35740   3.411   4.569  12.008 -0.1012  0.1752  0.8991
 8094SOL    HW135741   3.389   4.478  11.987 -1.2003  1.4553 -3.5003
 8094SOL    HW235742   3.486   4.585  11.949  0.8337 -1.4076  1.6511
 8095SOL     OW35743   2.797   4.015  11.694  0.9454 -0.4849  0.0292
 8095SOL    HW135744   2.791   4.111  11.692  1.3726 -0.4468  0.6021
 8095SOL    HW235745   2.744   4.000  11.772  0.2881  0.8523 -0.1529
 8096SOL     OW35746   0.213   2.812   2.379  0.7585 -0.0288 -0.2801
 8096SOL    HW135747   0.136   2.810   2.436  0.5798 -0.3812 -0.5357
 8096SOL    HW235748   0.208   2.899   2.341  0.0601 -0.6372 -1.5667
 8097SOL     OW35749   2.636   3.438   0.205 -0.2349  1.0413 -0.5025
 8097SOL    HW135750   2.661   3.528   0.181 -2.0184  0.9957 -2.5177
 8097SOL    HW235751   2.555   3.418   0.158  0.3331 -0.4708 -0.8299
 8098SOL     OW35752   0.705   0.169   6.001 -0.6394  0.3290  0.3222
 8098SOL    HW135753   0.696   0.079   5.968  3.7913  0.1160 -0.3580
 8098SOL    HW235754   0.648   0.182   6.076  0.2551  0.5249  0.9593
 8099SOL     OW35755   3.176   2.438  13.728  0.8198  0.3861 -0.1195
 8099SOL    HW135756   3.235   2.363  13.717  0.5745  0.3108 -0.9257
 8099SOL    HW235757   3.225   2.510  13.687  0.2084 -0.4601 -2.3507
 8100SOL     OW35758   1.659   1.789   4.632  0.0326 -0.2639 -0.0436
 8100SOL    HW135759   1.724   1.848   4.671 -0.7940 -0.0013  0.9386
 8100SOL    HW235760   1.658   1.830   4.545  1.0516 -0.3696 -0.0990
 8101SOL     OW35761   1.584   2.678   5.748  0.4052 -0.5084 -0.0874
 8101SOL    HW135762   1.623   2.663   5.834  0.5876 -1.4670 -0.3325
 8101SOL    HW235763   1.645   2.747   5.721  0.7928 -0.1586  1.6415
 8102SOL     OW35764   0.715   3.848   9.127  0.5436  0.6113  0.7581
 8102SOL    HW135765   0.779   3.782   9.154  0.4269  0.1686 -0.0490
 8102SOL    HW235766   0.727   3.924   9.184  1.0516  0.4457  0.8769
 8103SOL     OW35767   1.716   3.989   1.473  0.0268  0.5181  0.6473
 8103SOL    HW135768   1.701   3.934   1.549  1.0840  0.5157  0.8643
 8103SOL    HW235769   1.630   3.986   1.431 -0.9495 -0.6425  2.7513
 8104SOL     OW35770   2.188   1.774   5.651 -0.3921 -0.7897 -0.5665
 8104SOL    HW135771   2.123   1.809   5.711  0.5074  2.6500 -1.5724
 8104SOL    HW235772   2.145   1.788   5.567 -1.6612  1.1040  0.4293
 8105SOL     OW35773   0.547   0.629  13.198  0.1176 -0.0360 -0.1043
 8105SOL    HW135774   0.620   0.626  13.136 -0.0452 -0.6439 -0.2553
 8105SOL    HW235775   0.546   0.539  13.229  1.4693  0.4626  1.4622
 8106SOL     OW35776   0.170   4.643   2.091  0.2806  0.4124  0.5253
 8106SOL    HW135777   0.124   4.645   2.175 -1.0630  0.8419 -0.2148
 8106SOL    HW235778   0.211   4.557   2.103 -1.3875 -0.5348 -0.4683
 8107SOL     OW35779   1.928   1.682   4.850 -0.2879 -0.9055  0.2748
 8107SOL    HW135780   1.908   1.769   4.815  0.8691 -0.8303 -0.1854
 8107SOL    HW235781   1.997   1.658   4.790  2.1252  0.5081  2.4724
 8108SOL     OW35782   2.471   4.543   4.389 -0.4416 -0.4087 -0.2171
 8108SOL    HW135783   2.477   4.538   4.485  2.4438  1.4718 -0.2770
 8108SOL    HW235784   2.487   4.638   4.385  1.9273 -0.8615 -1.5836
 8109SOL     OW35785   0.983   3.732  12.767  0.2570  0.2084  0.2266
 8109SOL    HW135786   0.991   3.827  12.776 -0.3017 -0.0491  3.3152
 8109SOL    HW235787   0.894   3.724  12.732  0.6895  0.2016 -0.8667
 8110SOL     OW35788   1.621   1.808   3.638 -0.0093 -0.2841 -0.8854
 8110SOL    HW135789   1.636   1.752   3.715  1.1985  0.6547 -0.4279
 8110SOL    HW235790   1.625   1.737   3.574 -0.7822 -0.6750 -0.5077
 8111SOL     OW35791   1.362   2.025   2.490  0.4879 -0.3588  0.5293
 8111SOL    HW135792   1.319   2.059   2.411  1.6120  3.7128  1.6773
 8111SOL    HW235793   1.340   1.932   2.483 -2.2462  0.1879  1.7301
 8112SOL     OW35794   1.958   2.172   2.801 -0.3402 -0.2545 -0.0832
 8112SOL    HW135795   1.919   2.254   2.772  1.4217  0.7776  0.4667
 8112SOL    HW235796   2.039   2.199   2.846 -1.5763  0.6119  1.6253
 8113SOL     OW35797   3.371   2.943   7.059  0.4247  0.3284  0.6011
 8113SOL    HW135798   3.303   2.979   7.002  1.0231  0.0527 -0.2843
 8113SOL    HW235799   3.321   2.921   7.138  0.2722 -1.0864  0.1113
 8114SOL     OW35800   0.136   4.410  12.811  0.4488 -0.5404 -0.5315
 8114SOL    HW135801   0.156   4.502  12.791  0.0607 -0.2275  0.5022
 8114SOL    HW235802   0.221   4.380  12.779 -1.1020 -2.3239 -2.9762
 8115SOL     OW35803   4.031   0.499   0.275 -0.0939  0.4660  0.4117
 8115SOL    HW135804   4.105   0.467   0.223  0.4486  0.7023  1.0303
 8115SOL    HW235805   4.063   0.495   0.366  2.5558  1.4204 -0.4696
 8116SOL     OW35806   0.741   4.582   5.649 -0.0349 -0.1232  0.3835
 8116SOL    HW135807   0.699   4.504   5.611 -0.6226  0.6200 -0.4919
 8116SOL    HW235808   0.761   4.637   5.573 -1.2172 -0.2449 -0.0218
 8117SOL     OW35809   4.082   3.445   5.074 -0.0518 -0.2323 -0.2188
 8117SOL    HW135810   4.030   3.409   5.146  1.4549  1.2002  1.5722
 8117SOL    HW235811   4.167   3.408   5.099  0.6115  0.8558 -0.8563
 8118SOL     OW35812   0.846   0.851   4.389  0.3313 -0.3851  0.1213
 8118SOL    HW135813   0.842   0.845   4.485 -0.2724 -0.8348  0.0655
 8118SOL    HW235814   0.778   0.912   4.363 -0.4569 -1.6027 -0.6496
 8119SOL     OW35815   4.372   0.019   8.321  0.1340 -0.7637 -0.8435
 8119SOL    HW135816   4.289   4.709   8.355  0.5209 -0.8147  0.0636
 8119SOL    HW235817   4.340   0.072   8.248  0.9892 -0.2156 -0.8230
 8120SOL     OW35818   1.536   4.248  15.136 -0.4502  0.6428 -0.0318
 8120SOL    HW135819   1.442   4.242  15.148 -0.1612  0.6843  2.1058
 8120SOL    HW235820   1.558   4.155  15.128 -0.8742  0.3275  2.5340
 8121SOL     OW35821   1.179   4.355   3.528  0.1995  0.1705 -0.0712
 8121SOL    HW135822   1.174   4.372   3.434 -1.6809 -0.6442 -0.1235
 8121SOL    HW235823   1.092   4.382   3.557  0.0035 -0.6490  0.1089
 8122SOL     OW35824   3.934   3.868   0.146 -0.2832  0.3221  0.6302
 8122SOL    HW135825   3.965   3.896   0.060 -0.0811 -0.2423  0.5245
 8122SOL    HW235826   3.864   3.805   0.128 -0.1151  0.2444  0.2624
 8123SOL     OW35827   1.825   4.487   2.543  0.0304 -0.4553 -0.1723
 8123SOL    HW135828   1.804   4.427   2.614 -3.1571 -2.3668 -2.7423
 8123SOL    HW235829   1.886   4.427   2.500 -0.5614 -0.2546 -1.2997
 8124SOL     OW35830   0.538   3.762   2.575 -0.3480 -0.3385  0.1052
 8124SOL    HW135831   0.600   3.728   2.511  0.9057 -0.1208  1.2036
 8124SOL    HW235832   0.596   3.820   2.624 -0.9658 -0.4275  0.9444
 8125SOL     OW35833   2.298   2.476   8.532  0.3013  0.4758 -0.6672
 8125SOL    HW135834   2.393   2.488   8.527  0.1085  1.3451 -2.4150
 8125SOL    HW235835   2.286   2.390   8.492  2.2248  1.1639 -2.7315
 8126SOL     OW35836   2.763   3.367  10.527  0.2099  0.0046 -0.2871
 8126SOL    HW135837   2.682   3.369  10.476 -0.6096 -0.8705  0.9913
 8126SOL    HW235838   2.728   3.333  10.609 -2.2075 -0.4328 -1.5049
 8127SOL     OW35839   3.121   1.000   1.689 -0.1638 -0.0017 -0.3243
 8127SOL    HW135840   3.198   1.016   1.744 -0.7671 -1.8982  1.0503
 8127SOL    HW235841   3.153   0.955   1.610  3.2027  0.9013  0.4899
 8128SOL     OW35842   3.141   1.155   8.362  0.4737 -0.0317  0.2229
 8128SOL    HW135843   3.217   1.138   8.306  1.4533 -4.0119  2.7448
 8128SOL    HW235844   3.086   1.219   8.317  2.5231  0.3519 -1.7550
 8129SOL     OW35845   1.006   2.794   4.321 -0.2133  0.0286  0.6044
 8129SOL    HW135846   1.077   2.815   4.382 -0.5511 -0.5475  1.1956
 8129SOL    HW235847   0.976   2.707   4.347 -0.5883  0.0262  0.1782
 8130SOL     OW35848   3.329   0.288   5.087 -0.0259 -0.5327 -0.2067
 8130SOL    HW135849   3.274   0.221   5.046  0.4116 -0.1396 -1.4344
 8130SOL    HW235850   3.263   0.330   5.142 -0.0245 -1.7459  0.7094
 8131SOL     OW35851   1.630   1.517  14.802  0.0092 -0.1127 -0.2712
 8131SOL    HW135852   1.631   1.529  14.897 -3.4548 -1.6829 -0.0303
 8131SOL    HW235853   1.543   1.536  14.769 -0.4257 -0.5643  0.6250
 8132SOL     OW35854   2.460   4.489   1.250 -0.3534  0.1859  0.9297
 8132SOL    HW135855   2.456   4.504   1.344  0.0213  1.2693  0.7654
 8132SOL    HW235856   2.368   4.507   1.228 -0.1772 -3.0477 -2.4831
 8133SOL     OW35857   2.400   2.697   4.942  0.4748 -0.8304  0.1587
 8133SOL    HW135858   2.383   2.619   4.996 -2.8572  0.7809  1.3899
 8133SOL    HW235859   2.312   2.714   4.910 -0.0760  1.6058  2.9979
 8134SOL     OW35860   4.109   4.410  12.525  0.4040 -0.0395  0.2652
 8134SOL    HW135861   4.055   4.481  12.490 -0.5796 -1.6205 -1.3620
 8134SOL    HW235862   4.174   4.463  12.571  2.8825 -2.4810 -0.4487
 8135SOL     OW35863   0.558   0.928   5.783  0.4641 -0.1547 -0.3167
 8135SOL    HW135864   0.497   0.966   5.847 -0.7439 -1.8466 -0.4595
 8135SOL    HW235865   0.527   0.949   5.695  1.2016 -1.2289 -0.8334
 8136SOL     OW35866   2.178   1.993  10.936  0.0521  0.1476 -0.4230
 8136SOL    HW135867   2.255   1.970  10.884  2.0964 -1.0387  3.1410
 8136SOL    HW235868   2.178   1.918  10.995  2.5806  1.5815  1.3732
 8137SOL     OW35869   2.806   2.435   8.502 -0.3007 -0.2451 -0.4167
 8137SOL    HW135870   2.876   2.501   8.506 -0.9306  0.4007  0.1259
 8137SOL    HW235871   2.787   2.414   8.593  0.9314 -0.8893 -0.3069
 8138SOL     OW35872   4.427   3.914   5.096 -0.1250  0.4416  0.2422
 8138SOL    HW135873   4.387   3.927   5.010 -0.7337 -1.6917  0.2094
 8138SOL    HW235874   4.365   3.850   5.129  1.8396 -0.8187  1.4754
 8139SOL     OW35875   4.662   4.677   5.330  0.2896  0.4175 -0.0078
 8139SOL    HW135876   4.708   0.036   5.336 -2.1636  1.9245 -2.2851
 8139SOL    HW235877   4.689   4.641   5.245 -1.1264  0.9152 -0.6608
 8140SOL     OW35878   3.914   3.346   5.301 -0.2267  0.0561 -0.5058
 8140SOL    HW135879   3.837   3.398   5.323  0.0003  0.2057 -0.0657
 8140SOL    HW235880   3.887   3.255   5.303 -0.9093  0.2663 -0.2542
 8141SOL     OW35881   3.909   1.691   2.721 -0.2828 -0.0261  0.0491
 8141SOL    HW135882   3.818   1.703   2.694  0.1533  1.2668 -0.8472
 8141SOL    HW235883   3.908   1.600   2.751 -4.4767 -0.3167 -0.9347
 8142SOL     OW35884   2.665   3.503  16.855 -0.3435  0.2353 -0.4080
 8142SOL    HW135885   2.737   3.546  16.810 -0.4357  1.6704  0.7987
 8142SOL    HW235886   2.593   3.516  16.792  0.0747  0.0636 -0.9208
 8143SOL     OW35887   4.296   4.078   2.837  0.4499 -0.3256  0.1790
 8143SOL    HW135888   4.246   3.998   2.854 -0.4609  0.1229 -0.3880
 8143SOL    HW235889   4.363   4.053   2.773  0.4482  0.9354 -0.3114
 8144SOL     OW35890   0.367   0.280   5.291  0.4284 -0.3481  0.0015
 8144SOL    HW135891   0.313   0.206   5.262 -0.5720  0.6179 -0.6158
 8144SOL    HW235892   0.364   0.342   5.217  0.6877  0.6881  0.8536
 8145SOL     OW35893   0.824   1.960   9.449 -0.3843  0.4654 -0.0893
 8145SOL    HW135894   0.873   2.005   9.518  0.9175 -3.0037  1.2080
 8145SOL    HW235895   0.734   1.955   9.482 -0.7158  0.2777 -1.0306
 8146SOL     OW35896   3.522   2.199   5.526  0.0047 -0.0762 -0.0735
 8146SOL    HW135897   3.541   2.126   5.584  1.2887  2.0912  2.2350
 8146SOL    HW235898   3.607   2.234   5.499 -1.3946  3.0461 -0.4972
 8147SOL     OW35899   4.704   0.190   3.170 -0.5165  0.5615 -0.7883
 8147SOL    HW135900   4.634   0.179   3.106  0.7212 -2.6237 -1.5854
 8147SOL    HW235901   4.658   0.142   3.239  1.7651  0.1725  0.4489
 8148SOL     OW35902   3.966   2.589   4.892 -0.2795  0.8770  0.0160
 8148SOL    HW135903   3.988   2.513   4.837 -0.4975 -1.9155  3.8379
 8148SOL    HW235904   4.045   2.643   4.886  1.8968 -2.5620 -2.1474
 8149SOL     OW35905   0.375   2.213  10.984 -0.4898  0.3699 -0.3177
 8149SOL    HW135906   0.303   2.219  10.920 -1.4100 -1.5071  0.5494
 8149SOL    HW235907   0.349   2.281  11.045  0.1448  0.2971  0.0308
 8150SOL     OW35908   0.254   1.933   2.924 -0.8887  0.1336 -0.5519
 8150SOL    HW135909   0.244   1.938   3.019 -1.0012  1.1699 -0.6197
 8150SOL    HW235910   0.275   1.840   2.914 -1.2051  0.0704 -0.6335
 8151SOL     OW35911   0.067   3.171   5.524 -0.4291  0.3211  0.8586
 8151SOL    HW135912   4.718   3.114   5.500  0.4898 -1.3735  2.0001
 8151SOL    HW235913   0.107   3.201   5.443 -1.8854 -2.4936 -0.9181
 8152SOL     OW35914   3.270   1.615  10.843  0.0169  0.4645 -0.0877
 8152SOL    HW135915   3.238   1.553  10.778 -0.6971 -0.8723  1.5440
 8152SOL    HW235916   3.333   1.560  10.888 -0.9402  0.3732  1.1440
 8153SOL     OW35917   1.336   0.499   4.021 -0.3992 -0.3014 -0.5998
 8153SOL    HW135918   1.328   0.529   3.931 -1.3417  1.1837 -0.0273
 8153SOL    HW235919   1.360   0.407   4.015  0.2339 -0.1847  0.1929
 8154SOL     OW35920   2.171   4.544   5.559  0.5314 -0.0246  0.2549
 8154SOL    HW135921   2.203   4.475   5.617  2.6265 -0.7712 -1.7857
 8154SOL    HW235922   2.198   4.616   5.616 -2.5161  0.7740  0.6500
 8155SOL     OW35923   2.921   3.870  10.406 -0.1321 -0.3322 -0.3375
 8155SOL    HW135924   2.992   3.892  10.346  0.9868 -0.1617  1.0373
 8155SOL    HW235925   2.926   3.775  10.406  2.7550 -0.1638 -1.7475
 8156SOL     OW35926   0.357   3.557  13.527  0.1913  0.5707  0.1340
 8156SOL    HW135927   0.428   3.622  13.526  1.8516 -1.2890 -2.7439
 8156SOL    HW235928   0.402   3.482  13.488 -1.7230 -0.1177 -0.7481
 8157SOL     OW35929   0.399   3.798  13.899  0.1218  0.0274  0.2286
 8157SOL    HW135930   0.373   3.859  13.968 -0.2435 -0.5805  0.6330
 8157SOL    HW235931   0.397   3.848  13.817  1.7694 -1.4926 -0.7377
 8158SOL     OW35932   3.737   0.403  11.205  0.2533 -0.8215 -0.2693
 8158SOL    HW135933   3.748   0.435  11.115 -2.7871  1.1740  0.0599
 8158SOL    HW235934   3.707   0.479  11.255 -0.9654 -1.1641 -0.4955
 8159SOL     OW35935   4.688   0.546   1.256  0.0769 -0.3661 -0.0543
 8159SOL    HW135936   4.663   0.458   1.229  0.3116 -0.8066  1.1328
 8159SOL    HW235937   0.058   0.542   1.265 -0.1098  0.1396  2.1615
 8160SOL     OW35938   2.118   4.702   2.504  0.3661 -0.4027  0.2933
 8160SOL    HW135939   2.033   4.696   2.461 -0.0637  0.1676  1.0599
 8160SOL    HW235940   2.129   0.070   2.484  3.6586 -0.9101 -0.3562
 8161SOL     OW35941   3.518   2.349   5.147 -0.1860 -0.5060  0.3030
 8161SOL    HW135942   3.548   2.263   5.120 -1.0370 -0.7638  0.1692
 8161SOL    HW235943   3.495   2.387   5.062  1.2476  0.3502  0.2984
 8162SOL     OW35944   4.158   2.024  12.725  0.3481  0.1391 -0.1604
 8162SOL    HW135945   4.213   2.008  12.802  1.0901 -0.7039 -0.8569
 8162SOL    HW235946   4.156   2.119  12.733 -1.2376 -0.0832  1.9649
 8163SOL     OW35947   4.391   3.548  15.596  0.3791 -0.1757  0.6058
 8163SOL    HW135948   4.345   3.499  15.527  3.6578  0.2925 -1.8799
 8163SOL    HW235949   4.388   3.635  15.557 -1.5361 -1.6242 -2.5127
 8164SOL     OW35950   2.227   0.770  16.960 -0.7665 -0.2919 -0.0749
 8164SOL    HW135951   2.200   0.688  17.001  0.4089  0.9459  3.1585
 8164SOL    HW235952   2.293   0.806  17.020 -2.4876  2.2960  0.2806
 8165SOL     OW35953   0.687   3.094  14.406  0.8465  0.4400 -0.2750
 8165SOL    HW135954   0.601   3.128  14.379 -0.3189 -1.9750  0.4509
 8165SOL    HW235955   0.665   3.001  14.402  1.1023  0.2634  2.9469
 8166SOL     OW35956   2.399   4.563   8.050  0.0356 -0.4707  0.0852
 8166SOL    HW135957   2.393   4.482   7.999 -0.6285 -0.2969 -0.1032
 8166SOL    HW235958   2.395   4.530   8.140  0.4338 -2.8585 -0.7619
 8167SOL     OW35959   1.596   2.486  15.501 -0.0620 -0.3102 -0.4491
 8167SOL    HW135960   1.518   2.449  15.542  0.5785 -1.6653 -0.4193
 8167SOL    HW235961   1.589   2.443  15.415 -0.6252 -0.8049 -0.1485
 8168SOL     OW35962   2.408   1.281   9.067 -0.3484  0.2984 -0.5324
 8168SOL    HW135963   2.466   1.217   9.025 -1.9623 -1.6900  0.2547
 8168SOL    HW235964   2.336   1.224   9.095 -0.1878 -1.2117 -3.1747
 8169SOL     OW35965   4.021   3.168   6.499 -0.0201 -0.3482  0.3950
 8169SOL    HW135966   4.088   3.100   6.493 -1.3512 -1.6335  0.0209
 8169SOL    HW235967   3.995   3.151   6.590 -1.4500  1.1207  0.2606
 8170SOL     OW35968   3.424   2.642  16.643  0.1995  0.1567  0.2235
 8170SOL    HW135969   3.456   2.731  16.629  0.6693  0.1114  1.0066
 8170SOL    HW235970   3.372   2.649  16.724  0.5626 -0.5444  0.5182
 8171SOL     OW35971   4.480   3.693   5.768 -0.0466  0.0734 -0.3029
 8171SOL    HW135972   4.565   3.732   5.786  1.5810 -2.8077 -1.8379
 8171SOL    HW235973   4.425   3.708   5.845  2.6517 -1.2433  1.8810
 8172SOL     OW35974   1.342   0.923   0.352 -0.2606 -0.4225  0.1629
 8172SOL    HW135975   1.334   0.840   0.304 -0.7982 -0.6861  0.7161
 8172SOL    HW235976   1.363   0.886   0.438 -0.9140  1.4860  1.1459
 8173SOL     OW35977   3.898   2.300   8.771 -0.3976  0.1203 -0.1442
 8173SOL    HW135978   3.915   2.206   8.762  1.8503  0.5632 -0.5040
 8173SOL    HW235979   3.909   2.336   8.683  0.5862 -0.5356 -0.2840
 8174SOL     OW35980   1.699   3.784   5.189  0.4059 -0.4321 -0.2783
 8174SOL    HW135981   1.709   3.876   5.213  1.5836 -0.4101 -0.8585
 8174SOL    HW235982   1.725   3.745   5.272  3.8379  0.9895 -0.6967
 8175SOL     OW35983   2.011   0.482   4.365  0.5745 -0.3012 -0.2555
 8175SOL    HW135984   1.969   0.397   4.378 -0.2189  0.3782  1.6728
 8175SOL    HW235985   2.103   0.460   4.354  0.0114 -2.7015 -0.1711
 8176SOL     OW35986   4.612   2.320   0.894  0.2329 -0.2034  0.3905
 8176SOL    HW135987   4.616   2.381   0.820  1.0305  0.1905  0.7605
 8176SOL    HW235988   4.686   2.272   0.857  1.5745  2.6405 -0.6062
 8177SOL     OW35989   2.838   3.747   4.008 -0.3517  0.1580 -0.1591
 8177SOL    HW135990   2.908   3.743   3.943  0.3701  0.6302  0.5917
 8177SOL    HW235991   2.773   3.796   3.958 -1.9971 -0.2207  1.6070
 8178SOL     OW35992   1.543   1.597  17.069  0.4812  0.0134 -0.4272
 8178SOL    HW135993   1.520   1.509  17.099  2.3621  0.3504  2.0428
 8178SOL    HW235994   1.638   1.605  17.060  0.4244 -0.6148 -1.6330
 8179SOL     OW35995   2.293   0.732   4.484  0.3927 -0.6023  0.3702
 8179SOL    HW135996   2.329   0.702   4.400 -0.6437  1.5766 -0.8702
 8179SOL    HW235997   2.260   0.821   4.472 -0.6079 -1.0515 -0.2393
 8180SOL     OW35998   0.782   1.096   5.269  0.1633 -0.4419  0.2744
 8180SOL    HW135999   0.832   1.071   5.347 -0.1868 -2.3249 -0.1136
 8180SOL    HW236000   0.818   1.180   5.240  0.9864 -0.9470 -0.1655
 8181SOL     OW36001   0.967   4.568  17.158 -0.0442  0.0596 -0.2720
 8181SOL    HW136002   0.980   4.480  17.122 -1.1880  0.0022 -0.5580
 8181SOL    HW236003   1.049   4.582  17.205 -2.4546  0.3343  3.8356
 8182SOL     OW36004   2.328   1.865  10.218  0.0492 -0.4353  0.2299
 8182SOL    HW136005   2.285   1.862  10.304  1.6827 -1.6064  1.0226
 8182SOL    HW236006   2.342   1.959  10.209  0.3234 -0.7834 -2.8625
 8183SOL     OW36007   2.148   2.162   4.027 -0.1945 -0.1855 -0.3869
 8183SOL    HW136008   2.131   2.186   4.118 -3.5636  1.0782 -1.3604
 8183SOL    HW236009   2.114   2.073   4.019 -0.9955 -0.1628  2.7781
 8184SOL     OW36010   1.460   2.520  15.905  0.2975  0.3292 -0.0235
 8184SOL    HW136011   1.408   2.536  15.984 -1.6945 -1.1209 -1.0400
 8184SOL    HW236012   1.403   2.461  15.856  1.5671  1.0569 -2.3700
 8185SOL     OW36013   4.499   4.056   3.485  0.0501  0.1840 -0.5533
 8185SOL    HW136014   4.439   4.117   3.528 -0.3515 -0.9060  0.4371
 8185SOL    HW236015   4.583   4.083   3.522  0.7175  0.1196 -2.0209
 8186SOL     OW36016   0.293   2.107   3.432  0.6831  0.4620  0.1416
 8186SOL    HW136017   0.208   2.116   3.476  1.6534  0.3923  2.0394
 8186SOL    HW236018   0.341   2.171   3.484  0.9952  1.0361 -0.8504
 8187SOL     OW36019   1.225   4.440   6.250  0.2402  0.3488 -0.2320
 8187SOL    HW136020   1.237   4.514   6.191 -1.4931 -0.5451 -1.7191
 8187SOL    HW236021   1.130   4.427   6.254  0.0282  1.7875 -0.4907
 8188SOL     OW36022   0.063   3.485   1.839 -0.0193 -0.4445 -0.3162
 8188SOL    HW136023   4.708   3.477   1.787 -0.2789  0.4005 -0.0465
 8188SOL    HW236024   0.116   3.417   1.799  2.4169 -0.1653  2.4542
 8189SOL     OW36025   3.473   0.977  15.885 -0.0327 -0.6185 -0.0910
 8189SOL    HW136026   3.421   0.904  15.920 -1.5515  0.6483  0.2922
 8189SOL    HW236027   3.472   1.042  15.955  2.5731  1.4043 -1.9692
 8190SOL     OW36028   1.738   4.290   2.684  0.0952 -0.3453 -0.1400
 8190SOL    HW136029   1.738   4.287   2.780 -0.2150  0.8553 -0.1005
 8190SOL    HW236030   1.769   4.201   2.665 -0.2677 -0.5353  0.1403
 8191SOL     OW36031   1.227   4.160   6.310 -0.4471 -0.3312 -0.7457
 8191SOL    HW136032   1.195   4.167   6.400  3.1050 -0.8369  0.5657
 8191SOL    HW236033   1.237   4.250   6.278  1.5206  0.1720  1.3042
 8192SOL     OW36034   4.503   1.980  11.103  0.0140  0.3532 -0.1958
 8192SOL    HW136035   4.473   2.027  11.181 -0.6231 -1.8179  0.8737
 8192SOL    HW236036   4.450   2.017  11.033 -0.4186 -0.8225 -0.4805
 8193SOL     OW36037   2.642   2.285  10.107 -0.0736 -0.1822 -0.2360
 8193SOL    HW136038   2.654   2.208  10.163 -0.0731  0.0344  0.0590
 8193SOL    HW236039   2.547   2.282  10.116 -0.1491 -1.6468 -1.4196
 8194SOL     OW36040   0.638   3.308   3.860 -0.1390  0.1072 -0.3169
 8194SOL    HW136041   0.575   3.248   3.820 -0.7949  1.6117 -1.5630
 8194SOL    HW236042   0.582   3.335   3.933 -1.0024 -1.0963 -0.5421
 8195SOL     OW36043   1.491   3.906   8.597 -0.1499  0.7215 -0.9156
 8195SOL    HW136044   1.521   3.905   8.688  2.0510  0.1939 -1.6635
 8195SOL    HW236045   1.476   3.815   8.572 -0.2842  0.0711  1.5135
 8196SOL     OW36046   4.172   2.659   4.537  0.3542 -0.2709  0.2071
 8196SOL    HW136047   4.102   2.602   4.505  0.6133 -0.0833 -0.6829
 8196SOL    HW236048   4.245   2.600   4.519 -1.1126 -1.3876 -1.9597
 8197SOL     OW36049   3.168   2.750  16.535 -0.3209  0.0618 -0.3614
 8197SOL    HW136050   3.094   2.697  16.506 -1.2185  0.9494  0.3450
 8197SOL    HW236051   3.216   2.677  16.574  0.2828 -0.2205 -1.6259
 8198SOL     OW36052   3.913   0.883   2.658 -0.7079  0.1717 -0.5840
 8198SOL    HW136053   3.944   0.833   2.582 -1.0172 -1.7073  0.5249
 8198SOL    HW236054   3.938   0.972   2.632  4.2775 -1.0713 -0.0744
 8199SOL     OW36055   3.431   1.597   4.157 -0.7121  0.0894 -0.2643
 8199SOL    HW136056   3.373   1.663   4.196 -0.3887 -0.0774  0.5021
 8199SOL    HW236057   3.425   1.528   4.223  0.4816 -0.6391 -0.9299
 8200SOL     OW36058   2.272   2.061   6.643 -0.8181  0.1911  0.9075
 8200SOL    HW136059   2.204   2.064   6.710  0.0724  0.7731  1.8010
 8200SOL    HW236060   2.317   1.984   6.679  0.4202  0.1355 -0.7680
 8201SOL     OW36061   0.663   2.517   8.274  0.0812 -0.4938 -0.3044
 8201SOL    HW136062   0.751   2.513   8.311  0.0605  1.2122 -0.0819
 8201SOL    HW236063   0.617   2.557   8.349 -0.7804  0.6437 -1.4446
 8202SOL     OW36064   3.804   3.214   6.323  0.3093 -0.8967 -0.4767
 8202SOL    HW136065   3.870   3.205   6.392  0.5379  1.5604 -0.3821
 8202SOL    HW236066   3.832   3.156   6.252  1.3268 -0.0156 -0.7947
 8203SOL     OW36067   3.975   3.191   2.626  0.4623 -0.4256 -0.0510
 8203SOL    HW136068   4.061   3.170   2.663  1.5465 -0.3219 -2.5216
 8203SOL    HW236069   3.932   3.118   2.671  0.6859  0.3859  1.4928
 8204SOL     OW36070   3.232   0.688   3.659  0.2012 -0.2162  0.4155
 8204SOL    HW136071   3.219   0.598   3.630 -2.2686  0.6976 -1.3632
 8204SOL    HW236072   3.147   0.730   3.647 -0.4132 -1.4200  0.5845
 8205SOL     OW36073   3.220   4.169   6.484  0.2009  0.3040  0.3965
 8205SOL    HW136074   3.310   4.136   6.490  0.4042  0.9940  1.1322
 8205SOL    HW236075   3.177   4.088   6.511 -0.4536 -0.0958 -1.7899
 8206SOL     OW36076   1.440   1.075   0.681  0.1006  0.0135  0.8228
 8206SOL    HW136077   1.348   1.063   0.656  0.4443 -1.3852  0.2895
 8206SOL    HW236078   1.483   0.997   0.648  0.2048 -0.0072  1.0059
 8207SOL     OW36079   1.783   4.049   8.491  0.0231  0.1360  0.2847
 8207SOL    HW136080   1.860   4.095   8.457 -0.9472  0.6681 -1.2167
 8207SOL    HW236081   1.818   3.993   8.561 -2.5854  0.0276  1.4783
 8208SOL     OW36082   3.246   1.558   2.761  0.6902  0.0717  0.3887
 8208SOL    HW136083   3.280   1.471   2.743  1.6945  0.8007 -1.1620
 8208SOL    HW236084   3.183   1.563   2.689  0.2802  3.2431  0.9514
 8209SOL     OW36085   0.275   0.990   0.435 -0.6871 -0.4524 -0.9732
 8209SOL    HW136086   0.233   0.923   0.381 -0.2918 -2.1443  0.8250
 8209SOL    HW236087   0.272   0.943   0.518  0.4456  2.0930  0.5094
 8210SOL     OW36088   3.443   2.699   7.927  1.0800 -0.5081  0.1265
 8210SOL    HW136089   3.375   2.676   7.990  0.5323 -0.2977 -0.3936
 8210SOL    HW236090   3.400   2.740   7.852  0.7238 -0.9091  0.1122
 8211SOL     OW36091   3.153   2.824   5.265  0.3354 -0.1911  0.6425
 8211SOL    HW136092   3.156   2.792   5.355  0.7073 -1.4824  0.1778
 8211SOL    HW236093   3.186   2.913   5.276  0.6896 -0.4383  1.5697
 8212SOL     OW36094   3.492   2.356   2.920 -0.2049  0.6442  0.1875
 8212SOL    HW136095   3.548   2.406   2.980 -0.9834  1.9811 -0.2036
 8212SOL    HW236096   3.404   2.389   2.936 -0.9262 -0.0051 -2.5098
 8213SOL     OW36097   3.593   4.618  11.118  0.1658 -0.3087  0.2702
 8213SOL    HW136098   3.593   4.677  11.043 -0.2510  0.3310  0.7709
 8213SOL    HW236099   3.613   4.540  11.067 -1.3720  0.1481 -1.0266
 8214SOL     OW36100   3.935   1.832   4.100 -0.0567 -0.5512  0.0564
 8214SOL    HW136101   4.008   1.771   4.104  0.0578 -0.4054  0.1871
 8214SOL    HW236102   3.907   1.821   4.009  1.3947  0.2855 -0.4966
 8215SOL     OW36103   1.052   3.672   6.767 -0.2465  0.0773  0.1265
 8215SOL    HW136104   1.068   3.692   6.674  0.9114  0.6811  0.4509
 8215SOL    HW236105   1.133   3.712   6.800  0.2774 -1.3525  0.5421
 8216SOL     OW36106   2.181   1.682   3.564  0.5179 -0.1084 -0.3159
 8216SOL    HW136107   2.166   1.588   3.550 -1.5539 -0.0321  1.3894
 8216SOL    HW236108   2.188   1.716   3.475 -1.9373  0.7588 -0.1767
 8217SOL     OW36109   1.268   3.787  14.261 -0.9335  0.2621 -0.0315
 8217SOL    HW136110   1.247   3.827  14.176  0.9492 -0.6799 -0.9413
 8217SOL    HW236111   1.332   3.841  14.307 -0.0840 -0.0954 -0.7891
 8218SOL     OW36112   2.440   3.975  10.289 -0.0156  0.3282  0.2721
 8218SOL    HW136113   2.491   3.941  10.216  0.1378  1.1857 -0.0209
 8218SOL    HW236114   2.360   3.932  10.259 -0.1746  1.4243 -0.8686
 8219SOL     OW36115   3.024   1.851  13.663  0.3047 -0.0172 -0.5349
 8219SOL    HW136116   2.960   1.826  13.729 -0.6673  1.7572 -0.8120
 8219SOL    HW236117   3.058   1.764  13.642  2.6496  0.9354 -0.7166
 8220SOL     OW36118   1.943   3.124   7.409 -0.3040 -0.0804 -0.3493
 8220SOL    HW136119   2.021   3.141   7.462 -1.6329 -1.5565  2.0758
 8220SOL    HW236120   1.982   3.099   7.325  2.2094 -1.0637  1.1294
 8221SOL     OW36121   1.704   3.417   3.548 -0.3407 -0.4805 -0.2593
 8221SOL    HW136122   1.627   3.380   3.504 -0.0548  0.0183 -1.1750
 8221SOL    HW236123   1.754   3.336   3.546  0.7287  0.1554  1.1357
 8222SOL     OW36124   3.431   2.720   2.441 -0.1168  0.3276  0.3305
 8222SOL    HW136125   3.365   2.730   2.372 -0.5799 -0.9234  0.5848
 8222SOL    HW236126   3.380   2.668   2.503  0.1213  0.0618  0.3031
 8223SOL     OW36127   1.854   0.730   8.067 -0.1819 -0.6811 -0.5550
 8223SOL    HW136128   1.834   0.673   7.993 -1.5471  0.7408 -1.2667
 8223SOL    HW236129   1.893   0.811   8.035  1.3062 -0.9389  0.5779
 8224SOL     OW36130   1.851   2.103   4.975 -0.4111 -0.3188 -0.5575
 8224SOL    HW136131   1.796   2.059   5.040  1.9958 -1.2646  0.8362
 8224SOL    HW236132   1.941   2.105   5.008 -0.2871 -0.9037 -0.8583
 8225SOL     OW36133   2.066   3.557   2.606 -0.4883  0.0253 -0.1056
 8225SOL    HW136134   1.981   3.592   2.632 -0.6005 -0.1675 -0.2191
 8225SOL    HW236135   2.084   3.623   2.539  0.7547 -0.1574  0.0363
 8226SOL     OW36136   1.582   1.191   9.576  0.3561  0.2676 -0.0595
 8226SOL    HW136137   1.494   1.157   9.559 -0.1368  0.0391  2.7864
 8226SOL    HW236138   1.607   1.136   9.651 -0.1408 -0.7471 -0.6347
 8227SOL     OW36139   2.059   0.402   3.113 -0.0939 -0.7867 -0.3817
 8227SOL    HW136140   2.061   0.343   3.188  1.1792  1.9961  1.7727
 8227SOL    HW236141   2.146   0.395   3.076  0.2190  1.0780  0.0056
 8228SOL     OW36142   0.057   4.208   7.449 -0.1841  0.8797 -0.0849
 8228SOL    HW136143   0.039   4.116   7.430  1.3243 -0.2955  4.1376
 8228SOL    HW236144   4.692   4.240   7.450 -0.7450 -0.7266  0.9304
 8229SOL     OW36145   2.155   2.427   3.600  0.4748  0.3720 -0.4067
 8229SOL    HW136146   2.201   2.476   3.668 -1.9017  0.6872  0.9729
 8229SOL    HW236147   2.214   2.357   3.574 -1.4453 -1.0748 -0.8299
 8230SOL     OW36148   2.062   3.980   4.481 -0.0170  0.0862  0.0681
 8230SOL    HW136149   2.065   4.060   4.535 -0.0942  0.6959 -0.8393
 8230SOL    HW236150   2.133   3.934   4.527 -1.0259  0.7344  2.3136
 8231SOL     OW36151   2.004   1.430   8.611 -1.0160  0.0824 -0.1204
 8231SOL    HW136152   2.085   1.391   8.577 -0.6598  1.5521 -0.9372
 8231SOL    HW236153   1.967   1.365   8.671  0.3904 -0.1190  0.5354
 8232SOL     OW36154   3.834   3.111  15.031 -0.2815  0.5631  0.2835
 8232SOL    HW136155   3.928   3.122  15.042 -0.1216 -0.4891  0.0415
 8232SOL    HW236156   3.812   3.126  15.123 -0.4008  3.0724 -0.1672
 8233SOL     OW36157   0.593   2.950   9.609 -0.0832  0.4530 -0.1471
 8233SOL    HW136158   0.507   2.931   9.573 -0.6209 -0.5949  1.6875
 8233SOL    HW236159   0.583   2.951   9.704  0.6236 -0.0105 -0.0641
 8234SOL     OW36160   0.521   2.082   4.127 -0.6644 -0.3989  0.1602
 8234SOL    HW136161   0.468   2.017   4.172 -0.8261 -0.0499  0.4739
 8234SOL    HW236162   0.514   2.039   4.042  0.1254  0.4357 -0.3286
 8235SOL     OW36163   0.040   4.049  13.194 -0.2494 -0.0893 -0.4884
 8235SOL    HW136164   0.091   4.118  13.151 -0.6618  1.1160  0.9462
 8235SOL    HW236165   0.074   3.979  13.139  0.3490 -0.3614  0.2413
 8236SOL     OW36166   4.392   3.886   3.954  0.2252  0.5407 -0.4904
 8236SOL    HW136167   4.435   3.867   3.871  1.0695  0.0179  0.0704
 8236SOL    HW236168   4.433   3.970   3.973  0.0264  0.7165 -0.8428
 8237SOL     OW36169   2.862   1.628   2.732  0.5183 -0.4145 -0.2157
 8237SOL    HW136170   2.835   1.657   2.819  1.2997  0.4110 -0.2514
 8237SOL    HW236171   2.930   1.692   2.710  1.1549 -0.4762  1.6181
 8238SOL     OW36172   3.446   0.866   9.887  0.1950 -0.5007  0.2524
 8238SOL    HW136173   3.466   0.772   9.884  2.0300 -0.0749 -0.6122
 8238SOL    HW236174   3.353   0.858   9.910  0.5330 -0.7310  1.5418
 8239SOL     OW36175   3.907   0.122   8.648  0.7184 -0.5312 -0.8294
 8239SOL    HW136176   3.981   0.159   8.601  2.7002 -0.6091  2.2444
 8239SOL    HW236177   3.931   0.137   8.739 -0.3923  2.2612 -1.0025
 8240SOL     OW36178   2.741   3.997   0.688 -0.2591  0.5977 -0.1182
 8240SOL    HW136179   2.658   4.023   0.647  0.3993  1.8006 -0.7007
 8240SOL    HW236180   2.727   3.903   0.698 -2.6369  1.1695  1.8633
 8241SOL     OW36181   1.562   3.287  10.694  0.2605 -0.8266  0.5548
 8241SOL    HW136182   1.529   3.201  10.668  1.4864 -1.0402 -0.3016
 8241SOL    HW236183   1.515   3.348  10.638 -0.4346  0.0862  2.1230
 8242SOL     OW36184   0.568   1.965   5.799 -0.4403  0.0339 -0.2380
 8242SOL    HW136185   0.567   2.057   5.772 -3.2661 -0.0881 -0.4942
 8242SOL    HW236186   0.614   1.968   5.883  1.4462  0.8283 -1.2965
 8243SOL     OW36187   2.243   3.052  11.400 -0.4346 -0.1622  0.2169
 8243SOL    HW136188   2.192   2.975  11.374  1.4301 -2.2384  2.7548
 8243SOL    HW236189   2.322   3.015  11.440  1.4501  4.0634  0.3393
 8244SOL     OW36190   2.457   2.969   2.869 -0.4025 -0.1423 -0.2933
 8244SOL    HW136191   2.490   2.885   2.838  1.3170  1.1442 -1.9655
 8244SOL    HW236192   2.522   3.038   2.853  0.6098 -0.6955  1.4640
 8245SOL     OW36193   1.130   3.134   1.022 -0.7511  0.0400 -0.3833
 8245SOL    HW136194   1.136   3.042   1.046  1.2119 -0.0478 -1.1779
 8245SOL    HW236195   1.199   3.134   0.956  0.0560  1.1776  0.4456
 8246SOL     OW36196   1.774   1.984   2.751 -0.0339  0.8436 -1.0232
 8246SOL    HW136197   1.831   2.061   2.753  2.1690 -0.7672 -2.2114
 8246SOL    HW236198   1.785   1.965   2.844  1.5533 -0.0803 -1.4142
 8247SOL     OW36199   3.038   4.545   7.374 -0.3819  0.3715  0.6099
 8247SOL    HW136200   3.065   4.467   7.422 -1.4521  0.4536  1.3339
 8247SOL    HW236201   3.109   4.608   7.390  0.5995 -0.4327 -0.5504
 8248SOL     OW36202   3.075   1.648   1.379  0.1368  0.0256 -0.0704
 8248SOL    HW136203   3.010   1.579   1.391 -0.4504  0.7722  1.0681
 8248SOL    HW236204   3.024   1.726   1.399  0.0431 -0.1627  0.4222
 8249SOL     OW36205   4.320   3.264  14.369  0.4852  0.4108 -0.2850
 8249SOL    HW136206   4.257   3.336  14.366 -0.9253 -0.9208 -1.9940
 8249SOL    HW236207   4.373   3.283  14.292 -0.3029  1.0795 -0.6583
 8250SOL     OW36208   0.399   1.878   4.291  0.1870 -0.3315  0.7594
 8250SOL    HW136209   0.437   1.793   4.311 -2.9094 -2.5849 -2.8256
 8250SOL    HW236210   0.357   1.894   4.376 -3.2087  1.4868 -1.2606
 8251SOL     OW36211   3.335   0.878  10.639  0.8426  0.1563  0.1986
 8251SOL    HW136212   3.366   0.882  10.548 -0.2919  0.6608 -0.1691
 8251SOL    HW236213   3.288   0.960  10.652  2.8298  1.4714 -0.7909
 8252SOL     OW36214   0.924   1.536   8.279 -0.9148 -0.9766  0.6069
 8252SOL    HW136215   0.942   1.447   8.248  0.3964  0.3478 -2.4425
 8252SOL    HW236216   0.929   1.528   8.374 -0.0246  0.8410  0.7217
 8253SOL     OW36217   3.125   2.441   2.001  0.2986  0.1826 -0.0783
 8253SOL    HW136218   3.197   2.453   1.940 -0.6023  0.7719 -1.0297
 8253SOL    HW236219   3.155   2.369   2.057  1.4489  0.7993  0.0770
 8254SOL     OW36220   3.259   4.028   3.726  0.9518 -0.1109  0.2629
 8254SOL    HW136221   3.345   4.058   3.755 -0.3676  2.3787  1.6063
 8254SOL    HW236222   3.251   4.064   3.638  0.8849 -1.1453 -0.1443
 8255SOL     OW36223   4.262   2.866   3.715  0.4942  0.4738  0.5126
 8255SOL    HW136224   4.307   2.787   3.685 -0.5660  0.5325 -1.2165
 8255SOL    HW236225   4.178   2.864   3.668  0.8585 -0.5414 -0.0921
 8256SOL     OW36226   2.460   4.266   4.297 -0.3648 -0.0136  0.2584
 8256SOL    HW136227   2.448   4.351   4.340  0.8472 -0.0183  0.6013
 8256SOL    HW236228   2.554   4.255   4.280 -0.7809 -1.0658 -1.3343
 8257SOL     OW36229   0.015   1.651   2.173  0.3495  0.1469  0.1862
 8257SOL    HW136230   4.673   1.633   2.239  1.9521 -2.2436  1.1661
 8257SOL    HW236231   4.719   1.583   2.109  2.1681 -1.6017  1.4671
 8258SOL     OW36232   1.830   2.469   6.709  0.2344 -0.0438  0.2314
 8258SOL    HW136233   1.828   2.561   6.736  0.8009 -0.5006  1.8053
 8258SOL    HW236234   1.761   2.425   6.759 -1.6149  1.3250 -1.0736
 8259SOL     OW36235   0.927   0.037   1.558  0.7772 -0.3147 -0.0676
 8259SOL    HW136236   0.856   0.100   1.548  1.8088  0.5407 -2.0605
 8259SOL    HW236237   0.997   0.073   1.504 -1.7350 -0.5566 -3.4577
 8260SOL     OW36238   4.051   3.631   9.953  0.5755  0.0890 -0.1021
 8260SOL    HW136239   4.010   3.718   9.947  0.6079  0.1916  1.2003
 8260SOL    HW236240   4.102   3.633   9.872  2.4939 -0.6111  1.1046
 8261SOL     OW36241   1.336   4.168   6.017 -0.0855  0.2723  0.2299
 8261SOL    HW136242   1.306   4.189   6.105  1.7922 -0.8124  1.1409
 8261SOL    HW236243   1.294   4.243   5.976 -1.2277 -0.0392  0.8444
 8262SOL     OW36244   1.953   0.831  14.153  0.1564  0.0226  0.0824
 8262SOL    HW136245   1.903   0.854  14.231  0.2909 -0.1960  0.2324
 8262SOL    HW236246   1.884   0.815  14.089  0.4707  3.2226 -1.0312
 8263SOL     OW36247   0.062   0.753   4.469 -1.1841  0.3884 -0.0708
 8263SOL    HW136248   0.082   0.746   4.375 -4.0005 -2.1003 -0.4889
 8263SOL    HW236249   0.075   0.662   4.496  0.9348  0.7043 -0.0389
 8264SOL     OW36250   1.807   4.277   7.595  0.3492 -0.2080 -0.1669
 8264SOL    HW136251   1.784   4.318   7.678  0.2441 -0.1888 -0.2051
 8264SOL    HW236252   1.751   4.200   7.585  1.3970 -0.9453 -0.2891
 8265SOL     OW36253   1.819   1.453   9.056 -0.4622 -0.7901 -0.2662
 8265SOL    HW136254   1.831   1.529   9.000  1.5677 -0.3779  0.7318
 8265SOL    HW236255   1.804   1.482   9.146  1.7970 -0.9460  0.1753
 8266SOL     OW36256   2.550   4.397   9.520  0.6191  0.2704  0.0629
 8266SOL    HW136257   2.538   4.377   9.613  1.0714  1.4590  0.3719
 8266SOL    HW236258   2.586   4.315   9.486 -0.0534 -0.1991  0.4723
 8267SOL     OW36259   0.176   1.857   1.149 -0.4211  0.1610 -0.2581
 8267SOL    HW136260   0.151   1.855   1.241 -0.6323 -2.1948 -0.3799
 8267SOL    HW236261   0.239   1.929   1.148 -0.9981  0.6646  0.1264
 8268SOL     OW36262   2.590   1.484   7.140 -0.9674 -0.0172  0.5663
 8268SOL    HW136263   2.585   1.483   7.045 -2.0598 -1.8704  0.6303
 8268SOL    HW236264   2.617   1.394   7.157  1.0077  0.2896 -0.9611
 8269SOL     OW36265   4.647   0.822   6.101 -0.8277 -0.3556  0.0920
 8269SOL    HW136266   4.563   0.863   6.081 -0.6164  0.3817  0.7302
 8269SOL    HW236267   4.675   0.794   6.013 -0.7964 -1.8070  0.5620
 8270SOL     OW36268   4.428   2.682  13.380 -0.3473  0.5958 -0.4334
 8270SOL    HW136269   4.352   2.740  13.385 -0.6223  0.2230 -0.3137
 8270SOL    HW236270   4.393   2.598  13.348  0.8999  0.4903 -1.5515
 8271SOL     OW36271   1.801   3.780   5.830 -0.4446 -0.6029 -0.1775
 8271SOL    HW136272   1.719   3.731   5.821 -1.0041  0.2005  0.5534
 8271SOL    HW236273   1.773   3.859   5.784  0.7103  0.0778  0.2850
 8272SOL     OW36274   3.546   1.075  11.825 -0.3675  0.0026  0.2781
 8272SOL    HW136275   3.586   1.024  11.754  1.0411  1.2886  0.1537
 8272SOL    HW236276   3.452   1.081  11.809 -0.4637  0.3231  0.9789
 8273SOL     OW36277   4.512   2.375   8.405  0.9525  0.1912  0.0587
 8273SOL    HW136278   4.605   2.363   8.423  0.5687  0.4912  2.2625
 8273SOL    HW236279   4.485   2.290   8.440  0.3221  0.2516 -0.2912
 8274SOL     OW36280   2.076   2.188   6.837 -0.0292 -0.7555  0.2536
 8274SOL    HW136281   2.025   2.115   6.803 -2.0841  2.1218 -2.8591
 8274SOL    HW236282   2.043   2.195   6.926 -0.1533 -0.2008  0.1683
 8275SOL     OW36283   2.530   1.552   7.400  0.3400  0.2122 -0.0850
 8275SOL    HW136284   2.531   1.543   7.304 -0.6084 -1.3527  0.0475
 8275SOL    HW236285   2.619   1.529   7.425  0.3630 -0.6048 -0.9275
 8276SOL     OW36286   1.703   3.130   7.520 -0.5591 -0.3525  0.1517
 8276SOL    HW136287   1.778   3.131   7.461 -2.4723  0.2509 -2.2924
 8276SOL    HW236288   1.752   3.166   7.594  0.0204  1.7889 -1.2680
 8277SOL     OW36289   0.535   3.709   1.973 -0.1026 -0.3135  0.8891
 8277SOL    HW136290   0.595   3.776   1.940  0.1174 -0.7945  0.2972
 8277SOL    HW236291   0.486   3.676   1.897  2.8142 -0.8829 -0.7865
 8278SOL     OW36292   2.099   2.371  11.657 -0.3619 -0.2323 -0.7566
 8278SOL    HW136293   2.062   2.355  11.570  1.0872 -2.7662 -0.9085
 8278SOL    HW236294   2.193   2.365  11.641 -0.0720 -0.1787  0.9867
 8279SOL     OW36295   2.581   4.665  13.921 -0.5722 -0.1450  0.0946
 8279SOL    HW136296   2.582   0.033  13.900 -0.1216 -0.2339 -0.2726
 8279SOL    HW236297   2.494   4.659  13.961 -0.1850 -1.7091  0.7271
 8280SOL     OW36298   1.497   2.728  15.347 -0.0683 -0.1582  0.5318
 8280SOL    HW136299   1.543   2.674  15.411  0.3754  0.4404  0.7222
 8280SOL    HW236300   1.409   2.736  15.384  0.0116 -0.2111  0.7304
 8281SOL     OW36301   3.573   0.808   4.472 -0.0341 -0.3716  0.0969
 8281SOL    HW136302   3.480   0.829   4.473  0.0309  0.0424 -1.5367
 8281SOL    HW236303   3.618   0.862   4.536 -0.5450 -0.3585  0.4416
 8282SOL     OW36304   2.528   2.689   7.338 -0.6398  0.1813 -0.8655
 8282SOL    HW136305   2.478   2.607   7.331 -1.6306  0.5738  1.8044
 8282SOL    HW236306   2.592   2.655   7.274 -0.1532  0.1483 -0.3631
 8283SOL     OW36307   2.963   1.662  14.462  0.3262 -0.4183  0.1614
 8283SOL    HW136308   2.981   1.756  14.465 -2.7690  0.2281 -1.3782
 8283SOL    HW236309   2.874   1.664  14.427  0.6577 -0.6809 -0.6927
 8284SOL     OW36310   0.466   2.998   0.486 -0.2699 -0.4058  0.5820
 8284SOL    HW136311   0.412   3.077   0.492  0.0983 -0.1685  0.8296
 8284SOL    HW236312   0.430   2.956   0.408  0.3487  0.9219 -0.4220
 8285SOL     OW36313   2.720   4.205  12.383 -0.3768 -0.5258 -0.1535
 8285SOL    HW136314   2.763   4.287  12.408 -0.0426 -1.1639  1.4332
 8285SOL    HW236315   2.751   4.156  12.460 -1.0652  0.1507  0.5501
 8286SOL     OW36316   4.607   1.891  13.923  0.7466  0.1329 -0.0321
 8286SOL    HW136317   4.555   1.960  13.882  0.4059  1.0359  1.9343
 8286SOL    HW236318   4.549   1.873  13.997  1.3482  0.3942  0.5061
 8287SOL     OW36319   3.674   0.989   7.486 -0.2068  0.0710 -0.3590
 8287SOL    HW136320   3.596   0.945   7.452  0.8619 -1.1095 -1.2874
 8287SOL    HW236321   3.698   0.918   7.546 -2.1277  1.0759  1.6206
 8288SOL     OW36322   1.332   0.223  11.399 -0.0785  0.2044  0.1508
 8288SOL    HW136323   1.420   0.187  11.406 -0.6759 -1.0797  0.9906
 8288SOL    HW236324   1.353   0.316  11.386 -1.9722  0.5781 -0.3372
 8289SOL     OW36325   4.687   3.087   4.382 -0.2555 -0.2488 -0.5056
 8289SOL    HW136326   4.630   3.076   4.306 -0.2510  0.9375 -0.6809
 8289SOL    HW236327   4.723   3.175   4.376 -1.0356  0.0030 -1.4868
 8290SOL     OW36328   2.293   1.711   9.824 -0.5909  0.4340  0.4991
 8290SOL    HW136329   2.227   1.761   9.871  0.4466  1.8128  0.4868
 8290SOL    HW236330   2.238   1.640   9.790 -0.1993 -0.1621  1.1050
 8291SOL     OW36331   1.924   0.815   6.336  0.5384  0.8300  0.6400
 8291SOL    HW136332   1.882   0.729   6.342 -0.1758  1.0681 -0.8665
 8291SOL    HW236333   1.968   0.803   6.420  0.1764  2.6551  1.0931
 8292SOL     OW36334   3.939   0.410  12.408  0.5649 -0.3971  0.3868
 8292SOL    HW136335   4.030   0.425  12.381 -0.6029  3.7310 -1.2191
 8292SOL    HW236336   3.958   0.341  12.472 -0.4738 -2.4210 -1.4693
 8293SOL     OW36337   2.333   3.677  12.494 -0.1096 -0.2001 -0.1803
 8293SOL    HW136338   2.278   3.667  12.572  0.3248 -0.1511  0.1312
 8293SOL    HW236339   2.409   3.637  12.537 -0.2030 -1.1093 -0.8560
 8294SOL     OW36340   4.503   1.378   0.678 -0.1448 -0.8898 -0.1489
 8294SOL    HW136341   4.475   1.405   0.591  2.0562 -0.1155 -0.6078
 8294SOL    HW236342   4.586   1.336   0.656  1.0401  0.7815  1.1956
 8295SOL     OW36343   2.819   3.718   8.498 -0.0999  0.1760  0.0839
 8295SOL    HW136344   2.785   3.694   8.584 -1.1042 -0.5095 -0.4991
 8295SOL    HW236345   2.829   3.812   8.512  1.1193 -0.0200  0.5312
 8296SOL     OW36346   1.855   3.816   3.535 -0.3773 -0.2503 -0.1273
 8296SOL    HW136347   1.933   3.842   3.584 -2.3531 -0.3942  3.0892
 8296SOL    HW236348   1.830   3.903   3.505 -2.3063 -1.2358 -1.3752
 8297SOL     OW36349   0.174   3.925   1.456 -0.4694 -0.1303  0.3246
 8297SOL    HW136350   0.179   3.834   1.485 -0.4339 -0.3304 -0.3027
 8297SOL    HW236351   0.210   3.929   1.368  0.3409 -0.6529  0.6386
 8298SOL     OW36352   0.325   1.583   8.943  0.1287  0.7816  0.1951
 8298SOL    HW136353   0.359   1.639   8.873 -0.8402 -0.3529 -1.1663
 8298SOL    HW236354   0.400   1.580   9.002 -0.1364  0.4175  0.5069
 8299SOL     OW36355   2.432   3.164  15.713  0.6202  0.1856 -0.3645
 8299SOL    HW136356   2.337   3.162  15.701  0.8261 -1.5629 -1.7050
 8299SOL    HW236357   2.454   3.237  15.654  0.5046  0.5769  0.0788
 8300SOL     OW36358   3.386   2.448   5.352  0.0509 -0.5187 -0.6378
 8300SOL    HW136359   3.380   2.534   5.312 -0.4832 -0.0793  0.3993
 8300SOL    HW236360   3.426   2.394   5.283  2.1998 -1.1805  1.0989
 8301SOL     OW36361   1.371   1.600   8.427 -0.3926  0.3755 -0.4954
 8301SOL    HW136362   1.334   1.682   8.460  0.8750  0.4914  0.5834
 8301SOL    HW236363   1.433   1.577   8.495  1.2341  3.5616 -0.9022
 8302SOL     OW36364   3.669   4.483   2.243 -0.1615  0.3677 -0.1767
 8302SOL    HW136365   3.683   4.408   2.302 -1.6250  2.5072  2.8852
 8302SOL    HW236366   3.584   4.464   2.203  1.1637  1.2408 -3.3501
 8303SOL     OW36367   4.062   3.359   0.192  0.1880 -0.3011  0.0813
 8303SOL    HW136368   4.078   3.432   0.252  2.6644  0.6068 -1.7118
 8303SOL    HW236369   3.967   3.365   0.197  0.2493  0.1508  0.7811
 8304SOL     OW36370   0.947   1.579   5.855 -0.4315 -0.0513 -0.2474
 8304SOL    HW136371   0.940   1.671   5.881  1.4730  0.3461 -1.1533
 8304SOL    HW236372   0.991   1.592   5.771  0.5899 -0.3075  0.2436
 8305SOL     OW36373   1.526   2.359   7.145  0.3138 -0.7682  0.1766
 8305SOL    HW136374   1.462   2.305   7.190 -0.6689 -0.9313 -1.4287
 8305SOL    HW236375   1.485   2.445   7.158 -1.4368 -1.4890 -0.5179
 8306SOL     OW36376   1.331   0.232   6.137  0.1988  0.2204 -0.2224
 8306SOL    HW136377   1.397   0.301   6.140  1.2742 -0.8725  1.1458
 8306SOL    HW236378   1.381   0.165   6.184  0.9060 -0.8717 -2.5153
 8307SOL     OW36379   3.687   4.462  12.836 -0.1628  0.1136  0.5830
 8307SOL    HW136380   3.742   4.384  12.830 -1.0943 -0.4057 -1.1725
 8307SOL    HW236381   3.609   4.433  12.789  0.5438  1.9317 -1.6990
 8308SOL     OW36382   2.247   3.040   3.578 -0.7827 -0.0566  0.2183
 8308SOL    HW136383   2.297   3.112   3.537 -3.1722  1.0296 -0.7747
 8308SOL    HW236384   2.195   3.017   3.501  1.9231  0.9047 -1.9254
 8309SOL     OW36385   3.949   3.055  13.750  0.1387 -0.2939 -0.0912
 8309SOL    HW136386   3.879   3.008  13.796 -0.7538  0.0289 -1.1218
 8309SOL    HW236387   3.999   3.096  13.821 -0.7355  0.5011  0.0560
 8310SOL     OW36388   0.944   1.780   3.189 -0.4446 -0.2397 -0.2019
 8310SOL    HW136389   0.938   1.800   3.096 -3.2799 -1.1551 -0.2239
 8310SOL    HW236390   1.031   1.803   3.220 -0.0894 -0.8970 -0.7270
 8311SOL     OW36391   3.193   0.433   5.729  0.2693 -0.3485 -0.1591
 8311SOL    HW136392   3.208   0.348   5.769  0.0981 -1.0076 -1.4876
 8311SOL    HW236393   3.142   0.470   5.801 -0.6267 -1.6110 -0.1415
 8312SOL     OW36394   1.948   2.051  16.030 -0.3270  0.0029 -0.1980
 8312SOL    HW136395   1.866   2.078  16.072 -0.7347 -0.9689 -0.3562
 8312SOL    HW236396   1.910   1.987  15.970 -1.1190  1.4816 -1.2762
 8313SOL     OW36397   1.740   0.353  14.581  0.1321 -0.0786 -0.4811
 8313SOL    HW136398   1.743   0.272  14.531 -1.2761 -0.0350 -0.6344
 8313SOL    HW236399   1.762   0.311  14.664 -0.0450  0.2591 -0.2641
 8314SOL     OW36400   2.705   3.460   7.213 -0.3268  0.4506  0.1718
 8314SOL    HW136401   2.755   3.485   7.291 -0.1854 -0.9322  0.5148
 8314SOL    HW236402   2.767   3.488   7.145  1.9883 -2.2759  1.1959
 8315SOL     OW36403   3.771   1.796   6.098  0.8516  0.1567  0.2295
 8315SOL    HW136404   3.841   1.814   6.035  1.6028 -0.6960  0.8204
 8315SOL    HW236405   3.820   1.819   6.176 -1.7246  0.2778  1.8077
 8316SOL     OW36406   3.223   1.979   2.640 -0.4954  0.0462 -0.2252
 8316SOL    HW136407   3.191   1.992   2.551  3.7417 -1.2783 -1.9366
 8316SOL    HW236408   3.155   1.926   2.680 -0.6745 -0.1328 -0.7665
 8317SOL     OW36409   1.496   3.993   6.467  0.0833  0.0217 -0.2893
 8317SOL    HW136410   1.553   4.069   6.483  0.4177 -0.1784 -0.5334
 8317SOL    HW236411   1.559   3.921   6.467 -0.6505 -0.6249 -0.3660
 8318SOL     OW36412   3.581   0.865   2.720  0.3957  0.3618 -0.4639
 8318SOL    HW136413   3.676   0.871   2.716  0.6337 -3.4195 -0.6916
 8318SOL    HW236414   3.574   0.796   2.787 -0.8489 -0.4332 -1.3990
 8319SOL     OW36415   4.718   2.210   3.914  0.0608 -0.3512 -0.1009
 8319SOL    HW136416   0.019   2.297   3.945  0.6036 -1.3833  2.3115
 8319SOL    HW236417   4.622   2.217   3.907  0.2422  0.6614 -1.6666
 8320SOL     OW36418   1.939   0.641   1.332  0.3002 -0.5318  0.0947
 8320SOL    HW136419   2.032   0.640   1.308  0.6992 -0.3785  1.6080
 8320SOL    HW236420   1.944   0.662   1.425 -2.1714 -1.0845  0.3437
 8321SOL     OW36421   0.739   3.954  11.289 -0.1001  0.7490  0.0193
 8321SOL    HW136422   0.753   3.896  11.214 -0.2694  0.2766  0.3531
 8321SOL    HW236423   0.811   4.014  11.270 -0.6470  1.4470  0.1755
 8322SOL     OW36424   0.412   3.612   3.641 -0.4625  0.4326 -0.4365
 8322SOL    HW136425   0.332   3.560   3.647 -0.1048  0.2563  2.7565
 8322SOL    HW236426   0.463   3.561   3.579 -2.4673 -1.4773 -0.5210
 8323SOL     OW36427   2.657   4.304   7.933 -0.0114  0.2622  0.2234
 8323SOL    HW136428   2.655   4.333   7.842  1.0619 -1.4299 -0.3308
 8323SOL    HW236429   2.689   4.376   7.987 -1.5122  1.2448 -0.1946
 8324SOL     OW36430   1.137   2.368   3.818 -0.0637  0.2057 -0.2003
 8324SOL    HW136431   1.044   2.360   3.839 -0.1478  1.3444 -0.1167
 8324SOL    HW236432   1.140   2.428   3.744  1.4670  3.6877  2.6271
 8325SOL     OW36433   4.329   4.269  15.048  0.1723  0.2472  0.1906
 8325SOL    HW136434   4.411   4.278  15.097  0.4402 -0.3628 -0.1364
 8325SOL    HW236435   4.325   4.174  15.063  1.3036  0.1962  0.1863
 8326SOL     OW36436   2.256   2.098  11.648 -0.3053 -0.6062 -0.3561
 8326SOL    HW136437   2.319   2.167  11.668  0.1605 -1.1183 -0.0331
 8326SOL    HW236438   2.282   2.065  11.562 -2.8749 -0.2211 -1.2823
 8327SOL     OW36439   0.046   2.854  14.818  0.2179 -0.2085 -0.1960
 8327SOL    HW136440   0.029   2.945  14.843 -0.7612  0.2362 -2.4640
 8327SOL    HW236441   0.066   2.817  14.904  0.3459 -0.0291 -0.1492
 8328SOL     OW36442   0.297   3.297  11.541  0.0800 -0.2939  0.2398
 8328SOL    HW136443   0.380   3.317  11.583  0.4087  1.8657 -1.4286
 8328SOL    HW236444   0.318   3.321  11.451 -1.3963 -0.9913 -0.2912
 8329SOL     OW36445   3.462   4.252  16.676  0.0996  0.1595 -0.2702
 8329SOL    HW136446   3.439   4.306  16.601  0.6869 -0.3961 -0.8475
 8329SOL    HW236447   3.432   4.170  16.636 -1.2098  0.6153 -0.2037
 8330SOL     OW36448   2.073   4.108   5.489  0.1813 -0.3699  0.2590
 8330SOL    HW136449   2.055   4.199   5.462  2.7571  0.5119  1.4876
 8330SOL    HW236450   2.167   4.100   5.472  1.0671  1.5623  4.2764
 8331SOL     OW36451   1.854   2.148   8.824 -0.4916  0.3530 -0.2460
 8331SOL    HW136452   1.885   2.185   8.742 -2.5887  1.5993 -0.4810
 8331SOL    HW236453   1.909   2.190   8.891 -2.1099  2.3235 -0.1736
 8332SOL     OW36454   4.239   3.479  16.721  0.3534  0.7570  1.1762
 8332SOL    HW136455   4.317   3.472  16.775  2.5658 -1.3490 -2.3170
 8332SOL    HW236456   4.180   3.417  16.765  0.1777  0.1193  0.0464
 8333SOL     OW36457   2.014   4.255   5.117  0.4674 -0.5548  0.3188
 8333SOL    HW136458   1.937   4.249   5.061  1.3030 -1.1179 -0.7673
 8333SOL    HW236459   2.008   4.171   5.162  0.4658 -0.6889  0.0675
 8334SOL     OW36460   0.963   2.357   5.787  0.7301 -0.6698  0.2551
 8334SOL    HW136461   1.019   2.349   5.710 -0.3517  1.9357 -0.8162
 8334SOL    HW236462   1.022   2.394   5.853 -1.2684 -0.9927  2.2192
 8335SOL     OW36463   0.985   4.528   4.309 -1.1844  0.0483  0.1802
 8335SOL    HW136464   0.979   4.574   4.225 -0.5991  0.0635  0.1444
 8335SOL    HW236465   1.013   4.603   4.363  0.0996 -0.3381  0.0521
 8336SOL     OW36466   1.356   3.585   6.298 -0.7542 -0.2024 -0.4463
 8336SOL    HW136467   1.401   3.657   6.253  1.9821 -1.1432  0.8293
 8336SOL    HW236468   1.266   3.603   6.271  0.2007  3.7659 -0.9546
 8337SOL     OW36469   1.139   0.336   6.338  0.2037  0.2360  0.0168
 8337SOL    HW136470   1.138   0.431   6.321 -1.4486  0.0659 -0.8345
 8337SOL    HW236471   1.150   0.296   6.252 -1.1476 -0.5027  0.1928
 8338SOL     OW36472   1.110   3.824   7.897 -0.1070 -0.2319  0.3193
 8338SOL    HW136473   1.036   3.874   7.863  0.8216  1.2275  0.4680
 8338SOL    HW236474   1.107   3.749   7.837  0.5009 -0.3153  0.3887
 8339SOL     OW36475   1.003   0.656   8.729 -0.2247  0.3711 -0.3017
 8339SOL    HW136476   1.081   0.639   8.782 -0.7434 -0.1568  0.2895
 8339SOL    HW236477   0.967   0.568   8.731  0.2483  0.1356 -1.6056
 8340SOL     OW36478   3.379   3.839   3.289  0.1038  0.2479 -0.1062
 8340SOL    HW136479   3.381   3.827   3.384  0.3412  0.0110 -0.1415
 8340SOL    HW236480   3.284   3.847   3.279 -0.1624 -1.2985  1.2768
 8341SOL     OW36481   0.284   2.338   7.624  0.2093 -0.2813 -0.1448
 8341SOL    HW136482   0.357   2.278   7.609 -0.1955 -0.8493  0.1972
 8341SOL    HW236483   0.235   2.288   7.689 -0.3352 -1.8148 -1.7502
 8342SOL     OW36484   3.129   4.530   8.174  0.1882 -0.3324  0.3816
 8342SOL    HW136485   3.080   4.483   8.241  1.6588 -1.6332  0.5364
 8342SOL    HW236486   3.214   4.488   8.185  0.6433  0.2595 -0.9146
 8343SOL     OW36487   2.238   1.011   3.585  0.5170  1.1377 -0.1374
 8343SOL    HW136488   2.305   0.995   3.651  0.7556 -1.3119 -0.9539
 8343SOL    HW236489   2.243   0.926   3.541 -0.4949 -0.3957  2.6877
 8344SOL     OW36490   3.648   1.325   4.235  0.0039  0.0555 -0.2816
 8344SOL    HW136491   3.734   1.360   4.256  0.2677 -0.4002 -0.5947
 8344SOL    HW236492   3.675   1.240   4.199 -0.0862  0.8394 -2.2431
 8345SOL     OW36493   1.689   0.003  10.396  0.1804 -0.3199 -0.4473
 8345SOL    HW136494   1.616   0.037  10.448  1.0499  1.0198 -0.1042
 8345SOL    HW236495   1.672   4.634  10.398 -2.5794  0.1748 -0.4091
 8346SOL     OW36496   3.532   2.284   4.468 -0.5628  0.2671 -0.1393
 8346SOL    HW136497   3.559   2.340   4.540  1.6122  0.4610 -1.0887
 8346SOL    HW236498   3.562   2.339   4.395  0.9961 -0.2087  0.1355
 8347SOL     OW36499   2.679   1.466  17.587 -0.5752  0.0623  0.0754
 8347SOL    HW136500   2.726   1.390  17.555 -0.1042 -0.1838  1.3708
 8347SOL    HW236501   2.654   1.450  17.678  0.7529 -1.8570  0.1027
 8348SOL     OW36502   1.014   2.027   5.237 -0.1675  0.2429 -0.5141
 8348SOL    HW136503   0.946   2.009   5.301  0.6391 -1.0412 -0.0204
 8348SOL    HW236504   1.036   2.117   5.262 -0.1072 -0.3158  1.4115
 8349SOL     OW36505   2.146   0.092   3.599 -0.2344  0.0300 -0.1336
 8349SOL    HW136506   2.125   4.724   3.606 -0.2967  0.0057 -0.6385
 8349SOL    HW236507   2.122   0.124   3.686 -0.0979 -0.8240  0.2158
 8350SOL     OW36508   0.630   3.596   3.818 -0.2132 -0.3558  0.4280
 8350SOL    HW136509   0.639   3.501   3.824  0.6761 -0.2605  0.7233
 8350SOL    HW236510   0.547   3.590   3.770 -1.1178 -1.5483  2.1476
 8351SOL     OW36511   3.393   1.493   4.425  0.6073 -0.0972  0.0831
 8351SOL    HW136512   3.315   1.490   4.481  1.5177  0.3954  1.3493
 8351SOL    HW236513   3.448   1.557   4.470 -0.3389  0.4367  0.4821
 8352SOL     OW36514   2.975   4.328   7.763  0.6960 -0.4265 -0.2538
 8352SOL    HW136515   2.933   4.414   7.754 -2.7508 -1.7510  3.2061
 8352SOL    HW236516   3.029   4.332   7.841 -0.1513  0.5077  0.2884
 8353SOL     OW36517   4.194   0.561   4.431 -0.2097 -0.3672 -0.1000
 8353SOL    HW136518   4.195   0.469   4.458 -0.1438  0.4767  2.7727
 8353SOL    HW236519   4.185   0.609   4.513 -1.6262 -2.5743  1.0526
 8354SOL     OW36520   2.184   1.019   3.913 -0.2297 -0.4326  0.4261
 8354SOL    HW136521   2.215   0.935   3.879 -1.0057 -0.8765  0.8216
 8354SOL    HW236522   2.101   0.999   3.955  0.5791 -1.4238  1.5445
 8355SOL     OW36523   3.473   2.971   6.029 -0.3083  0.1352 -0.5517
 8355SOL    HW136524   3.476   2.881   6.062  0.4453  0.2874 -0.1909
 8355SOL    HW236525   3.523   2.948   5.950 -0.2679  3.9632 -1.6601
 8356SOL     OW36526   2.418   3.301  11.401 -0.4533  0.4621 -0.6200
 8356SOL    HW136527   2.349   3.239  11.377 -1.6745  0.9198  1.6805
 8356SOL    HW236528   2.477   3.305  11.325  1.2102  0.4493  0.6776
 8357SOL     OW36529   1.482   2.072  14.092 -0.5818  0.9174  0.6318
 8357SOL    HW136530   1.490   1.978  14.109  0.6111  0.9629  0.3320
 8357SOL    HW236531   1.463   2.064  13.998  3.1022  1.5627 -0.1659
 8358SOL     OW36532   1.515   4.715   6.860  0.1677 -0.6027 -0.1796
 8358SOL    HW136533   1.426   4.709   6.826 -0.2660  1.6842  0.5935
 8358SOL    HW236534   1.497   4.661   6.936  3.0288  1.8659  2.2317
 8359SOL     OW36535   2.617   3.707   7.848  0.4229  0.2359 -0.1580
 8359SOL    HW136536   2.661   3.728   7.931 -2.1569  2.0020  0.7845
 8359SOL    HW236537   2.634   3.787   7.798  3.5539  0.0267  0.5688
 8360SOL     OW36538   0.964   1.322   9.071  0.1099  0.4766 -0.8864
 8360SOL    HW136539   0.894   1.328   9.135  0.2274  2.1754 -0.9171
 8360SOL    HW236540   0.941   1.388   9.006  0.4809  0.6847 -0.8119
 8361SOL     OW36541   3.097   0.103  16.555  0.2061 -0.4664 -0.0885
 8361SOL    HW136542   3.008   0.066  16.549  0.1957 -0.4263 -0.1929
 8361SOL    HW236543   3.142   0.033  16.602  1.6544  0.4115 -0.1735
 8362SOL     OW36544   2.501   3.444   8.521 -0.2567 -0.2263  0.0711
 8362SOL    HW136545   2.502   3.414   8.612 -1.3557 -2.2301 -0.5705
 8362SOL    HW236546   2.408   3.448   8.499  0.2260  0.6082 -1.8233
 8363SOL     OW36547   4.590   2.802   4.411 -0.2939  0.2886  0.0591
 8363SOL    HW136548   4.515   2.766   4.364  1.1385 -1.3236 -0.9958
 8363SOL    HW236549   4.609   2.873   4.349 -0.8624 -0.3028 -0.7958
 8364SOL     OW36550   2.757   2.441  12.240 -0.0622  0.2999  0.4829
 8364SOL    HW136551   2.733   2.508  12.175  2.2176  2.4107  1.8372
 8364SOL    HW236552   2.758   2.504  12.312 -0.2841  0.3726  0.4238
 8365SOL     OW36553   0.350   1.221   4.894 -0.6076 -0.4351 -0.4490
 8365SOL    HW136554   0.256   1.235   4.884 -0.6577 -1.4220 -1.3689
 8365SOL    HW236555   0.367   1.242   4.802 -3.1829 -1.3418 -1.1348
 8366SOL     OW36556   1.218   1.813  13.484 -0.2362  0.4053  0.6915
 8366SOL    HW136557   1.306   1.850  13.489  0.4286 -1.0594 -0.1582
 8366SOL    HW236558   1.229   1.734  13.431 -1.2353  0.8144 -0.1188
 8367SOL     OW36559   0.327   1.238  13.034  0.4909 -0.4153 -0.5751
 8367SOL    HW136560   0.240   1.201  13.037  0.1964  0.4549  1.2693
 8367SOL    HW236561   0.336   1.264  13.125 -1.9869 -0.2977 -0.3874
 8368SOL     OW36562   3.265   0.345   0.896 -0.3760  0.6106 -0.4109
 8368SOL    HW136563   3.244   0.406   0.966 -1.3540  0.8710 -0.9315
 8368SOL    HW236564   3.176   0.310   0.885 -1.2160  2.9586 -1.1212
 8369SOL     OW36565   0.329   1.281   8.826  0.2831  0.2223 -0.3838
 8369SOL    HW136566   0.331   1.258   8.919  0.1705  0.9721 -0.1966
 8369SOL    HW236567   0.285   1.366   8.823 -0.7564 -0.3463 -1.1039
 8370SOL     OW36568   0.659   0.347   5.073  0.1701  0.3079 -0.1962
 8370SOL    HW136569   0.597   0.381   5.137  1.4725  0.5488  0.9376
 8370SOL    HW236570   0.598   0.331   5.002 -0.2897  1.1380  0.0155
 8371SOL     OW36571   2.001   0.911   7.903 -0.2288 -0.0605  0.0138
 8371SOL    HW136572   2.092   0.884   7.886  0.7529  1.2850  3.1964
 8371SOL    HW236573   1.964   0.896   7.816 -1.5464 -1.9696  0.9153
 8372SOL     OW36574   4.169   3.166   5.783  0.8332  0.4596  0.5274
 8372SOL    HW136575   4.076   3.187   5.774  1.1140  2.7666  2.8766
 8372SOL    HW236576   4.164   3.141   5.875 -0.3921  1.0665  0.6182
 8373SOL     OW36577   3.447   2.314   6.390  0.1791 -0.3491  0.4525
 8373SOL    HW136578   3.364   2.309   6.435 -0.1150 -0.6363 -0.1159
 8373SOL    HW236579   3.496   2.355   6.461  1.3570 -2.0836  0.6486
 8374SOL     OW36580   0.418   2.882   6.877  0.1561 -0.0221  0.5355
 8374SOL    HW136581   0.419   2.937   6.799  0.9664 -0.1181  0.4850
 8374SOL    HW236582   0.373   2.809   6.835  0.4838 -0.7896  1.5148
 8375SOL     OW36583   2.695   3.318  11.265  0.0790  0.2718 -0.3408
 8375SOL    HW136584   2.650   3.395  11.296 -2.5688 -1.7819  0.8862
 8375SOL    HW236585   2.780   3.335  11.305  0.1133  2.6595 -1.4207
 8376SOL     OW36586   1.623   1.072  13.299  0.3112 -0.1404 -0.5700
 8376SOL    HW136587   1.607   1.135  13.229 -3.0801  0.8316  1.0729
 8376SOL    HW236588   1.703   1.032  13.265 -0.5250 -2.5587  0.3612
 8377SOL     OW36589   0.756   3.835   1.111 -0.0605  0.1750 -0.5589
 8377SOL    HW136590   0.735   3.899   1.179  0.9704 -0.3638  0.2712
 8377SOL    HW236591   0.851   3.844   1.107 -0.1013  0.6301 -0.4618
 8378SOL     OW36592   3.790   0.805  10.048  0.2597  0.5483 -0.3664
 8378SOL    HW136593   3.721   0.822  10.113 -0.8437  1.1415 -1.6976
 8378SOL    HW236594   3.752   0.755   9.976  1.4971 -2.7192  1.2853
 8379SOL     OW36595   3.929   4.542   1.347  0.2096  0.0425  0.2348
 8379SOL    HW136596   3.943   4.471   1.285  1.5400 -1.8708  2.7276
 8379SOL    HW236597   3.840   4.563   1.318 -0.0609  0.9999  1.7584
 8380SOL     OW36598   0.510   4.134   8.070 -0.1627 -0.1758  0.0419
 8380SOL    HW136599   0.476   4.216   8.033 -0.8326 -0.5406 -0.1547
 8380SOL    HW236600   0.588   4.160   8.119 -0.6230  0.1457  0.6122
 8381SOL     OW36601   0.918   4.090   0.898  0.1363 -1.1770 -0.3533
 8381SOL    HW136602   0.846   4.084   0.961  0.9354  0.7984  0.7576
 8381SOL    HW236603   0.954   4.001   0.893  0.2415 -1.2004  0.6716
 8382SOL     OW36604   3.678   4.633   1.242 -0.3553 -0.1192  0.7286
 8382SOL    HW136605   3.642   4.558   1.195  0.5988 -0.9243  1.2744
 8382SOL    HW236606   3.692   4.704   1.179  0.8532  0.1005  1.2368
 8383SOL     OW36607   1.006   1.918  14.349  0.5079 -0.5201  0.0114
 8383SOL    HW136608   1.025   1.846  14.289 -0.2214  1.4778 -2.6419
 8383SOL    HW236609   1.091   1.947  14.381 -0.8741 -0.4939  3.7119
 8384SOL     OW36610   0.572   2.673   5.741 -0.2197  0.1373 -0.3297
 8384SOL    HW136611   0.521   2.597   5.768 -0.5173 -0.2717 -2.0641
 8384SOL    HW236612   0.654   2.632   5.714 -0.7396 -0.7434 -0.5433
 8385SOL     OW36613   4.624   2.399  16.713  0.1096 -0.2009  0.2971
 8385SOL    HW136614   4.642   2.471  16.653  1.8648 -0.1397  0.9042
 8385SOL    HW236615   4.700   2.416  16.768  0.1266  0.6319  0.0153
 8386SOL     OW36616   0.256   2.015   5.789  0.2697  0.3852  0.3288
 8386SOL    HW136617   0.194   1.966   5.843  0.4460 -0.2397 -0.0400
 8386SOL    HW236618   0.337   2.025   5.839  1.1010 -2.0242 -0.5302
 8387SOL     OW36619   2.886   2.601   2.513 -0.4358  0.7832  0.1813
 8387SOL    HW136620   2.792   2.611   2.498 -0.7161 -1.8739  0.2116
 8387SOL    HW236621   2.909   2.565   2.427 -0.0689 -2.3890  1.6384
 8388SOL     OW36622   2.452   0.002   7.841 -0.0735 -0.0499 -0.4118
 8388SOL    HW136623   2.426   4.648   7.888 -1.7713  0.4338 -0.5612
 8388SOL    HW236624   2.376   0.019   7.786 -0.3991 -0.4008 -0.0729
 8389SOL     OW36625   3.514   0.636   7.618  0.2139 -0.6120  0.4149
 8389SOL    HW136626   3.435   0.595   7.654 -1.1754  0.0058 -1.9034
 8389SOL    HW236627   3.483   0.660   7.530  1.1601 -0.1256  0.2161
 8390SOL     OW36628   1.111   0.410   2.065  0.9853 -0.4234  0.2289
 8390SOL    HW136629   1.146   0.437   1.980 -0.4928  1.8279  0.3425
 8390SOL    HW236630   1.033   0.466   2.062  0.7869 -0.6510  1.3131
 8391SOL     OW36631   3.329   4.482   7.096 -0.1432  0.8238 -0.5629
 8391SOL    HW136632   3.317   4.526   7.012 -0.6609 -1.4285 -1.6729
 8391SOL    HW236633   3.274   4.405   7.083 -0.9891  1.2769  0.3079
 8392SOL     OW36634   2.911   0.844   6.356 -0.1609  0.2048  0.7730
 8392SOL    HW136635   2.832   0.891   6.331  0.3371  0.4424 -0.3610
 8392SOL    HW236636   2.876   0.769   6.404  1.6558  0.0062  1.7929
 8393SOL     OW36637   1.008   4.667   1.799 -0.5786  0.4616 -0.1867
 8393SOL    HW136638   0.995   4.706   1.713  4.3354 -0.0188 -1.1365
 8393SOL    HW236639   0.931   4.701   1.844  0.5363 -1.3870  3.1197
 8394SOL     OW36640   3.038   2.335   7.400 -0.1666 -0.3852 -0.4339
 8394SOL    HW136641   3.122   2.310   7.360  0.4160 -0.8361  1.0674
 8394SOL    HW236642   3.071   2.417   7.438  2.5113 -1.9732  0.6787
 8395SOL     OW36643   0.897   2.276   3.905  0.4454  0.0779 -0.1942
 8395SOL    HW136644   0.896   2.282   4.000 -0.5413 -0.5735 -0.1641
 8395SOL    HW236645   0.816   2.322   3.880 -0.2348 -0.8041  0.3885
 8396SOL     OW36646   3.843   0.350   3.046  0.1287  0.1950 -0.5457
 8396SOL    HW136647   3.749   0.336   3.055  0.2778  0.8947  2.1192
 8396SOL    HW236648   3.849   0.393   2.960 -1.9866 -0.9387 -1.2690
 8397SOL     OW36649   1.075   3.715   6.500 -0.0329 -0.3536 -0.0183
 8397SOL    HW136650   1.117   3.629   6.491  1.0589  0.1836 -0.0484
 8397SOL    HW236651   1.061   3.749   6.411  0.9137 -2.7562 -1.1014
 8398SOL     OW36652   4.571   2.479   5.421  0.5905  0.5007  0.7392
 8398SOL    HW136653   4.572   2.574   5.430 -0.7852  0.5941 -0.0368
 8398SOL    HW236654   4.554   2.460   5.513  1.2504 -0.3172  0.6903
 8399SOL     OW36655   3.900   0.299  17.543  0.1141  0.3691 -0.3716
 8399SOL    HW136656   3.959   0.273  17.613 -2.4222 -0.0490  1.6122
 8399SOL    HW236657   3.848   0.351  17.605 -2.2362 -1.7169 -0.6037
 8400SOL     OW36658   0.234   2.086  15.555 -0.0283 -0.2692 -0.0877
 8400SOL    HW136659   0.243   1.993  15.577  0.1452  0.0046  1.0209
 8400SOL    HW236660   0.264   2.076  15.465 -0.4848  0.7263 -0.3371
 8401SOL     OW36661   0.530   3.704   1.095 -0.4650 -0.2025  0.2340
 8401SOL    HW136662   0.549   3.612   1.112  2.8040  0.3574 -0.3858
 8401SOL    HW236663   0.619   3.738   1.105 -0.1177 -1.0148 -0.1161
 8402SOL     OW36664   1.174   4.366  12.331 -0.0585 -0.5270 -0.4705
 8402SOL    HW136665   1.167   4.461  12.343 -0.4711 -0.4102 -1.6944
 8402SOL    HW236666   1.096   4.345  12.280 -0.4033  0.0260 -0.1704
 8403SOL     OW36667   1.338   2.364   1.525  0.0407 -0.2624  0.1557
 8403SOL    HW136668   1.354   2.455   1.549  1.5297 -0.4090 -0.3201
 8403SOL    HW236669   1.242   2.367   1.524  0.0300  0.6466  3.5647
 8404SOL     OW36670   1.132   0.019  16.760  0.1870 -0.2294 -0.1081
 8404SOL    HW136671   1.115   0.084  16.828 -1.3127 -0.9313  0.1872
 8404SOL    HW236672   1.152   4.663  16.808 -0.4955 -0.9263 -1.0015
 8405SOL     OW36673   2.542   2.394   6.802 -0.7078 -0.3487  0.7746
 8405SOL    HW136674   2.524   2.455   6.731 -1.8318 -1.6671 -0.0673
 8405SOL    HW236675   2.449   2.380   6.817 -0.9834  0.8370  0.1492
 8406SOL     OW36676   0.751   0.099   3.627 -0.4599 -0.0591 -0.0432
 8406SOL    HW136677   0.822   0.122   3.566 -0.0542 -0.9902  0.0821
 8406SOL    HW236678   0.696   0.176   3.613  0.9084  0.6931 -1.3022
 8407SOL     OW36679   3.238   0.600   3.340 -0.1037 -0.2567  0.8063
 8407SOL    HW136680   3.229   0.666   3.270 -0.4542 -1.6110 -0.4237
 8407SOL    HW236681   3.312   0.632   3.392 -0.3467  1.3450  0.1856
 8408SOL     OW36682   4.112   1.806   7.976  0.2791 -0.1008 -0.0470
 8408SOL    HW136683   4.064   1.829   7.896  1.2082  0.3347 -0.4713
 8408SOL    HW236684   4.056   1.856   8.035  0.4909  0.7802 -0.5971
 8409SOL     OW36685   0.818   1.069   2.745 -0.2174 -0.3104  0.2710
 8409SOL    HW136686   0.876   1.095   2.673  0.4441 -1.0507  0.5352
 8409SOL    HW236687   0.741   1.042   2.694 -0.4803  0.1785  0.4141
 8410SOL     OW36688   0.991   0.805   8.088  0.3903  0.0275 -0.0285
 8410SOL    HW136689   1.077   0.792   8.128  0.1107 -2.6462 -0.3001
 8410SOL    HW236690   0.945   0.843   8.162  0.4815 -0.0837  0.0852
 8411SOL     OW36691   0.064   3.444   0.442 -0.0668 -0.0102  0.5261
 8411SOL    HW136692   0.078   3.350   0.433 -1.4717 -0.1255 -0.4928
 8411SOL    HW236693   0.074   3.476   0.352 -0.7148 -1.6316 -0.1149
 8412SOL     OW36694   2.180   0.742   8.189  0.0774  0.7267 -0.8397
 8412SOL    HW136695   2.271   0.762   8.214  1.3613 -2.3708 -3.1010
 8412SOL    HW236696   2.142   0.829   8.179  2.4899  1.8498 -0.3448
 8413SOL     OW36697   2.845   1.613   8.546 -0.2989  0.0449 -0.4021
 8413SOL    HW136698   2.816   1.613   8.637  0.0259  2.1861 -0.3102
 8413SOL    HW236699   2.885   1.526   8.536 -0.2834  0.0162 -0.0928
 8414SOL     OW36700   4.228   3.749   8.034  0.3544  0.1500 -0.3846
 8414SOL    HW136701   4.175   3.687   8.084 -0.5802  1.0301 -0.2767
 8414SOL    HW236702   4.298   3.698   7.995 -1.8395 -2.5695 -0.7577
 8415SOL     OW36703   3.504   2.159  17.546  0.2900  0.1397  0.4879
 8415SOL    HW136704   3.433   2.195  17.599  0.2344  1.9399 -0.7889
 8415SOL    HW236705   3.576   2.223  17.546  0.6851 -0.3025  0.2576
 8416SOL     OW36706   3.207   4.267   8.940 -0.1633  0.2470  0.2929
 8416SOL    HW136707   3.125   4.315   8.931 -0.1305  0.0718 -1.0179
 8416SOL    HW236708   3.225   4.277   9.033 -0.3863  1.9402  0.1541
 8417SOL     OW36709   4.447   3.640   7.935 -0.5596 -0.0598 -0.4066
 8417SOL    HW136710   4.438   3.545   7.929 -0.9075 -0.1965  2.2472
 8417SOL    HW236711   4.481   3.651   7.846 -0.8478 -0.1716 -0.5308
 8418SOL     OW36712   1.843   0.404   5.649 -0.7132  0.0459 -0.2975
 8418SOL    HW136713   1.844   0.500   5.656 -1.4659 -0.0827  1.4958
 8418SOL    HW236714   1.783   0.392   5.723  0.1378  1.4205  0.6129
 8419SOL     OW36715   1.383   1.162   4.661 -0.0710 -0.2248  0.1642
 8419SOL    HW136716   1.435   1.087   4.688  0.3336  0.0293  0.0782
 8419SOL    HW236717   1.375   1.138   4.568 -1.1092  0.4563  0.0748
 8420SOL     OW36718   2.157   1.888   8.493 -0.1583 -0.1376 -0.2650
 8420SOL    HW136719   2.101   1.832   8.546  1.5565 -1.4442  0.1397
 8420SOL    HW236720   2.087   1.909   8.432 -1.0888  0.9358  1.1449
 8421SOL     OW36721   0.090   0.484   3.803 -0.9044  0.3398 -0.0770
 8421SOL    HW136722   0.177   0.516   3.824  0.1501 -0.8015 -2.8044
 8421SOL    HW236723   0.041   0.468   3.884 -0.3244 -0.3291  0.1391
 8422SOL     OW36724   2.271   3.239   9.823 -0.4768  0.1031  0.3890
 8422SOL    HW136725   2.277   3.328   9.858 -1.2475  1.2235 -2.2860
 8422SOL    HW236726   2.327   3.220   9.748  2.7531  1.3066  2.5207
 8423SOL     OW36727   1.195   3.074  16.906  0.4788  0.2590 -0.3847
 8423SOL    HW136728   1.195   3.167  16.926 -0.4795  0.2939 -0.5710
 8423SOL    HW236729   1.103   3.049  16.899  0.0685  1.3174  1.4429
 8424SOL     OW36730   1.027   1.150   2.514  0.6030 -0.3901 -0.0128
 8424SOL    HW136731   0.973   1.206   2.457  2.0951 -0.0095 -1.0526
 8424SOL    HW236732   0.982   1.065   2.503  2.6893 -1.4401 -0.4909
 8425SOL     OW36733   0.091   0.648  13.535  0.1517  0.1397  0.7376
 8425SOL    HW136734   0.136   0.599  13.604 -0.0602 -0.5404  0.3963
 8425SOL    HW236735   0.083   0.588  13.461  0.6779  0.2246  0.6156
 8426SOL     OW36736   3.755   3.568   5.904 -0.3193  0.3366  0.0141
 8426SOL    HW136737   3.706   3.566   5.986  0.2507 -0.5846  0.3351
 8426SOL    HW236738   3.746   3.660   5.877 -2.0838  1.1358  3.3864
 8427SOL     OW36739   1.615   2.830   9.460 -0.2750  0.1951  0.7781
 8427SOL    HW136740   1.592   2.770   9.389  1.2061 -0.7174  1.0668
 8427SOL    HW236741   1.637   2.769   9.531  3.1626  0.1464 -0.3307
 8428SOL     OW36742   3.492   4.183   0.081  0.0768  0.1802  0.4336
 8428SOL    HW136743   3.553   4.243   0.038  0.3405 -1.2895 -1.2157
 8428SOL    HW236744   3.497   4.198   0.175  1.1792  1.1616  0.2182
 8429SOL     OW36745   2.591   2.844   1.420 -0.8010 -0.1735  0.0029
 8429SOL    HW136746   2.552   2.930   1.407 -0.8292 -0.0143  1.0894
 8429SOL    HW236747   2.603   2.850   1.515 -2.2899 -0.8087  0.2419
 8430SOL     OW36748   0.079   4.170  16.775 -0.0220  0.1025 -0.1282
 8430SOL    HW136749   0.120   4.135  16.696 -1.6081 -1.2743 -0.3598
 8430SOL    HW236750   0.104   4.103  16.838 -1.5896 -0.0713  0.3118
 8431SOL     OW36751   4.065   3.456   2.011 -0.5224  0.2535  0.4266
 8431SOL    HW136752   3.985   3.414   1.981  0.0954 -0.7773  0.2271
 8431SOL    HW236753   4.028   3.496   2.090  0.4762 -0.6634  1.3619
 8432SOL     OW36754   3.637   0.997   1.100  0.1403 -0.0704 -0.7988
 8432SOL    HW136755   3.668   1.080   1.064 -0.6699  0.3822 -0.4676
 8432SOL    HW236756   3.554   0.989   1.054 -0.3326 -1.9543  0.3662
 8433SOL     OW36757   3.623   0.089  11.605 -0.3238  0.6982 -0.2384
 8433SOL    HW136758   3.625   0.064  11.698 -0.8471  2.6379  0.3039
 8433SOL    HW236759   3.665   0.175  11.611 -0.5036  0.9224 -2.3574
 8434SOL     OW36760   2.542   2.484   8.024  0.5491 -0.0081 -0.1370
 8434SOL    HW136761   2.583   2.464   7.940  0.2715  1.3651 -0.5997
 8434SOL    HW236762   2.576   2.413   8.079  0.8133 -0.5050 -0.9313
 8435SOL     OW36763   1.660   2.011   5.137 -0.0892  0.4033  0.1443
 8435SOL    HW136764   1.595   1.943   5.119  0.2956  0.1599 -0.3298
 8435SOL    HW236765   1.699   1.985   5.220 -0.6567  0.8628  0.5587
 8436SOL     OW36766   3.963   1.110   3.616  0.6899 -0.1739  0.2930
 8436SOL    HW136767   3.900   1.171   3.578  0.7742 -1.2652 -1.5982
 8436SOL    HW236768   4.009   1.174   3.670  2.3374  0.6761 -2.0969
 8437SOL     OW36769   0.943   4.344   2.130  0.2578  0.1784  0.1553
 8437SOL    HW136770   1.031   4.305   2.133 -0.8823 -2.4184 -0.1406
 8437SOL    HW236771   0.941   4.388   2.216 -1.0734  0.2739  0.0711
 8438SOL     OW36772   3.899   2.422   2.963 -0.7462  0.0194 -0.2082
 8438SOL    HW136773   3.847   2.353   2.922  0.0671  0.3448 -1.7979
 8438SOL    HW236774   3.958   2.381   3.026  0.6557  0.6537 -1.1054
 8439SOL     OW36775   4.003   1.310   4.783 -0.1847  0.1779  0.1723
 8439SOL    HW136776   4.040   1.325   4.696  0.1233 -0.5538  0.1732
 8439SOL    HW236777   3.964   1.395   4.804  0.0413  0.5830 -1.0564
 8440SOL     OW36778   1.941   0.381   6.891 -0.5289  0.8032 -0.0667
 8440SOL    HW136779   1.924   0.440   6.965 -1.6939 -0.7461  0.8835
 8440SOL    HW236780   1.882   0.310   6.916 -0.0292 -0.3877 -2.3256
 8441SOL     OW36781   4.609   2.830   6.002 -0.2593  0.0770 -0.3064
 8441SOL    HW136782   4.627   2.908   6.055  0.1562  0.4019 -0.9283
 8441SOL    HW236783   4.536   2.868   5.953 -1.1579  0.8775  1.6367
 8442SOL     OW36784   2.688   3.711   0.716  0.3706 -0.2355 -0.5239
 8442SOL    HW136785   2.706   3.619   0.732  1.8867  0.2841  0.8339
 8442SOL    HW236786   2.600   3.711   0.754  1.2627  0.0036  1.5051
 8443SOL     OW36787   1.141   3.855   3.182  0.2806  0.0346  0.1802
 8443SOL    HW136788   1.205   3.824   3.119  1.0227  0.8873  0.5114
 8443SOL    HW236789   1.059   3.824   3.143  0.2727 -0.4983  0.6158
 8444SOL     OW36790   4.127   1.295   3.729 -0.1137  0.2854 -0.4894
 8444SOL    HW136791   4.080   1.372   3.763 -3.9041 -1.7539 -1.0654
 8444SOL    HW236792   4.182   1.337   3.663 -0.3465 -0.5753 -1.2217
 8445SOL     OW36793   0.163   3.744   0.486 -0.2374  0.4977 -0.1446
 8445SOL    HW136794   0.167   3.649   0.496 -1.8940  0.1457 -2.7618
 8445SOL    HW236795   0.237   3.768   0.430  0.5016  0.5934  0.8772
 8446SOL     OW36796   4.240   4.020   9.090 -0.2240 -0.1284 -0.2522
 8446SOL    HW136797   4.263   3.948   9.148 -0.4297  0.4586  0.5668
 8446SOL    HW236798   4.154   4.005   9.049 -0.1657  1.2840 -0.8854
 8447SOL     OW36799   3.998   0.633   2.478  0.6017  0.1774  0.4948
 8447SOL    HW136800   4.073   0.574   2.488  0.0476 -1.1906 -3.2178
 8447SOL    HW236801   3.931   0.584   2.524  1.7621 -2.3599 -0.4856
 8448SOL     OW36802   3.698   4.432  17.113  0.2558  0.8697 -0.4976
 8448SOL    HW136803   3.608   4.409  17.090  0.8130  1.8254 -3.6843
 8448SOL    HW236804   3.745   4.383  17.045 -1.2942 -1.7886  0.3807
 8449SOL     OW36805   3.385   0.896   3.638  0.3012  0.4745  0.2526
 8449SOL    HW136806   3.350   0.940   3.715 -0.6101  0.7002 -0.2939
 8449SOL    HW236807   3.343   0.811   3.648  1.1617  0.2542  1.9268
 8450SOL     OW36808   3.746   0.964   6.044  0.3641  0.0362 -0.7687
 8450SOL    HW136809   3.709   0.890   5.995  1.0349 -0.7231 -0.1436
 8450SOL    HW236810   3.838   0.948   6.062  0.1556  0.8215  0.9283
 8451SOL     OW36811   1.369   0.375   9.231  0.0541 -0.3744  0.2395
 8451SOL    HW136812   1.368   0.323   9.311 -0.4302 -1.8998 -0.7677
 8451SOL    HW236813   1.426   0.449   9.254 -1.1759 -0.3902  3.3696
 8452SOL     OW36814   0.158   3.639   7.502 -0.3885  0.4126  0.4634
 8452SOL    HW136815   0.136   3.692   7.579  0.2535 -0.5460  1.2947
 8452SOL    HW236816   0.175   3.713   7.443  0.2550 -0.0353  0.0934
 8453SOL     OW36817   1.227   2.167   6.145 -0.2250 -0.1329  0.2239
 8453SOL    HW136818   1.190   2.202   6.226 -2.3028  0.6401 -1.0534
 8453SOL    HW236819   1.276   2.087   6.161  0.5625  0.6482  1.6899
 8454SOL     OW36820   1.528   4.499   2.591  0.0863  0.3511 -0.5574
 8454SOL    HW136821   1.533   4.588   2.624 -2.0929 -0.2957  1.4585
 8454SOL    HW236822   1.603   4.458   2.634  0.3165  0.2283 -1.0739
 8455SOL     OW36823   0.082   1.143   6.878  0.1644 -0.1805  0.3076
 8455SOL    HW136824   0.166   1.146   6.833 -0.1046  2.8311  0.0336
 8455SOL    HW236825   0.037   1.223   6.854 -0.7374 -1.3829 -2.0142
 8456SOL     OW36826   0.595   1.844   0.828  0.8056  0.0270 -0.1709
 8456SOL    HW136827   0.541   1.778   0.783  2.1210 -0.0198 -1.6698
 8456SOL    HW236828   0.549   1.925   0.806  1.6377  1.1890  2.4341
 8457SOL     OW36829   2.924   4.658   6.312 -0.3320 -0.1352  0.1222
 8457SOL    HW136830   2.893   4.639   6.401 -1.5410 -1.0700 -0.4985
 8457SOL    HW236831   2.878   4.593   6.259 -0.5836  1.7734 -1.9927
 8458SOL     OW36832   4.220   1.265  13.882  0.0389  0.0281  0.1502
 8458SOL    HW136833   4.277   1.192  13.906  0.2454  0.1620  0.0626
 8458SOL    HW236834   4.199   1.290  13.973 -3.0510  0.8922 -0.7897
 8459SOL     OW36835   4.114   0.997   9.079  0.3818  0.3309 -0.2226
 8459SOL    HW136836   4.026   0.976   9.048 -0.2294  3.1977 -0.4435
 8459SOL    HW236837   4.166   0.932   9.032 -2.3030 -2.5987  0.8562
 8460SOL     OW36838   4.635   0.417   4.444 -0.4726  0.3315 -0.2731
 8460SOL    HW136839   4.684   0.381   4.370 -0.8632  0.2845 -0.5128
 8460SOL    HW236840   4.691   0.427   4.521 -0.1638 -1.8474 -0.2169
 8461SOL     OW36841   2.668   3.236   7.887  0.1535  0.0820 -0.5710
 8461SOL    HW136842   2.619   3.276   7.959  1.5844  0.1877  0.3557
 8461SOL    HW236843   2.753   3.267   7.918  0.4171 -1.4537  0.2488
 8462SOL     OW36844   3.067   4.360   3.444  0.3489  0.9787  0.0384
 8462SOL    HW136845   3.151   4.404   3.434 -0.0792  1.7047 -0.3357
 8462SOL    HW236846   3.014   4.377   3.366  0.6702 -1.1579 -0.6373
 8463SOL     OW36847   4.647   1.674   7.153 -0.0437 -0.6232  0.1430
 8463SOL    HW136848   4.579   1.622   7.109 -0.0746 -2.9101  2.9068
 8463SOL    HW236849   4.719   1.613   7.139 -0.6097 -1.3951  0.5453
 8464SOL     OW36850   2.672   3.152   2.887 -0.1554 -0.5086 -0.4572
 8464SOL    HW136851   2.729   3.228   2.894  0.6147 -1.1284 -0.0011
 8464SOL    HW236852   2.686   3.101   2.966  0.5716 -0.1335 -0.3482
 8465SOL     OW36853   1.859   1.739   4.287  0.2383  0.1211  0.2518
 8465SOL    HW136854   1.914   1.817   4.284  0.2290  0.2031  2.4102
 8465SOL    HW236855   1.769   1.769   4.299 -0.1308 -0.2918 -1.4935
 8466SOL     OW36856   1.612   3.099  15.803 -0.0477  0.1735 -0.2017
 8466SOL    HW136857   1.549   3.127  15.870 -2.0307 -0.8630 -1.6247
 8466SOL    HW236858   1.584   3.013  15.773  2.1005  0.0676 -1.9213
 8467SOL     OW36859   3.373   1.293   5.783  0.2980 -0.5481 -0.7021
 8467SOL    HW136860   3.330   1.304   5.868 -0.7703  1.7110 -1.5171
 8467SOL    HW236861   3.339   1.212   5.747 -1.6174 -0.0267 -0.0540
 8468SOL     OW36862   0.310   1.560   6.528 -0.0472 -0.8021 -0.5970
 8468SOL    HW136863   0.345   1.543   6.616  1.1501  0.9725 -0.7320
 8468SOL    HW236864   0.352   1.643   6.507 -0.4090 -0.0871  1.4777
 8469SOL     OW36865   3.404   1.490  16.802 -0.0329 -0.0723  0.4010
 8469SOL    HW136866   3.317   1.502  16.763  0.3305  0.8982 -0.1029
 8469SOL    HW236867   3.399   1.394  16.809 -2.1957 -0.0204 -0.4469
 8470SOL     OW36868   1.291   3.209   8.311 -0.5026  0.0529 -0.0394
 8470SOL    HW136869   1.331   3.216   8.224 -0.6637 -2.3585 -0.3006
 8470SOL    HW236870   1.202   3.231   8.283 -1.2315 -1.8330  0.7698
 8471SOL     OW36871   1.283   2.387  10.937  0.1960  0.2327  0.0480
 8471SOL    HW136872   1.346   2.315  10.936  1.1746  1.0912  0.3678
 8471SOL    HW236873   1.206   2.333  10.957 -1.0430  2.3633  0.9073
 8472SOL     OW36874   1.263   1.217   2.333  0.3729  0.1975  0.6981
 8472SOL    HW136875   1.191   1.253   2.280  0.3887 -0.4644  0.2189
 8472SOL    HW236876   1.217   1.182   2.409  1.8469 -1.1189  0.9785
 8473SOL     OW36877   4.244   2.549   8.589  0.1479  0.6623 -0.1920
 8473SOL    HW136878   4.269   2.612   8.656 -1.3479  0.3164  0.6844
 8473SOL    HW236879   4.272   2.467   8.630 -0.9700 -0.7073 -2.1251
 8474SOL     OW36880   3.600   2.195   6.829  0.5061 -0.1289 -0.1462
 8474SOL    HW136881   3.648   2.269   6.793 -1.5105  1.0413 -0.3841
 8474SOL    HW236882   3.674   2.143   6.860  0.8835  0.0419 -0.7500
 8475SOL     OW36883   2.281   3.179   3.273 -0.0278 -0.4043 -0.4286
 8475SOL    HW136884   2.220   3.238   3.229  1.1908  0.6934 -0.6495
 8475SOL    HW236885   2.357   3.237   3.272 -1.6589  1.7501  0.7561
 8476SOL     OW36886   2.315   1.422   5.445 -0.1056 -0.3430  0.1566
 8476SOL    HW136887   2.241   1.463   5.490  0.1140  0.0858  0.1267
 8476SOL    HW236888   2.297   1.451   5.355  1.0633 -1.0391 -0.3050
 8477SOL     OW36889   2.210   1.234   7.712 -0.7166 -0.1021  0.5381
 8477SOL    HW136890   2.137   1.227   7.774 -0.9100  0.3717  0.3680
 8477SOL    HW236891   2.174   1.188   7.636 -0.0736 -0.0275  0.1860
 8478SOL     OW36892   1.296   2.078  15.907 -0.9259 -0.2214  0.1444
 8478SOL    HW136893   1.379   2.066  15.862  0.1653 -1.5851  2.5173
 8478SOL    HW236894   1.252   1.994  15.893 -0.2370 -0.7242  1.0316
 8479SOL     OW36895   4.168   0.579   1.761 -0.2184 -0.6266  0.2898
 8479SOL    HW136896   4.074   0.595   1.765 -0.2181 -0.9763  1.7807
 8479SOL    HW236897   4.172   0.517   1.688 -0.3501 -0.5508  0.2179
 8480SOL     OW36898   1.737   4.238   0.157  0.0755  0.3129  0.4318
 8480SOL    HW136899   1.722   4.157   0.206  0.5162 -0.3082 -0.4437
 8480SOL    HW236900   1.661   4.293   0.174 -0.0423 -0.3276  1.9247
 8481SOL     OW36901   4.465   3.581   3.826  0.0590 -0.1228 -0.2923
 8481SOL    HW136902   4.548   3.575   3.872  0.8579  2.3098 -1.4384
 8481SOL    HW236903   4.424   3.662   3.856  1.4302  1.3398 -2.3589
 8482SOL     OW36904   0.357   3.120   2.523  0.3611 -0.7820  0.3973
 8482SOL    HW136905   0.399   3.067   2.590  1.8298  0.1667  0.2170
 8482SOL    HW236906   0.265   3.113   2.550  0.1695 -2.8283 -0.7394
 8483SOL     OW36907   3.326   4.455  15.232 -0.1925  0.5349  0.1137
 8483SOL    HW136908   3.300   4.434  15.143  1.7138  2.7183 -0.9467
 8483SOL    HW236909   3.414   4.418  15.230 -1.4001 -2.4121  1.1366
 8484SOL     OW36910   1.704   4.184   8.077  0.3632 -0.0740  0.0843
 8484SOL    HW136911   1.673   4.271   8.101 -2.3281 -0.6394 -1.3104
 8484SOL    HW236912   1.695   4.139   8.161  1.1554  1.2219  0.8514
 8485SOL     OW36913   3.960   1.380   1.597  0.3107  0.3067 -0.4933
 8485SOL    HW136914   3.911   1.306   1.632  0.6147 -0.0388 -0.7937
 8485SOL    HW236915   3.961   1.364   1.503 -0.8380 -2.1021 -0.0929
 8486SOL     OW36916   3.787   2.166   4.051 -0.1802 -0.1213  0.2602
 8486SOL    HW136917   3.877   2.163   4.083 -0.2540  2.0940  0.6788
 8486SOL    HW236918   3.735   2.099   4.094 -0.7004 -0.1138 -0.3604
 8487SOL     OW36919   2.307   4.370  15.238 -0.1165 -0.3828  0.4123
 8487SOL    HW136920   2.302   4.410  15.325 -2.2085 -1.4927  0.7986
 8487SOL    HW236921   2.379   4.422  15.200  0.6540 -0.9595  1.0834
 8488SOL     OW36922   0.502   0.166   6.172 -0.3890 -0.0371  0.0529
 8488SOL    HW136923   0.454   0.245   6.197  0.9293  0.0190  2.3923
 8488SOL    HW236924   0.449   0.129   6.101 -0.0200 -1.3801  0.4784
 8489SOL     OW36925   4.213   3.641   5.909 -0.5094 -0.8830  0.3201
 8489SOL    HW136926   4.207   3.722   5.959 -0.8482 -0.4750 -0.3806
 8489SOL    HW236927   4.146   3.591   5.957  1.1068 -2.6850  0.7248
 8490SOL     OW36928   4.255   4.135   4.930  0.1893 -0.2956 -0.0361
 8490SOL    HW136929   4.319   4.084   4.881  2.2662  1.6537  0.5902
 8490SOL    HW236930   4.314   4.200   4.970  0.8780 -0.0182 -1.5051
 8491SOL     OW36931   4.059   3.656   3.414  0.6109  0.3429  0.0057
 8491SOL    HW136932   4.133   3.596   3.425  2.5034  3.2373  3.0547
 8491SOL    HW236933   4.038   3.631   3.324 -3.2570 -1.3724  1.3961
 8492SOL     OW36934   1.005   0.039   1.169 -0.5226 -0.3337  0.1220
 8492SOL    HW136935   0.949   0.085   1.106  0.5925 -1.7329 -1.9133
 8492SOL    HW236936   1.028   4.686   1.118 -1.1193 -2.1955  2.7324
 8493SOL     OW36937   4.364   2.084   9.885  0.0655  0.3371  0.0262
 8493SOL    HW136938   4.280   2.130   9.891 -0.2047 -0.2114  0.4742
 8493SOL    HW236939   4.379   2.072   9.979 -0.2889  0.1194  0.0522
 8494SOL     OW36940   4.160   3.783  13.195 -0.1094  0.6687 -0.1201
 8494SOL    HW136941   4.128   3.872  13.179  0.8520  1.0895  0.3384
 8494SOL    HW236942   4.237   3.783  13.139  0.1455  1.7778  0.2362
 8495SOL     OW36943   1.815   2.637   1.559  0.4163 -0.1817 -0.6697
 8495SOL    HW136944   1.751   2.622   1.489 -0.4603 -0.8332  0.2633
 8495SOL    HW236945   1.843   2.720   1.520  1.4355  0.3423  1.1965
 8496SOL     OW36946   0.392   2.837   9.025 -0.2019 -0.1458  0.4201
 8496SOL    HW136947   0.371   2.827   9.118  3.9213  0.4633  1.4339
 8496SOL    HW236948   0.486   2.855   9.026 -0.7605  2.8704  0.2368
 8497SOL     OW36949   2.280   1.114  12.589 -0.9096 -0.4127  0.1108
 8497SOL    HW136950   2.348   1.162  12.541 -1.8129 -0.3209 -1.0644
 8497SOL    HW236951   2.204   1.148  12.542 -0.2204  1.6967  0.5110
 8498SOL     OW36952   2.509   3.508  17.083  0.2566  0.3239  0.6218
 8498SOL    HW136953   2.538   3.593  17.116 -0.6462  0.0067  2.2529
 8498SOL    HW236954   2.536   3.504  16.991 -3.5894  0.2114 -0.4988
 8499SOL     OW36955   0.648   2.948  14.106 -0.0276 -0.2864  0.3004
 8499SOL    HW136956   0.553   2.958  14.101 -0.0242 -1.2915 -1.5640
 8499SOL    HW236957   0.658   2.880  14.173 -0.0254  2.8519  3.4938
 8500SOL     OW36958   2.918   2.090   3.961  0.3113  0.4481  0.0912
 8500SOL    HW136959   2.933   2.061   3.871 -0.2467 -0.3090  0.2447
 8500SOL    HW236960   2.845   2.032   3.983  1.2387 -0.1037  1.6446
 8501SOL     OW36961   4.671   2.896  14.519 -0.0323 -0.1532 -0.0638
 8501SOL    HW136962   4.627   2.973  14.555  2.0926  1.3141 -0.5563
 8501SOL    HW236963   4.630   2.876  14.435  1.1374 -2.1106 -0.1803
 8502SOL     OW36964   1.418   4.557   5.376  0.7287  0.0507 -0.2657
 8502SOL    HW136965   1.432   4.637   5.327  0.8234 -0.7446 -1.5219
 8502SOL    HW236966   1.372   4.592   5.453 -1.2539  1.6530 -2.1934
 8503SOL     OW36967   3.837   3.620   1.841 -0.2248  0.2899 -0.6267
 8503SOL    HW136968   3.853   3.549   1.902  0.1401  0.0902 -0.9561
 8503SOL    HW236969   3.745   3.639   1.860  0.1663  2.5237 -1.0157
 8504SOL     OW36970   3.691   1.655   8.062 -0.5292  0.2019  0.0152
 8504SOL    HW136971   3.783   1.653   8.088 -0.7415 -2.9021  0.4752
 8504SOL    HW236972   3.676   1.560   8.066  0.9199 -0.1398 -2.9853
 8505SOL     OW36973   1.841   0.067   1.967  0.4040  0.0209  0.2908
 8505SOL    HW136974   1.932   0.040   1.975  0.8120  0.6545 -1.9912
 8505SOL    HW236975   1.802   0.022   2.042  1.9049 -0.8756  0.5398
 8506SOL     OW36976   3.721   4.601  11.494  0.2606 -0.2243 -0.5166
 8506SOL    HW136977   3.674   4.663  11.549 -0.7882 -2.1793  0.8147
 8506SOL    HW236978   3.810   4.599  11.528  0.0111  0.6160  0.1778
 8507SOL     OW36979   3.808   4.318   5.368 -0.4101 -0.4257 -0.9729
 8507SOL    HW136980   3.737   4.264   5.333 -0.5279 -2.2848  2.1203
 8507SOL    HW236981   3.876   4.313   5.301 -2.3019 -1.9506 -2.7966
 8508SOL     OW36982   2.534   2.568   1.323 -0.1686  0.0248  0.1302
 8508SOL    HW136983   2.552   2.659   1.347 -1.6990  0.0410  1.2505
 8508SOL    HW236984   2.527   2.529   1.410  3.6142 -2.7974 -0.8661
 8509SOL     OW36985   4.092   4.357   6.227  0.1733  0.1025 -0.2599
 8509SOL    HW136986   4.166   4.406   6.264 -0.9777  0.2985  1.8084
 8509SOL    HW236987   4.107   4.353   6.133 -1.7760  0.7622 -0.5981
 8510SOL     OW36988   0.962   1.639   0.226 -0.0719 -0.3560 -0.1293
 8510SOL    HW136989   0.998   1.597   0.149 -1.0763 -1.0150 -0.2447
 8510SOL    HW236990   0.940   1.726   0.195  0.2376 -0.7528 -1.4286
 8511SOL     OW36991   2.826   3.105  15.858 -0.5838 -0.1670 -0.0804
 8511SOL    HW136992   2.786   3.158  15.788  0.5817  0.4087 -0.3177
 8511SOL    HW236993   2.778   3.137  15.934  1.0161 -0.0842  0.8957
 8512SOL     OW36994   3.673   4.498  14.094  0.7334  0.0241  0.1387
 8512SOL    HW136995   3.587   4.500  14.136  0.7181  0.5542  0.0840
 8512SOL    HW236996   3.729   4.564  14.135 -0.9201  0.4674  1.7198
 8513SOL     OW36997   1.483   0.834   3.554  0.5742 -0.0640  0.2869
 8513SOL    HW136998   1.542   0.871   3.620  2.3277 -1.2610 -0.6238
 8513SOL    HW236999   1.406   0.871   3.599  0.0938 -0.7063 -0.0083
 8514SOL     OW37000   2.853   1.533   6.908  0.1845  0.5099 -0.1714
 8514SOL    HW137001   2.889   1.481   6.836 -2.5844  0.6312 -1.6397
 8514SOL    HW237002   2.769   1.492   6.928  0.0879  0.4366 -0.7457
 8515SOL     OW37003   3.339   3.394   7.987 -0.2696 -0.1203  0.2632
 8515SOL    HW137004   3.333   3.457   8.059  1.5380 -1.3919  1.5231
 8515SOL    HW237005   3.320   3.453   7.914 -0.9078  1.0988  1.4088
 8516SOL     OW37006   2.473   0.477   2.420  0.2763 -0.5124 -0.4110
 8516SOL    HW137007   2.423   0.439   2.348 -0.6261  0.1977 -0.1619
 8516SOL    HW237008   2.465   0.416   2.493  0.3854 -0.8343 -0.6670
 8517SOL     OW37009   1.992   3.018   5.484  0.5277  0.1444  0.0952
 8517SOL    HW137010   1.919   3.035   5.424 -0.0369 -3.5093 -0.2641
 8517SOL    HW237011   1.965   3.070   5.560  0.9698 -1.8730  1.6492
 8518SOL     OW37012   0.326   4.415   2.091  0.1848  0.5363  0.7731
 8518SOL    HW137013   0.298   4.326   2.070 -0.5014  0.6446  1.2322
 8518SOL    HW237014   0.401   4.400   2.149  2.2794 -0.0105 -2.1140
 8519SOL     OW37015   2.726   0.903  14.266  0.5311 -1.1211 -0.6947
 8519SOL    HW137016   2.664   0.836  14.295  0.4441 -0.7128  0.0606
 8519SOL    HW237017   2.734   0.886  14.172  1.4412  2.1225 -1.2014
 8520SOL     OW37018   3.932   0.300   7.833 -0.0879 -0.2219 -0.1578
 8520SOL    HW137019   3.844   0.285   7.798 -1.1860 -2.9599  3.7762
 8520SOL    HW237020   3.924   0.295   7.928  0.8177 -0.3143 -0.0848
 8521SOL     OW37021   3.960   4.225  15.009  0.6047  0.0865  0.1656
 8521SOL    HW137022   3.871   4.225  15.045  1.7159 -0.8313  2.8974
 8521SOL    HW237023   3.989   4.146  15.055 -0.5943  0.1633  1.0711
 8522SOL     OW37024   3.807   0.497   0.021  0.7225  0.5325 -0.4586
 8522SOL    HW137025   3.763   0.560  17.665 -1.6550 -0.1540  0.5708
 8522SOL    HW237026   3.855   0.560   0.075  1.3407 -0.3033 -0.0398
 8523SOL     OW37027   0.930   3.087   5.347 -0.0167 -0.3764  0.3086
 8523SOL    HW137028   1.022   3.112   5.339  0.3217 -0.8312  2.8429
 8523SOL    HW237029   0.927   3.049   5.435  2.3189  1.1381  1.0554
 8524SOL     OW37030   3.361   3.958   2.628 -0.3628 -0.0394 -0.3343
 8524SOL    HW137031   3.418   3.883   2.612  1.0511  0.9106  0.3274
 8524SOL    HW237032   3.275   3.931   2.596 -1.5056 -0.3478  3.0241
 8525SOL     OW37033   1.496   2.935   2.020 -0.0825 -0.3118  0.3046
 8525SOL    HW137034   1.403   2.921   2.006 -0.0760  1.0075 -1.1322
 8525SOL    HW237035   1.536   2.886   1.947 -0.3494  0.8604 -0.6253
 8526SOL     OW37036   2.417   3.216   5.212 -0.1974  0.5093 -0.4705
 8526SOL    HW137037   2.430   3.126   5.244  0.7493  0.1338 -1.9402
 8526SOL    HW237038   2.354   3.259   5.272  0.2838  1.6262 -0.7723
 8527SOL     OW37039   0.224   1.560   6.140 -0.4285 -0.1788  0.1968
 8527SOL    HW137040   0.178   1.540   6.221 -0.4132  0.7517  0.4298
 8527SOL    HW237041   0.177   1.497   6.086  1.6928 -1.8603  0.2826
 8528SOL     OW37042   1.083   2.998   3.352 -0.0230 -0.4299 -0.0584
 8528SOL    HW137043   1.169   2.975   3.387  0.4545 -2.0917 -2.3106
 8528SOL    HW237044   1.083   3.087   3.387 -1.1474 -0.5976  0.3547
 8529SOL     OW37045   1.902   2.125  15.668  0.1751 -0.1975  0.2007
 8529SOL    HW137046   1.890   2.214  15.702  1.3373 -0.3247  0.9370
 8529SOL    HW237047   1.935   2.139  15.579  0.8782  1.1957  0.6750
 8530SOL     OW37048   1.831   4.365  12.176 -0.1018  0.4871 -0.1016
 8530SOL    HW137049   1.798   4.280  12.148 -0.6111  0.6364  0.0328
 8530SOL    HW237050   1.871   4.342  12.260  0.0101  0.9213 -0.0345
 8531SOL     OW37051   1.158   2.560   0.114  0.4781 -0.2654  1.0044
 8531SOL    HW137052   1.214   2.610   0.172 -0.1916 -0.9965  2.2813
 8531SOL    HW237053   1.071   2.601   0.116  0.6029 -0.0535  1.8270
 8532SOL     OW37054   4.386   0.474  14.461  0.2161 -0.2904  1.2533
 8532SOL    HW137055   4.462   0.415  14.461 -0.0601 -0.6221 -1.6074
 8532SOL    HW237056   4.355   0.467  14.371 -0.6011  1.6215  1.3963
 8533SOL     OW37057   4.592   4.113   8.665 -0.3770  0.0154 -0.2222
 8533SOL    HW137058   4.553   4.059   8.735 -0.3879  0.6956  0.2942
 8533SOL    HW237059   4.521   4.174   8.645  0.2999  1.3453  1.4327
 8534SOL     OW37060   2.424   2.589  15.727  0.3174  0.2444  0.3906
 8534SOL    HW137061   2.353   2.558  15.671  0.4414 -0.1956  0.4750
 8534SOL    HW237062   2.425   2.683  15.709  0.5815  0.1259 -0.2162
 8535SOL     OW37063   1.104   4.619  14.409 -0.0029 -0.7950  0.1548
 8535SOL    HW137064   1.146   4.658  14.487 -2.2453  1.4429  0.2502
 8535SOL    HW237065   1.134   4.529  14.420  3.1057 -0.0975 -2.7241
 8536SOL     OW37066   0.515   4.217  15.970  0.1514  0.6632 -0.0019
 8536SOL    HW137067   0.467   4.299  15.984  1.5140  1.5830 -0.7453
 8536SOL    HW237068   0.499   4.202  15.877  1.7315 -0.2199 -0.1336
 8537SOL     OW37069   2.101   1.489   9.736 -0.0313  0.3217  0.4939
 8537SOL    HW137070   2.128   1.468   9.646  3.2286 -0.7114  1.7062
 8537SOL    HW237071   2.118   1.413   9.791  0.7179 -0.9725 -1.4968
 8538SOL     OW37072   3.514   0.960   4.732 -0.1725 -0.0290 -0.1936
 8538SOL    HW137073   3.537   1.053   4.727  0.1760 -0.1669 -1.0715
 8538SOL    HW237074   3.468   0.960   4.648  0.0032 -0.0167 -0.2882
 8539SOL     OW37075   4.673   0.610   8.584 -0.5071  0.1755 -0.2188
 8539SOL    HW137076   0.018   0.674   8.592 -0.6144  0.4257 -1.2175
 8539SOL    HW237077   4.725   0.532   8.566 -0.8584 -0.6770  2.4519
 8540SOL     OW37078   3.357   4.248   4.834  0.2787  0.2864  0.0331
 8540SOL    HW137079   3.366   4.228   4.741  0.1003  0.6471 -0.0612
 8540SOL    HW237080   3.295   4.320   4.827  1.4251  1.2867  0.2701
 8541SOL     OW37081   0.790   1.059   9.084  0.0562 -0.0070 -0.4610
 8541SOL    HW137082   0.797   0.985   9.023  1.0834 -0.3632  0.0884
 8541SOL    HW237083   0.849   1.121   9.042 -0.1733  0.1371 -0.5696
 8542SOL     OW37084   1.858   4.222  17.612  0.2159  0.1896 -0.2944
 8542SOL    HW137085   1.882   4.135  17.645  0.5224  1.8689  3.9609
 8542SOL    HW237086   1.861   4.266  17.697  1.2553  0.2809 -0.3705
 8543SOL     OW37087   0.729   0.269   7.814 -0.0581  0.7081  0.6601
 8543SOL    HW137088   0.667   0.221   7.759  1.4176  0.1451 -0.5034
 8543SOL    HW237089   0.804   0.279   7.755 -0.5758 -1.0211 -0.3041
 8544SOL     OW37090   2.494   1.246   4.692 -0.4217 -0.0274 -0.6761
 8544SOL    HW137091   2.564   1.273   4.751 -1.4295 -0.5192  0.7358
 8544SOL    HW237092   2.532   1.277   4.610  0.9360  0.6512  0.2129
 8545SOL     OW37093   1.085   0.396   5.940  0.0562  0.7133 -0.2234
 8545SOL    HW137094   1.115   0.311   5.973  1.9977  1.0897 -0.9867
 8545SOL    HW237095   1.005   0.416   5.989 -0.1399 -0.5194 -0.0398
 8546SOL     OW37096   3.494   1.632  11.906 -0.1310 -0.5505 -0.3703
 8546SOL    HW137097   3.561   1.596  11.848  0.3263 -1.1962  0.5556
 8546SOL    HW237098   3.538   1.651  11.989 -0.4977 -0.0697 -0.2867
 8547SOL     OW37099   1.551   3.817   0.098  0.0159  0.2672 -0.5574
 8547SOL    HW137100   1.510   3.762   0.165 -2.4363  3.1044  0.2750
 8547SOL    HW237101   1.573   3.897   0.147  0.6913 -1.8673  2.5986
 8548SOL     OW37102   4.011   3.720   8.292  0.2189  0.0645  0.2176
 8548SOL    HW137103   4.039   3.638   8.252  1.2099  0.5233 -0.0217
 8548SOL    HW237104   3.993   3.685   8.379 -1.7008 -0.2782 -0.3046
 8549SOL     OW37105   2.068   4.028   5.780  0.4771  1.0542  0.1358
 8549SOL    HW137106   2.050   4.065   5.693  1.9294  0.6426 -0.3389
 8549SOL    HW237107   2.047   3.936   5.762  1.2324  0.9938 -0.4597
 8550SOL     OW37108   4.469   2.382   6.436  0.6981 -0.0951 -0.2464
 8550SOL    HW137109   4.484   2.462   6.387  1.2014  0.5645  0.9665
 8550SOL    HW237110   4.375   2.377   6.416  0.5810 -1.5424  0.6480
 8551SOL     OW37111   1.056   3.839   2.815  0.0014  0.0942  0.1612
 8551SOL    HW137112   1.055   3.927   2.853  1.5962  0.0769  0.2480
 8551SOL    HW237113   1.031   3.793   2.895 -0.4231 -0.8884 -0.5427
 8552SOL     OW37114   3.754   3.472   1.347  0.2875  0.5807 -0.2211
 8552SOL    HW137115   3.665   3.506   1.342  0.5273  1.1515 -0.6191
 8552SOL    HW237116   3.781   3.538   1.411  1.0639  0.1638 -0.1116
 8553SOL     OW37117   2.328   3.765  10.634 -0.7870  0.5465  0.0245
 8553SOL    HW137118   2.415   3.754  10.595 -0.9701 -2.4842  0.5284
 8553SOL    HW237119   2.272   3.761  10.556 -1.2021  1.6827  0.2629
 8554SOL     OW37120   4.363   0.453   4.883  0.3204  0.7098 -0.7453
 8554SOL    HW137121   4.285   0.419   4.839 -0.4805 -0.2279  1.3906
 8554SOL    HW237122   4.340   0.544   4.899  1.6729  1.0450 -0.7300
 8555SOL     OW37123   2.339   1.201   8.069 -0.0780  0.5095  0.2742
 8555SOL    HW137124   2.256   1.153   8.070 -0.1714  0.7189  2.4720
 8555SOL    HW237125   2.375   1.189   7.981 -2.4682  0.8512 -0.7559
 8556SOL     OW37126   3.733   4.454  11.911 -0.4256  0.3281 -0.4907
 8556SOL    HW137127   3.699   4.429  11.997  1.0972 -0.7374 -0.2094
 8556SOL    HW237128   3.765   4.372  11.874 -2.6913 -0.1291 -1.3936
 8557SOL     OW37129   1.988   4.480  12.651 -0.2295 -0.7533  0.1537
 8557SOL    HW137130   1.944   4.456  12.733  2.5367  2.5970  2.6258
 8557SOL    HW237131   1.960   4.569  12.629 -1.6507 -1.6650 -1.6887
 8558SOL     OW37132   4.480   3.043   7.477 -0.3778  0.1519 -0.3185
 8558SOL    HW137133   4.459   3.109   7.410 -1.1041 -0.0067 -0.2511
 8558SOL    HW237134   4.482   3.100   7.554  0.7000  0.9411 -0.9281
 8559SOL     OW37135   1.317   0.835   7.093  0.1490  0.1198  0.0239
 8559SOL    HW137136   1.370   0.788   7.029  0.6919  0.2687  0.3604
 8559SOL    HW237137   1.315   0.916   7.043 -1.7781  0.1390  0.1490
 8560SOL     OW37138   3.115   3.472   7.593  0.1029  0.4841 -0.0471
 8560SOL    HW137139   3.051   3.486   7.662 -0.9280 -0.6768 -0.7562
 8560SOL    HW237140   3.122   3.377   7.602 -1.0545  0.4998  1.1051
 8561SOL     OW37141   3.529   3.144   6.285 -0.0316  0.4801 -0.3513
 8561SOL    HW137142   3.520   3.089   6.207 -1.5457  2.5491 -1.6109
 8561SOL    HW237143   3.624   3.153   6.288  0.0351 -0.6386  1.3900
 8562SOL     OW37144   1.761   1.637   5.053  0.0077 -0.3396  0.3285
 8562SOL    HW137145   1.823   1.677   4.991 -0.6070 -0.0435 -0.0986
 8562SOL    HW237146   1.715   1.570   5.003 -1.0918 -1.5084  2.9142
 8563SOL     OW37147   3.509   2.937   8.625 -0.4907 -0.0977 -0.7735
 8563SOL    HW137148   3.422   2.927   8.664  0.0836 -1.7587  0.0470
 8563SOL    HW237149   3.484   2.910   8.536 -1.5209 -4.9571  1.0069
 8564SOL     OW37150   0.716   2.503   9.363 -0.1811  0.4578  0.0948
 8564SOL    HW137151   0.635   2.542   9.396 -0.5283  1.0775 -1.4961
 8564SOL    HW237152   0.771   2.543   9.429 -1.9382 -0.2183  1.9918
 8565SOL     OW37153   0.941   0.696   7.048 -0.2404 -0.4205  0.7657
 8565SOL    HW137154   0.904   0.608   7.043  2.2942 -1.3622 -1.0848
 8565SOL    HW237155   0.927   0.714   7.141 -1.6522  0.8118  0.3105
 8566SOL     OW37156   4.325   1.053  12.349 -0.4689 -0.0751  0.2904
 8566SOL    HW137157   4.345   1.005  12.429  0.8899  0.6946  0.4126
 8566SOL    HW237158   4.230   1.064  12.357 -0.5138 -0.5194  0.3271
 8567SOL     OW37159   1.398   0.832  10.500 -0.5178  0.2026  0.3397
 8567SOL    HW137160   1.432   0.764  10.443 -0.5058 -0.5967  1.2947
 8567SOL    HW237161   1.444   0.807  10.581 -1.1617  0.5736  0.8190
 8568SOL     OW37162   1.820   4.189   6.047 -0.0726  0.7312  0.5501
 8568SOL    HW137163   1.741   4.216   6.001  1.2257  2.2059 -0.8205
 8568SOL    HW237164   1.847   4.269   6.091 -0.0632  0.6542  0.6825
 8569SOL     OW37165   1.381   1.337   1.297  0.2061  0.2742  0.0019
 8569SOL    HW137166   1.303   1.380   1.261  1.0727  0.4538 -1.6508
 8569SOL    HW237167   1.428   1.408   1.340 -1.8585 -0.0551  2.8889
 8570SOL     OW37168   2.861   4.176  10.007 -0.3614  0.3309 -0.2682
 8570SOL    HW137169   2.780   4.194   9.959 -1.0625 -0.5378  0.5985
 8570SOL    HW237170   2.854   4.254  10.063  0.7819  0.0588  0.2534
 8571SOL     OW37171   4.285   2.205   1.587 -0.2484 -0.1459 -0.2976
 8571SOL    HW137172   4.224   2.185   1.516  0.2707 -0.1127 -0.7491
 8571SOL    HW237173   4.368   2.205   1.538 -0.2690 -1.1589 -0.3441
 8572SOL     OW37174   4.305   0.557  16.037 -0.1577  0.4664 -0.0600
 8572SOL    HW137175   4.290   0.643  15.996 -3.5703 -0.8150 -1.5143
 8572SOL    HW237176   4.289   0.586  16.127  2.0064  0.6308  0.2797
 8573SOL     OW37177   3.580   0.325   3.019  0.2081  0.0487  0.1710
 8573SOL    HW137178   3.500   0.272   3.021  0.0527  0.2261 -1.6094
 8573SOL    HW237179   3.547   0.396   2.964  1.2811 -0.4035 -1.0631
 8574SOL     OW37180   3.207   1.274  11.051  0.0996 -0.2809 -0.0994
 8574SOL    HW137181   3.130   1.302  11.001 -1.9372 -2.2420  1.8860
 8574SOL    HW237182   3.260   1.336  11.002 -0.8010 -0.3339 -1.1382
 8575SOL     OW37183   3.801   3.504   6.256 -0.0284 -0.8435  0.0916
 8575SOL    HW137184   3.707   3.505   6.237  0.0419  1.7443 -0.1102
 8575SOL    HW237185   3.834   3.414   6.255 -1.1343 -1.2542  0.3434
 8576SOL     OW37186   4.470   3.769  13.744  0.2359 -0.0962 -0.1723
 8576SOL    HW137187   4.411   3.838  13.714 -0.0304 -0.1126  0.3083
 8576SOL    HW237188   4.539   3.773  13.679  0.3330  0.8363 -0.0125
 8577SOL     OW37189   0.993   2.661   7.702 -0.1508  0.4389  0.1987
 8577SOL    HW137190   1.073   2.616   7.677 -0.8126 -1.5862  1.7809
 8577SOL    HW237191   0.985   2.644   7.796 -1.8442  1.7114  0.3011
 8578SOL     OW37192   0.218   1.022  16.738 -0.0498 -0.1555 -0.8448
 8578SOL    HW137193   0.155   1.027  16.666 -1.0164 -0.1574 -0.0100
 8578SOL    HW237194   0.226   0.927  16.747 -0.6856  0.0795  2.2364
 8579SOL     OW37195   2.899   0.739   3.134 -0.9382 -0.3822 -0.3085
 8579SOL    HW137196   2.833   0.806   3.153  0.5412  0.1942  2.7332
 8579SOL    HW237197   2.888   0.668   3.197 -0.7115 -0.9546 -0.9153
 8580SOL     OW37198   1.857   1.943   4.745  0.3258 -0.3053 -0.4338
 8580SOL    HW137199   1.879   2.006   4.814 -0.9868 -0.7464  0.3858
 8580SOL    HW237200   1.921   1.970   4.679 -0.7287  3.3306  0.0436
 8581SOL     OW37201   3.691   3.064  13.947 -0.3353  0.8658 -0.4746
 8581SOL    HW137202   3.746   3.046  14.023  0.0150  1.0163 -0.6937
 8581SOL    HW237203   3.696   2.982  13.897  1.7625 -0.3205  1.6600
 8582SOL     OW37204   2.915   4.235   4.017 -0.3054 -0.2918  0.2685
 8582SOL    HW137205   2.855   4.302   4.049  1.0067  0.4644  1.1693
 8582SOL    HW237206   2.852   4.180   3.970  0.7943  0.2884 -1.8933
 8583SOL     OW37207   1.266   3.457   8.620  0.0458 -0.2517 -0.5952
 8583SOL    HW137208   1.295   3.494   8.703  1.5431  1.3532 -1.8253
 8583SOL    HW237209   1.263   3.363   8.639 -0.3820 -0.6158 -2.4284
 8584SOL     OW37210   4.416   1.879   4.943  0.2750 -0.4471 -0.0310
 8584SOL    HW137211   4.335   1.914   4.979  0.7886 -0.5673  1.2476
 8584SOL    HW237212   4.470   1.859   5.020 -1.4473  0.8247  1.5086
 8585SOL     OW37213   0.880   1.605   6.239  0.3294 -0.1975 -0.6539
 8585SOL    HW137214   0.844   1.549   6.170 -1.3902  1.2919 -0.9568
 8585SOL    HW237215   0.885   1.690   6.194 -0.1593 -0.2113 -0.7289
 8586SOL     OW37216   3.702   3.280   2.394  0.3713  0.0272 -0.3659
 8586SOL    HW137217   3.797   3.279   2.404  0.5976  1.0285 -2.5229
 8586SOL    HW237218   3.675   3.188   2.398 -0.4840  0.3667  1.4963
 8587SOL     OW37219   0.641   0.776   4.008 -0.6381  0.4276  0.0888
 8587SOL    HW137220   0.717   0.783   4.065  0.2593  2.1029 -1.3117
 8587SOL    HW237221   0.597   0.857   4.032 -1.4077 -0.2484  0.9655
 8588SOL     OW37222   2.797   2.775   6.747  0.1487  0.7363 -0.1854
 8588SOL    HW137223   2.851   2.792   6.670  0.5205 -2.7630 -0.6992
 8588SOL    HW237224   2.755   2.861   6.753 -0.3516  0.3163  2.7086
 8589SOL     OW37225   1.035   0.164   8.875 -0.1258 -1.1349 -0.2279
 8589SOL    HW137226   0.962   0.109   8.845 -1.2857  0.1335  0.2470
 8589SOL    HW237227   1.039   0.146   8.969 -1.3115 -1.2366 -0.1892
 8590SOL     OW37228   4.351   2.704  12.981  0.3780  0.1010 -0.1361
 8590SOL    HW137229   4.335   2.788  13.024  2.9684  1.5417 -1.9253
 8590SOL    HW237230   4.286   2.659  13.035  0.5910 -1.2915 -1.0318
 8591SOL     OW37231   3.347   3.271   7.274 -0.3460  0.0780  0.1472
 8591SOL    HW137232   3.266   3.234   7.240  0.7350 -1.4079 -0.8396
 8591SOL    HW237233   3.359   3.230   7.360  0.5321 -0.0855 -0.0567
 8592SOL     OW37234   1.514   3.067   6.627 -0.2757  0.0408 -0.0750
 8592SOL    HW137235   1.551   3.069   6.715  0.5846  0.1361 -0.4342
 8592SOL    HW237236   1.447   3.000   6.641 -0.3216  0.3751  1.2672
 8593SOL     OW37237   3.726   1.442  12.237 -0.1450 -0.3554 -0.0762
 8593SOL    HW137238   3.742   1.414  12.148 -2.8334 -0.3454 -0.5843
 8593SOL    HW237239   3.814   1.465  12.266  0.1414  0.2631 -1.4703
 8594SOL     OW37240   0.364   0.580   6.742  0.3094 -0.0868 -0.0855
 8594SOL    HW137241   0.317   0.583   6.659  1.3480  1.8556 -0.6086
 8594SOL    HW237242   0.288   0.589   6.801  0.1483  0.0013 -0.3047
 8595SOL     OW37243   1.116   3.883  10.056 -0.1259  0.3750  0.0362
 8595SOL    HW137244   1.174   3.943  10.103  1.4283 -1.1897  0.0847
 8595SOL    HW237245   1.154   3.796  10.064 -1.2319 -0.3968 -3.1799
 8596SOL     OW37246   4.490   0.818   7.299 -0.7284 -0.4899 -0.6638
 8596SOL    HW137247   4.559   0.884   7.291 -0.2044 -1.0638 -0.8957
 8596SOL    HW237248   4.492   0.799   7.393  0.8426  0.4184 -0.5096
 8597SOL     OW37249   2.678   2.179   2.619 -0.3398 -0.0492 -0.1855
 8597SOL    HW137250   2.744   2.135   2.566 -1.0631  1.0635 -1.9887
 8597SOL    HW237251   2.601   2.171   2.562 -1.1318 -0.5382  0.9486
 8598SOL     OW37252   0.900   3.422   2.276  0.1867 -0.4461  0.3860
 8598SOL    HW137253   0.948   3.348   2.240  1.6430  1.0247 -0.7205
 8598SOL    HW237254   0.835   3.438   2.208  1.6635 -0.9703 -1.1595
 8599SOL     OW37255   3.981   4.378   8.377 -0.4343 -0.5294 -0.7244
 8599SOL    HW137256   4.021   4.291   8.382  2.1279  0.5714 -2.3486
 8599SOL    HW237257   3.962   4.385   8.471  0.4138  0.9232 -0.6755
 8600SOL     OW37258   4.225   3.800  11.907  0.4024 -0.6626 -0.2613
 8600SOL    HW137259   4.222   3.705  11.905  1.3326 -0.6766 -0.9602
 8600SOL    HW237260   4.141   3.825  11.869  0.0592 -1.4162  0.0054
 8601SOL     OW37261   3.915   4.039   8.541  0.3185 -0.6242  0.3875
 8601SOL    HW137262   3.872   3.955   8.555  1.7535 -1.4796 -0.3515
 8601SOL    HW237263   3.842   4.094   8.567 -0.8762 -1.2637 -1.5865
 8602SOL     OW37264   2.140   0.737   3.874  0.1682 -0.8198 -0.2623
 8602SOL    HW137265   2.051   0.751   3.842  0.5986  0.4317 -0.9345
 8602SOL    HW237266   2.178   0.689   3.801 -1.6324 -0.9571 -1.1191
 8603SOL     OW37267   0.631   3.901   7.935 -0.0729 -0.3346  0.2789
 8603SOL    HW137268   0.619   3.904   7.840  1.0548  0.6666  0.1617
 8603SOL    HW237269   0.625   3.993   7.961 -1.0010 -0.3910  0.2396
 8604SOL     OW37270   3.981   4.290   2.649 -0.6685 -0.1517 -0.3160
 8604SOL    HW137271   3.972   4.330   2.563  0.4952  2.4327  0.7638
 8604SOL    HW237272   3.898   4.244   2.663  0.2828 -2.1983 -1.4847
 8605SOL     OW37273   4.608   4.177   9.068  0.0017  0.3415  0.5119
 8605SOL    HW137274   4.618   4.272   9.068  1.2060  0.2125  2.8424
 8605SOL    HW237275   4.578   4.147   9.153 -1.4933  0.1476 -0.0961
 8606SOL     OW37276   0.159   2.917   0.997  0.0200  0.1189  0.1298
 8606SOL    HW137277   0.078   2.947   0.956 -0.9503  1.0814  2.7450
 8606SOL    HW237278   0.117   2.876   1.072 -2.1669  0.1755 -1.0505
 8607SOL     OW37279   2.051   2.502   8.267  0.1247  0.1659 -0.1427
 8607SOL    HW137280   2.099   2.444   8.208 -0.5401 -0.1027 -0.4139
 8607SOL    HW237281   2.113   2.506   8.339  0.3717 -1.2156 -0.2922
 8608SOL     OW37282   1.284   1.448   4.520  0.3168  0.0740 -0.0262
 8608SOL    HW137283   1.246   1.520   4.469  0.5736 -0.8560 -1.5369
 8608SOL    HW237284   1.230   1.372   4.497 -2.1178  1.1306  2.1887
 8609SOL     OW37285   1.995   2.846  11.627 -0.1687  0.2320 -0.4698
 8609SOL    HW137286   2.059   2.775  11.632 -1.7891 -1.1908  0.0459
 8609SOL    HW237287   2.035   2.888  11.551  1.6901 -0.6870 -0.0167
 8610SOL     OW37288   0.884   1.989   1.935  0.2189  0.1632  0.1722
 8610SOL    HW137289   0.875   2.075   1.976 -1.2613 -0.6019  1.4666
 8610SOL    HW237290   0.966   1.999   1.886  0.0699 -0.1788 -0.1482
 8611SOL     OW37291   0.616   1.931  17.431 -0.0903  0.0286  0.3936
 8611SOL    HW137292   0.623   1.853  17.377 -1.1752 -1.4236  2.3519
 8611SOL    HW237293   0.704   1.965  17.445 -0.9369  1.3346  2.6281
 8612SOL     OW37294   3.472   4.374   7.959 -0.3720  0.1521  0.0616
 8612SOL    HW137295   3.479   4.400   8.051  1.0841 -0.6671  0.1762
 8612SOL    HW237296   3.532   4.440   7.923  0.8759 -0.9905  0.0510
 8613SOL     OW37297   2.795   1.679   7.693  0.2004 -0.0111 -0.1378
 8613SOL    HW137298   2.759   1.590   7.689 -1.6809  0.6911  1.2117
 8613SOL    HW237299   2.787   1.702   7.786  0.2913  2.3616 -0.7214
 8614SOL     OW37300   1.693   4.654   7.405 -0.6042  0.6361  0.2696
 8614SOL    HW137301   1.645   4.608   7.474 -0.9701  1.2247  0.4038
 8614SOL    HW237302   1.687   0.024   7.416  0.4002  0.3376  3.3463
 8615SOL     OW37303   1.610   2.386   3.043 -0.0482 -0.0919 -0.1883
 8615SOL    HW137304   1.698   2.424   3.041 -0.9090  2.0475  2.0891
 8615SOL    HW237305   1.567   2.422   2.966  2.0400  3.2171  0.1482
 8616SOL     OW37306   1.754   1.487   1.537  0.2977  0.1463 -1.0802
 8616SOL    HW137307   1.833   1.541   1.529 -0.2155  0.8130 -1.6861
 8616SOL    HW237308   1.781   1.447   1.620 -1.9189 -1.9720 -1.3819
 8617SOL     OW37309   3.642   4.123  10.661 -0.7858  0.3842  0.2478
 8617SOL    HW137310   3.598   4.065  10.723 -0.0993 -2.6730 -2.0786
 8617SOL    HW237311   3.730   4.088  10.670 -1.2599 -0.8022  0.2753
 8618SOL     OW37312   3.486   3.888   8.176  0.0032  0.1573  0.4576
 8618SOL    HW137313   3.536   3.966   8.155 -0.1243  0.4547  1.2481
 8618SOL    HW237314   3.515   3.831   8.105  0.0729 -0.2089  0.7781
 8619SOL     OW37315   1.091   0.663   4.492  0.0025  0.2277  0.0919
 8619SOL    HW137316   1.063   0.574   4.512 -0.4529 -0.3272 -3.1268
 8619SOL    HW237317   1.021   0.721   4.521 -1.0586 -1.2322  0.4364
 8620SOL     OW37318   0.429   3.089   8.420  0.2490  0.5959 -0.0481
 8620SOL    HW137319   0.488   3.019   8.390  1.1363  0.7987  1.2535
 8620SOL    HW237320   0.465   3.166   8.375  0.4915 -0.6166 -1.9552
 8621SOL     OW37321   3.308   1.753   3.943  0.0594 -0.0620  0.3982
 8621SOL    HW137322   3.362   1.681   3.976  0.1163 -0.2228 -0.0348
 8621SOL    HW237323   3.312   1.811   4.018  0.2507 -1.8587  1.7696
 8622SOL     OW37324   0.546   1.220   1.011 -0.0417 -0.4695  0.2930
 8622SOL    HW137325   0.483   1.148   1.006 -1.9123  1.1883 -0.0687
 8622SOL    HW237326   0.495   1.289   1.054  2.1378  2.5109 -1.8560
 8623SOL     OW37327   2.238   1.742  17.626 -0.9729  0.1274  0.3769
 8623SOL    HW137328   2.285   1.665  17.594 -0.3448  0.7600 -0.2190
 8623SOL    HW237329   2.227   1.721   0.017  1.3335  0.5814  0.7540
 8624SOL     OW37330   3.040   0.130  11.802 -0.5512 -0.0158 -0.3595
 8624SOL    HW137331   3.102   0.168  11.740 -1.1546 -0.5289 -1.2754
 8624SOL    HW237332   2.985   0.208  11.814  0.7353  0.6954  0.9641
 8625SOL     OW37333   1.118   3.990   4.654 -0.0209  0.1157 -0.5217
 8625SOL    HW137334   1.173   4.068   4.647  1.4237 -0.7612  1.1772
 8625SOL    HW237335   1.064   3.994   4.575  0.3699  1.2607 -0.7306
 8626SOL     OW37336   2.787   4.064   6.290  0.2279 -0.0030 -0.4994
 8626SOL    HW137337   2.800   4.075   6.195 -1.0698 -2.1093 -0.9205
 8626SOL    HW237338   2.720   3.995   6.287 -0.4260  0.5114  2.1533
 8627SOL     OW37339   0.769   1.205   5.669  0.1579  0.1533 -0.0592
 8627SOL    HW137340   0.809   1.166   5.591 -0.5441  1.0902 -0.8909
 8627SOL    HW237341   0.678   1.176   5.664 -0.0177  0.4779  1.2496
 8628SOL     OW37342   3.159   1.851   8.049  0.6475  0.0645  0.3553
 8628SOL    HW137343   3.122   1.838   8.136 -0.9973 -2.5861 -0.7117
 8628SOL    HW237344   3.232   1.908   8.071  0.9145  0.0979 -0.6137
 8629SOL     OW37345   2.740   4.418   8.497 -0.0876 -0.4639 -0.3140
 8629SOL    HW137346   2.709   4.369   8.572 -0.7015  2.9961  1.6968
 8629SOL    HW237347   2.716   4.506   8.527  2.1174  0.2681 -0.6857
 8630SOL     OW37348   4.355   2.804   4.708 -0.2909 -0.4107 -0.7417
 8630SOL    HW137349   4.320   2.825   4.795  0.4133  0.5990 -0.6975
 8630SOL    HW237350   4.287   2.748   4.673  1.0883 -1.9407 -0.9690
 8631SOL     OW37351   3.165   2.181  16.719 -0.4290 -0.7258 -0.0208
 8631SOL    HW137352   3.186   2.123  16.646  0.1945 -0.8195  0.2271
 8631SOL    HW237353   3.163   2.120  16.792 -1.8310 -0.6638 -0.0164
 8632SOL     OW37354   0.025   2.847   2.573 -0.1981 -0.0496 -0.2776
 8632SOL    HW137355   0.020   2.800   2.656 -0.0407  0.0850 -0.1935
 8632SOL    HW237356   0.036   2.937   2.604 -1.6152  0.3699 -1.0241
 8633SOL     OW37357   2.642   0.260   3.896 -0.3481 -0.1715  0.0802
 8633SOL    HW137358   2.725   0.253   3.850 -1.7904 -0.0145 -2.5341
 8633SOL    HW237359   2.687   0.293   3.974 -3.3069  1.0967  1.2730
 8634SOL     OW37360   0.470   4.578   5.959  0.4120 -0.2139 -0.3133
 8634SOL    HW137361   0.443   4.615   5.875  3.4901 -0.5382 -1.4397
 8634SOL    HW237362   0.398   4.518   5.978 -0.3240  0.5156 -0.7798
 8635SOL     OW37363   1.561   0.036  14.960  0.0250  0.2811 -0.1116
 8635SOL    HW137364   1.534   4.691  15.019 -2.2575  0.9740 -0.3526
 8635SOL    HW237365   1.508   0.105  14.999 -1.6763  0.5172 -2.8355
 8636SOL     OW37366   3.955   1.705   1.331  0.0528 -0.1492 -0.1089
 8636SOL    HW137367   3.859   1.706   1.325 -0.0669  2.2510  2.3585
 8636SOL    HW237368   3.961   1.722   1.425  0.2517  0.8912 -0.3170
 8637SOL     OW37369   2.153   3.888  10.842 -0.0642 -0.0767  0.3480
 8637SOL    HW137370   2.187   3.833  10.771 -1.2934 -1.5918  0.9098
 8637SOL    HW237371   2.225   3.950  10.849  0.4794 -0.6877  0.2424
 8638SOL     OW37372   1.106   2.614   0.599  0.0176  0.3420  0.8840
 8638SOL    HW137373   1.085   2.539   0.655  3.5419  0.4980  2.4270
 8638SOL    HW237374   1.202   2.618   0.608 -0.1401  2.8275  1.4711
 8639SOL     OW37375   2.849   4.047   6.551 -0.0631  0.6802  0.7828
 8639SOL    HW137376   2.941   4.029   6.567 -0.5368 -1.9259  0.6329
 8639SOL    HW237377   2.844   4.055   6.456 -1.2068  1.2726  0.8836
 8640SOL     OW37378   0.397   2.080  15.034 -0.5162  0.4451 -0.0054
 8640SOL    HW137379   0.314   2.100  14.991 -0.5097 -0.7984 -0.5943
 8640SOL    HW237380   0.426   2.171  15.036 -2.2989  1.0106  0.0963
 8641SOL     OW37381   2.295   0.021   5.670 -0.3328  0.2695  0.4155
 8641SOL    HW137382   2.361   0.089   5.659 -0.7464  0.7388  0.8484
 8641SOL    HW237383   2.229   0.061   5.726  0.3319  1.3373  0.4320
 8642SOL     OW37384   1.878   0.480   2.371  0.6352  0.4509 -0.3630
 8642SOL    HW137385   1.876   0.384   2.368 -1.8401  0.4847  0.1579
 8642SOL    HW237386   1.838   0.502   2.455 -0.7620  0.6316 -1.0610
 8643SOL     OW37387   1.697   3.772   6.441 -0.5746  0.6683 -0.2599
 8643SOL    HW137388   1.673   3.680   6.456 -2.3672  1.0434 -0.8559
 8643SOL    HW237389   1.772   3.771   6.501 -1.5282 -2.8138  0.9046
 8644SOL     OW37390   3.523   1.009  11.148 -0.3766 -0.0946  0.0392
 8644SOL    HW137391   3.498   1.100  11.165 -2.4185 -0.5360 -0.5278
 8644SOL    HW237392   3.505   0.997  11.054  2.0896  2.9326 -0.8169
 8645SOL     OW37393   0.534   4.660   7.918 -0.1930 -0.0786 -0.1746
 8645SOL    HW137394   0.467   4.688   7.980 -1.9365 -1.5813 -1.4078
 8645SOL    HW237395   0.516   4.694   7.831  0.7518  0.8108 -0.0260
 8646SOL     OW37396   2.660   2.557  10.029  0.8654  0.3321 -0.2304
 8646SOL    HW137397   2.741   2.555  10.079  0.7646 -0.1154 -0.0818
 8646SOL    HW237398   2.643   2.463  10.035  1.1030  0.3681  1.1382
 8647SOL     OW37399   1.062   2.613  11.740  0.3517 -0.0644 -0.8337
 8647SOL    HW137400   1.018   2.535  11.773  0.6356 -0.0741 -0.4831
 8647SOL    HW237401   1.148   2.570  11.736  0.2359 -0.4182  0.5929
 8648SOL     OW37402   1.030   1.245   9.735  0.5131 -0.2650  0.3876
 8648SOL    HW137403   1.122   1.263   9.755 -0.0957 -0.2689  3.1117
 8648SOL    HW237404   0.998   1.334   9.726  0.1938 -0.2177  2.0712
 8649SOL     OW37405   0.837   4.130   3.445 -1.3704  0.0362  0.0178
 8649SOL    HW137406   0.926   4.144   3.412 -0.9206 -1.9295  0.3957
 8649SOL    HW237407   0.780   4.086   3.381 -0.8901 -1.9699  0.9636
 8650SOL     OW37408   2.116   3.662   5.462  0.5787 -0.3556 -0.0884
 8650SOL    HW137409   2.057   3.598   5.422  1.2015  0.0699 -1.6691
 8650SOL    HW237410   2.085   3.660   5.553  1.5509 -1.5424  0.2118
 8651SOL     OW37411   2.043   1.114   7.528 -0.3514 -0.0366 -0.2809
 8651SOL    HW137412   2.006   1.192   7.486  1.7408  0.7012 -0.7636
 8651SOL    HW237413   2.014   1.036   7.481 -0.6301 -0.1877  0.1365
 8652SOL     OW37414   1.972   3.850   2.263  0.5582  0.1937  0.2761
 8652SOL    HW137415   1.889   3.843   2.216  0.6516 -0.0698  0.1524
 8652SOL    HW237416   1.950   3.914   2.330  1.2854 -0.8628  1.5156
 8653SOL     OW37417   3.739   4.574  17.395 -0.3133  0.1319 -0.3465
 8653SOL    HW137418   3.657   4.604  17.357  0.1463  2.6364  0.6574
 8653SOL    HW237419   3.721   4.585  17.488  1.4823  1.6437 -0.1582
 8654SOL     OW37420   4.269   0.718   3.963  0.1508 -0.6283  0.0870
 8654SOL    HW137421   4.346   0.770   3.986 -1.8036  2.2330  0.1725
 8654SOL    HW237422   4.252   0.672   4.046 -0.5858 -2.1186 -0.8920
 8655SOL     OW37423   1.727   2.307   6.219 -0.2977 -0.2507  0.0968
 8655SOL    HW137424   1.803   2.259   6.253  0.5658 -0.9893 -2.8872
 8655SOL    HW237425   1.742   2.387   6.270 -1.3070  0.0289 -0.0522
 8656SOL     OW37426   1.872   2.680  10.649  0.8408 -0.1054  0.2512
 8656SOL    HW137427   1.902   2.692  10.558 -0.4088 -0.5456 -0.2133
 8656SOL    HW237428   1.841   2.590  10.638  0.9381 -0.1925  0.6997
 8657SOL     OW37429   0.420   2.104  16.551  0.1698 -0.5738  0.0280
 8657SOL    HW137430   0.513   2.126  16.547  0.3436 -1.4295 -0.7692
 8657SOL    HW237431   0.387   2.126  16.464 -1.6613 -0.8471  0.6610
 8658SOL     OW37432   3.969   1.758   7.441 -0.3170  0.0478 -0.5008
 8658SOL    HW137433   3.950   1.694   7.510  0.8824  1.6041  1.2716
 8658SOL    HW237434   4.035   1.810   7.486 -0.3989  0.1417 -0.4910
 8659SOL     OW37435   2.528   2.244   2.228  0.1502  0.3462  0.3080
 8659SOL    HW137436   2.515   2.150   2.211  0.7448 -0.0721  2.0883
 8659SOL    HW237437   2.622   2.262   2.234  0.2020  0.2779 -0.2905
 8660SOL     OW37438   0.357   4.637   3.787  0.0851  0.0066  0.1809
 8660SOL    HW137439   0.267   4.650   3.756  0.5377  2.8980  0.0456
 8660SOL    HW237440   0.414   4.660   3.714  0.5475  0.1749  0.5977
 8661SOL     OW37441   1.494   0.618  16.110  0.0697 -0.3292  0.2620
 8661SOL    HW137442   1.509   0.712  16.102  0.5919 -0.4215  0.1736
 8661SOL    HW237443   1.404   0.613  16.144 -0.8000  0.0886 -2.0248
 8662SOL     OW37444   2.598   4.123   0.440  1.2012  0.1916 -0.3960
 8662SOL    HW137445   2.682   4.085   0.414  1.9205  1.7720 -0.3826
 8662SOL    HW237446   2.559   4.149   0.357  0.1536  1.8364  0.6163
 8663SOL     OW37447   0.426   4.314   6.264 -0.6099 -0.0990 -0.4157
 8663SOL    HW137448   0.364   4.373   6.306  0.1254 -0.5665  1.3111
 8663SOL    HW237449   0.512   4.342   6.294 -0.1350 -2.9138  0.8338
 8664SOL     OW37450   2.674   4.037   2.400  0.6970  0.0918  0.0521
 8664SOL    HW137451   2.586   4.000   2.399  0.5668  0.4019  0.0350
 8664SOL    HW237452   2.670   4.108   2.336  0.1639  0.2357  0.2421
 8665SOL     OW37453   4.430   1.159  15.661  0.0036 -0.2038 -0.3032
 8665SOL    HW137454   4.448   1.105  15.584 -0.4763  0.1424 -0.6586
 8665SOL    HW237455   4.480   1.236  15.634  0.5493  0.3795  2.3744
 8666SOL     OW37456   4.130   0.527   3.823 -0.3975  0.0151 -0.1238
 8666SOL    HW137457   4.193   0.515   3.752  2.2342 -0.1710  2.2599
 8666SOL    HW237458   4.186   0.587   3.871 -0.5618 -2.0144  2.6011
 8667SOL     OW37459   0.196   3.919   2.216 -0.5591  0.3317  0.0306
 8667SOL    HW137460   0.180   4.011   2.194 -2.6770 -0.4771 -1.7492
 8667SOL    HW237461   0.106   3.888   2.216  0.1338 -1.6783 -1.8746
 8668SOL     OW37462   1.773   0.783   6.049  0.0750  0.5483 -0.1198
 8668SOL    HW137463   1.813   0.853   6.101  0.2137  0.7139 -0.4489
 8668SOL    HW237464   1.700   0.757   6.105  1.7664  0.1624  1.9032
 8669SOL     OW37465   4.282   3.438   1.269  0.3327  0.6280  0.1889
 8669SOL    HW137466   4.265   3.384   1.191 -1.4068  3.1168 -1.1440
 8669SOL    HW237467   4.318   3.520   1.235  1.2510 -0.4160 -1.3753
 8670SOL     OW37468   0.035   0.499  15.871 -0.0643 -0.3835 -0.0751
 8670SOL    HW137469   4.717   0.585  15.870  0.5090 -0.0782  0.8429
 8670SOL    HW237470   0.001   0.461  15.790 -0.1515 -1.1589  0.3243
 8671SOL     OW37471   2.783   3.076   2.638 -0.4238 -0.2931 -0.1932
 8671SOL    HW137472   2.794   3.063   2.732  0.3429  1.6945  0.0063
 8671SOL    HW237473   2.698   3.119   2.635 -0.5665 -0.4508  1.8344
 8672SOL     OW37474   0.238   1.931   3.202  0.3460 -0.1452  0.1518
 8672SOL    HW137475   0.200   1.847   3.227 -1.2943  0.6211  0.2110
 8672SOL    HW237476   0.257   1.948   3.294  1.3265  1.4722 -0.3457
 8673SOL     OW37477   1.358   1.290   4.900 -0.0621 -0.3985 -0.4468
 8673SOL    HW137478   1.386   1.220   4.959  0.8049  1.3473  1.1696
 8673SOL    HW237479   1.367   1.250   4.813 -1.0147 -0.2640 -0.6170
 8674SOL     OW37480   1.339   4.110  16.178  0.5410  0.6762  0.1575
 8674SOL    HW137481   1.300   4.078  16.097 -1.9898 -2.0135  2.4405
 8674SOL    HW237482   1.304   4.195  16.204 -3.6686 -1.1925  0.6151
 8675SOL     OW37483   2.052   2.343   5.467  0.0813  0.3220  0.1050
 8675SOL    HW137484   2.118   2.392   5.418  0.3641 -0.0917  0.0697
 8675SOL    HW237485   2.056   2.390   5.551 -3.2502 -0.4092  0.6750
 8676SOL     OW37486   0.182   2.595  10.570 -0.2866  0.0976  0.1115
 8676SOL    HW137487   0.266   2.555  10.548 -0.6476 -0.8254  0.4499
 8676SOL    HW237488   0.110   2.555  10.520  0.3224 -0.6851 -0.1396
 8677SOL     OW37489   2.202   1.410   2.194  1.0282  0.0460  0.0375
 8677SOL    HW137490   2.212   1.323   2.233 -0.2929  0.8447  2.1261
 8677SOL    HW237491   2.193   1.462   2.274 -0.9908 -0.6912  0.2972
 8678SOL     OW37492   3.830   2.668   6.228 -0.5846  0.0466 -0.0013
 8678SOL    HW137493   3.748   2.622   6.245  0.6920 -2.1773  0.0987
 8678SOL    HW237494   3.831   2.660   6.133 -0.5748  0.1615 -0.0111
 8679SOL     OW37495   0.132   3.031   7.753  0.4930 -1.4802  0.3572
 8679SOL    HW137496   0.157   2.984   7.832  0.3851  0.0346  1.2865
 8679SOL    HW237497   0.040   3.008   7.742  0.6600 -2.0068  0.0389
 8680SOL     OW37498   0.456   3.655   5.849  0.2885  0.1137  0.3333
 8680SOL    HW137499   0.473   3.653   5.943 -1.1732  0.0627  0.5975
 8680SOL    HW237500   0.486   3.571   5.816 -0.4209  0.7842 -1.9884
 8681SOL     OW37501   0.126   1.674  13.226 -0.1142  0.5388  0.4756
 8681SOL    HW137502   0.168   1.750  13.186  1.4483 -1.4932 -1.7313
 8681SOL    HW237503   0.073   1.712  13.296 -1.1117 -0.1843  0.1163
 8682SOL     OW37504   1.550   4.411   0.231 -0.1695  0.0955 -0.7011
 8682SOL    HW137505   1.532   4.505   0.240 -0.1313 -0.0839  1.3243
 8682SOL    HW237506   1.461   4.379   0.221 -0.0416 -0.1051 -1.1727
 8683SOL     OW37507   1.432   4.018   5.455  0.0295 -0.0853  0.0111
 8683SOL    HW137508   1.486   4.095   5.438  0.8851 -0.3598  1.4636
 8683SOL    HW237509   1.347   4.052   5.426  0.2199 -1.8898 -2.5866
 8684SOL     OW37510   0.141   4.655   3.654 -0.6231 -0.3619  0.0987
 8684SOL    HW137511   0.121   4.633   3.563 -0.6622  1.9237 -0.4453
 8684SOL    HW237512   0.126   0.024   3.648 -1.4254 -0.6486 -2.5126
 8685SOL     OW37513   1.622   2.522   9.904  0.7291 -0.9420  0.2951
 8685SOL    HW137514   1.710   2.491   9.927  1.5725 -0.6927 -2.5810
 8685SOL    HW237515   1.601   2.570   9.984 -0.1690  1.0517 -1.1136
 8686SOL     OW37516   1.760   3.096   3.949 -0.4811 -0.3856  0.0370
 8686SOL    HW137517   1.803   3.039   3.886  0.3456 -0.2353  0.4588
 8686SOL    HW237518   1.688   3.038   3.973 -2.0840  1.1822 -0.9970
 8687SOL     OW37519   0.532   1.204   0.707  0.0158  0.3356 -0.2108
 8687SOL    HW137520   0.559   1.198   0.799  1.6820  0.6822 -0.6654
 8687SOL    HW237521   0.600   1.258   0.667  0.1502 -2.1973 -3.3872
 8688SOL     OW37522   2.621   0.900   5.971 -0.1067  0.2771 -0.4855
 8688SOL    HW137523   2.575   0.969   5.924 -0.6142 -0.2650 -0.7770
 8688SOL    HW237524   2.702   0.886   5.921  2.6100 -0.0051  3.9742
 8689SOL     OW37525   2.314   3.655  16.051 -0.8764  0.3085 -0.3391
 8689SOL    HW137526   2.224   3.685  16.046 -1.0974 -0.1807  0.5757
 8689SOL    HW237527   2.326   3.657  16.146  0.6096  2.9605 -0.5824
 8690SOL     OW37528   0.978   2.398  13.832 -0.7400  0.4588  0.2538
 8690SOL    HW137529   0.897   2.398  13.782 -0.7236  2.7316  0.2562
 8690SOL    HW237530   0.943   2.416  13.919 -0.9361 -0.0096  0.2736
 8691SOL     OW37531   1.673   1.205   2.762 -0.3012 -0.2813 -0.6214
 8691SOL    HW137532   1.707   1.126   2.721  0.0510 -0.1675 -0.5513
 8691SOL    HW237533   1.593   1.171   2.801  1.0010 -1.3960  1.0156
 8692SOL     OW37534   4.719   3.773  10.425  0.0305 -0.5011 -0.5101
 8692SOL    HW137535   4.669   3.699  10.390 -3.5355  1.2563  0.9495
 8692SOL    HW237536   0.043   3.731  10.495  0.0714 -2.8737 -1.9580
 8693SOL     OW37537   3.085   3.000   1.910 -0.0692  0.0619  0.0394
 8693SOL    HW137538   3.131   3.081   1.934  1.2705 -0.7886  0.3745
 8693SOL    HW237539   3.124   2.982   1.824 -0.6165  0.2621 -0.2459
 8694SOL     OW37540   3.812   0.751   7.941  0.3030  0.2344  0.7817
 8694SOL    HW137541   3.883   0.807   7.910  1.0453 -0.7788  0.6443
 8694SOL    HW237542   3.794   0.796   8.024 -3.1423  0.0841  0.1221
 8695SOL     OW37543   2.819   1.711  11.603  0.5493  0.5577 -0.0085
 8695SOL    HW137544   2.847   1.658  11.677  0.4644  1.7896  0.9119
 8695SOL    HW237545   2.731   1.735  11.631 -0.1953  0.2926 -2.0967
 8696SOL     OW37546   0.153   3.411   8.629 -0.1608 -0.7049  0.6455
 8696SOL    HW137547   0.140   3.321   8.598  1.0295 -0.4810 -0.5141
 8696SOL    HW237548   0.107   3.413   8.713 -2.7560 -0.3485 -0.7750
 8697SOL     OW37549   4.168   4.074   3.127  0.3934  0.1564  0.1820
 8697SOL    HW137550   4.111   4.149   3.111  1.6706  1.2208  0.6407
 8697SOL    HW237551   4.114   3.998   3.149 -1.1599  1.1144 -0.3343
 8698SOL     OW37552   0.335   4.576  17.684  0.3071  0.3034 -0.0251
 8698SOL    HW137553   0.301   4.628   0.055  0.0674 -0.0913  0.1450
 8698SOL    HW237554   0.256   4.553  17.635  0.8737 -2.2764  0.2664
 8699SOL     OW37555   1.948   2.197  17.679 -0.4727 -0.6156 -0.5071
 8699SOL    HW137556   1.921   2.201  17.587 -1.0876 -2.2794 -0.4062
 8699SOL    HW237557   2.017   2.263  17.672  0.8752 -2.2008 -2.2927
 8700SOL     OW37558   1.977   1.004   8.572 -0.1168  0.4360 -0.4998
 8700SOL    HW137559   1.951   0.996   8.664  1.8541 -0.2212  0.0010
 8700SOL    HW237560   1.924   0.932   8.539 -1.0868  0.5030  0.9134
 8701SOL     OW37561   4.451   1.963   8.970  0.1120 -0.7782 -0.2071
 8701SOL    HW137562   4.470   2.056   8.955  1.3245 -0.8713  0.7718
 8701SOL    HW237563   4.386   1.972   9.040  1.0452  0.2394  0.5305
 8702SOL     OW37564   4.171   2.286  12.728 -0.2844 -0.3614 -0.1715
 8702SOL    HW137565   4.209   2.373  12.733  0.2744 -0.5231 -1.5700
 8702SOL    HW237566   4.083   2.322  12.721 -0.6155 -1.2740 -0.6433
 8703SOL     OW37567   1.484   4.447   6.675 -0.2133  0.4063 -0.1013
 8703SOL    HW137568   1.555   4.510   6.692 -0.0447  0.0979  0.3208
 8703SOL    HW237569   1.487   4.437   6.580 -0.1676 -1.9080  0.1556
 8704SOL     OW37570   0.260   4.548   6.304  0.4594  0.0456 -0.3990
 8704SOL    HW137571   0.353   4.569   6.298  0.2132  0.9300 -1.1159
 8704SOL    HW237572   0.226   4.602   6.375 -0.8787 -0.5040 -0.6155
 8705SOL     OW37573   3.385   4.170   4.581  0.3325 -0.3529  0.0466
 8705SOL    HW137574   3.331   4.227   4.526 -0.2185 -0.4333  0.5043
 8705SOL    HW237575   3.385   4.093   4.525 -1.6898  0.1297 -0.6112
 8706SOL     OW37576   0.507   3.574  12.940 -0.3622  0.1217 -0.4312
 8706SOL    HW137577   0.426   3.623  12.958 -0.7875 -1.3184  1.7208
 8706SOL    HW237578   0.543   3.569  13.029 -2.0684 -2.5033  0.1219
 8707SOL     OW37579   3.109   1.733   9.684  0.7286  0.6989  0.2425
 8707SOL    HW137580   3.164   1.812   9.675 -0.6223  1.4473 -1.3422
 8707SOL    HW237581   3.157   1.687   9.753 -0.5262 -0.9140  0.0150
 8708SOL     OW37582   3.731   0.335   0.634  0.3228  0.4637 -0.1683
 8708SOL    HW137583   3.638   0.338   0.657  0.4394 -1.9960  0.6439
 8708SOL    HW237584   3.774   0.383   0.705 -3.4490  1.2381  1.5631
 8709SOL     OW37585   0.663   1.499   3.482  0.8810  0.4139 -0.2023
 8709SOL    HW137586   0.602   1.541   3.543 -0.5041  1.4207 -2.2908
 8709SOL    HW237587   0.692   1.575   3.432  2.8140 -1.7664 -2.3913
 8710SOL     OW37588   0.010   3.230   9.895  0.2061 -0.2717  0.0974
 8710SOL    HW137589   0.046   3.299   9.839 -1.2466  0.5521  0.1860
 8710SOL    HW237590   4.702   3.281   9.969 -0.0329 -0.9480  0.4591
 8711SOL     OW37591   3.845   1.430   1.881  0.1783 -0.6002 -0.5056
 8711SOL    HW137592   3.932   1.466   1.863  0.2600 -1.2138 -1.3636
 8711SOL    HW237593   3.850   1.365   1.811  0.5812 -0.2076 -0.8437
 8712SOL     OW37594   1.402   2.767   8.649 -0.0447 -0.2749 -0.0726
 8712SOL    HW137595   1.322   2.812   8.676 -1.1517 -1.8650 -0.7021
 8712SOL    HW237596   1.424   2.820   8.573 -2.0851  0.1685 -0.3427
 8713SOL     OW37597   1.139   0.017   2.148  0.5777 -0.0043  0.5612
 8713SOL    HW137598   1.222   0.046   2.187  0.4391 -0.3359  1.1021
 8713SOL    HW237599   1.168   4.725   2.058  0.8559  1.2378  0.4140
 8714SOL     OW37600   3.825   3.833   5.701 -0.3043 -0.1331  0.0375
 8714SOL    HW137601   3.819   3.892   5.626 -0.9160  0.0761  0.2502
 8714SOL    HW237602   3.891   3.768   5.678  0.4989  0.3533  0.9876
 8715SOL     OW37603   0.371   1.245   3.167  0.6979  0.7843 -0.0714
 8715SOL    HW137604   0.425   1.184   3.217 -0.5241  0.0991  0.4092
 8715SOL    HW237605   0.306   1.179   3.144  1.6342 -0.7638  1.7370
 8716SOL     OW37606   0.920   0.690   7.353 -0.1363  0.0708 -0.7974
 8716SOL    HW137607   0.921   0.594   7.355 -1.1235  0.1184  1.7063
 8716SOL    HW237608   1.010   0.718   7.371 -0.2028  0.1381 -0.5769
 8717SOL     OW37609   2.013   1.691  17.464 -0.4007  0.4214 -0.2248
 8717SOL    HW137610   1.951   1.648  17.522 -0.7898  0.6638 -0.4580
 8717SOL    HW237611   2.089   1.680  17.521  1.6244  1.3324 -2.7708
 8718SOL     OW37612   0.175   4.220   5.376 -0.6209  0.5675 -0.0242
 8718SOL    HW137613   0.147   4.237   5.286 -0.6998 -2.7141 -0.5944
 8718SOL    HW237614   0.173   4.313   5.400  1.0047  0.6595 -0.2236
 8719SOL     OW37615   2.871   3.838   2.476  0.5770 -0.3987 -0.0199
 8719SOL    HW137616   2.887   3.785   2.398  1.5344 -0.3550  0.1410
 8719SOL    HW237617   2.812   3.902   2.436  1.5054 -0.0799 -0.8846
 8720SOL     OW37618   0.137   3.266   5.271  0.2887 -0.3927  0.6858
 8720SOL    HW137619   0.158   3.221   5.190 -0.2010 -0.9218  0.8554
 8720SOL    HW237620   0.156   3.358   5.252 -1.1214  0.0866  1.5287
 8721SOL     OW37621   2.559   1.104  10.822 -0.2843 -0.3378  0.1672
 8721SOL    HW137622   2.533   1.013  10.814 -3.7066  0.6965 -0.5209
 8721SOL    HW237623   2.604   1.110  10.907  1.0879  1.4271 -0.6763
 8722SOL     OW37624   0.842   4.286   7.604  0.0882  0.0391 -0.6728
 8722SOL    HW137625   0.829   4.258   7.695  0.9070  2.1523  0.0933
 8722SOL    HW237626   0.758   4.327   7.583 -0.4046 -0.7549 -0.2566
 8723SOL     OW37627   1.534   1.367   8.231  0.2594 -0.5632 -0.6873
 8723SOL    HW137628   1.523   1.286   8.281 -1.4114  0.6042  0.8148
 8723SOL    HW237629   1.452   1.380   8.184  0.2644 -0.1240 -0.5710
 8724SOL     OW37630   3.455   4.189   6.871  0.3275  0.1824 -0.1305
 8724SOL    HW137631   3.363   4.195   6.845 -0.1846 -1.9044  1.1633
 8724SOL    HW237632   3.452   4.125   6.942  2.0648  1.1291  0.7780
 8725SOL     OW37633   2.122   4.313   3.878  0.0819 -0.7483 -0.2092
 8725SOL    HW137634   2.164   4.319   3.964 -0.9360 -1.9840  0.3904
 8725SOL    HW237635   2.198   4.289   3.826  0.0639 -2.7059  0.6549
 8726SOL     OW37636   2.303   4.237   3.195 -0.2663 -0.2424  0.0942
 8726SOL    HW137637   2.284   4.164   3.136  0.2543 -1.1918  1.1056
 8726SOL    HW237638   2.298   4.315   3.139  0.5923 -1.1014 -1.1900
 8727SOL     OW37639   2.498   1.885   5.380  0.0650 -0.0794 -0.0664
 8727SOL    HW137640   2.508   1.977   5.406  0.3886  0.3598 -1.7448
 8727SOL    HW237641   2.480   1.848   5.467 -1.6228 -0.6683 -0.6559
 8728SOL     OW37642   1.201   1.332   3.175 -0.0808  0.0891  0.3724
 8728SOL    HW137643   1.164   1.396   3.114  1.5144 -1.0677 -1.8230
 8728SOL    HW237644   1.271   1.387   3.208  0.0637 -0.4490  0.9760
 8729SOL     OW37645   2.745   2.342   3.236 -0.3181  0.6257 -0.4709
 8729SOL    HW137646   2.726   2.435   3.224  2.1039  1.2062  0.1737
 8729SOL    HW237647   2.813   2.342   3.168 -0.8370  2.0490 -0.9886
 8730SOL     OW37648   2.143   4.430   2.243 -0.0083  0.2385 -0.0635
 8730SOL    HW137649   2.117   4.506   2.295  0.3460 -0.1762  0.7159
 8730SOL    HW237650   2.059   4.399   2.210  0.1143  0.8700 -0.9767
 8731SOL     OW37651   1.277   1.152   9.250  0.0199 -0.3956 -0.1229
 8731SOL    HW137652   1.231   1.235   9.240  1.6332  0.8594  2.8415
 8731SOL    HW237653   1.215   1.111   9.311  0.2212  0.5387  0.7199
 8732SOL     OW37654   0.690   4.237   8.948 -0.2915 -0.1363 -0.2606
 8732SOL    HW137655   0.780   4.242   8.914 -0.7951  2.2939 -1.2047
 8732SOL    HW237656   0.715   4.244   9.040  0.3875  2.4096 -0.6521
 8733SOL     OW37657   3.214   1.137   8.625  0.2093 -0.4470  0.1228
 8733SOL    HW137658   3.137   1.171   8.670 -0.2523  0.9009 -1.6929
 8733SOL    HW237659   3.196   1.168   8.536 -2.9419  0.7486  1.1637
 8734SOL     OW37660   1.019   0.314   3.168 -0.4015 -0.1871  0.2132
 8734SOL    HW137661   1.026   0.407   3.144 -2.4579 -0.0375  0.1349
 8734SOL    HW237662   0.963   0.331   3.244 -1.6866 -3.8459  0.0776
 8735SOL     OW37663   3.010   0.054   5.355  0.0353 -0.2183 -0.0379
 8735SOL    HW137664   3.103   0.074   5.361  0.0502 -0.5314  0.8292
 8735SOL    HW237665   2.969   0.123   5.303  1.0118  1.1998  1.0700
 8736SOL     OW37666   2.678   1.760   6.412 -0.0875  0.1092 -0.3426
 8736SOL    HW137667   2.666   1.849   6.445  0.0906  0.8693 -2.3245
 8736SOL    HW237668   2.615   1.766   6.340  0.2220  0.0868 -0.6194
 8737SOL     OW37669   2.331   3.763   0.264  0.4332  0.2096 -0.4312
 8737SOL    HW137670   2.330   3.850   0.304 -1.6004 -0.0659  0.1259
 8737SOL    HW237671   2.400   3.712   0.307  0.5280  1.1079  0.4847
 8738SOL     OW37672   0.963   4.581   8.462 -0.0064  0.1935 -0.3097
 8738SOL    HW137673   0.989   4.643   8.395 -2.5649  0.2971 -1.2364
 8738SOL    HW237674   0.876   4.555   8.430  1.4078 -1.4805 -2.7508
 8739SOL     OW37675   1.997   2.475  11.882 -0.4099  0.1693 -0.4353
 8739SOL    HW137676   2.060   2.539  11.915 -0.2240  0.2635 -0.9831
 8739SOL    HW237677   2.047   2.455  11.803  0.4072 -1.6402  0.5515
 8740SOL     OW37678   3.687   3.973   3.211 -0.4017 -0.3001  0.5500
 8740SOL    HW137679   3.741   3.910   3.260 -3.1816 -2.6991  0.4513
 8740SOL    HW237680   3.652   4.025   3.284  1.2071  0.2434  0.9377
 8741SOL     OW37681   1.193   1.104   1.068  0.2851 -0.1386 -0.1536
 8741SOL    HW137682   1.159   1.023   1.106  0.9871 -0.3255  0.0839
 8741SOL    HW237683   1.278   1.104   1.114  0.6864  1.3612 -0.9037
 8742SOL     OW37684   0.455   3.383   5.037 -0.3409 -0.7276  0.2662
 8742SOL    HW137685   0.436   3.440   4.963  1.8618  0.2006  0.4236
 8742SOL    HW237686   0.412   3.304   5.005  1.1313 -0.8515 -1.3749
 8743SOL     OW37687   1.281   0.894  16.507 -0.1413 -0.3058 -0.0394
 8743SOL    HW137688   1.361   0.845  16.531 -0.7606 -0.2187  2.1707
 8743SOL    HW237689   1.270   0.863  16.417 -3.1422  0.5316  0.0436
 8744SOL     OW37690   2.715   1.427  13.287 -0.2696  0.3005 -0.2789
 8744SOL    HW137691   2.684   1.336  13.283 -0.2332  0.3341 -1.1501
 8744SOL    HW237692   2.633   1.465  13.256  0.3090  1.0281 -0.8893
 8745SOL     OW37693   3.989   4.321   8.700 -0.8943 -0.1817  0.2944
 8745SOL    HW137694   3.988   4.228   8.681  0.0662 -0.0249 -0.5120
 8745SOL    HW237695   3.910   4.355   8.658  0.1437 -2.6426 -3.5995
 8746SOL     OW37696   0.067   1.907   2.236  0.7335  0.3177 -0.5119
 8746SOL    HW137697   0.048   1.947   2.151 -0.3380 -0.9554 -0.8734
 8746SOL    HW237698   0.057   1.816   2.208 -2.6752  0.4742  0.2120
 8747SOL     OW37699   2.388   3.670   9.323  0.1720  0.2218  0.2108
 8747SOL    HW137700   2.337   3.741   9.284 -0.2264 -0.8540 -1.2263
 8747SOL    HW237701   2.315   3.616   9.355  0.5145 -0.8189 -0.7927
 8748SOL     OW37702   3.951   4.023  14.286 -0.2828  0.2764  0.1269
 8748SOL    HW137703   4.024   4.045  14.345 -0.8474  1.4764  0.3967
 8748SOL    HW237704   3.875   4.033  14.344  0.6953  1.9014  1.1464
 8749SOL     OW37705   0.164   4.296   8.205 -0.2136  0.1463 -0.0020
 8749SOL    HW137706   0.199   4.372   8.158 -0.8139  0.8981  0.7478
 8749SOL    HW237707   0.169   4.238   8.129 -2.4784 -1.6292  1.2037
 8750SOL     OW37708   2.373   3.653   1.809 -0.6469 -0.3018 -0.2832
 8750SOL    HW137709   2.456   3.674   1.768  0.2749 -2.1452  0.6188
 8750SOL    HW237710   2.391   3.677   1.900 -1.3080 -0.1583 -0.1909
 8751SOL     OW37711   4.601   3.560   4.251  0.2456  0.6320 -0.0469
 8751SOL    HW137712   4.641   3.628   4.306  1.9021  1.3560 -2.1408
 8751SOL    HW237713   4.636   3.484   4.298  1.1061  0.7952 -0.4369
 8752SOL     OW37714   0.027   2.298   3.396 -0.4264 -0.1356 -0.1993
 8752SOL    HW137715   0.030   2.267   3.486 -2.3661 -1.9322 -0.7304
 8752SOL    HW237716   0.104   2.354   3.399 -0.2377 -0.5086  1.6457
 8753SOL     OW37717   0.450   2.377   2.467  0.2167  0.7471 -0.2693
 8753SOL    HW137718   0.519   2.373   2.533 -0.9589 -0.4086  0.9154
 8753SOL    HW237719   0.395   2.449   2.499  2.0126  2.4287 -0.9571
 8754SOL     OW37720   1.193   2.860  11.780  0.7751 -0.3321 -0.0645
 8754SOL    HW137721   1.235   2.855  11.693  0.9172  0.1437 -0.0226
 8754SOL    HW237722   1.170   2.767  11.786  1.9227 -0.5911  0.3403
 8755SOL     OW37723   1.104   3.371   3.388 -0.4521  0.0118 -0.7937
 8755SOL    HW137724   1.067   3.431   3.453  1.4567  0.4709 -0.1214
 8755SOL    HW237725   1.177   3.340   3.442 -1.0393  0.1173  0.0516
 8756SOL     OW37726   3.080   3.711   1.782  0.2781 -0.5187  0.3062
 8756SOL    HW137727   3.066   3.717   1.688 -0.0832  0.4056  0.4192
 8756SOL    HW237728   3.032   3.629   1.795 -1.6422  0.6523  0.6476
 8757SOL     OW37729   4.614   0.363  10.638 -0.6063  0.1887 -0.4819
 8757SOL    HW137730   4.597   0.408  10.556 -0.9984  0.3467 -0.3125
 8757SOL    HW237731   4.673   0.295  10.604  0.4007  0.0095  1.6013
 8758SOL     OW37732   0.889   2.268   7.049 -0.3224 -0.3679  0.2387
 8758SOL    HW137733   0.827   2.283   7.120  1.5241 -0.1501  1.8185
 8758SOL    HW237734   0.949   2.342   7.054  0.8875 -1.2476 -1.2597
 8759SOL     OW37735   0.577   0.375   6.664  0.2209  0.3847 -0.0371
 8759SOL    HW137736   0.611   0.460   6.635 -2.3678  1.4497  0.0874
 8759SOL    HW237737   0.486   0.386   6.691  0.5534 -1.0544  1.7382
 8760SOL     OW37738   1.363   0.543   6.098  0.2193  0.1160  0.3646
 8760SOL    HW137739   1.324   0.483   6.034  0.6690 -0.9868  1.1124
 8760SOL    HW237740   1.278   0.582   6.120 -0.6065 -1.0349 -0.7186
 8761SOL     OW37741   3.524   1.101  10.029  0.1603 -0.5263 -0.1156
 8761SOL    HW137742   3.521   1.006  10.038  0.4371 -0.7644 -2.5390
 8761SOL    HW237743   3.614   1.107   9.997  0.5502 -0.2590  1.0116
 8762SOL     OW37744   4.503   1.587   4.938  0.3106 -0.7457  1.1035
 8762SOL    HW137745   4.535   1.677   4.938  1.6668 -1.2290 -0.6924
 8762SOL    HW237746   4.480   1.572   5.030 -1.5945 -0.1058  0.7320
 8763SOL     OW37747   4.184   4.596  15.249  0.2053 -0.5845  0.0271
 8763SOL    HW137748   4.256   4.635  15.199 -0.8636 -0.0754 -1.1044
 8763SOL    HW237749   4.157   4.534  15.181 -4.0057 -1.1107  2.1726
 8764SOL     OW37750   1.063   0.653   1.474 -0.2617 -0.0980  0.2148
 8764SOL    HW137751   1.072   0.565   1.437  1.8619  0.5889 -0.9023
 8764SOL    HW237752   1.156   0.663   1.495 -0.3593  1.9338 -0.2518
 8765SOL     OW37753   4.635   3.669   1.109  0.0445 -0.0872 -0.2041
 8765SOL    HW137754   4.623   3.580   1.142 -0.7471 -0.6966 -2.0924
 8765SOL    HW237755   0.004   3.685   1.110  0.0198 -0.0091  0.6438
 8766SOL     OW37756   4.056   3.477  15.055  0.1880  0.4606  0.3233
 8766SOL    HW137757   4.007   3.483  14.973  4.5670  2.8588 -2.1126
 8766SOL    HW237758   4.015   3.549  15.104  0.6739  0.0315  1.3552
 8767SOL     OW37759   4.337   1.867   5.794 -0.1768 -0.3171 -0.0135
 8767SOL    HW137760   4.383   1.812   5.731 -0.6265  1.2631 -1.7261
 8767SOL    HW237761   4.376   1.835   5.876  0.6079 -2.0692 -1.0638
 8768SOL     OW37762   2.345   0.389   3.599  0.0827  0.2875 -0.0986
 8768SOL    HW137763   2.393   0.308   3.616 -0.7862 -0.0520  0.7013
 8768SOL    HW237764   2.307   0.363   3.515  4.5881 -3.3784 -0.9926
 8769SOL     OW37765   1.178   2.377  11.626 -0.0570 -0.2632 -0.3726
 8769SOL    HW137766   1.215   2.391  11.539  0.0837  1.1435 -0.0926
 8769SOL    HW237767   1.245   2.322  11.666  1.1159  0.6543 -1.0489
 8770SOL     OW37768   4.700   2.927   1.979  0.0689 -0.0321 -0.3678
 8770SOL    HW137769   0.011   2.846   2.016 -2.1284  1.1659  4.3381
 8770SOL    HW237770   4.640   2.884   1.918 -1.7925  0.0469  1.4497
 8771SOL     OW37771   2.407   3.026   3.788  0.0172 -0.5967 -0.2597
 8771SOL    HW137772   2.347   3.024   3.714  0.3972  2.0324 -0.6570
 8771SOL    HW237773   2.421   2.933   3.802 -0.4384 -0.5241  0.6865
 8772SOL     OW37774   4.179   3.109   0.002 -0.3555  0.3783  0.0297
 8772SOL    HW137775   4.185   3.203  17.688  2.4778  0.4542  1.5400
 8772SOL    HW237776   4.135   3.106   0.087 -0.8945 -1.9053 -0.3150
 8773SOL     OW37777   2.933   2.856   8.451  0.4081 -0.0164 -0.2180
 8773SOL    HW137778   2.839   2.866   8.439  0.1679 -0.2915  1.5413
 8773SOL    HW237779   2.965   2.921   8.388 -1.2572 -0.0590 -1.0895
 8774SOL     OW37780   0.432   2.255   3.627  0.0160 -0.2822  0.0756
 8774SOL    HW137781   0.387   2.303   3.696  0.3555 -0.4980  0.4464
 8774SOL    HW237782   0.489   2.189   3.667 -0.8552 -0.1744  1.5182
 8775SOL     OW37783   3.824   0.074   4.159 -0.1740  0.8885 -0.2828
 8775SOL    HW137784   3.873   0.133   4.216  0.1208 -0.0154  0.3952
 8775SOL    HW237785   3.851   0.103   4.072  0.1241 -2.5272 -1.3220
 8776SOL     OW37786   2.096   4.684  14.601  0.0571 -0.0312  0.2272
 8776SOL    HW137787   2.127   4.628  14.672  2.4051 -0.9601 -1.5074
 8776SOL    HW237788   2.067   0.030  14.657 -2.0039  0.7692 -1.8778
 8777SOL     OW37789   2.313   3.640   6.408  0.0332  0.2135  0.5561
 8777SOL    HW137790   2.313   3.588   6.488  0.8828  0.6210  0.8131
 8777SOL    HW237791   2.338   3.724   6.445  0.3239  0.6425 -0.6021
 8778SOL     OW37792   0.503   2.641   7.485  0.6100 -0.0434 -0.4561
 8778SOL    HW137793   0.516   2.600   7.570 -0.3914 -0.7747 -0.6545
 8778SOL    HW237794   0.572   2.706   7.473 -0.1297  0.8329  0.1042
 8779SOL     OW37795   2.962   4.260   5.957  0.3248 -0.4052 -0.4477
 8779SOL    HW137796   3.000   4.347   5.950 -0.2554 -0.1397 -0.2943
 8779SOL    HW237797   2.994   4.241   6.045  2.6007  0.9533 -0.9942
 8780SOL     OW37798   1.780   1.688   5.590 -0.1712 -0.4196  0.4687
 8780SOL    HW137799   1.723   1.615   5.615 -0.4430 -0.3755 -0.0292
 8780SOL    HW237800   1.714   1.750   5.621  0.1250  1.1952 -2.1360
 8781SOL     OW37801   3.290   2.165   2.865  0.3966 -0.1682 -0.2012
 8781SOL    HW137802   3.301   2.113   2.786  2.7958 -2.2525  1.5168
 8781SOL    HW237803   3.267   2.250   2.826  0.5757  1.4634  3.2491
 8782SOL     OW37804   2.420   3.686  17.434  0.0268  0.6730 -0.6100
 8782SOL    HW137805   2.514   3.679  17.417 -0.2405 -2.2211 -0.7649
 8782SOL    HW237806   2.398   3.755  17.371 -0.3159  0.4822 -0.6958
 8783SOL     OW37807   0.427   3.195  15.765  0.2773 -0.1113 -0.2908
 8783SOL    HW137808   0.333   3.183  15.751 -0.1690  1.8862  0.9661
 8783SOL    HW237809   0.433   3.290  15.758 -0.8919  0.1720  2.4443
 8784SOL     OW37810   4.448   2.875   2.272 -0.7582 -0.3964 -0.8084
 8784SOL    HW137811   4.421   2.917   2.190 -0.9111 -0.6129 -0.8677
 8784SOL    HW237812   4.486   2.795   2.236  1.4207  0.3358 -0.0904
 8785SOL     OW37813   0.113   2.050   8.661 -0.4112 -0.0732  1.0865
 8785SOL    HW137814   0.074   2.131   8.694  0.5542  0.4609  0.9190
 8785SOL    HW237815   0.099   1.991   8.735 -1.7867 -2.7399 -1.3269
 8786SOL     OW37816   4.519   1.257   3.638 -0.7121 -0.7645 -0.6046
 8786SOL    HW137817   4.580   1.254   3.564 -1.0461  1.4824 -0.9736
 8786SOL    HW237818   4.484   1.346   3.640  1.2651  0.0337 -1.7132
 8787SOL     OW37819   4.438   4.151  10.231  0.3496  0.0135  0.3889
 8787SOL    HW137820   4.465   4.172  10.320  0.0534 -0.9197  0.6974
 8787SOL    HW237821   4.356   4.111  10.260  0.5536 -0.2708  0.5641
 8788SOL     OW37822   4.273   4.267   2.318 -0.0411 -0.3738 -0.5212
 8788SOL    HW137823   4.214   4.322   2.266  0.4784  0.3547 -0.3329
 8788SOL    HW237824   4.308   4.206   2.254  0.7777 -0.0053 -0.4252
 8789SOL     OW37825   3.641   3.487   3.357 -0.0808 -0.1338  0.2401
 8789SOL    HW137826   3.703   3.430   3.310  0.2048  1.1394 -0.9286
 8789SOL    HW237827   3.568   3.506   3.298 -0.5921 -1.6120  0.3880
 8790SOL     OW37828   3.729   1.913   8.540 -0.2435 -0.5037 -0.2004
 8790SOL    HW137829   3.749   1.890   8.449  0.0618 -0.5526 -0.1201
 8790SOL    HW237830   3.813   1.950   8.566 -0.0412 -1.3785  0.3706
 8791SOL     OW37831   2.777   2.871   3.904 -0.0208 -0.3312 -0.3727
 8791SOL    HW137832   2.828   2.849   3.983  1.1240 -2.0420 -1.5913
 8791SOL    HW237833   2.702   2.814   3.919 -0.5880  0.3540 -0.6328
 8792SOL     OW37834   2.094   4.320   0.976 -0.1527  0.1405  0.2352
 8792SOL    HW137835   2.145   4.385   1.023 -0.2663 -0.3532  1.0277
 8792SOL    HW237836   2.111   4.344   0.885  0.0789  0.6561  0.4151
 8793SOL     OW37837   2.800   0.981   1.638  0.1164  0.0766  0.1542
 8793SOL    HW137838   2.858   1.053   1.613 -0.6667  0.6618  0.0161
 8793SOL    HW237839   2.725   1.021   1.595 -0.8626 -2.5362 -0.5486
 8794SOL     OW37840   3.181   0.758   6.382  0.5614  0.0673 -0.5073
 8794SOL    HW137841   3.086   0.773   6.384  0.2359 -1.7239 -1.7630
 8794SOL    HW237842   3.215   0.827   6.326  0.6670  0.8411  0.4936
 8795SOL     OW37843   3.523   2.275  11.525  0.2208 -0.0315 -0.6965
 8795SOL    HW137844   3.480   2.199  11.565  0.2700 -0.9624 -2.3876
 8795SOL    HW237845   3.468   2.293  11.448  0.6878  0.5317 -0.9026
 8796SOL     OW37846   1.859   3.282   2.492  0.3339 -0.6968  0.1973
 8796SOL    HW137847   1.951   3.257   2.501  1.2837  2.8068  0.4298
 8796SOL    HW237848   1.868   3.369   2.452 -1.1123 -0.7025 -0.1643
 8797SOL     OW37849   2.592   1.074  15.252 -0.0510  0.3011 -0.2597
 8797SOL    HW137850   2.669   1.063  15.196  0.3135  0.7694  0.1481
 8797SOL    HW237851   2.600   1.162  15.290  0.9996  0.3469 -0.5889
 8798SOL     OW37852   3.537   0.219   8.456  0.0463 -0.6626  0.1162
 8798SOL    HW137853   3.496   0.281   8.517 -1.3915 -0.5338 -0.9632
 8798SOL    HW237854   3.586   0.174   8.524 -2.6412 -0.2939  2.2984
 8799SOL     OW37855   3.954   1.712   7.754  0.5380  0.3357 -0.5412
 8799SOL    HW137856   3.860   1.719   7.769  0.6763  2.6981 -0.7918
 8799SOL    HW237857   3.973   1.637   7.811 -0.0599 -0.3804 -1.2959
 8800SOL     OW37858   3.425   0.045   1.616 -0.3258 -0.5087  0.1446
 8800SOL    HW137859   3.518   0.057   1.633 -0.0953 -4.3447  1.3751
 8800SOL    HW237860   3.435   0.000   1.532  0.1131 -1.3961  0.6752
 8801SOL     OW37861   1.301   2.505   4.593  0.0394 -0.0090 -0.5212
 8801SOL    HW137862   1.368   2.500   4.661 -0.0282  1.1441 -0.3718
 8801SOL    HW237863   1.225   2.516   4.651 -0.0541 -3.1286 -0.0445
 8802SOL     OW37864   4.269   3.343  15.768 -0.3472  0.3188  0.2305
 8802SOL    HW137865   4.205   3.367  15.701  1.4182  2.7287 -0.5738
 8802SOL    HW237866   4.308   3.431  15.772 -0.7962  0.5448 -0.4302
 8803SOL     OW37867   2.888   1.865   4.909 -0.5748 -0.0186  0.4898
 8803SOL    HW137868   2.950   1.882   4.980 -0.5022 -1.7945  0.8521
 8803SOL    HW237869   2.854   1.776   4.918 -1.7375  0.4529  0.8150
 8804SOL     OW37870   2.015   4.525   6.769 -0.1862  0.0212 -0.1596
 8804SOL    HW137871   2.010   4.492   6.859  0.5924  0.1861 -0.0587
 8804SOL    HW237872   2.059   4.450   6.730 -1.2308 -0.5696 -0.2240
 8805SOL     OW37873   1.401   2.852  13.208  0.0671  0.0484 -0.3391
 8805SOL    HW137874   1.429   2.917  13.144  0.1811  1.2217  0.9073
 8805SOL    HW237875   1.423   2.768  13.166  0.7994 -0.9447  2.0248
 8806SOL     OW37876   3.084   2.753  13.876  0.1921  0.1273 -0.2113
 8806SOL    HW137877   3.072   2.670  13.923  1.6887 -0.0347 -0.1296
 8806SOL    HW237878   3.129   2.712  13.802 -0.8310  0.0751 -0.8138
 8807SOL     OW37879   3.804   1.447   2.877  0.0420  0.5217 -0.1126
 8807SOL    HW137880   3.722   1.451   2.927  0.9274  0.1296  1.3617
 8807SOL    HW237881   3.771   1.435   2.788  1.0937  3.3360 -0.8724
 8808SOL     OW37882   4.456   3.435  14.539  0.4946  0.3430  0.2802
 8808SOL    HW137883   4.541   3.407  14.573  0.4968  0.1844  0.1433
 8808SOL    HW237884   4.421   3.363  14.486  0.4839 -0.2418  1.0848
 8809SOL     OW37885   0.631   0.831   1.433  0.4712 -0.1673  0.3224
 8809SOL    HW137886   0.704   0.891   1.445  1.1033 -1.0824  1.1310
 8809SOL    HW237887   0.676   0.754   1.398  1.3859  1.1022 -1.2768
 8810SOL     OW37888   3.317   1.015   5.242  0.3615 -0.1931  0.0888
 8810SOL    HW137889   3.369   1.051   5.314  1.3244 -2.7132  0.6495
 8810SOL    HW237890   3.370   0.939   5.219  1.1985  1.3323 -2.8962
 8811SOL     OW37891   2.323   0.923  17.195  0.0417  0.2475  0.3709
 8811SOL    HW137892   2.372   0.933  17.276 -1.0702  2.5611  0.7634
 8811SOL    HW237893   2.236   0.938  17.232 -0.9017  0.4469 -1.9007
 8812SOL     OW37894   2.299   4.073   6.385  0.1912 -0.3107 -0.2720
 8812SOL    HW137895   2.285   4.167   6.370  1.5488  0.0398  0.6951
 8812SOL    HW237896   2.215   4.030   6.370 -0.4098 -0.1941  2.7768
 8813SOL     OW37897   3.847   3.595   1.577  0.1564 -0.1872  0.0070
 8813SOL    HW137898   3.935   3.623   1.550 -0.0246  1.3300  0.9590
 8813SOL    HW237899   3.859   3.590   1.672  1.7354  0.2218 -0.1612
 8814SOL     OW37900   2.539   0.166   5.923 -0.2882 -0.1412  0.1687
 8814SOL    HW137901   2.505   0.142   6.009  0.5088 -0.4096  0.4128
 8814SOL    HW237902   2.523   0.087   5.871 -1.6990  0.3407 -0.1404
 8815SOL     OW37903   3.083   4.294   7.495  0.0222  0.4865 -0.6368
 8815SOL    HW137904   3.020   4.290   7.566  1.4695 -2.1208  0.5065
 8815SOL    HW237905   3.069   4.214   7.444 -1.3253 -2.0633  3.6802
 8816SOL     OW37906   2.681   0.356   1.874  0.0678  0.7767  0.9043
 8816SOL    HW137907   2.722   0.358   1.960 -0.6604 -1.8983  1.3249
 8816SOL    HW237908   2.750   0.366   1.808 -0.4221 -2.7242 -0.1493
 8817SOL     OW37909   3.514   2.383  15.864  0.1761 -0.8237 -0.0253
 8817SOL    HW137910   3.442   2.440  15.892  1.4895  0.4785  0.7421
 8817SOL    HW237911   3.558   2.444  15.805  0.4712 -0.3052  0.7332
 8818SOL     OW37912   4.285   0.723   4.900  0.2551  0.1137  0.0491
 8818SOL    HW137913   4.261   0.725   4.993 -1.8010  1.4635 -0.4992
 8818SOL    HW237914   4.363   0.778   4.908 -0.5910  1.2387  0.7854
 8819SOL     OW37915   1.773   4.266   1.458  0.0471 -0.0140  0.3638
 8819SOL    HW137916   1.717   4.298   1.388 -0.3706 -0.4971  0.4741
 8819SOL    HW237917   1.787   4.178   1.424 -0.3348 -0.0359  0.2687
 8820SOL     OW37918   4.637   2.135   9.717  0.3135 -0.0052 -0.1512
 8820SOL    HW137919   0.008   2.133   9.721  0.2942  0.1149  0.4170
 8820SOL    HW237920   4.608   2.061   9.770 -1.1517  0.5152 -0.2317
 8821SOL     OW37921   1.138   2.121  15.249  0.2730 -0.0546 -0.2080
 8821SOL    HW137922   1.152   2.208  15.287 -2.2946 -0.9987  2.9409
 8821SOL    HW237923   1.211   2.071  15.285 -0.6380 -0.4868  1.0482
 8822SOL     OW37924   2.627   2.877   8.090 -0.2609  0.2045  0.5464
 8822SOL    HW137925   2.581   2.959   8.108  1.6486  1.3779  0.1287
 8822SOL    HW237926   2.682   2.892   8.013 -1.8984  2.2041 -0.2274
 8823SOL     OW37927   1.250   2.337   5.307  0.3051  0.7435  0.3457
 8823SOL    HW137928   1.343   2.321   5.323 -0.0452  1.7063  3.3029
 8823SOL    HW237929   1.239   2.342   5.212 -1.6264 -0.3996  0.5071
 8824SOL     OW37930   3.983   2.603   9.458  0.2576 -0.6111 -0.5008
 8824SOL    HW137931   4.025   2.546   9.393 -1.5791 -1.8913 -0.5548
 8824SOL    HW237932   3.964   2.535   9.522  0.5369 -0.5420 -0.3444
 8825SOL     OW37933   3.307   1.192   8.158 -0.0766 -0.3633  0.2133
 8825SOL    HW137934   3.349   1.258   8.103 -0.1683 -1.7078 -1.5051
 8825SOL    HW237935   3.371   1.121   8.167  1.1481  0.5275 -1.2688
 8826SOL     OW37936   3.499   4.591   9.742  0.8178  0.2998  0.4996
 8826SOL    HW137937   3.476   4.540   9.820  0.9094 -1.1855 -0.4391
 8826SOL    HW237938   3.548   4.664   9.779  1.6852  0.1691 -0.3808
 8827SOL     OW37939   1.130   2.141   4.681  0.3574 -0.0721 -0.8333
 8827SOL    HW137940   1.100   2.213   4.737  2.1257 -0.2947  0.4138
 8827SOL    HW237941   1.213   2.124   4.725 -0.3966  2.9994  1.8548
 8828SOL     OW37942   4.510   0.274   7.806  0.1758 -0.0288 -0.3501
 8828SOL    HW137943   4.479   0.326   7.732  0.9470  0.7878 -0.1035
 8828SOL    HW237944   4.475   0.190   7.777 -1.2405  1.0288 -1.6859
 8829SOL     OW37945   4.350   1.871  12.260 -0.0671 -0.3180 -0.4017
 8829SOL    HW137946   4.265   1.828  12.261  0.4513 -1.3799 -0.9311
 8829SOL    HW237947   4.346   1.918  12.177  0.1962 -0.4067 -0.4671
 8830SOL     OW37948   4.582   0.117   6.113 -0.3710 -0.0594  0.5056
 8830SOL    HW137949   4.596   0.034   6.068  2.9882  0.4852  0.5623
 8830SOL    HW237950   4.671   0.130   6.146  0.2612 -0.1883 -1.1211
 8831SOL     OW37951   0.321   2.714   6.034 -0.1378 -0.8075  0.2301
 8831SOL    HW137952   0.243   2.764   6.060 -0.3365 -1.5594  1.0608
 8831SOL    HW237953   0.398   2.769   6.053 -0.8166  0.0707  0.4279
 8832SOL     OW37954   0.225   4.518   7.789 -0.4318 -0.0508  0.1159
 8832SOL    HW137955   0.233   4.612   7.776  0.0074 -0.1085 -0.0293
 8832SOL    HW237956   0.306   4.489   7.748  0.8272 -0.0627  2.6446
 8833SOL     OW37957   0.265   3.554   3.330 -0.5590  0.2580 -0.8480
 8833SOL    HW137958   0.225   3.621   3.385  0.3913 -1.3805  1.8154
 8833SOL    HW237959   0.236   3.470   3.366  2.0382 -0.2748 -0.0003
 8834SOL     OW37960   3.558   1.998   7.038  0.0823 -0.4195 -0.1658
 8834SOL    HW137961   3.547   2.088   7.068  1.7083  0.5869 -2.4995
 8834SOL    HW237962   3.617   2.013   6.963 -0.8069 -2.2979 -1.2314
 8835SOL     OW37963   3.355   4.540  17.128 -0.4182 -0.2082  0.4993
 8835SOL    HW137964   3.266   4.528  17.095 -1.1540  0.0546  2.4033
 8835SOL    HW237965   3.404   4.477  17.076  1.6593  0.9889  1.0326
 8836SOL     OW37966   2.123   3.569   0.713  0.4509  0.0281 -0.0528
 8836SOL    HW137967   2.188   3.521   0.764 -0.2940 -0.9530 -0.0136
 8836SOL    HW237968   2.147   3.532   0.628  1.5791  0.3006  0.1582
 8837SOL     OW37969   4.143   0.344   6.191 -0.6821  0.4173 -0.8256
 8837SOL    HW137970   4.191   0.341   6.108  0.8582  2.2864 -0.0056
 8837SOL    HW237971   4.212   0.334   6.257 -1.2917 -0.3488 -0.3139
 8838SOL     OW37972   2.317   2.611   7.722  0.6060  0.1889 -0.0803
 8838SOL    HW137973   2.248   2.549   7.743 -0.8395  1.7578 -0.1898
 8838SOL    HW237974   2.391   2.550   7.733  0.2701 -0.3296 -0.7043
 8839SOL     OW37975   3.282   1.029   3.858  0.2239 -0.0083  0.0323
 8839SOL    HW137976   3.187   1.026   3.871  0.1429  0.4465 -0.4606
 8839SOL    HW237977   3.299   1.099   3.922 -1.2710  0.4914 -0.1013
 8840SOL     OW37978   1.497   2.761  11.034  0.0312 -0.1522 -0.0484
 8840SOL    HW137979   1.552   2.821  11.084 -0.9476  0.6720  0.0483
 8840SOL    HW237980   1.438   2.828  10.999 -0.3008 -1.3750 -1.7868
 8841SOL     OW37981   0.644   2.928  16.977  0.2417 -0.7728 -0.0918
 8841SOL    HW137982   0.686   2.921  17.063  1.2629  0.7809 -0.4541
 8841SOL    HW237983   0.674   3.014  16.947 -0.7236 -0.9152 -1.4501
 8842SOL     OW37984   4.490   3.099  14.524 -0.0751 -0.3774  0.1715
 8842SOL    HW137985   4.454   3.060  14.603  0.7714 -0.5674  0.4635
 8842SOL    HW237986   4.411   3.130  14.480  0.4518 -2.0755 -1.9835
 8843SOL     OW37987   2.978   0.255  10.532 -0.1602  0.1075 -0.4785
 8843SOL    HW137988   2.972   0.170  10.577 -0.0776 -0.2093 -1.0741
 8843SOL    HW237989   2.987   0.313  10.608  0.7096 -0.9999  0.2688
 8844SOL     OW37990   3.389   1.014   6.434  0.6041 -0.0789  0.3681
 8844SOL    HW137991   3.425   1.079   6.496 -1.5775  0.2581  1.2774
 8844SOL    HW237992   3.350   1.082   6.378  0.0849 -1.0295 -0.4119
 8845SOL     OW37993   1.248   2.168  10.612  0.5477  0.4917 -0.3842
 8845SOL    HW137994   1.280   2.078  10.622  1.6453  1.1220  1.9029
 8845SOL    HW237995   1.188   2.168  10.686  1.6237 -1.5756  0.4995
 8846SOL     OW37996   3.730   0.745   5.080  0.1222  0.2173 -0.2343
 8846SOL    HW137997   3.638   0.731   5.102  0.6680 -0.0486  1.8168
 8846SOL    HW237998   3.712   0.737   4.986 -0.3187 -0.5011 -0.0907
 8847SOL     OW37999   3.010   1.371  10.897 -0.1048 -0.4238 -0.2063
 8847SOL    HW138000   2.932   1.321  10.923  0.0107  0.1798  1.2694
 8847SOL    HW238001   2.979   1.458  10.872 -2.2032 -1.6642 -1.9995
 8848SOL     OW38002   2.252   4.438  13.774  0.0934 -0.1090 -0.1938
 8848SOL    HW138003   2.343   4.457  13.749  0.4633 -3.6195 -1.5103
 8848SOL    HW238004   2.237   4.487  13.855  0.6743 -0.9123  0.4088
 8849SOL     OW38005   3.952   1.718   5.734 -0.2492 -0.2947  0.7838
 8849SOL    HW138006   3.919   1.795   5.688 -1.6787 -1.5111 -0.2183
 8849SOL    HW238007   3.913   1.645   5.686  1.2908 -0.3494 -0.3815
 8850SOL     OW38008   4.267   2.567   2.233 -0.2387  0.1921  0.2800
 8850SOL    HW138009   4.262   2.554   2.328 -1.4444 -1.7431 -0.0451
 8850SOL    HW238010   4.193   2.628   2.227  0.0958  0.6608  0.8837
 8851SOL     OW38011   0.421   4.051   6.930  0.0905 -0.1591 -0.4721
 8851SOL    HW138012   0.421   4.009   6.844  5.2982  0.1690 -0.6720
 8851SOL    HW238013   0.426   4.144   6.911  0.8459  0.0557  0.7430
 8852SOL     OW38014   0.793   4.598   6.986  0.1919 -0.1745  0.4256
 8852SOL    HW138015   0.780   4.513   6.944  1.4958 -0.1935  0.0648
 8852SOL    HW238016   0.702   4.628   6.982  0.5226  0.7677  0.0448
 8853SOL     OW38017   2.002   2.286   3.825  0.4195  0.1073  0.0579
 8853SOL    HW138018   2.068   2.286   3.755 -0.5121 -1.4729 -0.8091
 8853SOL    HW238019   2.055   2.255   3.899  0.6439  0.2551 -0.0378
 8854SOL     OW38020   0.612   1.321  10.039 -0.1143 -0.5085 -0.2168
 8854SOL    HW138021   0.687   1.360  10.083 -0.5207  0.6044 -0.5075
 8854SOL    HW238022   0.612   1.377   9.961  0.3530 -1.5526 -0.9648
 8855SOL     OW38023   0.821   1.789  16.337  0.2387  0.3854  0.1887
 8855SOL    HW138024   0.768   1.786  16.257 -0.0976  2.9484  0.2983
 8855SOL    HW238025   0.868   1.707  16.350 -1.2996 -0.3557  1.1670
 8856SOL     OW38026   1.695   2.856  14.199 -0.3275  0.2335  0.1134
 8856SOL    HW138027   1.660   2.929  14.251  1.1399  1.2198 -0.2650
 8856SOL    HW238028   1.784   2.849  14.235 -1.0720 -0.8408  1.6913
 8857SOL     OW38029   1.930   0.806   4.254 -0.7156 -0.5499 -0.3939
 8857SOL    HW138030   2.023   0.798   4.235 -0.9532  0.8394 -2.0950
 8857SOL    HW238031   1.923   0.801   4.350 -2.0813 -0.9927 -0.5183
 8858SOL     OW38032   1.497   1.526   1.456 -0.5843  0.2509  0.3975
 8858SOL    HW138033   1.589   1.521   1.480 -0.7547 -0.9838  0.8293
 8858SOL    HW238034   1.463   1.471   1.527  0.3844 -3.5244 -2.0783
 8859SOL     OW38035   1.452   3.432   6.730  0.1714  0.0761  0.1960
 8859SOL    HW138036   1.395   3.432   6.808  0.5973 -1.9512  0.5065
 8859SOL    HW238037   1.510   3.362   6.759  0.1511  0.1071  0.3128
 8860SOL     OW38038   2.957   1.622   2.274  0.1412  0.2320 -0.1875
 8860SOL    HW138039   2.884   1.624   2.335 -0.9765  0.5176 -1.5405
 8860SOL    HW238040   2.919   1.614   2.186  0.5187  1.6014 -0.4700
 8861SOL     OW38041   0.741   3.884   2.988  0.1062 -0.0970  0.0441
 8861SOL    HW138042   0.824   3.853   3.024 -0.0070  0.1550  0.5244
 8861SOL    HW238043   0.712   3.937   3.062  0.3866  0.1355 -0.0166
 8862SOL     OW38044   2.161   3.691   2.386  0.3384 -0.0820 -0.3132
 8862SOL    HW138045   2.119   3.758   2.333 -0.0083  0.0178  0.0958
 8862SOL    HW238046   2.214   3.646   2.320 -0.9888 -1.0069 -0.7555
 8863SOL     OW38047   3.281   2.644  16.864 -0.0887 -0.0869  0.0216
 8863SOL    HW138048   3.295   2.704  16.936 -1.9833  1.8985 -1.2571
 8863SOL    HW238049   3.190   2.614  16.870  0.7213 -1.9624  2.8418
 8864SOL     OW38050   1.323   1.706   3.815 -0.0606 -0.3655  0.7347
 8864SOL    HW138051   1.397   1.713   3.876  1.0825 -1.8495 -0.4710
 8864SOL    HW238052   1.335   1.789   3.770  1.3664 -0.9392  0.0509
 8865SOL     OW38053   4.673   3.298  14.584 -0.3730 -0.1661 -0.6704
 8865SOL    HW138054   0.038   3.292  14.555 -0.3388 -1.1528 -0.3424
 8865SOL    HW238055   4.639   3.221  14.539  0.9146 -0.1139 -1.7150
 8866SOL     OW38056   1.441   0.264  15.042  0.0777 -0.1577 -0.0979
 8866SOL    HW138057   1.487   0.325  14.984 -1.4471  0.1484 -0.9811
 8866SOL    HW238058   1.434   0.294  15.132  0.3388 -1.4580  0.3500
 8867SOL     OW38059   0.955   3.995  16.696  0.7077 -0.4545  0.7219
 8867SOL    HW138060   0.899   3.932  16.651 -1.9533  0.2288  3.0910
 8867SOL    HW238061   0.904   4.014  16.775  0.1767 -0.9634  0.4974
 8868SOL     OW38062   3.601   4.328   3.285  0.2395 -0.5908 -0.2914
 8868SOL    HW138063   3.555   4.388   3.227 -3.5666 -2.7046  0.5406
 8868SOL    HW238064   3.688   4.366   3.275 -0.5031  0.8301 -1.3842
 8869SOL     OW38065   4.343   0.521   3.632  0.1573 -1.1312  0.1727
 8869SOL    HW138066   4.269   0.544   3.576 -0.5531 -1.1560  1.0955
 8869SOL    HW238067   4.413   0.503   3.569 -0.7025 -0.6518 -0.9095
 8870SOL     OW38068   2.631   1.999   3.201 -0.1137  0.4768  0.3469
 8870SOL    HW138069   2.540   2.005   3.230  0.4644 -0.8493  2.5083
 8870SOL    HW238070   2.661   1.952   3.280 -0.2708 -1.1410 -0.5663
 8871SOL     OW38071   0.998   3.292  14.017 -0.2208  0.0050 -0.2940
 8871SOL    HW138072   0.957   3.248  14.092 -0.9941  2.5783  0.7985
 8871SOL    HW238073   0.979   3.229  13.947 -2.9403 -0.6231  1.0151
 8872SOL     OW38074   2.162   0.970   4.443 -0.0210 -0.5837  0.1793
 8872SOL    HW138075   2.138   1.014   4.362 -0.2572 -0.4867  0.2998
 8872SOL    HW238076   2.070   0.960   4.469 -0.3672  2.0552 -0.0602
 8873SOL     OW38077   4.428   3.540   7.683  0.3729 -0.3210 -0.4447
 8873SOL    HW138078   4.339   3.507   7.696  0.5537 -0.0177  1.5328
 8873SOL    HW238079   4.418   3.546   7.588  1.5359 -1.9682 -0.6571
 8874SOL     OW38080   2.873   1.045   5.981  0.2656  0.5497 -0.0559
 8874SOL    HW138081   2.928   0.974   6.013  1.1055  1.5137  0.6175
 8874SOL    HW238082   2.920   1.084   5.906 -1.0608  1.6556 -0.3197
 8875SOL     OW38083   1.304   0.835  17.037 -0.0357 -0.0732  1.2838
 8875SOL    HW138084   1.371   0.900  17.060  2.4210 -1.6661 -1.1838
 8875SOL    HW238085   1.270   0.880  16.960 -1.9746 -0.2830  2.0369
 8876SOL     OW38086   0.519   4.398   8.768 -0.0538  0.8730  0.4059
 8876SOL    HW138087   0.580   4.352   8.826 -0.8722  0.3693  0.8697
 8876SOL    HW238088   0.437   4.375   8.811 -0.1195  1.3508  0.5366
 8877SOL     OW38089   3.431   2.661   0.246 -0.0737  0.0090  0.0718
 8877SOL    HW138090   3.360   2.722   0.227  2.1897  2.7961  0.6511
 8877SOL    HW238091   3.462   2.703   0.326 -0.4999 -0.4810  0.4945
 8878SOL     OW38092   1.756   0.472   9.238  0.2302 -0.0827 -0.2775
 8878SOL    HW138093   1.771   0.465   9.144  0.4471 -1.9810 -0.0998
 8878SOL    HW238094   1.761   0.568   9.242  0.6236 -0.1116 -0.1042
 8879SOL     OW38095   4.296   0.232   7.233 -0.4224 -0.2414  0.3366
 8879SOL    HW138096   4.226   0.278   7.185 -0.9074  0.0872  1.3607
 8879SOL    HW238097   4.249   0.151   7.253  0.6460 -0.7425  0.8223
 8880SOL     OW38098   0.100   3.989   6.395 -0.6828  0.4325  0.1326
 8880SOL    HW138099   0.010   3.990   6.363  0.6311 -2.5721 -3.6538
 8880SOL    HW238100   0.100   4.061   6.458 -1.7661  1.1060 -0.6496
 8881SOL     OW38101   4.678   3.190   4.057  0.6523  0.0166  0.7233
 8881SOL    HW138102   4.590   3.226   4.069  0.2223 -0.9968  0.6111
 8881SOL    HW238103   4.655   3.097   4.055  0.3164  0.1019  0.5683
 8882SOL     OW38104   4.519   0.290  11.440 -0.1825  0.3128 -0.5203
 8882SOL    HW138105   4.601   0.319  11.478 -0.9329  0.2033  1.1793
 8882SOL    HW238106   4.482   0.280  11.528  1.7727  2.2447  0.5012
 8883SOL     OW38107   2.883   2.189   4.400 -0.2797 -0.4162  0.1433
 8883SOL    HW138108   2.897   2.231   4.315  2.3098 -3.6915 -1.0859
 8883SOL    HW238109   2.937   2.110   4.390 -0.7478 -0.4746 -1.9415
 8884SOL     OW38110   4.499   0.215   3.461  0.0409  0.7198 -0.5008
 8884SOL    HW138111   4.516   0.129   3.423 -0.2782  0.0370  0.9109
 8884SOL    HW238112   4.425   0.179   3.511 -0.7800  4.7953  1.2082
 8885SOL     OW38113   0.139   4.720   6.465 -0.3316 -0.0491 -0.0691
 8885SOL    HW138114   0.162   0.087   6.454  0.5816 -0.4053 -1.1383
 8885SOL    HW238115   0.074   0.013   6.533  0.9512  0.1682  1.1016
 8886SOL     OW38116   3.859   0.070   3.157 -0.0253  0.7686  0.0709
 8886SOL    HW138117   3.820   0.132   3.220  0.6897  2.1667 -0.8509
 8886SOL    HW238118   3.868   0.125   3.079  1.6954 -2.2875 -1.8301
 8887SOL     OW38119   1.890   0.514   6.130 -0.0154 -0.2724  0.0575
 8887SOL    HW138120   1.899   0.548   6.219 -0.1741  0.6087 -0.2600
 8887SOL    HW238121   1.875   0.590   6.074 -0.4864  1.1332  2.1251
 8888SOL     OW38122   2.427   0.440   4.018 -0.4578  0.5098 -0.0864
 8888SOL    HW138123   2.339   0.404   4.004  0.1695 -0.4156 -1.6122
 8888SOL    HW238124   2.485   0.424   3.944 -1.0312 -1.8552 -0.0088
 8889SOL     OW38125   2.857   1.446   1.364  0.6171  0.2503  0.9293
 8889SOL    HW138126   2.926   1.380   1.358  0.8602  0.4014  1.9412
 8889SOL    HW238127   2.820   1.420   1.280 -0.2568  1.2755  0.9907
 8890SOL     OW38128   4.679   1.835   9.417 -0.6957 -0.3633 -0.2425
 8890SOL    HW138129   4.704   1.783   9.340 -1.1234  0.2831 -0.8078
 8890SOL    HW238130   4.661   1.920   9.379 -0.0388 -1.4513 -2.9860
 8891SOL     OW38131   1.219   2.788   4.536  0.0605  0.0097 -0.5748
 8891SOL    HW138132   1.303   2.834   4.537  1.4182 -2.4409 -2.1749
 8891SOL    HW238133   1.237   2.696   4.520  1.6691  0.1878  0.2643
 8892SOL     OW38134   4.492   1.532   5.237 -0.0831  0.0763 -0.1428
 8892SOL    HW138135   4.480   1.438   5.243 -2.2226  0.3283 -0.4514
 8892SOL    HW238136   4.575   1.543   5.283 -0.9492  0.1265  1.3891
 8893SOL     OW38137   1.051   3.979  12.861  0.2350  0.1605 -0.3262
 8893SOL    HW138138   1.108   4.043  12.903  0.0850  0.2657 -0.2828
 8893SOL    HW238139   0.972   4.032  12.851  1.0748  1.2703 -1.0214
 8894SOL     OW38140   4.700   2.243  15.291  0.2649 -0.0322 -0.8391
 8894SOL    HW138141   4.634   2.310  15.274  0.2217 -0.4796 -2.4040
 8894SOL    HW238142   4.722   2.256  15.383 -1.1264 -2.0103 -0.2475
 8895SOL     OW38143   0.118   4.649  16.172  0.1824  0.3511 -0.3430
 8895SOL    HW138144   0.024   4.634  16.158  0.4158 -1.8572  0.5152
 8895SOL    HW238145   0.127   4.680  16.262 -1.3653  0.7853 -0.3337
 8896SOL     OW38146   0.965   3.429   4.700 -0.2308 -0.2697  0.1372
 8896SOL    HW138147   0.921   3.483   4.635  0.9999  0.3546 -0.1802
 8896SOL    HW238148   0.890   3.379   4.731 -0.0557 -0.6663 -0.0832
 8897SOL     OW38149   1.174   4.699   2.799 -0.1560  0.0567 -0.1667
 8897SOL    HW138150   1.094   4.647   2.807  0.3654 -0.8653 -0.9927
 8897SOL    HW238151   1.196   4.683   2.707  1.0811  1.2516 -0.0664
 8898SOL     OW38152   3.086   2.437   5.983  0.0975 -0.2085 -0.2578
 8898SOL    HW138153   3.007   2.446   6.038  1.9399 -1.0921  2.5474
 8898SOL    HW238154   3.049   2.497   5.918  1.6135  2.3639  1.2586
 8899SOL     OW38155   3.492   0.765   5.476  0.7139 -0.1033  0.4664
 8899SOL    HW138156   3.578   0.727   5.488  0.8132  0.0814  0.3480
 8899SOL    HW238157   3.458   0.760   5.565  1.1709 -2.5257  0.4944
 8900SOL     OW38158   3.597   2.852   1.917 -0.0673 -0.4313 -0.1137
 8900SOL    HW138159   3.627   2.768   1.882 -0.2765 -0.4448 -0.2651
 8900SOL    HW238160   3.616   2.840   2.010  1.0603  1.0340 -0.1506
 8901SOL     OW38161   0.385   3.959  15.223 -0.1543 -0.0952  0.0602
 8901SOL    HW138162   0.303   3.913  15.206  0.3145 -0.3892 -1.4120
 8901SOL    HW238163   0.403   3.975  15.130 -1.0316 -2.6376 -0.5629
 8902SOL     OW38164   1.065   0.481  11.500  0.2105  0.0243 -0.6704
 8902SOL    HW138165   1.123   0.553  11.476  0.1990  1.1191  2.5747
 8902SOL    HW238166   0.982   0.508  11.462 -0.3812  0.3091  0.8253
 8903SOL     OW38167   4.212   0.789  15.935  0.1702 -0.1726 -0.1553
 8903SOL    HW138168   4.209   0.866  15.878 -0.4466  0.0961  0.2374
 8903SOL    HW238169   4.137   0.747  15.893 -1.0112  1.1743  0.5782
 8904SOL     OW38170   1.269   3.740   0.600 -0.0083 -0.1211  0.2012
 8904SOL    HW138171   1.214   3.662   0.607 -2.3396  1.5412  0.2416
 8904SOL    HW238172   1.308   3.734   0.687 -0.0113  1.4424  0.3196
 8905SOL     OW38173   2.485   1.052  14.551  0.2557 -0.3885  0.0413
 8905SOL    HW138174   2.431   1.130  14.567  0.1973 -0.4602  0.2009
 8905SOL    HW238175   2.444   1.008  14.477 -1.3898 -0.3306  0.9073
 8906SOL     OW38176   3.501   4.420  11.686  0.4874 -0.6196 -0.4739
 8906SOL    HW138177   3.581   4.368  11.673  1.2913 -0.0037  2.0309
 8906SOL    HW238178   3.532   4.510  11.695 -1.3739  0.1070 -1.5140
 8907SOL     OW38179   4.699   1.989   7.697  0.1750  0.2767  0.2081
 8907SOL    HW138180   0.015   1.904   7.716 -0.1298  0.6802  2.6190
 8907SOL    HW238181   4.606   1.968   7.709  0.4850 -0.3979  1.4193
 8908SOL     OW38182   2.308   0.523   3.116 -0.2139 -0.0929 -0.6987
 8908SOL    HW138183   2.336   0.457   3.179 -0.1736 -0.2387 -0.8698
 8908SOL    HW238184   2.302   0.604   3.167 -0.9429 -0.6266  0.0481
 8909SOL     OW38185   2.030   1.189  12.962  0.1418  0.2070  0.1429
 8909SOL    HW138186   1.995   1.181  13.050 -2.4198  2.1450 -0.7256
 8909SOL    HW238187   1.952   1.210  12.911  0.4119  1.2032  0.1485
 8910SOL     OW38188   0.470   0.747   2.246  0.2744 -0.7057  0.2819
 8910SOL    HW138189   0.412   0.806   2.197  0.5516 -1.1173 -0.5514
 8910SOL    HW238190   0.448   0.663   2.206 -0.0805  0.9962 -3.1021
 8911SOL     OW38191   2.333   4.604   0.270  0.5447 -0.2101 -0.5294
 8911SOL    HW138192   2.336   4.656   0.190  1.7859 -1.5250 -1.3482
 8911SOL    HW238193   2.358   4.518   0.235  0.9387 -1.0371  1.7947
 8912SOL     OW38194   0.140   0.556   2.846 -0.8366 -0.0041  0.0994
 8912SOL    HW138195   0.146   0.507   2.929 -0.0522 -0.9367 -0.5029
 8912SOL    HW238196   0.075   0.626   2.848 -0.6101  0.2350 -1.2374
 8913SOL     OW38197   4.081   3.898   9.563  0.2672 -0.0385 -0.0937
 8913SOL    HW138198   4.055   3.861   9.478  0.6960 -0.2585 -0.1293
 8913SOL    HW238199   4.007   3.878   9.620  0.1928  0.8870  0.1328
 8914SOL     OW38200   2.182   0.964  12.282 -1.3116  0.3442  0.4802
 8914SOL    HW138201   2.211   0.995  12.196 -1.8222  0.2245  0.2641
 8914SOL    HW238202   2.172   1.044  12.333 -0.2083  1.1012 -0.4945
 8915SOL     OW38203   0.687   0.311   7.508 -0.3316 -0.2559 -0.4711
 8915SOL    HW138204   0.768   0.360   7.525  1.0517 -2.3415 -0.9717
 8915SOL    HW238205   0.619   0.367   7.544  1.8070  1.1786  1.3478
 8916SOL     OW38206   1.766   3.649   8.555  0.1330 -0.3136  0.2084
 8916SOL    HW138207   1.676   3.674   8.537 -0.4150 -3.2705 -1.2322
 8916SOL    HW238208   1.766   3.553   8.558  2.0275 -0.3923 -2.2044
 8917SOL     OW38209   2.118   1.134   9.792  0.4867 -0.0690  0.1449
 8917SOL    HW138210   2.178   1.137   9.717 -0.1561  0.2351 -0.3517
 8917SOL    HW238211   2.046   1.093   9.744  0.1481  1.6396 -0.7940
 8918SOL     OW38212   4.057   0.615   6.148 -0.3803  0.5159  0.2994
 8918SOL    HW138213   4.091   0.530   6.177  1.3945  1.0469 -0.1840
 8918SOL    HW238214   4.056   0.662   6.232  0.5274  0.8514  0.1243
 8919SOL     OW38215   1.079   3.582  12.585  0.3906 -0.0274 -0.1083
 8919SOL    HW138216   1.005   3.522  12.595  0.0117  0.5489  0.5214
 8919SOL    HW238217   1.055   3.638  12.659  0.2061 -2.0019  1.3261
 8920SOL     OW38218   4.224   2.282   7.602 -0.2063  0.0071 -0.2770
 8920SOL    HW138219   4.189   2.294   7.691  1.8205 -3.8536  1.0353
 8920SOL    HW238220   4.200   2.362   7.555  1.1831  1.9194  2.2914
 8921SOL     OW38221   2.115   3.847  16.595 -0.1394 -0.2328  0.4996
 8921SOL    HW138222   2.135   3.875  16.685  1.6581  0.3101 -0.0743
 8921SOL    HW238223   2.070   3.923  16.557 -0.4124 -2.0639 -2.7617
 8922SOL     OW38224   1.569   4.391   6.182 -0.1537  0.1650  0.1114
 8922SOL    HW138225   1.610   4.477   6.195  0.0628  0.1075 -0.1654
 8922SOL    HW238226   1.571   4.381   6.086  0.4283  2.9307 -0.1700
 8923SOL     OW38227   0.746   1.635   1.816 -0.3766 -0.8353  0.1673
 8923SOL    HW138228   0.805   1.620   1.741  0.4373 -1.2655  0.8855
 8923SOL    HW238229   0.800   1.631   1.895 -3.7352  0.2431  2.5134
 8924SOL     OW38230   4.469   4.582   2.406  0.0476 -0.3072  0.3269
 8924SOL    HW138231   4.521   4.502   2.401 -0.4848 -0.5832 -0.7536
 8924SOL    HW238232   4.415   4.561   2.483 -1.0454 -1.0198 -0.6373
 8925SOL     OW38233   2.035   3.120   4.805  0.3613 -0.2990 -0.0425
 8925SOL    HW138234   2.091   3.181   4.757 -0.6565  1.0552  0.5244
 8925SOL    HW238235   2.026   3.161   4.890 -0.4562  0.5726 -0.5545
 8926SOL     OW38236   2.212   0.792   6.955  0.4008  0.3631 -0.0179
 8926SOL    HW138237   2.117   0.803   6.960  0.0732 -1.1447 -2.6859
 8926SOL    HW238238   2.227   0.787   6.860 -1.7893  2.3010 -0.4521
 8927SOL     OW38239   0.224   1.629   3.183 -0.0184  0.4017  0.1831
 8927SOL    HW138240   0.297   1.670   3.137  1.0359 -0.7339  0.8380
 8927SOL    HW238241   0.156   1.635   3.115 -1.5774 -1.2032  1.5905
 8928SOL     OW38242   1.876   1.238   4.035  0.3111 -0.6432  0.1281
 8928SOL    HW138243   1.911   1.151   4.019 -0.9197 -0.7214 -2.1415
 8928SOL    HW238244   1.804   1.242   3.971 -0.4879 -0.0483  1.0578
 8929SOL     OW38245   2.658   0.013   6.205 -0.0983  0.0157  0.2125
 8929SOL    HW138246   2.644   0.002   6.299  1.7413  1.1622  0.6149
 8929SOL    HW238247   2.647   0.108   6.200  0.6993  0.1780  1.7249
 8930SOL     OW38248   4.095   0.224   4.924 -0.7849  0.1428  0.1023
 8930SOL    HW138249   4.152   0.230   5.000 -0.0619  0.3497 -0.4482
 8930SOL    HW238250   4.111   0.130   4.913  1.6565  0.2508  2.8563
 8931SOL     OW38251   3.670   1.312  11.989 -0.2051 -0.5516  0.3775
 8931SOL    HW138252   3.677   1.374  11.917 -0.8409  1.3970  1.9748
 8931SOL    HW238253   3.636   1.235  11.945 -0.6349  0.5403 -1.1915
 8932SOL     OW38254   3.293   4.325   5.547  0.4418  0.1712 -0.2315
 8932SOL    HW138255   3.226   4.375   5.594  0.4639 -1.2603  1.3343
 8932SOL    HW238256   3.369   4.382   5.549  0.4513  0.0945  1.1765
 8933SOL     OW38257   3.380   0.614  11.431 -0.0417 -0.0557  0.7229
 8933SOL    HW138258   3.407   0.527  11.401 -5.5457 -1.1528 -1.1430
 8933SOL    HW238259   3.352   0.647  11.345 -0.1883  0.5508  1.0019
 8934SOL     OW38260   0.401   0.337   4.010 -0.1118  0.2438  0.3486
 8934SOL    HW138261   0.453   0.383   3.944 -0.5283  1.3565  0.7964
 8934SOL    HW238262   0.468   0.271   4.027 -0.4449 -0.1385  0.1651
 8935SOL     OW38263   2.163   2.605   4.833 -0.3500 -0.1980  0.3729
 8935SOL    HW138264   2.102   2.663   4.879 -1.2047  1.3920 -2.7100
 8935SOL    HW238265   2.104   2.572   4.764  0.7112  2.8605 -1.9977
 8936SOL     OW38266   3.199   2.177   2.081 -0.3669  0.5045  0.2888
 8936SOL    HW138267   3.271   2.114   2.078  1.0602  2.1880 -0.5570
 8936SOL    HW238268   3.153   2.146   2.003 -1.8278  2.4740  0.3681
 8937SOL     OW38269   0.237   2.410   4.932  0.7178 -0.3320 -0.3544
 8937SOL    HW138270   0.325   2.394   4.966  0.8690 -2.2840 -1.6644
 8937SOL    HW238271   0.222   2.495   4.974 -0.8304 -0.3410 -0.9095
 8938SOL     OW38272   1.756   4.435   1.678  0.1266 -0.0182 -0.1167
 8938SOL    HW138273   1.852   4.444   1.675  0.1540 -0.4602 -0.7819
 8938SOL    HW238274   1.743   4.367   1.611 -0.1596 -1.6982  1.6346
 8939SOL     OW38275   2.046   0.918  11.253 -0.1229 -0.5244  0.1542
 8939SOL    HW138276   2.045   0.960  11.167  0.2534 -1.8889 -0.5088
 8939SOL    HW238277   1.988   0.843  11.240 -0.2367 -0.3553 -0.3276
 8940SOL     OW38278   1.325   1.597   4.751  0.2231  0.5585 -0.4683
 8940SOL    HW138279   1.321   1.522   4.691  0.1160 -0.3404  0.6654
 8940SOL    HW238280   1.232   1.617   4.763 -0.0784  0.1964 -2.2279
 8941SOL     OW38281   0.524   0.275   3.125  0.9178 -0.0788 -0.5122
 8941SOL    HW138282   0.569   0.359   3.114 -2.4968  1.2979 -3.8892
 8941SOL    HW238283   0.442   0.307   3.162  1.3195 -1.3284  1.4504
 8942SOL     OW38284   1.469   1.559   9.078  0.2944 -0.4957  0.7451
 8942SOL    HW138285   1.431   1.604   9.153  0.0250 -0.8240  0.8054
 8942SOL    HW238286   1.521   1.625   9.033  0.9952 -0.9644  0.8712
 8943SOL     OW38287   1.525   0.828   0.607  0.1113  0.1590  0.7937
 8943SOL    HW138288   1.586   0.768   0.564  1.7890 -0.5361  4.1637
 8943SOL    HW238289   1.481   0.768   0.668 -0.9960  0.5869  0.4173
 8944SOL     OW38290   2.492   2.263  12.627  0.3879 -0.1730  0.4644
 8944SOL    HW138291   2.418   2.234  12.573  2.1371 -3.0664 -0.3463
 8944SOL    HW238292   2.455   2.272  12.714 -0.4377  0.9311  0.0095
 8945SOL     OW38293   3.968   3.459   7.024 -0.3591  0.3329  0.2956
 8945SOL    HW138294   4.040   3.426   7.078 -0.1806  0.6164  0.2314
 8945SOL    HW238295   3.980   3.551   7.047 -2.0596  0.1159  2.0533
 8946SOL     OW38296   1.934   3.425   1.949  0.6108 -0.7052  0.0502
 8946SOL    HW138297   2.004   3.487   1.970  2.1840 -1.9588 -1.4803
 8946SOL    HW238298   1.974   3.391   1.869 -2.5295 -2.7205 -0.6641
 8947SOL     OW38299   3.284   3.966  13.062 -0.6461  0.0170 -0.3150
 8947SOL    HW138300   3.211   4.016  13.098  0.2747  1.5686 -0.6114
 8947SOL    HW238301   3.266   3.964  12.968  0.3333 -1.0663 -0.4723
 8948SOL     OW38302   1.653   0.922   6.583 -0.3232  0.3872 -0.2903
 8948SOL    HW138303   1.745   0.946   6.575  0.4963 -2.0552  2.0854
 8948SOL    HW238304   1.629   0.974   6.660 -1.2224 -0.5571  0.0625
 8949SOL     OW38305   3.962   0.584  17.344 -0.1776  0.3172  0.1176
 8949SOL    HW138306   3.948   0.600  17.251 -1.5659 -2.1453 -0.0896
 8949SOL    HW238307   4.039   0.527  17.347 -0.4630  0.0159  1.7788
 8950SOL     OW38308   3.001   3.488   9.924  0.0315 -0.0249 -0.3203
 8950SOL    HW138309   3.074   3.497   9.863  2.8573 -0.2419  3.0382
 8950SOL    HW238310   3.021   3.559   9.985  1.9436 -0.3160 -0.6277
 8951SOL     OW38311   3.638   2.955   3.914 -0.3146  0.0614 -0.4463
 8951SOL    HW138312   3.561   2.920   3.959 -1.0597 -0.6763 -2.3057
 8951SOL    HW238313   3.588   3.014   3.858  0.1996  0.1388 -0.8215
 8952SOL     OW38314   4.681   3.404  10.665  0.0945  0.4571  0.0956
 8952SOL    HW138315   4.660   3.323  10.620  1.5091  0.4064 -0.4933
 8952SOL    HW238316   4.602   3.424  10.716 -0.6356  0.2439 -0.9556
 8953SOL     OW38317   1.695   3.744   2.844 -0.2716 -0.4493 -0.5051
 8953SOL    HW138318   1.734   3.662   2.873 -0.6483 -0.6843 -0.6514
 8953SOL    HW238319   1.770   3.779   2.797  0.3045 -1.4917 -0.3534
 8954SOL     OW38320   1.460   0.587  17.101  0.1531 -0.3137  0.5203
 8954SOL    HW138321   1.431   0.667  17.058  0.0970 -2.0100 -2.5967
 8954SOL    HW238322   1.539   0.612  17.149 -0.1782  0.3026  0.7439
 8955SOL     OW38323   1.429   0.776  13.376 -0.5096  0.2394 -0.5174
 8955SOL    HW138324   1.417   0.800  13.284 -1.8792  0.7189 -0.2015
 8955SOL    HW238325   1.365   0.707  13.393  1.7315 -1.1734  2.2032
 8956SOL     OW38326   0.302   0.599   1.951 -0.0621 -0.3255  0.4395
 8956SOL    HW138327   0.234   0.564   1.893 -2.1489  0.3899  2.4957
 8956SOL    HW238328   0.316   0.687   1.915 -2.3185  0.2089  0.9118
 8957SOL     OW38329   1.924   0.920   8.269  0.7640  0.0490 -0.0638
 8957SOL    HW138330   1.944   0.833   8.303  1.1743  0.6127  1.1641
 8957SOL    HW238331   1.830   0.927   8.255  0.9250 -0.3058 -1.2786
 8958SOL     OW38332   4.678   3.350  10.165  0.0129 -0.1811  0.4989
 8958SOL    HW138333   0.044   3.356  10.193  0.0481  0.5908  0.1974
 8958SOL    HW238334   4.657   3.442  10.149  1.8321  0.5682  2.5365
 8959SOL     OW38335   2.065   3.525   9.694  0.1526 -0.1323 -0.6101
 8959SOL    HW138336   2.079   3.432   9.675  0.3956 -0.5315  1.4891
 8959SOL    HW238337   2.021   3.523   9.779  2.5840 -0.1260  0.6579
 8960SOL     OW38338   0.278   2.805   0.750  0.4453  0.2560  0.5538
 8960SOL    HW138339   0.241   2.823   0.837 -0.0271 -1.6429  0.7596
 8960SOL    HW238340   0.204   2.828   0.695  0.4348 -0.4071  0.2888
 8961SOL     OW38341   2.466   1.134   8.699  0.1132 -0.2342 -0.7199
 8961SOL    HW138342   2.381   1.171   8.725  0.0982 -1.0597  0.4230
 8961SOL    HW238343   2.440   1.042   8.698 -0.0788 -0.1893  0.3798
 8962SOL     OW38344   4.271   3.204   8.815  0.5208  0.1999 -0.3939
 8962SOL    HW138345   4.248   3.111   8.825  0.4414  0.2089 -0.4914
 8962SOL    HW238346   4.222   3.245   8.885  2.1839 -1.6627  1.8925
 8963SOL     OW38347   0.426   0.334  14.915 -0.0909 -0.1511 -0.6804
 8963SOL    HW138348   0.427   0.280  14.994  1.1682 -0.7749 -1.1299
 8963SOL    HW238349   0.516   0.365  14.923 -0.2593 -0.5014  2.6002
 8964SOL     OW38350   0.642   4.105   2.523 -0.0654  0.1769 -0.1156
 8964SOL    HW138351   0.702   4.179   2.526 -0.5365  0.5292  0.7878
 8964SOL    HW238352   0.678   4.045   2.588 -0.8871  1.9417  1.9887
 8965SOL     OW38353   0.770   3.320   4.374 -0.4246  0.3676 -0.1330
 8965SOL    HW138354   0.832   3.371   4.321  1.0444  0.8221  2.0348
 8965SOL    HW238355   0.753   3.257   4.304  1.1458  1.4566 -1.5183
 8966SOL     OW38356   3.375   4.536   1.083 -0.0640 -0.4810  0.1051
 8966SOL    HW138357   3.353   4.615   1.034  2.6362  1.3169  1.8101
 8966SOL    HW238358   3.290   4.493   1.075 -0.6784  1.0472 -1.7624
 8967SOL     OW38359   2.296   3.355   4.250  0.6318  0.1735 -0.3094
 8967SOL    HW138360   2.250   3.281   4.289  1.1683  0.0882  0.1511
 8967SOL    HW238361   2.260   3.417   4.314  0.2143  2.1615 -2.4539
 8968SOL     OW38362   2.657   0.299  11.611 -0.1893 -0.1842  0.2224
 8968SOL    HW138363   2.700   0.366  11.665  0.7327 -0.3163 -0.3356
 8968SOL    HW238364   2.571   0.304  11.651 -0.8808 -0.6658 -1.2034
 8969SOL     OW38365   2.959   0.952   6.923 -0.5506  0.1223 -0.0190
 8969SOL    HW138366   3.043   0.909   6.905 -0.0372  2.1519 -2.4725
 8969SOL    HW238367   2.960   1.019   6.854  0.0453  0.9156  0.7529
 8970SOL     OW38368   1.585   3.090   8.267  0.7919 -0.3161 -0.1385
 8970SOL    HW138369   1.562   3.094   8.360 -1.5527  2.3188 -0.8400
 8970SOL    HW238370   1.620   3.178   8.263  2.3820 -0.8568  1.5852
 8971SOL     OW38371   2.458   3.155  17.522  0.9336  0.2837  0.5963
 8971SOL    HW138372   2.420   3.209  17.591 -0.4662  0.1069 -0.0366
 8971SOL    HW238373   2.490   3.212  17.452 -0.1985  0.8206  0.5112
 8972SOL     OW38374   1.979   1.034   3.639 -0.3618 -0.2050  0.1563
 8972SOL    HW138375   2.073   1.026   3.621  0.0125  3.2622  0.6753
 8972SOL    HW238376   1.955   0.959   3.694 -0.1406  1.0476  1.9564
 8973SOL     OW38377   2.555   3.066   8.278  0.5293  0.7236 -0.2587
 8973SOL    HW138378   2.462   3.083   8.285  0.5333  0.0771  1.3008
 8973SOL    HW238379   2.596   3.144   8.315  0.2067  0.4747  0.6247
 8974SOL     OW38380   2.988   0.211   1.055 -0.3906  0.7059 -0.1410
 8974SOL    HW138381   2.935   0.288   1.037 -1.7520 -0.6027 -1.7546
 8974SOL    HW238382   2.983   0.225   1.150 -1.0643 -0.3272 -0.0274
 8975SOL     OW38383   2.395   1.639   2.597 -0.1921  0.0760 -0.4267
 8975SOL    HW138384   2.479   1.593   2.595 -0.9536 -1.3998  0.6935
 8975SOL    HW238385   2.332   1.585   2.646  0.7542 -0.2124  0.4764
 8976SOL     OW38386   3.062   4.390   3.835  0.3576  0.2205  0.1002
 8976SOL    HW138387   3.152   4.357   3.841  0.7640  1.3709  0.4644
 8976SOL    HW238388   3.027   4.348   3.913  0.6758  0.7748  0.5451
 8977SOL     OW38389   0.956   4.499  10.592  0.0298  0.2499  0.2260
 8977SOL    HW138390   0.941   4.592  10.575 -0.2189  0.1849  0.0817
 8977SOL    HW238391   1.051   4.499  10.597 -0.0866 -1.9201  2.3464
 8978SOL     OW38392   2.022   3.225   2.872 -0.2424  0.1757  0.0568
 8978SOL    HW138393   2.032   3.136   2.839  0.7069 -0.2625  1.5229
 8978SOL    HW238394   1.930   3.213   2.896 -0.3438 -0.3260 -0.5958
 8979SOL     OW38395   1.822   1.037   7.355  0.0361 -0.1040 -0.0925
 8979SOL    HW138396   1.735   1.004   7.376 -0.1889  0.6869  0.2207
 8979SOL    HW238397   1.798   1.109   7.295  0.8366  0.9441  0.8405
 8980SOL     OW38398   2.737   0.396  14.807 -0.6296 -0.5891  0.1870
 8980SOL    HW138399   2.822   0.368  14.773 -0.8315 -0.3392 -0.5317
 8980SOL    HW238400   2.746   0.489  14.788  0.1493 -0.8520 -0.7275
 8981SOL     OW38401   1.006   4.521   8.983 -0.4288  0.0056  0.0677
 8981SOL    HW138402   0.952   4.575   9.042  1.7564 -0.9188  2.9103
 8981SOL    HW238403   0.975   4.550   8.897 -2.5392 -0.0776  0.7995
 8982SOL     OW38404   2.479   3.344   5.504  0.1935  0.5099 -0.0793
 8982SOL    HW138405   2.525   3.260   5.507  0.5454  0.7142  0.2796
 8982SOL    HW238406   2.503   3.386   5.587 -1.3612  0.0942  0.5759
 8983SOL     OW38407   1.873   4.471   6.111 -0.2085 -0.2093  0.4412
 8983SOL    HW138408   1.898   4.528   6.184 -1.4036 -1.2354  1.6786
 8983SOL    HW238409   1.873   4.527   6.034  3.7694  1.7815  1.8608
 8984SOL     OW38410   0.407   1.561   7.085 -0.5485 -1.0466 -0.2297
 8984SOL    HW138411   0.499   1.567   7.111 -1.8337 -0.0980  4.2122
 8984SOL    HW238412   0.373   1.477   7.115 -0.5824 -1.6313 -1.9536
 8985SOL     OW38413   1.447   3.302   4.308 -0.0536  0.3409 -0.0714
 8985SOL    HW138414   1.495   3.305   4.391 -0.6118 -2.2612  0.3147
 8985SOL    HW238415   1.422   3.211   4.297 -1.5059  0.5965  0.9861
 8986SOL     OW38416   2.102   2.232   4.307 -0.7872 -0.6081  0.0121
 8986SOL    HW138417   2.163   2.235   4.381 -1.2064 -0.6626  0.3638
 8986SOL    HW238418   2.035   2.293   4.339  0.0618 -0.7958  2.1388
 8987SOL     OW38419   4.330   0.778   1.832 -0.6074 -0.0606  0.5370
 8987SOL    HW138420   4.278   0.706   1.796  0.1587 -0.5028  0.3303
 8987SOL    HW238421   4.275   0.812   1.903 -2.6972 -1.7686 -0.2425
 8988SOL     OW38422   3.771   4.058   9.604  0.4738 -0.3544  0.4803
 8988SOL    HW138423   3.678   4.040   9.622 -0.1442  3.1786  0.8396
 8988SOL    HW238424   3.792   3.994   9.536 -2.0249 -0.0298 -0.6025
 8989SOL     OW38425   0.928   2.016   9.080  0.1338  0.4784 -0.3816
 8989SOL    HW138426   1.013   2.053   9.103  0.8221 -0.7210 -1.0171
 8989SOL    HW238427   0.930   1.942   9.140 -0.1416  0.9901  0.2588
 8990SOL     OW38428   2.223   3.684   7.213 -0.0561  0.4510  0.2323
 8990SOL    HW138429   2.316   3.680   7.234  0.5012 -0.0222 -2.3975
 8990SOL    HW238430   2.227   3.695   7.118 -0.0663 -0.5897  0.1057
 8991SOL     OW38431   1.637   2.641   8.753 -1.1278  0.2631  0.0389
 8991SOL    HW138432   1.559   2.672   8.707 -1.0948 -0.3176 -0.4037
 8991SOL    HW238433   1.594   2.619   8.836  1.3669  2.1290  1.8539
 8992SOL     OW38434   1.574   0.052  15.955  0.3764 -0.3386 -0.0432
 8992SOL    HW138435   1.587   0.141  15.986 -0.0588 -0.1740 -0.3200
 8992SOL    HW238436   1.572   4.724  16.035  0.0046  0.9243  0.7854
 8993SOL     OW38437   2.765   0.826   3.403  0.1755  0.0733 -0.5116
 8993SOL    HW138438   2.759   0.731   3.391  1.9617 -0.0153 -0.7518
 8993SOL    HW238439   2.747   0.861   3.316 -3.4406 -0.8112 -0.1070
 8994SOL     OW38440   3.354   0.973   4.526 -0.6076  0.1434 -0.0591
 8994SOL    HW138441   3.259   0.960   4.532 -0.4651 -1.0189 -0.3625
 8994SOL    HW238442   3.362   1.043   4.461 -2.6007  0.3870 -0.0465
 8995SOL     OW38443   1.871   3.964   0.488  0.5477  0.2052  0.5836
 8995SOL    HW138444   1.915   3.929   0.565 -0.6289 -3.0246 -0.2020
 8995SOL    HW238445   1.903   4.048   0.455  0.5856  0.4208  1.1769
 8996SOL     OW38446   3.192   1.449   6.264  0.1136 -0.2996  0.2850
 8996SOL    HW138447   3.184   1.543   6.282  4.6086 -0.2617  2.0375
 8996SOL    HW238448   3.140   1.436   6.185  1.1444  0.1872 -0.4767
 8997SOL     OW38449   2.920   3.304  16.090 -0.3044  0.0688  0.2644
 8997SOL    HW138450   2.837   3.257  16.081 -0.8597  0.9280  0.8439
 8997SOL    HW238451   2.978   3.234  16.120  0.1334  0.0875 -0.5403
 8998SOL     OW38452   2.588   4.374   7.073  0.0306  0.4308 -0.3940
 8998SOL    HW138453   2.511   4.322   7.050  0.4689 -1.3491  2.1861
 8998SOL    HW238454   2.552   4.449   7.025 -1.4063 -0.7227 -1.1251
 8999SOL     OW38455   4.664   0.128   3.876 -0.4095  0.0321 -0.1381
 8999SOL    HW138456   4.590   0.184   3.900 -0.5235  0.2676 -1.0247
 8999SOL    HW238457   0.010   0.168   3.927 -2.5630  0.8256  2.2638
 9000SOL     OW38458   3.706   2.617   4.384 -0.3596 -0.0840 -0.1454
 9000SOL    HW138459   3.752   2.618   4.299 -3.0609 -4.2795 -1.6510
 9000SOL    HW238460   3.615   2.595   4.364 -0.2982  0.2409 -0.8050
 9001SOL     OW38461   0.125   2.905   6.494 -0.0340  0.2387 -0.4673
 9001SOL    HW138462   0.108   2.996   6.517  1.5508  0.8239 -1.6095
 9001SOL    HW238463   0.154   2.860   6.573  0.6899  1.5323  0.0034
 9002SOL     OW38464   0.221   2.382   4.645  0.5035  0.8526 -0.1432
 9002SOL    HW138465   0.236   2.292   4.676  1.8373  0.5079 -1.7777
 9002SOL    HW238466   0.204   2.420   4.731  2.2457  2.5320 -0.5613
 9003SOL     OW38467   4.172   1.998   2.053  0.5383 -0.5341 -0.4443
 9003SOL    HW138468   4.113   1.931   2.089  0.5427  0.2209  0.9642
 9003SOL    HW238469   4.244   1.945   2.019 -0.7329 -0.7495 -2.8552
 9004SOL     OW38470   3.986   3.895  10.026  0.3915  0.1028  0.0526
 9004SOL    HW138471   3.936   3.972   9.999  1.5195  0.8157  0.0047
 9004SOL    HW238472   3.955   3.902  10.116 -1.2451  2.0346 -0.6604
 9005SOL     OW38473   3.056   4.356   5.202 -0.0595 -0.2340 -0.0052
 9005SOL    HW138474   3.138   4.340   5.249 -0.4833 -0.3030  0.7042
 9005SOL    HW238475   2.995   4.335   5.272  0.7640  3.9120  1.9983
 9006SOL     OW38476   3.514   2.792   8.350  1.1029  0.1755  0.0369
 9006SOL    HW138477   3.422   2.785   8.374  1.1668  0.9634  0.5181
 9006SOL    HW238478   3.508   2.861   8.284 -0.6173  1.5520  1.6327
 9007SOL     OW38479   2.602   2.122  16.292 -0.0297  0.3644 -0.8868
 9007SOL    HW138480   2.531   2.120  16.356 -1.0326  2.8812 -1.9097
 9007SOL    HW238481   2.599   2.217  16.284  1.0621  0.6044  1.4516
 9008SOL     OW38482   2.983   4.379  17.606  0.2527 -0.5216  0.0525
 9008SOL    HW138483   3.067   4.334  17.601  1.2020  1.0430  1.8663
 9008SOL    HW238484   3.006   4.453  17.662  2.7225 -0.7687 -0.6231
 9009SOL     OW38485   1.476   2.423   5.640  0.0980  0.0386  0.0421
 9009SOL    HW138486   1.415   2.416   5.713 -1.0471 -0.6653 -1.0013
 9009SOL    HW238487   1.503   2.515   5.646 -0.1994  0.0082  1.9089
 9010SOL     OW38488   1.689   1.768  17.489 -0.2867 -0.1064 -0.3405
 9010SOL    HW138489   1.749   1.820  17.542 -0.0429  1.5831 -2.2992
 9010SOL    HW238490   1.701   1.807  17.403 -0.0921  1.5961  0.4675
 9011SOL     OW38491   2.825   0.618  14.646 -0.0685  0.3660 -0.7346
 9011SOL    HW138492   2.901   0.561  14.634  0.6937  0.9675  1.1730
 9011SOL    HW238493   2.845   0.660  14.563 -1.3219  1.0801 -0.6752
 9012SOL     OW38494   4.009   4.711   2.319 -0.7283 -0.1065 -0.2533
 9012SOL    HW138495   4.103   4.725   2.305 -1.0688  2.7047  0.1827
 9012SOL    HW238496   3.977   0.047   2.253  0.1547  0.2058 -0.3976
 9013SOL     OW38497   4.276   2.510  13.185 -0.0768 -0.2046  0.4220
 9013SOL    HW138498   4.199   2.525  13.239 -0.1626 -1.0635  0.5440
 9013SOL    HW238499   4.227   2.488  13.106 -0.4989 -1.1807  0.9475
 9014SOL     OW38500   4.682   4.218   7.822 -0.1324  0.0724 -0.4306
 9014SOL    HW138501   4.610   4.231   7.884 -0.9063  1.7253 -1.6749
 9014SOL    HW238502   4.661   4.133   7.782  2.7034 -0.4045 -0.9152
 9015SOL     OW38503   1.962   0.300   2.723  0.4957 -0.1859 -0.1275
 9015SOL    HW138504   1.949   0.236   2.652  2.1215 -2.5401  1.7035
 9015SOL    HW238505   1.885   0.357   2.723  1.2750  0.8656 -0.1048
 9016SOL     OW38506   3.447   2.497  12.767 -0.0399  0.1158  0.6193
 9016SOL    HW138507   3.385   2.569  12.774 -1.5528 -1.1610  0.1656
 9016SOL    HW238508   3.424   2.455  12.685 -0.3299 -1.2141  1.3953
 9017SOL     OW38509   0.318   4.161   3.902  0.4290 -0.1171  0.4001
 9017SOL    HW138510   0.290   4.131   3.816  3.3306 -2.5316  0.2956
 9017SOL    HW238511   0.241   4.146   3.957  0.8117 -0.8993  0.7156
 9018SOL     OW38512   0.033   2.407   5.262  0.7270  0.0090  0.0192
 9018SOL    HW138513   4.689   2.403   5.328 -0.4066  2.3408 -1.0366
 9018SOL    HW238514   4.721   2.478   5.211 -0.7445 -1.2934 -0.7204
 9019SOL     OW38515   3.562   2.069   6.333 -0.1098 -0.2994  0.3590
 9019SOL    HW138516   3.509   2.149   6.332 -1.4224 -1.1751  0.5368
 9019SOL    HW238517   3.543   2.030   6.419 -0.0283 -0.1651  0.4384
 9020SOL     OW38518   4.481   0.560   1.915 -0.1464  0.7633  0.2235
 9020SOL    HW138519   4.495   0.508   1.835  0.6883  0.7771  0.3714
 9020SOL    HW238520   4.433   0.636   1.882 -3.3375 -1.7789 -1.0150
 9021SOL     OW38521   2.414   2.254   6.535 -0.0248  0.3983 -0.0466
 9021SOL    HW138522   2.461   2.251   6.618  1.1723  2.1947 -0.6708
 9021SOL    HW238523   2.338   2.209   6.571  0.7014  0.5774  1.6860
 9022SOL     OW38524   1.588   4.197   1.822 -0.7505  0.0478 -0.3643
 9022SOL    HW138525   1.516   4.235   1.771 -1.8154 -0.2917  0.8849
 9022SOL    HW238526   1.600   4.112   1.781 -1.8841  0.6502 -1.9592
 9023SOL     OW38527   0.010   3.985   7.302 -0.2453 -1.1167  0.0310
 9023SOL    HW138528   4.661   3.941   7.260 -1.0730 -1.1550  1.5140
 9023SOL    HW238529   0.066   4.008   7.229  0.0003  1.1308  0.9470
 9024SOL     OW38530   4.197   3.441   6.427 -0.6887  0.2183  0.1286
 9024SOL    HW138531   4.229   3.527   6.401 -1.2318  0.7724  1.2898
 9024SOL    HW238532   4.202   3.440   6.522 -0.8649  0.7171  0.1410
 9025SOL     OW38533   2.083   3.897   3.639  0.3251 -0.0030  0.1826
 9025SOL    HW138534   2.134   3.977   3.654 -0.3141  0.8238 -2.0338
 9025SOL    HW238535   2.132   3.829   3.593  0.8350 -0.4951  1.4779
 9026SOL     OW38536   2.036   1.763   7.142 -0.0123 -0.4127  0.0912
 9026SOL    HW138537   2.128   1.742   7.126  0.7803 -0.2137  4.2123
 9026SOL    HW238538   2.044   1.842   7.195 -1.0725 -0.1098 -0.1927
 9027SOL     OW38539   4.248   0.512   2.490 -0.2124 -0.2547  0.2858
 9027SOL    HW138540   4.340   0.492   2.511  0.5009  1.7360 -0.9080
 9027SOL    HW238541   4.252   0.497   2.395 -2.9109  0.8668  0.0119
 9028SOL     OW38542   0.086   4.503   1.834  0.1935 -0.0606  0.1641
 9028SOL    HW138543   0.134   4.512   1.916  0.3927  0.8881 -0.0567
 9028SOL    HW238544   0.134   4.432   1.791  0.5851 -0.1675  0.7756
 9029SOL     OW38545   0.844   2.377   9.624 -0.3783 -0.2396 -0.1185
 9029SOL    HW138546   0.876   2.362   9.713  1.0626  0.1368 -0.5734
 9029SOL    HW238547   0.749   2.379   9.635 -0.3613  2.5399 -0.5672
 9030SOL     OW38548   3.372   3.253  12.207 -0.1760 -0.3728  0.7502
 9030SOL    HW138549   3.346   3.277  12.296  0.6137 -1.8976  1.4018
 9030SOL    HW238550   3.287   3.214  12.188 -0.7606  0.8372  0.8743
 9031SOL     OW38551   2.585   0.453  14.229 -0.1916  0.5343  0.0248
 9031SOL    HW138552   2.490   0.457  14.220 -0.2841 -0.1785  0.7078
 9031SOL    HW238553   2.608   0.370  14.188 -1.2381  0.4869 -0.4629
 9032SOL     OW38554   3.747   1.757   8.317 -0.4393 -0.1580  0.1150
 9032SOL    HW138555   3.797   1.679   8.292 -0.0623 -0.3749  1.5391
 9032SOL    HW238556   3.686   1.717   8.379  0.1284 -0.7449  0.2924
 9033SOL     OW38557   3.663   1.743   7.796 -0.5014 -0.1797 -0.1960
 9033SOL    HW138558   3.671   1.740   7.892 -0.1132  0.4480 -0.2151
 9033SOL    HW238559   3.597   1.812   7.797 -1.6929 -1.3132 -0.5325
 9034SOL     OW38560   4.683   1.566   1.884  0.3040  0.2188 -0.6129
 9034SOL    HW138561   0.028   1.614   1.839  1.1846 -0.3932  0.1185
 9034SOL    HW238562   4.648   1.504   1.820 -0.7200 -0.5498  0.6982
 9035SOL     OW38563   3.597   4.141   6.099  0.5759  0.2004  0.5261
 9035SOL    HW138564   3.534   4.082   6.056 -0.8491  0.3252  2.4768
 9035SOL    HW238565   3.660   4.077   6.133  0.1774 -1.9417 -2.7242
 9036SOL     OW38566   0.536   0.647   4.222 -0.6928 -0.1143 -0.3858
 9036SOL    HW138567   0.582   0.680   4.145  2.2629  1.4847  2.0666
 9036SOL    HW238568   0.551   0.553   4.215 -1.9879 -0.5036  1.9419
 9037SOL     OW38569   1.267   3.122   1.800 -0.3184  0.6339 -0.1083
 9037SOL    HW138570   1.300   3.041   1.761  0.8246  0.9008  0.3121
 9037SOL    HW238571   1.343   3.173   1.825 -1.1987  1.3602  1.0854
 9038SOL     OW38572   1.504   0.338   3.245  0.0366  0.1376  0.2561
 9038SOL    HW138573   1.521   0.414   3.189 -0.3460 -0.1421 -0.2364
 9038SOL    HW238574   1.434   0.297   3.194  0.7543  1.1203 -1.5253
 9039SOL     OW38575   1.550   1.821   8.650  0.1682  0.5353 -0.0073
 9039SOL    HW138576   1.463   1.834   8.611  1.2532  0.2108 -2.4548
 9039SOL    HW238577   1.533   1.866   8.733 -1.0171 -0.5577  0.3491
 9040SOL     OW38578   3.737   2.512  14.526  0.1696 -0.0203  0.4467
 9040SOL    HW138579   3.825   2.475  14.535  0.7761  1.1672 -0.6072
 9040SOL    HW238580   3.704   2.496  14.614 -0.1969  2.0029  0.6791
 9041SOL     OW38581   3.439   4.317   2.130 -0.1597 -0.3193  0.0421
 9041SOL    HW138582   3.422   4.225   2.150  4.1695 -1.0352  0.4222
 9041SOL    HW238583   3.396   4.329   2.045 -1.4557  1.1796  0.9117
 9042SOL     OW38584   0.950   2.499   6.529  0.1160  0.1046  0.8400
 9042SOL    HW138585   0.873   2.492   6.585 -1.7719 -0.3290 -1.8223
 9042SOL    HW238586   0.991   2.585   6.533  0.5704 -0.0304 -0.7967
 9043SOL     OW38587   2.024   2.206   1.929 -0.2989 -0.2274  0.0888
 9043SOL    HW138588   2.058   2.254   1.854 -0.6480 -0.8169 -0.4466
 9043SOL    HW238589   1.931   2.215   1.906 -0.0086  2.1254 -0.1524
 9044SOL     OW38590   2.432   3.861   6.523 -0.2623 -0.6863  0.0497
 9044SOL    HW138591   2.390   3.943   6.498  0.3451 -1.0044 -2.0370
 9044SOL    HW238592   2.387   3.848   6.606  0.4531 -0.4703  0.4688
 9045SOL     OW38593   3.183   1.129   0.405 -0.2107  0.3510  0.7420
 9045SOL    HW138594   3.232   1.184   0.467  1.1168 -0.5926  0.5045
 9045SOL    HW238595   3.096   1.142   0.444  0.0829  1.8037  0.9054
 9046SOL     OW38596   2.957   3.989  14.430 -0.1986 -0.1261 -0.0475
 9046SOL    HW138597   2.995   3.946  14.353  2.1915  1.5310  0.2139
 9046SOL    HW238598   3.021   4.052  14.463 -2.9585  2.0272  1.1500
 9047SOL     OW38599   3.197   2.876   3.236 -0.3910 -0.0083 -0.2042
 9047SOL    HW138600   3.260   2.936   3.198 -0.5469  0.4903  0.3174
 9047SOL    HW238601   3.117   2.928   3.240  0.9037  1.7653  2.3475
 9048SOL     OW38602   1.919   3.932   7.562 -0.6584  0.1566  0.4353
 9048SOL    HW138603   1.995   3.878   7.584  1.1625  2.7251  0.4820
 9048SOL    HW238604   1.906   3.975   7.647  2.1201  0.5030  0.6891
 9049SOL     OW38605   3.761   1.875   2.066 -0.0538 -0.2163 -0.1827
 9049SOL    HW138606   3.800   1.854   2.151 -0.8857  0.8240  0.4442
 9049SOL    HW238607   3.789   1.966   2.066 -1.9865  0.3666 -3.0996
 9050SOL     OW38608   1.783   2.073   7.313 -0.7143 -0.4516  0.0984
 9050SOL    HW138609   1.717   2.005   7.296 -0.9735  0.1867 -1.4223
 9050SOL    HW238610   1.851   2.036   7.369 -1.9200 -1.6033  0.8341
 9051SOL     OW38611   4.365   2.719   4.265 -0.3355  0.1024 -0.2427
 9051SOL    HW138612   4.336   2.634   4.297 -0.9530  1.2623  2.2809
 9051SOL    HW238613   4.367   2.696   4.172 -1.3216 -0.8969 -0.0044
 9052SOL     OW38614   1.750   3.749  15.676  0.1318 -0.2342 -0.2952
 9052SOL    HW138615   1.731   3.764  15.768 -0.3455  0.9887 -0.5918
 9052SOL    HW238616   1.845   3.760  15.670 -0.1912  2.0366 -1.3857
 9053SOL     OW38617   2.790   2.579   7.285  0.2076  0.2349 -0.4155
 9053SOL    HW138618   2.791   2.483   7.281 -0.2816  0.2163 -0.0924
 9053SOL    HW238619   2.819   2.594   7.375  0.9333 -1.6857 -0.3380
 9054SOL     OW38620   0.746   2.943   4.348 -0.3423  0.3843  0.1502
 9054SOL    HW138621   0.708   2.863   4.385  0.7455 -0.0641  0.2809
 9054SOL    HW238622   0.814   2.908   4.292 -0.2778 -0.8774  1.0223
 9055SOL     OW38623   1.393   3.803   3.514  0.3822 -0.6379  0.5851
 9055SOL    HW138624   1.346   3.722   3.531 -0.3152 -0.2765  0.3439
 9055SOL    HW238625   1.477   3.761   3.495 -0.0136 -0.3521 -1.7963
 9056SOL     OW38626   2.122   2.713   5.236  0.1930 -0.2699 -0.2718
 9056SOL    HW138627   2.033   2.695   5.206  0.4324 -0.6844 -0.7319
 9056SOL    HW238628   2.153   2.781   5.175 -0.5886  0.2642 -0.0765
 9057SOL     OW38629   0.593   1.389   3.960 -0.3045  0.3016  0.0212
 9057SOL    HW138630   0.674   1.356   3.999 -1.2935  0.3647  2.1341
 9057SOL    HW238631   0.583   1.331   3.884 -0.0765  1.1746 -0.6696
 9058SOL     OW38632   1.886   0.040  17.305 -0.3741  0.2300 -0.2054
 9058SOL    HW138633   1.851   0.012  17.221  0.6360 -3.3909  0.5941
 9058SOL    HW238634   1.895   4.686  17.359  2.8769  0.8268  0.1678
 9059SOL     OW38635   1.072   1.001  15.967 -0.1728  0.0783  0.1435
 9059SOL    HW138636   1.134   1.017  16.037 -0.8856 -0.5097  0.9120
 9059SOL    HW238637   1.028   1.086  15.958 -1.8553 -1.0861 -2.7178
 9060SOL     OW38638   0.273   1.896   1.630 -0.0564  0.3684  0.8690
 9060SOL    HW138639   0.330   1.914   1.705  0.1995  1.7714  0.3261
 9060SOL    HW238640   0.333   1.871   1.560  0.1866 -1.2332  1.6395
 9061SOL     OW38641   4.507   1.759   4.517  0.2652 -0.0266  0.2350
 9061SOL    HW138642   4.548   1.674   4.536 -0.4191  0.1164  2.3406
 9061SOL    HW238643   4.561   1.798   4.448 -0.7488 -1.0344 -1.1176
 9062SOL     OW38644   4.357   3.321  13.001 -0.1827 -0.1781  0.3005
 9062SOL    HW138645   4.299   3.376  12.948 -0.4123 -0.2450  0.4844
 9062SOL    HW238646   4.313   3.238  12.984 -0.2929  0.5259 -2.8248
 9063SOL     OW38647   0.630   2.515  16.034 -0.1087 -0.2247 -0.0819
 9063SOL    HW138648   0.615   2.602  15.997 -0.3661 -0.3566 -0.2926
 9063SOL    HW238649   0.709   2.531  16.085  0.9434 -2.8739 -0.8751
 9064SOL     OW38650   0.932   3.275  13.438  0.0736  0.2236 -0.1671
 9064SOL    HW138651   1.006   3.313  13.391 -0.1081 -2.1653 -2.3938
 9064SOL    HW238652   0.881   3.347  13.475 -1.2629  0.4729 -2.5398
 9065SOL     OW38653   1.517   0.828  17.240  0.2381  0.6440  0.0822
 9065SOL    HW138654   1.602   0.822  17.283  0.9296 -0.6412 -1.4731
 9065SOL    HW238655   1.456   0.848  17.312 -0.2694 -0.5571 -0.0072
 9066SOL     OW38656   0.651   4.060   6.319  0.7064 -0.4759 -0.0311
 9066SOL    HW138657   0.709   4.127   6.282  1.1587 -0.4936  0.6364
 9066SOL    HW238658   0.706   4.005   6.375 -1.0686 -0.8661  1.3204
 9067SOL     OW38659   2.014   3.770  15.673 -1.2238  0.2132  0.6166
 9067SOL    HW138660   2.064   3.753  15.752 -1.6802  0.2105  0.9045
 9067SOL    HW238661   2.082   3.821  15.628 -1.4293 -0.8646 -0.9116
 9068SOL     OW38662   0.521   3.609   4.677  0.1264  0.9475  0.0500
 9068SOL    HW138663   0.586   3.654   4.623 -0.6545  2.0264  0.0146
 9068SOL    HW238664   0.489   3.538   4.621  1.9539 -0.5313  0.9100
 9069SOL     OW38665   2.996   3.816  11.648  0.4807  0.7444  0.3998
 9069SOL    HW138666   2.926   3.870  11.612 -1.0119 -1.1048  0.4936
 9069SOL    HW238667   2.946   3.785  11.723 -1.6476 -1.7724 -2.0284
 9070SOL     OW38668   4.540   2.972   4.185 -0.2837 -0.0373  0.2839
 9070SOL    HW138669   4.537   2.931   4.098  0.1567 -3.0091  1.6711
 9070SOL    HW238670   4.482   3.047   4.172  1.0078  0.7398 -1.1197
 9071SOL     OW38671   2.360   2.499   4.106  0.3225 -0.1573 -0.0560
 9071SOL    HW138672   2.288   2.546   4.148  0.3256 -0.0621 -0.1567
 9071SOL    HW238673   2.330   2.409   4.115 -0.1398 -0.0806 -0.8609
 9072SOL     OW38674   0.480   0.788   9.912  0.2379  0.3593 -0.5453
 9072SOL    HW138675   0.562   0.754   9.877  0.1266 -1.1222  0.6374
 9072SOL    HW238676   0.512   0.786  10.002  0.3615 -1.9695 -0.6432
 9073SOL     OW38677   0.940   0.560   3.699  0.1671 -0.1760 -0.1309
 9073SOL    HW138678   0.927   0.588   3.608  2.4557 -0.7839 -0.6444
 9073SOL    HW238679   0.941   0.642   3.748 -0.8940 -0.9477  1.1747
 9074SOL     OW38680   1.523   0.406  14.787 -0.1621 -0.1988  0.0287
 9074SOL    HW138681   1.609   0.364  14.790 -0.3042 -0.4257  0.8268
 9074SOL    HW238682   1.536   0.462  14.710  0.7805 -0.7249 -0.1944
 9075SOL     OW38683   1.438   2.179  13.259 -0.6069 -0.7393 -0.2971
 9075SOL    HW138684   1.424   2.183  13.354  0.9278 -0.7204 -0.0694
 9075SOL    HW238685   1.484   2.095  13.250 -0.4042 -0.5961 -0.5890
 9076SOL     OW38686   1.619   3.570  12.782 -0.3164 -0.0456  0.1978
 9076SOL    HW138687   1.616   3.635  12.712 -1.2813  2.2765  2.4149
 9076SOL    HW238688   1.620   3.629  12.857  0.8817  0.9747 -0.6260
 9077SOL     OW38689   2.452   0.488   5.254 -0.1059  0.4835  0.1776
 9077SOL    HW138690   2.398   0.548   5.305 -2.1812 -1.7386  0.5829
 9077SOL    HW238691   2.387   0.422   5.230  0.9527 -0.4607 -0.1070
 9078SOL     OW38692   0.880   3.075   7.221  0.3052 -0.2039  0.0980
 9078SOL    HW138693   0.794   3.041   7.195 -0.4180  1.6882  0.0704
 9078SOL    HW238694   0.906   3.019   7.295  2.6554 -1.4791 -1.6837
 9079SOL     OW38695   0.377   2.177   4.420  0.6782  0.2025  0.2859
 9079SOL    HW138696   0.364   2.190   4.326  0.2076 -1.4584  0.1344
 9079SOL    HW238697   0.352   2.086   4.431  0.9734 -0.1856 -2.3606
 9080SOL     OW38698   2.403   3.536   9.658  0.5910 -0.0997 -0.4203
 9080SOL    HW138699   2.362   3.527   9.744  0.2680 -4.6142 -1.0775
 9080SOL    HW238700   2.441   3.450   9.642 -0.1981 -1.0997  3.1503
 9081SOL     OW38701   0.262   3.449  11.249  0.0238  0.2416 -0.0487
 9081SOL    HW138702   0.318   3.372  11.257 -2.0555 -1.2701 -0.2314
 9081SOL    HW238703   0.329   3.514  11.226  1.1566 -1.7245 -2.2610
 9082SOL     OW38704   2.765   2.771   2.220  0.6500 -0.2113  0.6175
 9082SOL    HW138705   2.751   2.707   2.290 -1.0071  0.7199  1.1462
 9082SOL    HW238706   2.710   2.735   2.150  0.8614  0.7497 -0.0456
 9083SOL     OW38707   3.968   2.461   4.485 -0.1470 -0.5214  0.0551
 9083SOL    HW138708   3.965   2.371   4.453  1.0515 -0.5176 -0.0874
 9083SOL    HW238709   3.876   2.485   4.473  0.5893  1.6717 -1.2465
 9084SOL     OW38710   4.132   0.844   3.765 -0.1688 -0.5468 -0.2935
 9084SOL    HW138711   4.154   0.788   3.840 -0.3160  0.5053  0.5401
 9084SOL    HW238712   4.199   0.911   3.780 -1.8015  1.2144 -0.9859
 9085SOL     OW38713   4.339   2.763   5.248  0.2023  0.4790 -0.3678
 9085SOL    HW138714   4.332   2.789   5.340 -2.8522 -1.4867 -0.0505
 9085SOL    HW238715   4.299   2.677   5.244 -0.7172  0.8693  0.4278
 9086SOL     OW38716   2.522   0.343   6.833  0.4830  0.1702 -0.1568
 9086SOL    HW138717   2.494   0.395   6.758  0.0377  1.5840  1.0098
 9086SOL    HW238718   2.586   0.289   6.786 -1.0827 -1.3167 -0.5882
 9087SOL     OW38719   4.706   4.698   7.766 -0.2359 -0.0569 -0.1033
 9087SOL    HW138720   4.613   4.678   7.779  0.0890 -1.3840  0.2241
 9087SOL    HW238721   0.018   4.619   7.725  2.2570  2.1086 -2.0298
 9088SOL     OW38722   4.170   2.307   7.887 -0.1007  0.0860  0.1228
 9088SOL    HW138723   4.075   2.300   7.896 -0.0605  0.1273  0.5952
 9088SOL    HW238724   4.197   2.391   7.925 -1.0455  0.2822  0.3741
 9089SOL     OW38725   2.651   3.032   2.260 -0.0100 -0.5220 -0.5541
 9089SOL    HW138726   2.646   3.045   2.165 -3.5054  2.9191  0.1076
 9089SOL    HW238727   2.700   2.950   2.257  0.1649 -0.3639 -2.2892
 9090SOL     OW38728   2.719   0.534   8.954  0.3780  0.3224 -0.5399
 9090SOL    HW138729   2.813   0.517   8.947  0.1332  0.1753 -3.6689
 9090SOL    HW238730   2.690   0.527   8.863 -0.1965  1.2150 -0.4292
 9091SOL     OW38731   1.222   3.540  15.016 -0.4813 -0.5878  0.7113
 9091SOL    HW138732   1.167   3.496  15.080 -0.7753 -1.3692 -0.0793
 9091SOL    HW238733   1.158   3.575  14.954  2.3054 -1.2276 -2.5673
 9092SOL     OW38734   4.117   1.518  11.482  0.0883 -0.0177  0.1696
 9092SOL    HW138735   4.073   1.599  11.457  1.0599 -0.0679 -1.7363
 9092SOL    HW238736   4.201   1.558  11.504 -0.1111  1.1974 -1.2746
 9093SOL     OW38737   4.650   0.379  12.237  0.6689 -0.0431  0.4623
 9093SOL    HW138738   0.006   0.396  12.287  0.3873 -1.3041  1.3466
 9093SOL    HW238739   4.588   0.370  12.309  0.3540  1.9626  0.4396
 9094SOL     OW38740   2.331   2.015   8.036  0.0404  0.3965  0.3172
 9094SOL    HW138741   2.317   1.989   8.127 -1.5480 -2.1162 -0.6476
 9094SOL    HW238742   2.330   1.929   7.993 -0.5168  0.7806 -0.4117
 9095SOL     OW38743   1.647   0.009   3.717  0.3083  0.1837  0.2851
 9095SOL    HW138744   1.709   4.676   3.672 -1.4697 -0.9147 -0.7475
 9095SOL    HW238745   1.618   4.675   3.787  1.9658 -2.9113 -1.6096
 9096SOL     OW38746   0.080   3.039  12.387 -0.0770  0.0129  0.4945
 9096SOL    HW138747   0.032   2.956  12.384  1.1103 -0.6584 -0.1316
 9096SOL    HW238748   0.003   3.089  12.415  1.0499  1.3361  1.1994
 9097SOL     OW38749   3.090   2.707   6.942  0.5053  0.0116  0.1662
 9097SOL    HW138750   3.073   2.650   6.868  2.8751 -1.5802  0.8438
 9097SOL    HW238751   3.136   2.641   6.994 -1.9329 -2.1219 -0.3957
 9098SOL     OW38752   4.439   4.304  15.443  0.3981  0.3045  0.1459
 9098SOL    HW138753   4.471   4.385  15.483 -1.0911  0.8017  0.3379
 9098SOL    HW238754   4.499   4.282  15.372 -0.3426  0.7292 -0.6083
 9099SOL     OW38755   1.497   3.061   7.910  0.2878  0.3485 -0.2432
 9099SOL    HW138756   1.522   2.988   7.853 -0.2387  0.7285 -0.9564
 9099SOL    HW238757   1.585   3.098   7.918  0.3564 -0.1133  1.2883
 9100SOL     OW38758   4.642   3.005   0.881 -0.2812  0.9009 -0.3212
 9100SOL    HW138759   4.639   3.100   0.893 -1.7534  0.6195  1.5119
 9100SOL    HW238760   4.557   2.999   0.838 -0.0353  0.7079 -0.7913
 9101SOL     OW38761   0.529   2.208   0.037  0.3584  0.1375  0.5546
 9101SOL    HW138762   0.616   2.170   0.025 -0.2391 -0.8484 -0.6367
 9101SOL    HW238763   0.541   2.302   0.049  0.1508  0.0751  1.2617
 9102SOL     OW38764   3.881   2.132   7.617  0.3575  0.2713  0.5398
 9102SOL    HW138765   3.940   2.106   7.687  1.0733 -0.3384 -0.2828
 9102SOL    HW238766   3.832   2.052   7.600 -0.1688  0.6586  0.2408
 9103SOL     OW38767   2.510   3.967   5.727  0.4471 -0.0198  0.6698
 9103SOL    HW138768   2.535   3.875   5.736 -1.8103 -0.7709 -0.7462
 9103SOL    HW238769   2.589   4.014   5.754 -0.0089  1.8706 -1.2605
 9104SOL     OW38770   1.393   4.387  15.575  0.4144 -0.3664  0.4167
 9104SOL    HW138771   1.433   4.353  15.655  0.2393  1.9185  1.4531
 9104SOL    HW238772   1.438   4.471  15.574 -1.3378  0.6014  2.9450
 9105SOL     OW38773   2.305   0.991  13.672 -0.3172 -0.9208  0.6399
 9105SOL    HW138774   2.348   1.032  13.747  1.4853 -1.7450  0.0610
 9105SOL    HW238775   2.322   0.899  13.694 -0.0698 -1.1199 -0.3905
 9106SOL     OW38776   2.644   4.218  15.526 -0.5525 -0.1195  0.3969
 9106SOL    HW138777   2.612   4.299  15.486  0.1270  0.6059  1.3213
 9106SOL    HW238778   2.732   4.217  15.489 -0.2062 -0.0975  1.2300
 9107SOL     OW38779   1.739   2.768   3.975  0.5903  0.1058  0.0677
 9107SOL    HW138780   1.651   2.732   3.964  0.0850  1.3648  0.0760
 9107SOL    HW238781   1.778   2.692   4.018  0.1249 -0.5864 -0.7218
 9108SOL     OW38782   2.198   1.044   0.318  0.2511  0.3957  0.1029
 9108SOL    HW138783   2.221   1.125   0.273  0.8212  0.2673  0.1667
 9108SOL    HW238784   2.135   1.007   0.256  0.0033 -2.2355  1.9403
 9109SOL     OW38785   1.464   1.081  12.446  0.1897  0.5777 -0.4854
 9109SOL    HW138786   1.497   1.025  12.517  3.3715 -0.2173 -2.6153
 9109SOL    HW238787   1.507   1.041  12.371 -1.3664 -0.6324 -0.7406
 9110SOL     OW38788   1.613   3.056   1.014  0.3088  0.0552 -0.1434
 9110SOL    HW138789   1.691   3.041   1.066  1.3225  1.6140 -1.1805
 9110SOL    HW238790   1.635   3.023   0.927  0.8606 -0.1541  0.0742
 9111SOL     OW38791   0.198   1.007  11.827 -0.2301 -0.3725  0.2291
 9111SOL    HW138792   0.234   1.010  11.916  1.0915 -0.2367 -0.3280
 9111SOL    HW238793   0.106   1.030  11.842 -0.3616  0.8507 -2.4780
 9112SOL     OW38794   2.866   3.375   4.988 -0.2482  0.1307 -0.3254
 9112SOL    HW138795   2.866   3.458   5.037  0.2495  0.6278 -1.1763
 9112SOL    HW238796   2.805   3.316   5.034  3.1318 -2.5425  0.7087
 9113SOL     OW38797   3.082   0.714  15.102  0.1089 -0.1834  0.2145
 9113SOL    HW138798   3.104   0.621  15.102 -3.4476 -1.0189  0.3735
 9113SOL    HW238799   3.027   0.723  15.179  0.3906  3.6537 -0.0484
 9114SOL     OW38800   0.477   2.508   4.066  0.0917  0.1293  0.1027
 9114SOL    HW138801   0.567   2.537   4.081  1.3724 -4.2368  0.6769
 9114SOL    HW238802   0.435   2.593   4.051  0.1404 -0.0603 -1.0654
 9115SOL     OW38803   2.947   3.091   1.562 -0.4623  0.0890  0.3400
 9115SOL    HW138804   3.000   3.011   1.556 -1.8578 -0.9756  2.4908
 9115SOL    HW238805   2.906   3.080   1.476 -2.5846 -3.4487  1.7937
 9116SOL     OW38806   2.445   2.095   1.352 -0.4956  0.1943  0.2220
 9116SOL    HW138807   2.383   2.074   1.282  0.8125 -0.0522 -0.8612
 9116SOL    HW238808   2.491   2.160   1.300 -0.0788  0.1969  0.5984
 9117SOL     OW38809   0.208   2.586   7.569  0.2088  0.3718 -0.1717
 9117SOL    HW138810   0.297   2.615   7.550 -0.0855  0.5548 -1.2295
 9117SOL    HW238811   0.209   2.494   7.546  3.1221  0.0104  1.3859
 9118SOL     OW38812   2.512   1.590   3.001  0.3061 -0.3074  0.1010
 9118SOL    HW138813   2.462   1.592   3.082  0.0657  1.7172 -0.1079
 9118SOL    HW238814   2.462   1.662   2.964  1.0850  0.6311  0.8671
 9119SOL     OW38815   1.688   3.864   9.089 -0.2038  0.5001  0.2923
 9119SOL    HW138816   1.688   3.960   9.085 -0.3484  0.5484  1.5019
 9119SOL    HW238817   1.777   3.851   9.057  0.1845  1.0859  1.1411
 9120SOL     OW38818   0.303   2.361   5.289  0.0718  0.0071 -0.2266
 9120SOL    HW138819   0.214   2.383   5.262 -0.3297 -1.5659 -0.1963
 9120SOL    HW238820   0.328   2.441   5.335  0.3905 -1.0925  1.5067
 9121SOL     OW38821   1.147   3.223  12.367  0.4399  0.0386  0.5980
 9121SOL    HW138822   1.062   3.266  12.353 -0.0272 -0.9421  0.3862
 9121SOL    HW238823   1.203   3.297  12.392  0.0897  0.6478 -0.4442
 9122SOL     OW38824   2.359   4.636   9.816 -0.3464 -0.2300  0.2175
 9122SOL    HW138825   2.388   4.700   9.881 -0.5107  0.4849 -0.4099
 9122SOL    HW238826   2.271   4.670   9.796 -0.0177  1.0824  0.9300
 9123SOL     OW38827   1.037   4.103  16.194 -0.1662  0.1055  0.6179
 9123SOL    HW138828   1.057   4.072  16.283  0.5022  1.0813  0.7984
 9123SOL    HW238829   0.943   4.121  16.204 -0.3548 -2.0166  2.7278
 9124SOL     OW38830   1.768   2.289   5.424 -0.5633 -0.1340 -0.0215
 9124SOL    HW138831   1.770   2.279   5.519  0.9347  1.6900  0.1247
 9124SOL    HW238832   1.848   2.338   5.405  0.2184 -1.3297  0.2021
 9125SOL     OW38833   0.264   3.507   8.379 -0.7129 -0.0483 -0.2390
 9125SOL    HW138834   0.240   3.600   8.370  3.5545  0.9381 -1.1277
 9125SOL    HW238835   0.219   3.482   8.459  0.5321  1.5300  0.9500
 9126SOL     OW38836   1.412   3.690   7.991 -0.5389  0.8036 -0.4479
 9126SOL    HW138837   1.471   3.761   8.018 -0.5145  0.9121 -0.7810
 9126SOL    HW238838   1.326   3.729   8.003 -0.6420  0.8250 -1.2521
 9127SOL     OW38839   1.164   2.838   6.892  0.0717  0.5190  0.0612
 9127SOL    HW138840   1.087   2.785   6.870 -0.1136  0.6741  0.3358
 9127SOL    HW238841   1.226   2.807   6.826  0.3414  2.1144 -0.4413
 9128SOL     OW38842   4.688   2.633  16.561  0.8232 -0.1284 -0.2238
 9128SOL    HW138843   0.034   2.668  16.615  0.1918  0.5322  0.1844
 9128SOL    HW238844   0.003   2.647  16.475 -0.7091 -1.5608 -1.1659
 9129SOL     OW38845   1.073   3.152   9.888  0.1941  0.1205 -0.0565
 9129SOL    HW138846   0.994   3.136   9.939 -0.0131  0.2661 -0.3329
 9129SOL    HW238847   1.056   3.091   9.817  2.2402  0.7855 -1.1228
 9130SOL     OW38848   1.205   3.815   1.749  0.1064  0.0463  0.2328
 9130SOL    HW138849   1.297   3.827   1.722 -0.2420  1.3761 -0.3682
 9130SOL    HW238850   1.203   3.721   1.766 -2.0767  0.1096  0.3254
 9131SOL     OW38851   4.538   1.800   4.075  0.3610  0.1146 -0.1169
 9131SOL    HW138852   4.621   1.796   4.121 -0.2904  0.6873  1.1178
 9131SOL    HW238853   4.468   1.793   4.140 -0.6811  0.4959 -1.2002
 9132SOL     OW38854   4.352   1.273   6.784  0.1675  0.3077  0.2091
 9132SOL    HW138855   4.404   1.217   6.726  0.3966  0.8782 -0.1321
 9132SOL    HW238856   4.314   1.212   6.848 -0.0814  1.7682  1.4567
 9133SOL     OW38857   2.808   3.931   5.100 -0.1450  0.0479 -0.1560
 9133SOL    HW138858   2.766   3.967   5.022 -1.0442 -0.5653  0.0475
 9133SOL    HW238859   2.897   3.963   5.085 -0.9966  3.8500  2.7871
 9134SOL     OW38860   0.014   2.708  16.855  0.3518  0.0791 -0.3089
 9134SOL    HW138861   0.040   2.782  16.910  0.7502 -0.8830  0.8061
 9134SOL    HW238862   4.651   2.739  16.831  0.3473  0.5857  0.3670
 9135SOL     OW38863   2.284   2.427  15.558 -0.5821  0.2867  0.0409
 9135SOL    HW138864   2.275   2.369  15.634  1.5471  0.2123  0.2412
 9135SOL    HW238865   2.277   2.363  15.488 -0.4551  1.6383 -1.2153
 9136SOL     OW38866   1.051   0.184   3.470  0.2014  0.4254  0.3119
 9136SOL    HW138867   1.091   0.130   3.402 -0.0662 -0.8002  1.1231
 9136SOL    HW238868   1.110   0.259   3.472 -0.6955  1.1548 -0.3237
 9137SOL     OW38869   4.682   0.515   2.381 -0.4012  0.5959 -0.4524
 9137SOL    HW138870   0.021   0.450   2.350 -0.0607  1.0879 -0.7857
 9137SOL    HW238871   4.646   0.544   2.297 -0.7955  1.8818  0.1711
 9138SOL     OW38872   1.711   0.735   9.912  0.0385 -0.6671 -0.1885
 9138SOL    HW138873   1.704   0.742   9.816  0.2826  1.0434 -0.0828
 9138SOL    HW238874   1.750   0.820   9.935 -2.2008  0.0699  0.8506
 9139SOL     OW38875   4.454   1.548   7.037 -0.6737 -0.0911 -0.6766
 9139SOL    HW138876   4.445   1.543   6.942 -0.5321  0.7022 -0.7344
 9139SOL    HW238877   4.440   1.460   7.071  1.0752  0.3792  1.2232
 9140SOL     OW38878   1.436   0.807   6.738 -0.3701  0.2371  0.0796
 9140SOL    HW138879   1.389   0.723   6.742 -1.5449  0.9124  0.3410
 9140SOL    HW238880   1.419   0.836   6.649  0.1890 -1.7837 -0.6943
 9141SOL     OW38881   2.160   2.364   2.920  0.6048 -0.2616  0.3361
 9141SOL    HW138882   2.236   2.341   2.972 -0.4355 -2.4174  0.9155
 9141SOL    HW238883   2.093   2.398   2.980  0.2762 -2.1286  1.0254
 9142SOL     OW38884   3.954   3.954   9.067  0.4733  0.0377  0.0040
 9142SOL    HW138885   3.918   4.039   9.093  3.8189  1.4481 -0.0076
 9142SOL    HW238886   3.994   3.922   9.148  0.6571  0.6141  0.1456
 9143SOL     OW38887   1.929   2.289   6.494  0.1075  0.0548 -0.5986
 9143SOL    HW138888   1.867   2.320   6.560 -0.2577  0.2979 -1.0573
 9143SOL    HW238889   1.933   2.196   6.517 -1.5958  0.4303  1.1893
 9144SOL     OW38890   1.045   3.559   9.407  0.0179 -0.3716  0.6154
 9144SOL    HW138891   1.017   3.553   9.499 -0.7506 -0.3355  0.3842
 9144SOL    HW238892   1.065   3.652   9.399 -1.1893 -0.1570  0.0071
 9145SOL     OW38893   1.850   4.424  12.880  0.2908  0.2958 -0.1378
 9145SOL    HW138894   1.810   4.343  12.910 -0.4592  1.3199  1.5871
 9145SOL    HW238895   1.812   4.476  12.950  0.2804  0.3461 -0.1807
 9146SOL     OW38896   2.565   0.705  14.327 -0.0371 -0.0019 -0.2221
 9146SOL    HW138897   2.601   0.628  14.284 -1.2228 -1.5048  1.5083
 9146SOL    HW238898   2.567   0.683  14.420 -1.0728  0.6298 -0.0458
 9147SOL     OW38899   2.108   0.680   8.506 -1.1398  0.0473 -0.3702
 9147SOL    HW138900   2.092   0.764   8.549  0.9333 -0.4516  1.4083
 9147SOL    HW238901   2.032   0.623   8.521 -0.3795 -0.1898  2.5685
 9148SOL     OW38902   4.395   1.424   1.890 -0.0824  0.5478  0.4338
 9148SOL    HW138903   4.490   1.415   1.892 -0.4122 -2.7547  0.6151
 9148SOL    HW238904   4.396   1.475   1.970 -0.9332  0.8362  0.2581
 9149SOL     OW38905   4.073   2.290   5.665  0.2563  0.2073  0.0192
 9149SOL    HW138906   4.154   2.266   5.710  1.1966  1.5490 -0.9692
 9149SOL    HW238907   4.111   2.301   5.578  2.2990 -1.6996  0.6558
 9150SOL     OW38908   2.306   1.188   0.586 -0.3636  0.1711 -0.4682
 9150SOL    HW138909   2.396   1.213   0.566 -0.1406  0.1541  0.5259
 9150SOL    HW238910   2.295   1.119   0.521  2.6589 -0.7830  0.0301
 9151SOL     OW38911   1.288   4.031  15.929  0.3258  0.1609 -0.9903
 9151SOL    HW138912   1.365   4.056  15.878 -1.5263  1.2943 -3.1980
 9151SOL    HW238913   1.294   3.935  15.926 -1.3105  0.0499 -0.7145
 9152SOL     OW38914   1.193   3.996  11.385  0.3746  0.1394  0.1498
 9152SOL    HW138915   1.143   4.039  11.315 -2.3164 -2.6569  0.3780
 9152SOL    HW238916   1.123   3.957  11.437  0.4800  0.8998  0.8655
 9153SOL     OW38917   3.723   1.675   4.261  0.7900 -0.0875  0.0534
 9153SOL    HW138918   3.772   1.704   4.184 -2.9606 -0.0578 -2.3029
 9153SOL    HW238919   3.634   1.686   4.228  0.1617 -1.4291  1.3199
 9154SOL     OW38920   1.466   2.619   3.888  0.3481 -0.3370  0.5250
 9154SOL    HW138921   1.435   2.538   3.929  1.7461 -0.5933  1.1121
 9154SOL    HW238922   1.521   2.586   3.817 -0.3607  2.5330 -1.3341
 9155SOL     OW38923   0.025   3.339   5.728  0.2823 -0.4347  0.4190
 9155SOL    HW138924   0.054   3.278   5.660 -0.7625  0.0707 -0.4732
 9155SOL    HW238925   4.669   3.296   5.755  0.6050 -0.5236  1.2486
 9156SOL     OW38926   3.624   4.247   2.391  0.2381 -0.2660 -0.1897
 9156SOL    HW138927   3.549   4.190   2.410 -0.6834  0.5626 -1.3494
 9156SOL    HW238928   3.666   4.194   2.324  0.7501 -1.0095  0.7115
 9157SOL     OW38929   0.062   1.122   2.659 -0.0215  0.7524 -0.5813
 9157SOL    HW138930   4.699   1.086   2.661  0.1599  0.2966 -0.7553
 9157SOL    HW238931   0.088   1.123   2.752 -1.4715 -1.5806 -0.1522
 9158SOL     OW38932   1.512   0.511   0.340 -0.4906  0.2162  0.2639
 9158SOL    HW138933   1.573   0.545   0.405  1.0214  0.7922 -1.4395
 9158SOL    HW238934   1.580   0.489   0.276  0.8346 -0.3783  1.8782
 9159SOL     OW38935   2.071   4.060   9.043  0.1952 -0.6664 -0.0909
 9159SOL    HW138936   1.990   4.104   9.018  1.4631  0.0239 -2.9577
 9159SOL    HW238937   2.095   4.112   9.120 -0.8406 -0.6846  0.2476
 9160SOL     OW38938   1.205   1.679   1.374 -0.2789  0.5211  0.1173
 9160SOL    HW138939   1.123   1.724   1.394 -1.8826 -3.2478  2.0727
 9160SOL    HW238940   1.169   1.605   1.325  0.7733 -0.6894  1.1807
 9161SOL     OW38941   4.634   1.466   2.905 -0.0487  0.5790 -0.0845
 9161SOL    HW138942   4.542   1.482   2.925  0.2286 -0.2066  1.7654
 9161SOL    HW238943   4.645   1.375   2.930 -1.6751  0.5715  0.6098
 9162SOL     OW38944   3.898   0.363   7.480  0.2757 -0.7608 -0.5360
 9162SOL    HW138945   3.863   0.279   7.452 -1.3630 -0.1290 -0.3710
 9162SOL    HW238946   3.827   0.397   7.534  2.2551  1.6737  0.5404
 9163SOL     OW38947   3.760   2.258  16.061 -0.1574  0.4660 -0.0670
 9163SOL    HW138948   3.852   2.277  16.045  0.0338 -2.0750 -1.8008
 9163SOL    HW238949   3.745   2.190  15.996 -0.3098 -0.5086  0.9933
 9164SOL     OW38950   3.047   3.750  17.339 -0.0287  0.0753  0.9038
 9164SOL    HW138951   3.081   3.812  17.403  1.5410 -0.6772  0.8050
 9164SOL    HW238952   3.076   3.668  17.381  2.3412  0.0871 -0.7271
 9165SOL     OW38953   4.007   4.327   1.016  0.4621  0.1435  0.5110
 9165SOL    HW138954   3.963   4.352   0.935  0.1784  2.2589  1.2942
 9165SOL    HW238955   3.930   4.328   1.073  0.2235 -2.1384  0.1925
 9166SOL     OW38956   0.619   3.352  12.807 -0.4207 -0.1391  0.1021
 9166SOL    HW138957   0.603   3.445  12.822  1.2576  0.0692  0.6065
 9166SOL    HW238958   0.540   3.308  12.840  1.1679 -1.5360  2.0303
 9167SOL     OW38959   1.483   4.059   3.362 -0.2021  0.1279  0.1812
 9167SOL    HW138960   1.451   4.111   3.436 -1.2764  1.1458 -1.0080
 9167SOL    HW238961   1.485   3.975   3.407  0.8256  0.1721  0.2261
 9168SOL     OW38962   1.260   2.317   7.595  0.4081  0.3971  0.6628
 9168SOL    HW138963   1.213   2.312   7.678 -0.4640 -0.4223  0.1321
 9168SOL    HW238964   1.346   2.337   7.630  0.5748  2.3109 -0.8314
 9169SOL     OW38965   1.339   0.459   2.234  0.0868  0.2094 -0.4463
 9169SOL    HW138966   1.292   0.431   2.156 -0.7878  0.6795 -0.0779
 9169SOL    HW238967   1.431   0.439   2.212  0.4121  1.3896 -0.1406
 9170SOL     OW38968   3.014   3.714   8.099  0.5655  0.2443 -0.3472
 9170SOL    HW138969   2.966   3.674   8.172 -0.3212  3.8990  1.0747
 9170SOL    HW238970   3.014   3.801   8.138  1.1068  0.2119 -0.2683
 9171SOL     OW38971   1.704   1.109   7.650 -0.0385 -0.1666  0.6011
 9171SOL    HW138972   1.695   1.204   7.645  0.6454  0.0451  3.3415
 9171SOL    HW238973   1.784   1.090   7.602 -0.7592  0.2219 -0.7420
 9172SOL     OW38974   1.507   0.377   6.803  0.0600  0.2804  0.1065
 9172SOL    HW138975   1.446   0.382   6.729  1.5427 -1.9697 -1.2815
 9172SOL    HW238976   1.582   0.338   6.758  1.3866  1.9637  0.8637
 9173SOL     OW38977   3.004   4.254   1.428 -0.4742  0.5084 -0.2573
 9173SOL    HW138978   2.911   4.253   1.447 -0.4303  1.1141 -0.0079
 9173SOL    HW238979   3.017   4.161   1.446  0.7115  0.3939 -1.6958
 9174SOL     OW38980   3.506   3.645   4.359 -0.5743  0.1234  0.0835
 9174SOL    HW138981   3.531   3.702   4.287 -1.1189  0.5771  0.2487
 9174SOL    HW238982   3.483   3.562   4.318  0.5407 -0.3409  0.4013
 9175SOL     OW38983   4.682   0.803   2.805 -0.4380 -0.3948 -0.4890
 9175SOL    HW138984   4.623   0.841   2.869 -2.1239 -0.5286 -1.9591
 9175SOL    HW238985   0.008   0.876   2.769 -2.1247  1.1618  0.3008
 9176SOL     OW38986   0.024   0.404  14.694 -0.0007  0.1929  0.3012
 9176SOL    HW138987   0.096   0.376  14.638 -0.2011  1.9353 -0.8381
 9176SOL    HW238988   4.679   0.383  14.631  1.4155 -1.8926 -0.5544
 9177SOL     OW38989   3.841   0.073   6.718  0.4640 -0.0528 -0.2463
 9177SOL    HW138990   3.771   0.013   6.694 -0.6684  1.0469  0.3169
 9177SOL    HW238991   3.910   0.033   6.664  0.0919 -2.2525  0.9102
 9178SOL     OW38992   3.366   1.807   6.973 -0.4356  0.2929  0.1452
 9178SOL    HW138993   3.430   1.878   6.976  0.0305 -0.2634  3.2695
 9178SOL    HW238994   3.422   1.743   6.930 -1.1403 -0.1409 -0.1313
 9179SOL     OW38995   2.409   4.387   0.100 -0.3980 -0.0272 -0.6340
 9179SOL    HW138996   2.461   4.467   0.089  0.8800 -1.1679 -2.8955
 9179SOL    HW238997   2.377   4.383   0.010 -1.7262 -1.3643 -0.0992
 9180SOL     OW38998   3.475   0.635  13.493 -0.5688 -0.7275  0.2916
 9180SOL    HW138999   3.428   0.594  13.420  0.0720  1.3790 -1.3062
 9180SOL    HW239000   3.528   0.701  13.449 -1.0720 -0.0805  0.6491
 9181SOL     OW39001   3.251   2.455   2.839  0.4646 -0.1850  0.2634
 9181SOL    HW139002   3.179   2.453   2.776  1.9831  2.3056 -1.5665
 9181SOL    HW239003   3.233   2.534   2.891 -0.3899 -0.6505  0.6736
 9182SOL     OW39004   3.713   2.626  16.018  0.3713 -0.2059  0.5306
 9182SOL    HW139005   3.714   2.588  15.930  0.6987 -0.8448  0.8147
 9182SOL    HW239006   3.727   2.546  16.068 -0.1022  0.4040  1.6402
 9183SOL     OW39007   0.855   1.931   2.717  0.2932 -0.7560  0.4544
 9183SOL    HW139008   0.830   2.023   2.724  1.2017 -0.4155 -0.9359
 9183SOL    HW239009   0.785   1.878   2.679  0.0979  0.6454 -1.1128
 9184SOL     OW39010   2.741   2.848   4.869 -0.1240 -0.2960  0.1383
 9184SOL    HW139011   2.691   2.873   4.791 -1.6433 -1.0179  0.8942
 9184SOL    HW239012   2.761   2.938   4.894 -0.8597  0.4705 -2.0331
 9185SOL     OW39013   4.559   2.737  14.692  0.2930 -0.3978 -0.4843
 9185SOL    HW139014   4.593   2.789  14.765  3.1402 -2.0395 -0.6345
 9185SOL    HW239015   4.623   2.756  14.623 -0.3123 -2.3358 -1.5763
 9186SOL     OW39016   2.894   0.660   2.571 -0.2990 -0.0065  0.3506
 9186SOL    HW139017   2.978   0.689   2.607 -0.6388  3.6249 -1.7713
 9186SOL    HW239018   2.895   0.707   2.488  0.4850  0.7544  0.7862
 9187SOL     OW39019   2.990   1.887  17.292 -0.1435  0.5096 -0.5924
 9187SOL    HW139020   2.947   1.971  17.305  0.7736  1.1202 -1.6150
 9187SOL    HW239021   2.917   1.826  17.301  1.5429 -1.3146  0.8237
 9188SOL     OW39022   3.685   3.299   3.928  0.0359 -0.1903  0.6912
 9188SOL    HW139023   3.701   3.367   3.993  1.8733 -2.2207  2.3871
 9188SOL    HW239024   3.673   3.354   3.851 -0.0609 -2.9313 -1.2301
 9189SOL     OW39025   0.362   1.014   1.027  0.1758 -0.0010  0.1586
 9189SOL    HW139026   0.368   0.977   1.115  2.8868 -2.5329 -1.0898
 9189SOL    HW239027   0.404   0.939   0.985  2.3772  0.3405  1.7929
 9190SOL     OW39028   3.466   3.816   6.117 -0.1946  0.4643  0.2571
 9190SOL    HW139029   3.529   3.808   6.044  1.0440  0.0208  1.3733
 9190SOL    HW239030   3.387   3.771   6.087  0.1699 -0.7656  1.1228
 9191SOL     OW39031   0.403   0.513   1.457  0.0646 -0.4080 -0.4067
 9191SOL    HW139032   0.403   0.430   1.505 -1.2735  0.0788  0.4275
 9191SOL    HW239033   0.425   0.575   1.526 -0.5660 -0.3198 -0.2831
 9192SOL     OW39034   1.435   3.960   7.326 -0.2507  0.0588  0.0765
 9192SOL    HW139035   1.373   3.954   7.398 -0.8774  2.4180 -0.2584
 9192SOL    HW239036   1.384   3.938   7.248 -0.8370 -0.1820  0.5296
 9193SOL     OW39037   2.900   1.551   6.175  0.3460 -0.1786  0.2370
 9193SOL    HW139038   2.843   1.518   6.105  0.4632  1.6564 -0.7235
 9193SOL    HW239039   2.951   1.619   6.130  1.4598 -3.0302 -2.8255
 9194SOL     OW39040   0.817   0.871  15.759 -0.7988 -0.8130  0.0049
 9194SOL    HW139041   0.810   0.779  15.782 -1.0742 -0.6473  0.5781
 9194SOL    HW239042   0.741   0.883  15.701 -0.7144 -1.7703 -0.2924
 9195SOL     OW39043   4.688   4.720   1.683 -0.2758  0.0385  0.6022
 9195SOL    HW139044   4.686   4.639   1.735 -3.1108  0.3941  1.0528
 9195SOL    HW239045   4.612   4.701   1.628 -1.7218  4.7720  0.9861
 9196SOL     OW39046   2.340   1.811   9.135  0.1991  0.3827  0.0033
 9196SOL    HW139047   2.358   1.734   9.082  0.0508  0.1907  0.2303
 9196SOL    HW239048   2.315   1.882   9.077  1.7327  2.4706  1.8809
 9197SOL     OW39049   2.213   2.653   4.263  0.2771  0.2878 -0.6158
 9197SOL    HW139050   2.194   2.647   4.356  1.0958 -1.4217 -0.5635
 9197SOL    HW239051   2.132   2.678   4.218 -0.7589  2.1343  2.3299
 9198SOL     OW39052   3.942   2.171   4.450 -0.6262 -0.4923 -0.2592
 9198SOL    HW139053   3.972   2.146   4.363 -0.3524 -0.1787 -0.2570
 9198SOL    HW239054   4.027   2.155   4.491 -1.5061  2.1474  2.5683
 9199SOL     OW39055   1.307   0.804   3.172  0.0328 -0.0136  0.3580
 9199SOL    HW139056   1.337   0.813   3.263  2.2602 -1.4880 -0.2203
 9199SOL    HW239057   1.319   0.893   3.139 -1.2006  0.9785  2.5398
 9200SOL     OW39058   4.594   4.121   6.984 -0.0478 -0.3890  0.2429
 9200SOL    HW139059   4.629   4.085   6.903  1.6205 -0.7079  1.1152
 9200SOL    HW239060   4.671   4.168   7.015  1.0137 -0.5163 -2.2546
 9201SOL     OW39061   0.539   0.724   4.999  0.1731  0.1864 -0.0651
 9201SOL    HW139062   0.528   0.816   4.974  1.7855  0.4323  0.1549
 9201SOL    HW239063   0.634   0.725   4.989  0.3006 -1.2056  1.0364
 9202SOL     OW39064   0.931   1.749   8.818  0.2094 -0.6244 -0.6380
 9202SOL    HW139065   1.020   1.742   8.853 -0.9632 -1.0670  2.2290
 9202SOL    HW239066   0.947   1.779   8.728 -0.3300 -0.3468 -0.6431
 9203SOL     OW39067   0.297   2.149   9.181  0.1089  0.0627  0.6915
 9203SOL    HW139068   0.242   2.219   9.147  0.3005 -0.1824 -0.1334
 9203SOL    HW239069   0.346   2.195   9.249 -0.8073  3.1776 -0.7709
 9204SOL     OW39070   1.841   1.625  17.061  0.6691 -0.3830 -0.8264
 9204SOL    HW139071   1.896   1.662  16.992  2.5637  1.3011  1.6110
 9204SOL    HW239072   1.867   1.687  17.129 -2.3320 -0.1443  0.1394
 9205SOL     OW39073   3.077   2.884   7.747 -0.0601 -0.3574  0.6087
 9205SOL    HW139074   3.165   2.919   7.763  0.1553 -0.2732 -0.7541
 9205SOL    HW239075   3.093   2.829   7.670  0.0767  0.3656  0.1139
 9206SOL     OW39076   3.541   2.407  16.130  0.0387 -0.1886  0.4395
 9206SOL    HW139077   3.602   2.338  16.156 -0.2632 -0.5608  0.1463
 9206SOL    HW239078   3.547   2.394  16.035  1.3107  0.6734  0.3851
 9207SOL     OW39079   3.245   4.133   3.446  0.1455  0.0460  0.4797
 9207SOL    HW139080   3.195   4.202   3.488  2.6869  1.7410  0.7622
 9207SOL    HW239081   3.198   4.137   3.363 -0.5314  2.9630  1.0233
 9208SOL     OW39082   0.330   0.340   8.746  0.7580  0.2485  0.6312
 9208SOL    HW139083   0.336   0.353   8.651  0.4024 -0.2852  0.5368
 9208SOL    HW239084   0.300   0.424   8.782  0.2898 -0.6706  2.3726
 9209SOL     OW39085   2.915   3.004   0.464  0.4791 -0.0323  0.4133
 9209SOL    HW139086   2.947   3.057   0.391 -0.1758 -1.4760 -0.9044
 9209SOL    HW239087   2.993   3.004   0.520  0.8570 -0.5690 -0.1147
 9210SOL     OW39088   2.453   2.794   5.330 -0.0840  0.1171  0.2027
 9210SOL    HW139089   2.430   2.845   5.253 -2.7032  0.3330  1.1253
 9210SOL    HW239090   2.422   2.852   5.400  0.5274 -0.9440  1.3652
 9211SOL     OW39091   1.665   1.544   0.687  0.5424  0.2085 -0.1372
 9211SOL    HW139092   1.700   1.576   0.771  0.9576 -0.1139 -0.1841
 9211SOL    HW239093   1.698   1.454   0.686 -0.0131  0.0009  0.2130
 9212SOL     OW39094   0.007   3.174   6.555 -0.1449 -1.0542  0.7197
 9212SOL    HW139095   0.007   3.270   6.549 -1.6592 -1.1420 -0.9556
 9212SOL    HW239096   4.642   3.149   6.533 -0.6515 -0.6208  2.2728
 9213SOL     OW39097   4.625   2.156   7.095  0.1375  0.1992 -0.1856
 9213SOL    HW139098   4.657   2.143   7.005 -1.4485  1.2141 -0.9003
 9213SOL    HW239099   4.549   2.099   7.100  0.3522  0.0016  0.7550
 9214SOL     OW39100   3.487   3.328   3.038  0.3380 -0.4058 -0.3752
 9214SOL    HW139101   3.422   3.319   2.968 -1.0140 -2.1847  1.1098
 9214SOL    HW239102   3.463   3.416   3.068  0.2865  0.0492 -1.7130
 9215SOL     OW39103   0.173   3.194   7.261 -0.6264 -0.1847  0.2546
 9215SOL    HW139104   0.209   3.238   7.338  0.0898  2.2680 -1.4802
 9215SOL    HW239105   0.253   3.165   7.217  0.2133  2.4851  0.0265
 9216SOL     OW39106   2.007   1.929   1.697  0.2380 -0.4875  1.0418
 9216SOL    HW139107   1.938   1.948   1.759 -0.9250  1.4992 -0.8768
 9216SOL    HW239108   1.982   1.979   1.620  1.3982 -1.7519 -0.1607
 9217SOL     OW39109   0.780   3.823   6.121 -0.0456 -0.0483 -0.3914
 9217SOL    HW139110   0.693   3.863   6.117  0.2998  0.7423  0.0596
 9217SOL    HW239111   0.803   3.805   6.030  0.1632 -1.5982 -0.0324
 9218SOL     OW39112   4.085   0.034   1.712 -0.2572 -0.0710  0.1702
 9218SOL    HW139113   4.159   0.089   1.736  1.6501 -1.0533 -3.3581
 9218SOL    HW239114   4.082   0.048   1.617 -2.2828  0.9885  0.3861
 9219SOL     OW39115   2.276   1.053  16.873  0.1781 -0.0115  0.2526
 9219SOL    HW139116   2.211   1.118  16.846 -1.3692 -1.0492  1.5005
 9219SOL    HW239117   2.225   1.009  16.941  0.8650  0.3318  0.9890
 9220SOL     OW39118   4.216   4.697  17.574  0.0912  0.2569  0.2832
 9220SOL    HW139119   4.219   0.014  17.659 -0.0137  2.2094 -0.6900
 9220SOL    HW239120   4.120   4.693  17.570  0.1486 -2.0848  1.2760
 9221SOL     OW39121   0.688   2.959   5.749  0.5055  0.0130 -0.4972
 9221SOL    HW139122   0.644   2.990   5.670  1.0380 -1.9500 -1.5740
 9221SOL    HW239123   0.660   2.869   5.761 -2.0285  0.8663 -0.0262
 9222SOL     OW39124   0.052   3.051   8.895  0.6495 -0.0090 -0.5730
 9222SOL    HW139125   0.123   3.089   8.844  3.1044 -0.8896  2.2322
 9222SOL    HW239126   4.698   3.065   8.842  0.1129 -0.8605  0.0068
 9223SOL     OW39127   4.422   0.483   6.305 -0.0540  0.3062 -0.6345
 9223SOL    HW139128   4.495   0.473   6.243  1.8932  2.0831  1.3306
 9223SOL    HW239129   4.404   0.391   6.319 -1.6403  0.1505 -3.6961
 9224SOL     OW39130   2.777   3.927  14.630  0.4008  0.8543 -0.1229
 9224SOL    HW139131   2.838   3.942  14.557  1.4038 -0.5636  0.4124
 9224SOL    HW239132   2.826   3.954  14.708 -1.4552  2.8455  0.3274
 9225SOL     OW39133   0.616   2.821   5.452 -0.3369  0.2864 -0.1667
 9225SOL    HW139134   0.683   2.760   5.483 -1.7381 -0.5432  1.2489
 9225SOL    HW239135   0.541   2.765   5.434 -0.7742  0.7803  0.1115
 9226SOL     OW39136   1.368   0.147   0.357  0.1702 -0.3341 -0.0532
 9226SOL    HW139137   1.409   0.065   0.329  0.4786 -0.5392  0.9909
 9226SOL    HW239138   1.325   0.117   0.437  2.6805  0.6615  1.6875
 9227SOL     OW39139   3.928   4.207  11.188 -0.5911  0.1012 -0.0854
 9227SOL    HW139140   4.017   4.202  11.220  0.0854  2.5217 -1.6365
 9227SOL    HW239141   3.888   4.221  11.274  0.0274 -1.3526  0.4384
 9228SOL     OW39142   0.454   3.927   5.418 -0.5056 -0.9255  0.1342
 9228SOL    HW139143   0.405   3.854   5.457 -0.8623 -1.2459 -0.9216
 9228SOL    HW239144   0.511   3.878   5.359 -0.1830 -0.7486  0.3017
 9229SOL     OW39145   1.616   1.928  10.541 -0.2696 -0.2252 -0.4392
 9229SOL    HW139146   1.603   1.965  10.454 -1.1676 -0.0188 -0.2207
 9229SOL    HW239147   1.527   1.895  10.558 -0.6016  0.8064 -0.1444
 9230SOL     OW39148   2.315   2.659   2.757 -0.1456  0.1017 -0.0520
 9230SOL    HW139149   2.303   2.571   2.721  2.9717 -0.9207  1.4431
 9230SOL    HW239150   2.224   2.688   2.756 -0.3285 -0.5255 -2.2708
 9231SOL     OW39151   4.434   4.324   8.691  0.1032 -0.1462  0.3968
 9231SOL    HW139152   4.357   4.333   8.746 -0.5659  2.8385 -0.9977
 9231SOL    HW239153   4.392   4.327   8.605 -1.1360 -0.2027  0.9955
 9232SOL     OW39154   2.355   3.341   7.440  0.6534 -0.2366  0.4967
 9232SOL    HW139155   2.278   3.285   7.425  0.3789  0.1255  0.5485
 9232SOL    HW239156   2.422   3.289   7.397 -1.7321  0.1107 -3.6910
 9233SOL     OW39157   0.580   2.363  13.610 -0.0131  0.1810 -0.2970
 9233SOL    HW139158   0.550   2.445  13.571 -0.7068  0.0616 -0.0259
 9233SOL    HW239159   0.619   2.398  13.690  1.4149 -1.8827 -0.1002
 9234SOL     OW39160   2.685   2.340   8.737 -0.4455 -0.2407 -0.1126
 9234SOL    HW139161   2.641   2.321   8.819 -0.1103 -3.3632 -0.6522
 9234SOL    HW239162   2.644   2.283   8.672  1.5479 -0.2868 -1.3327
 9235SOL     OW39163   3.884   3.034   3.112  0.3921  0.0225  0.1545
 9235SOL    HW139164   3.897   3.112   3.057 -2.0235  1.1837  1.2294
 9235SOL    HW239165   3.952   2.974   3.081  0.5237  0.0335  0.4190
 9236SOL     OW39166   4.102   1.617   3.255 -0.1014  0.1405  0.1688
 9236SOL    HW139167   4.039   1.639   3.323 -0.6774 -1.3200  0.1141
 9236SOL    HW239168   4.086   1.670   3.177  0.2451  1.4060  0.9453
 9237SOL     OW39169   0.266   3.072   3.062 -0.0585  0.3143  0.8433
 9237SOL    HW139170   0.243   3.158   3.026 -1.5205 -0.5249 -0.2044
 9237SOL    HW239171   0.182   3.051   3.101  0.1175 -1.8506  0.0775
 9238SOL     OW39172   4.419   4.167  13.236 -0.4474 -0.5575  0.2420
 9238SOL    HW139173   4.369   4.208  13.306  1.6616 -0.3559  1.6278
 9238SOL    HW239174   4.481   4.234  13.207  0.3898 -0.7779  1.5422
 9239SOL     OW39175   3.204   2.414   3.404 -0.0237  0.0369  0.2576
 9239SOL    HW139176   3.221   2.506   3.421  1.1564  0.4654 -3.1819
 9239SOL    HW239177   3.195   2.400   3.309 -0.2108 -0.7762  0.3910
 9240SOL     OW39178   3.640   2.762   2.233 -0.3172  0.0917 -0.4201
 9240SOL    HW139179   3.569   2.740   2.293  0.4542  0.7453  0.7267
 9240SOL    HW239180   3.707   2.701   2.264 -0.6159 -0.7182 -1.3632
 9241SOL     OW39181   3.081   3.362   2.934  0.3780  0.0486 -0.5596
 9241SOL    HW139182   3.051   3.286   2.984  0.7584 -0.7482 -1.5544
 9241SOL    HW239183   3.173   3.348   2.912 -0.0486  0.5742 -2.6342
 9242SOL     OW39184   3.810   1.490   4.624  0.3551 -0.0596 -0.0518
 9242SOL    HW139185   3.835   1.470   4.534 -0.3453 -0.4719 -0.1548
 9242SOL    HW239186   3.873   1.561   4.637  0.1133  0.5344 -2.2119
 9243SOL     OW39187   0.975   2.145   7.998 -0.3160 -0.0237 -0.5890
 9243SOL    HW139188   0.931   2.060   7.993  0.0242 -0.1489 -1.4094
 9243SOL    HW239189   0.924   2.191   8.064 -1.6894 -0.3626 -1.4147
 9244SOL     OW39190   3.692   0.044  12.093 -0.0954  0.3973 -0.1839
 9244SOL    HW139191   3.645   0.006  12.168  1.1990 -1.6258 -0.3886
 9244SOL    HW239192   3.697   0.138  12.114 -0.7728  0.1353  1.1977
 9245SOL     OW39193   2.252   2.552   9.018  0.2833 -0.0856  0.2143
 9245SOL    HW139194   2.253   2.646   9.036 -2.5365  0.1793 -1.0674
 9245SOL    HW239195   2.202   2.517   9.091 -1.1159  3.0262  0.7517
 9246SOL     OW39196   2.274   1.052   7.356  0.3890 -0.1962 -0.6911
 9246SOL    HW139197   2.305   0.982   7.413 -0.9799 -0.3308 -0.1201
 9246SOL    HW239198   2.206   1.094   7.409  0.9090  0.3418 -0.4471
 9247SOL     OW39199   2.477   3.674   2.062  0.0139 -0.4706 -0.1346
 9247SOL    HW139200   2.542   3.615   2.101  0.6554 -0.2781 -0.9232
 9247SOL    HW239201   2.509   3.763   2.077 -0.6293 -0.3670  0.6510
 9248SOL     OW39202   1.811   4.713   0.591  0.1451  0.1283 -0.1581
 9248SOL    HW139203   1.824   0.009   0.683  0.6775  2.9458 -0.8722
 9248SOL    HW239204   1.897   4.684   0.560  0.0668 -0.9316  0.6437
 9249SOL     OW39205   2.098   1.953   9.474  0.0069  0.2587 -0.0928
 9249SOL    HW139206   2.020   1.990   9.516  0.0880 -0.9827  1.1244
 9249SOL    HW239207   2.166   1.982   9.534 -0.5151  1.5047 -0.0910
 9250SOL     OW39208   0.428   2.653   2.235  0.1101  0.2322  0.4143
 9250SOL    HW139209   0.491   2.718   2.203 -1.2860  1.0707 -0.6562
 9250SOL    HW239210   0.361   2.715   2.264 -0.6973 -0.3803 -0.1332
 9251SOL     OW39211   3.844   2.964   2.703  0.4142 -0.4330 -0.4825
 9251SOL    HW139212   3.884   2.878   2.689 -1.4416 -1.2297 -0.8342
 9251SOL    HW239213   3.752   2.940   2.691  0.9415 -2.4217 -0.6116
 9252SOL     OW39214   2.701   1.153  13.215  0.0500  0.5616 -0.5557
 9252SOL    HW139215   2.670   1.068  13.184 -1.7188  1.0196 -0.0606
 9252SOL    HW239216   2.703   1.206  13.135  1.6814  1.2564 -0.0486
 9253SOL     OW39217   2.924   3.795   7.465 -0.4388 -0.1914 -0.0999
 9253SOL    HW139218   2.935   3.767   7.556  1.6321 -2.4049 -1.0305
 9253SOL    HW239219   2.831   3.780   7.451 -0.4140 -1.7808  1.3921
 9254SOL     OW39220   3.943   2.314   9.575  0.2605  0.0830  0.1360
 9254SOL    HW139221   3.896   2.245   9.622  2.2433 -0.9790  0.5544
 9254SOL    HW239222   4.033   2.282   9.580 -0.1635 -0.8872  1.6443
 9255SOL     OW39223   1.832   0.248   0.250  0.5334  0.2247  0.1222
 9255SOL    HW139224   1.777   0.223   0.325 -1.8067  0.3855 -1.5406
 9255SOL    HW239225   1.796   0.337   0.241 -0.3433 -0.3867 -2.2498
 9256SOL     OW39226   0.554   0.955   7.485 -0.0130  0.5963  0.0322
 9256SOL    HW139227   0.624   0.900   7.520  1.6805  1.5618 -1.8319
 9256SOL    HW239228   0.480   0.933   7.542  0.1077 -2.7043 -1.0882
 9257SOL     OW39229   0.663   3.121   0.176  0.2897  0.1850  0.1620
 9257SOL    HW139230   0.618   3.184   0.232  1.7874  0.8556  0.6141
 9257SOL    HW239231   0.688   3.061   0.248  2.7449  1.9394  0.7815
 9258SOL     OW39232   0.238   3.828   7.320  0.4955 -0.4152  0.0442
 9258SOL    HW139233   0.171   3.800   7.258  0.4773 -1.4683  0.5523
 9258SOL    HW239234   0.255   3.919   7.296 -0.1159 -0.1879  0.4591
 9259SOL     OW39235   2.363   1.274   6.328  0.0407 -0.1744  0.1347
 9259SOL    HW139236   2.412   1.345   6.370 -3.7986  2.1735  0.6296
 9259SOL    HW239237   2.407   1.193   6.354  1.0303 -0.1851 -1.5786
 9260SOL     OW39238   3.049   3.853   3.817  0.1167  0.2151  0.1920
 9260SOL    HW139239   3.111   3.780   3.809  0.3092  0.3377  0.5465
 9260SOL    HW239240   3.108   3.914   3.773  0.6080 -0.7177 -0.4417
 9261SOL     OW39241   3.536   1.999   6.049 -0.8226  0.4985 -0.2714
 9261SOL    HW139242   3.548   2.033   6.137  0.4780 -0.4162 -0.0984
 9261SOL    HW239243   3.587   1.918   6.051  0.4299  1.4145  4.2772
 9262SOL     OW39244   1.693   3.855  15.919  0.7096 -0.3378 -0.0064
 9262SOL    HW139245   1.670   3.844  16.011 -0.8245 -0.3291 -0.3923
 9262SOL    HW239246   1.686   3.950  15.906 -1.8754 -0.3126  1.6716
 9263SOL     OW39247   1.276   1.356   6.710 -0.2013 -0.1392 -0.0837
 9263SOL    HW139248   1.228   1.399   6.639  2.2086  1.5523 -0.7025
 9263SOL    HW239249   1.342   1.309   6.659  1.1048 -0.3534  1.7994
 9264SOL     OW39250   3.077   2.859  14.786 -0.0576  0.3980  0.1904
 9264SOL    HW139251   3.000   2.819  14.746 -1.5170  0.8465  2.5036
 9264SOL    HW239252   3.149   2.839  14.726  0.3320 -1.2631  1.2159
 9265SOL     OW39253   3.253   3.080  14.849  0.0724  0.8251 -0.4150
 9265SOL    HW139254   3.169   3.039  14.831  1.1629 -2.3853  1.8687
 9265SOL    HW239255   3.234   3.133  14.927 -0.2581 -1.1005  0.8047
 9266SOL     OW39256   0.845   3.867   6.879  0.0482  0.3207 -0.0336
 9266SOL    HW139257   0.865   3.805   6.809 -0.1532 -2.1025  2.0462
 9266SOL    HW239258   0.879   3.952   6.850  2.0184  0.2154  1.9122
 9267SOL     OW39259   1.687   3.637   3.702 -0.3250  0.2960  0.3894
 9267SOL    HW139260   1.718   3.717   3.660 -0.7282  0.9932  1.4271
 9267SOL    HW239261   1.703   3.570   3.635 -1.7082 -1.6417  1.9894
 9268SOL     OW39262   0.643   4.638   8.790  0.2725  0.2720  0.8309
 9268SOL    HW139263   0.566   4.694   8.786 -0.9154 -1.6488 -4.2483
 9268SOL    HW239264   0.607   4.550   8.778  2.2599 -0.3562 -0.6484
 9269SOL     OW39265   0.670   3.332  17.051  0.3158 -0.2454  0.5958
 9269SOL    HW139266   0.576   3.321  17.063  0.1116  1.4771  0.5529
 9269SOL    HW239267   0.672   3.428  17.054 -0.0659 -0.2416  0.7180
 9270SOL     OW39268   0.615   0.127   2.459 -0.0862  0.0344  0.0190
 9270SOL    HW139269   0.656   0.212   2.475 -0.4122 -0.0104  1.1162
 9270SOL    HW239270   0.592   0.106   2.550  1.5390  3.6637  1.2809
 9271SOL     OW39271   0.901   2.121   1.450 -0.1302 -0.0697 -0.0036
 9271SOL    HW139272   0.806   2.124   1.463 -0.0009 -1.7382  1.3856
 9271SOL    HW239273   0.901   2.173   1.370 -3.1429  1.6748  1.1538
 9272SOL     OW39274   4.187   2.783   6.068 -0.5016 -0.7268 -0.4091
 9272SOL    HW139275   4.231   2.778   6.152  1.0056 -0.2347 -1.1797
 9272SOL    HW239276   4.252   2.750   6.006  0.9225  0.6891  0.3207
 9273SOL     OW39277   4.358   3.657  11.428  0.7185 -0.3096  0.4828
 9273SOL    HW139278   4.311   3.636  11.509 -2.5340  0.5107 -1.1708
 9273SOL    HW239279   4.363   3.748  11.455 -0.6517  0.0950 -0.6154
 9274SOL     OW39280   0.018   1.880   3.683  0.1345  0.3620 -0.0140
 9274SOL    HW139281   4.648   1.879   3.681  0.0928  0.5884  1.7047
 9274SOL    HW239282   0.033   1.802   3.737 -0.1821 -0.8984 -1.7764
 9275SOL     OW39283   2.927   2.524   7.754  0.3286 -0.5487 -0.1980
 9275SOL    HW139284   3.017   2.531   7.720  0.1088 -0.5165 -0.7829
 9275SOL    HW239285   2.884   2.450   7.712  0.7864 -1.0043  0.1291
 9276SOL     OW39286   0.103   1.748   4.131 -0.1387  0.1227 -0.1871
 9276SOL    HW139287   0.184   1.719   4.173 -0.4225  0.7608  0.7718
 9276SOL    HW239288   0.133   1.826   4.085  0.0163 -0.0128 -0.3135
 9277SOL     OW39289   1.033   3.018   5.012 -0.5446  0.0361 -0.2746
 9277SOL    HW139290   1.047   2.979   4.926 -2.1737 -0.1768 -0.4405
 9277SOL    HW239291   0.963   2.960   5.041  0.1396  0.0774  1.4746
 9278SOL     OW39292   0.752   0.856   7.164 -0.2089 -0.2711  0.2871
 9278SOL    HW139293   0.742   0.784   7.226 -1.5302 -0.3664 -0.0370
 9278SOL    HW239294   0.668   0.898   7.182  0.5354  1.3747 -0.0947
 9279SOL     OW39295   3.213   3.589   1.533 -0.2085  0.2131  0.1225
 9279SOL    HW139296   3.201   3.588   1.438  1.7123 -1.2634 -0.1039
 9279SOL    HW239297   3.190   3.497   1.550 -2.6853  1.3241  2.8123
 9280SOL     OW39298   4.053   1.918   5.300  0.2175 -0.1786  0.0388
 9280SOL    HW139299   4.006   1.838   5.320  1.1070 -0.7750 -0.2388
 9280SOL    HW239300   4.105   1.929   5.380  0.4640  1.0539 -0.2827
 9281SOL     OW39301   4.408   3.852   7.712  0.2044 -0.2281  0.4043
 9281SOL    HW139302   4.343   3.870   7.644 -0.3694  1.2823  1.3316
 9281SOL    HW239303   4.392   3.759   7.728  0.7194 -0.8178 -2.4972
 9282SOL     OW39304   3.667   3.147   6.573  0.6937  0.6570 -0.0279
 9282SOL    HW139305   3.622   3.212   6.627 -0.1084 -1.6976  2.1212
 9282SOL    HW239306   3.705   3.201   6.504  1.9229  0.0745  0.2014
 9283SOL     OW39307   0.098   3.108   4.963  0.3950 -0.4056  0.3718
 9283SOL    HW139308   0.048   3.167   4.905  0.5354 -0.5944  0.0588
 9283SOL    HW239309   0.023   3.056   4.992  1.0120 -1.7690 -0.4750
 9284SOL     OW39310   1.140   2.290   7.827  0.0886 -0.6321 -0.3358
 9284SOL    HW139311   1.065   2.263   7.879 -0.8744  0.0713 -1.3373
 9284SOL    HW239312   1.190   2.211   7.844 -1.1368 -1.0975  1.0387
 9285SOL     OW39313   2.157   0.454   6.509  0.3302  0.1307  0.1012
 9285SOL    HW139314   2.073   0.409   6.516  0.1373  0.6057  0.8490
 9285SOL    HW239315   2.181   0.451   6.416 -3.3837 -3.3729 -0.7545
 9286SOL     OW39316   2.552   1.243   0.437 -0.5008  0.9387 -0.2378
 9286SOL    HW139317   2.573   1.336   0.432 -1.2540  1.1841  1.5257
 9286SOL    HW239318   2.492   1.236   0.363 -1.5176  3.7218  0.3676
 9287SOL     OW39319   3.481   0.190   1.272  1.0781 -0.1892 -0.2938
 9287SOL    HW139320   3.398   0.217   1.233 -0.0204 -0.1232  2.0484
 9287SOL    HW239321   3.452   0.106   1.305 -1.9624  0.2692 -1.7859
 9288SOL     OW39322   4.466   4.252  12.596 -0.1995 -0.0576  0.4180
 9288SOL    HW139323   4.502   4.328  12.550  2.0308 -0.1219  2.0181
 9288SOL    HW239324   4.505   4.255  12.684  2.4953 -1.8148 -0.7375
 9289SOL     OW39325   3.033   0.693   0.732  0.0222 -0.8035  0.4273
 9289SOL    HW139326   2.947   0.731   0.748  1.3981  2.6339 -0.4716
 9289SOL    HW239327   3.021   0.604   0.699 -1.7851  0.4996 -2.4206
 9290SOL     OW39328   1.070   3.320   8.443 -0.1707 -0.5664 -0.1890
 9290SOL    HW139329   1.020   3.374   8.381 -0.0886 -0.8010 -0.4561
 9290SOL    HW239330   1.125   3.377   8.497  0.9748 -2.0516  0.2018
 9291SOL     OW39331   4.617   3.299   2.892 -0.6494 -0.3687  0.3666
 9291SOL    HW139332   4.599   3.330   2.980 -1.4966  0.8406 -0.2321
 9291SOL    HW239333   4.540   3.343   2.855 -1.7652 -2.2345  0.4387
 9292SOL     OW39334   3.976   1.479  12.317 -0.3336 -0.0842 -0.1183
 9292SOL    HW139335   4.028   1.559  12.319 -0.6607  0.1194  0.2138
 9292SOL    HW239336   4.044   1.419  12.286  1.9989  1.2780  2.3391
 9293SOL     OW39337   3.518   4.626   3.808  0.2306 -0.6151 -0.1720
 9293SOL    HW139338   3.581   4.566   3.848  3.6804  1.0131 -3.1612
 9293SOL    HW239339   3.441   4.591   3.853 -0.7399 -0.0985 -1.4451
 9294SOL     OW39340   0.793   0.049  13.988  0.2032 -0.1981  0.5604
 9294SOL    HW139341   0.806   0.096  13.906 -1.3152 -0.9540 -0.1007
 9294SOL    HW239342   0.852   0.097  14.046 -1.5256 -1.0260  3.0187
 9295SOL     OW39343   1.568   0.717   8.360  0.0342 -0.1232  0.6062
 9295SOL    HW139344   1.617   0.637   8.377 -0.0461 -0.5025 -1.0144
 9295SOL    HW239345   1.537   0.734   8.449 -1.4930  0.8989 -0.1244
 9296SOL     OW39346   2.512   0.311  14.964 -0.5517 -0.4643 -0.0136
 9296SOL    HW139347   2.588   0.340  14.913 -0.1820 -1.3673  0.0214
 9296SOL    HW239348   2.460   0.391  14.956  0.3005  0.1427  0.4709
 9297SOL     OW39349   0.124   0.214   6.907  0.8722 -0.2023  0.2972
 9297SOL    HW139350   0.108   0.122   6.929  1.0472  0.2335  2.1823
 9297SOL    HW239351   0.053   0.260   6.951 -0.5702 -1.8589 -0.2820
 9298SOL     OW39352   0.355   2.774  14.725  0.0539 -0.4666 -0.4107
 9298SOL    HW139353   0.383   2.683  14.730  0.5588 -0.3368 -0.7482
 9298SOL    HW239354   0.417   2.812  14.787 -1.0791 -0.1820  0.5268
 9299SOL     OW39355   1.338   3.391   9.568 -0.2881  0.2430  0.1132
 9299SOL    HW139356   1.335   3.304   9.610 -1.8289  0.3596  0.2482
 9299SOL    HW239357   1.244   3.408   9.574 -0.2725  0.6223 -0.7391
 9300SOL     OW39358   0.872   1.392   1.369 -0.1152 -0.0860  0.4944
 9300SOL    HW139359   0.791   1.349   1.397 -0.9735  1.0589 -0.2068
 9300SOL    HW239360   0.854   1.472   1.419 -1.8582 -0.4683  0.4879
 9301SOL     OW39361   1.553   2.364   1.335 -0.3755 -0.0102  0.3930
 9301SOL    HW139362   1.476   2.352   1.391  1.6089 -2.6836  2.5411
 9301SOL    HW239363   1.565   2.458   1.345 -3.2816  0.2597  1.5235
 9302SOL     OW39364   4.371   1.319   7.153 -0.1380  0.6853 -0.1663
 9302SOL    HW139365   4.321   1.246   7.116 -0.9082 -0.1649  2.5640
 9302SOL    HW239366   4.457   1.281   7.173 -0.0496  0.9698 -0.0010
 9303SOL     OW39367   3.588   3.208   9.307 -0.3688  0.1691  0.3207
 9303SOL    HW139368   3.520   3.185   9.371 -0.0914 -0.2806  0.4590
 9303SOL    HW239369   3.612   3.120   9.278 -0.0839 -0.0067  1.0815
 9304SOL     OW39370   1.340   1.143   4.384  0.2671  0.3236  0.2689
 9304SOL    HW139371   1.322   1.066   4.330 -0.1728 -0.5201  1.6135
 9304SOL    HW239372   1.373   1.207   4.321 -1.1433  0.8516  0.0625
 9305SOL     OW39373   2.694   0.024   8.468  0.0530 -0.1757 -0.1581
 9305SOL    HW139374   2.758   0.051   8.534  0.0863  1.0194 -0.6686
 9305SOL    HW239375   2.735   0.065   8.392  0.0507  2.0318  1.0125
 9306SOL     OW39376   0.470   2.537  13.950  0.4329 -0.0441  0.4821
 9306SOL    HW139377   0.409   2.589  14.002  0.5679 -0.4537  1.0651
 9306SOL    HW239378   0.440   2.446  13.941  0.2233  0.1229 -0.4532
 9307SOL     OW39379   2.169   4.286   9.764  0.2450  0.5615 -0.6697
 9307SOL    HW139380   2.084   4.251   9.792  0.5760  0.1376 -0.1934
 9307SOL    HW239381   2.185   4.245   9.680 -3.2417  2.6332 -2.3409
 9308SOL     OW39382   2.340   2.625   8.157  1.1116 -0.2539  0.1767
 9308SOL    HW139383   2.397   2.566   8.108 -0.8908 -1.3684 -0.8335
 9308SOL    HW239384   2.293   2.661   8.082 -2.4768 -1.4588  1.8206
 9309SOL     OW39385   1.954   4.233   2.874  0.1605  0.2296  0.3391
 9309SOL    HW139386   2.033   4.275   2.838 -0.4239  0.1597 -1.0487
 9309SOL    HW239387   1.998   4.173   2.934  2.1936 -0.3068 -1.6600
 9310SOL     OW39388   0.401   3.941  14.126  0.2287 -0.1360 -0.8904
 9310SOL    HW139389   0.477   3.952  14.183  1.0295  1.5300 -2.2703
 9310SOL    HW239390   0.339   4.006  14.160  0.8304  0.3947 -0.8191
 9311SOL     OW39391   3.554   2.251  13.917 -0.3593 -0.1880  0.1074
 9311SOL    HW139392   3.649   2.263  13.924 -0.9051  2.3148  2.9395
 9311SOL    HW239393   3.524   2.232  14.006  1.4399 -2.4418  0.2310
 9312SOL     OW39394   1.781   4.300   4.965  0.0841  0.5560 -0.0586
 9312SOL    HW139395   1.775   4.388   4.928 -1.6090 -0.1486 -1.4558
 9312SOL    HW239396   1.774   4.247   4.885 -1.0230 -1.5130  1.4154
 9313SOL     OW39397   3.407   3.333   3.684  0.4076  0.8126  0.3310
 9313SOL    HW139398   3.414   3.240   3.663 -0.3204  0.6510  0.7894
 9313SOL    HW239399   3.320   3.362   3.657  1.4828  1.2021 -2.7129
 9314SOL     OW39400   4.635   2.433  12.779 -0.0672 -0.5869 -0.0560
 9314SOL    HW139401   4.692   2.360  12.802 -1.1385 -1.2695  0.4045
 9314SOL    HW239402   4.590   2.390  12.706  1.3716 -0.5370 -0.9819
 9315SOL     OW39403   1.247   1.434   2.635 -0.2824 -0.5203  0.6598
 9315SOL    HW139404   1.205   1.358   2.675 -0.5836  0.8668  2.9500
 9315SOL    HW239405   1.301   1.460   2.709  0.8157 -2.9611  0.7369
 9316SOL     OW39406   1.016   1.828   9.284 -0.1385  0.6336 -0.6406
 9316SOL    HW139407   1.092   1.846   9.339 -0.8544  1.2673  0.1467
 9316SOL    HW239408   0.948   1.872   9.335  0.5953  1.9062 -0.7687
 9317SOL     OW39409   1.088   4.027   7.182  0.1165  0.2896 -0.4908
 9317SOL    HW139410   1.174   3.995   7.154 -0.0677 -1.7135  1.1819
 9317SOL    HW239411   1.107   4.038   7.275 -1.0510  1.0617 -0.3499
 9318SOL     OW39412   2.811   4.474   7.510  0.0058 -0.2327 -0.3007
 9318SOL    HW139413   2.832   4.535   7.580 -3.0506 -1.2853  1.5292
 9318SOL    HW239414   2.886   4.498   7.455  0.3613  1.1784  0.8059
 9319SOL     OW39415   0.570   3.229   6.494  0.3452 -0.0530 -0.0102
 9319SOL    HW139416   0.637   3.296   6.507  1.2569 -0.8937 -0.4634
 9319SOL    HW239417   0.485   3.274   6.492 -0.0063 -0.6905  0.5920
 9320SOL     OW39418   1.395   3.073   3.158 -0.6462 -0.1674 -0.2348
 9320SOL    HW139419   1.462   3.138   3.139 -0.5393 -0.5930 -1.3052
 9320SOL    HW239420   1.320   3.110   3.111 -2.0627 -0.3146  1.8712
 9321SOL     OW39421   3.339   2.653   5.164 -0.0056 -0.0241  0.2698
 9321SOL    HW139422   3.414   2.711   5.152  0.7635 -0.5566  2.5048
 9321SOL    HW239423   3.273   2.719   5.187 -2.3183 -1.8691 -1.0491
 9322SOL     OW39424   2.078   2.551   8.712  0.1795 -0.1964  0.2899
 9322SOL    HW139425   2.144   2.498   8.667  1.7528  0.7953  1.4189
 9322SOL    HW239426   2.133   2.590   8.780 -0.7063 -0.5448  1.1980
 9323SOL     OW39427   0.792   4.587   4.577  0.4525 -0.1563  0.1159
 9323SOL    HW139428   0.818   4.573   4.485 -0.7180  0.7707 -0.3607
 9323SOL    HW239429   0.832   4.516   4.627 -0.5057 -1.7235 -1.3522
 9324SOL     OW39430   1.922   0.231   6.611  0.2425 -0.4955  0.5578
 9324SOL    HW139431   1.949   0.192   6.694  1.6233 -0.6448  0.0521
 9324SOL    HW239432   1.829   0.207   6.612  0.7884 -2.5920  1.5682
 9325SOL     OW39433   3.724   4.180   5.596  0.0085  0.5488 -0.4733
 9325SOL    HW139434   3.751   4.236   5.669 -1.9426  1.2059 -0.2609
 9325SOL    HW239435   3.766   4.209   5.514  0.4566  1.0332 -0.0740
 9326SOL     OW39436   3.921   1.904   6.298 -0.0962  0.7058 -0.1935
 9326SOL    HW139437   4.006   1.947   6.295  0.2942 -0.1954 -2.1483
 9326SOL    HW239438   3.872   1.978   6.334 -0.2550  0.6081 -0.2085
 9327SOL     OW39439   3.186   3.440  10.324 -0.1845 -0.0370 -0.1039
 9327SOL    HW139440   3.169   3.438  10.230 -0.7936  0.4610 -0.0037
 9327SOL    HW239441   3.256   3.377  10.340 -1.3094 -1.1529  0.3878
 9328SOL     OW39442   3.298   3.083   4.122  0.1655  0.4030 -0.1226
 9328SOL    HW139443   3.357   3.009   4.108 -0.6248  0.1042 -1.9844
 9328SOL    HW239444   3.337   3.108   4.205  1.7327 -3.2540  0.2699
 9329SOL     OW39445   2.586   2.677   4.005  0.7163 -0.2999  0.4206
 9329SOL    HW139446   2.516   2.613   4.017 -0.7216  1.3837  0.9318
 9329SOL    HW239447   2.629   2.673   4.090 -2.0288  1.6571  1.8782
 9330SOL     OW39448   1.650   0.374   5.830  0.7130 -0.1339  0.6254
 9330SOL    HW139449   1.560   0.358   5.803  0.9935 -0.7536  0.0678
 9330SOL    HW239450   1.633   0.461   5.866 -1.9948  0.6028 -2.4391
 9331SOL     OW39451   3.425   4.451  12.747  0.2397  0.5623 -0.2450
 9331SOL    HW139452   3.349   4.462  12.804 -0.4048 -0.7566 -0.8312
 9331SOL    HW239453   3.396   4.452  12.656  0.1294  2.4379 -0.1784
 9332SOL     OW39454   2.449   3.557   7.300 -0.5266  0.4596 -0.4000
 9332SOL    HW139455   2.541   3.535   7.289 -0.5999  0.1632 -0.4015
 9332SOL    HW239456   2.418   3.475   7.339  0.0146  0.6276  0.3778
 9333SOL     OW39457   0.479   2.589   9.464  0.1329 -0.4786  0.3050
 9333SOL    HW139458   0.472   2.663   9.404 -0.5327 -1.1590 -0.4663
 9333SOL    HW239459   0.453   2.630   9.547 -2.0464  0.8459 -1.0328
 9334SOL     OW39460   0.390   0.739   8.649  0.0125  0.2138 -0.8725
 9334SOL    HW139461   0.475   0.776   8.673 -0.1463  1.8005 -2.7142
 9334SOL    HW239462   0.370   0.694   8.731  2.2811  1.3242  0.2765
 9335SOL     OW39463   4.110   3.269   9.029 -0.2093  0.2229  0.1492
 9335SOL    HW139464   4.068   3.355   9.029  1.0999  0.8466  3.1966
 9335SOL    HW239465   4.028   3.222   9.045  0.0473  0.3468  1.8309
 9336SOL     OW39466   4.418   1.461   4.660  0.0682 -0.0671  0.4292
 9336SOL    HW139467   4.429   1.527   4.728  0.9570  0.2057  0.0220
 9336SOL    HW239468   4.477   1.389   4.682  0.3731  0.0631  0.0326
 9337SOL     OW39469   1.513   4.681   0.231 -0.4784  0.4310 -0.0611
 9337SOL    HW139470   1.603   4.689   0.262 -0.0804 -2.1286 -0.5593
 9337SOL    HW239471   1.530   4.718   0.144  0.7152  1.0207  0.4142
 9338SOL     OW39472   1.736   1.756   2.583 -0.1083 -0.0590  0.1036
 9338SOL    HW139473   1.650   1.761   2.540 -0.1282  2.7608  0.4862
 9338SOL    HW239474   1.731   1.828   2.645 -2.2950 -0.8040  0.7852
 9339SOL     OW39475   3.822   4.183  10.945 -0.6396 -0.0378 -0.4304
 9339SOL    HW139476   3.867   4.204  11.026 -0.7525  1.2060 -0.6792
 9339SOL    HW239477   3.811   4.089  10.959 -2.1408 -0.1072 -1.9911
 9340SOL     OW39478   4.688   2.621   6.169  0.4583 -0.0276 -0.2956
 9340SOL    HW139479   4.632   2.663   6.235  0.4213 -3.4276  1.8422
 9340SOL    HW239480   4.684   2.691   6.104 -0.1678 -0.1525 -0.3933
 9341SOL     OW39481   0.268   0.821   9.189  0.1161 -0.2252 -0.1259
 9341SOL    HW139482   0.363   0.821   9.203  0.3752 -1.9742 -1.8835
 9341SOL    HW239483   0.245   0.894   9.131 -0.5703 -0.5308 -0.2400
 9342SOL     OW39484   0.830   3.734   5.039 -0.5142  0.1978 -0.4955
 9342SOL    HW139485   0.807   3.654   4.991  0.0706 -0.6045  0.5548
 9342SOL    HW239486   0.924   3.718   5.052 -0.3847  1.0228 -0.4010
 9343SOL     OW39487   3.202   3.484   4.566 -0.1001  0.6095 -0.6269
 9343SOL    HW139488   3.140   3.422   4.606 -2.3518  1.8625 -2.1336
 9343SOL    HW239489   3.217   3.457   4.475 -0.2575  1.7580 -0.9952
 9344SOL     OW39490   3.817   1.080  10.021 -0.2409  0.3742 -0.3977
 9344SOL    HW139491   3.808   0.985  10.030 -0.5189  0.3964 -0.4370
 9344SOL    HW239492   3.892   1.097  10.078  1.5825  2.0408 -3.2494
 9345SOL     OW39493   2.114   2.398   7.764 -0.3679 -0.2629 -0.1760
 9345SOL    HW139494   2.075   2.317   7.731  1.6717 -1.7146  1.0625
 9345SOL    HW239495   2.183   2.354   7.813 -1.8982 -0.9996  1.3146
 9346SOL     OW39496   1.074   2.089   6.843  0.4266  0.2084  0.1327
 9346SOL    HW139497   1.078   2.017   6.906  0.6337 -1.3325 -1.6458
 9346SOL    HW239498   1.119   2.160   6.888  0.9310  2.2176 -3.5079
 9347SOL     OW39499   2.166   0.246   8.038  0.3486  0.9026  0.0487
 9347SOL    HW139500   2.211   0.263   7.955 -1.2961 -0.2856 -1.0984
 9347SOL    HW239501   2.156   0.150   8.039  0.0461  0.9226 -0.8197
 9348SOL     OW39502   4.256   0.980  10.567 -0.1622 -0.0429 -0.3207
 9348SOL    HW139503   4.309   1.030  10.628 -0.8509 -0.8282  0.9047
 9348SOL    HW239504   4.264   1.027  10.484  1.6381  0.6040  0.2356
 9349SOL     OW39505   3.044   2.833   2.584 -0.0514 -0.1848  0.6644
 9349SOL    HW139506   2.969   2.776   2.568 -1.1595  1.2838  0.6332
 9349SOL    HW239507   3.119   2.778   2.562  0.2992  0.2695  0.7223
 9350SOL     OW39508   0.798   4.446  10.134 -0.0596  0.2409  0.0034
 9350SOL    HW139509   0.711   4.485  10.138  0.2656  0.9238  0.4800
 9350SOL    HW239510   0.798   4.401  10.218 -1.6495  0.3704  0.0809
 9351SOL     OW39511   3.642   0.252   2.338  0.2848  0.3164 -0.0567
 9351SOL    HW139512   3.665   0.159   2.330  1.2606  0.5964 -0.5797
 9351SOL    HW239513   3.631   0.255   2.433  3.4526 -1.1070  0.3713
 9352SOL     OW39514   4.029   3.730   7.054 -0.6456  0.5979  0.0985
 9352SOL    HW139515   4.019   3.730   6.958  1.2569  0.6146 -0.1087
 9352SOL    HW239516   3.961   3.790   7.083 -0.1232  0.4051  1.6816
 9353SOL     OW39517   2.732   4.596   9.374 -0.1880  0.6573  0.4220
 9353SOL    HW139518   2.787   4.610   9.451  1.7710 -1.0104 -0.6721
 9353SOL    HW239519   2.670   4.532   9.407  1.9845 -2.2017 -1.0812
 9354SOL     OW39520   0.204   0.608  13.982  0.7379 -0.0336  0.6506
 9354SOL    HW139521   0.152   0.584  14.059 -0.4667 -2.1513 -0.8057
 9354SOL    HW239522   0.289   0.567  13.999  0.5785 -1.4023 -1.8256
 9355SOL     OW39523   4.153   2.951   6.429  0.6795  0.0931  0.8631
 9355SOL    HW139524   4.243   2.935   6.400  0.2471 -3.6947  1.5991
 9355SOL    HW239525   4.126   2.861   6.407  0.6286  0.3517 -0.1161
 9356SOL     OW39526   2.591   3.484   5.056  0.7910  0.5197 -0.4860
 9356SOL    HW139527   2.592   3.569   5.100 -0.5107  0.8568 -1.1340
 9356SOL    HW239528   2.598   3.425   5.132 -0.2824 -0.5227 -1.1999
 9357SOL     OW39529   4.679   1.836   8.919  0.3763  0.7581  0.5239
 9357SOL    HW139530   4.593   1.879   8.917  0.0643  0.0695 -0.7004
 9357SOL    HW239531   4.695   1.845   9.013  1.1844  1.6819  0.3017
 9358SOL     OW39532   3.555   1.789   5.153  0.3172  0.3812 -0.2366
 9358SOL    HW139533   3.648   1.792   5.128 -0.0131 -0.7097 -1.5865
 9358SOL    HW239534   3.529   1.870   5.110  0.8443  0.8155  0.2461
 9359SOL     OW39535   2.515   0.399   8.130  0.2416  0.3231 -0.5222
 9359SOL    HW139536   2.544   0.415   8.220 -1.4888  0.6471 -0.0261
 9359SOL    HW239537   2.454   0.329   8.151  1.5818 -0.2637  1.4361
 9360SOL     OW39538   2.720   3.152   3.928  0.4497  0.3074  0.3199
 9360SOL    HW139539   2.706   3.060   3.903  0.6087  0.2626  0.3931
 9360SOL    HW239540   2.656   3.177   3.994 -1.4837 -0.7562 -1.1464
 9361SOL     OW39541   0.818   3.739   5.391 -0.2283  0.2364 -0.0061
 9361SOL    HW139542   0.807   3.685   5.469  1.9224  0.9398  0.7824
 9361SOL    HW239543   0.881   3.686   5.342  0.6806 -1.6717  3.2849
 9362SOL     OW39544   4.120   3.161  15.060  0.4056  0.2555 -0.6788
 9362SOL    HW139545   4.174   3.153  14.981 -1.2688 -0.3542 -1.7576
 9362SOL    HW239546   4.125   3.256  15.072 -0.5635  0.3249 -0.8392
 9363SOL     OW39547   2.339   4.101  12.737 -0.7938 -0.1840 -0.3520
 9363SOL    HW139548   2.348   4.109  12.832 -0.5694  0.3401 -0.4178
 9363SOL    HW239549   2.408   4.162  12.712 -0.5911 -0.3637 -0.2301
 9364SOL     OW39550   3.327   1.289  15.120 -0.3222 -0.5037  0.5413
 9364SOL    HW139551   3.363   1.373  15.089  1.0733 -0.8046  1.3941
 9364SOL    HW239552   3.245   1.324  15.155 -0.7908 -2.2668  1.2018
 9365SOL     OW39553   4.670   2.632   7.275  0.1525 -0.1080 -0.5236
 9365SOL    HW139554   4.576   2.623   7.290  0.2751  1.5229  1.2999
 9365SOL    HW239555   4.678   2.591   7.190 -1.5817 -1.9552  0.2022
 9366SOL     OW39556   3.330   4.149   7.480 -0.3374 -0.2926 -0.0284
 9366SOL    HW139557   3.237   4.166   7.493 -0.3578  0.8647 -1.6048
 9366SOL    HW239558   3.371   4.214   7.537 -1.8633  0.3759  0.3035
 9367SOL     OW39559   1.763   1.162   1.827  0.1426 -0.2382 -0.2680
 9367SOL    HW139560   1.700   1.091   1.821 -0.2696  0.2059 -1.0853
 9367SOL    HW239561   1.790   1.168   1.736 -2.6693 -3.0962 -1.2382
 9368SOL     OW39562   0.682   0.307   5.640  0.0811  1.0813  0.4432
 9368SOL    HW139563   0.764   0.298   5.592 -0.7876  0.1830 -0.8474
 9368SOL    HW239564   0.663   0.399   5.619  0.4374  0.8672 -0.8157
 9369SOL     OW39565   1.604   2.165   3.868  0.0167 -0.3389 -0.3076
 9369SOL    HW139566   1.661   2.210   3.929  1.4950  0.5739 -2.3661
 9369SOL    HW239567   1.680   2.118   3.832  3.2826  4.6505  0.1056
 9370SOL     OW39568   2.164   3.747   3.407  0.1430 -0.1730  0.5022
 9370SOL    HW139569   2.235   3.733   3.469  1.2825  1.9379 -0.3342
 9370SOL    HW239570   2.211   3.760   3.324  0.0828  0.6440  0.6029
 9371SOL     OW39571   3.506   1.401  14.395 -0.4617  0.3900 -0.3551
 9371SOL    HW139572   3.473   1.312  14.385 -0.0475  0.2289 -0.2671
 9371SOL    HW239573   3.429   1.444  14.357 -0.1053  0.7190 -0.6883
 9372SOL     OW39574   2.493   3.257   4.074  0.4943 -0.2795  0.5237
 9372SOL    HW139575   2.524   3.322   4.011  0.4893 -0.4259  0.3715
 9372SOL    HW239576   2.413   3.301   4.101 -0.0901 -0.9829 -0.0711
 9373SOL     OW39577   0.887   0.431   4.359 -0.6279 -0.3348 -0.4663
 9373SOL    HW139578   0.961   0.407   4.414 -0.6275  0.0829 -0.2803
 9373SOL    HW239579   0.923   0.427   4.270 -1.8980 -3.6618 -0.7948
 9374SOL     OW39580   2.359   3.645   4.610  0.6430  0.2591 -0.5964
 9374SOL    HW139581   2.424   3.688   4.554  0.3017 -1.3613 -2.2547
 9374SOL    HW239582   2.406   3.562   4.624 -2.5559 -1.9445 -3.0415
 9375SOL     OW39583   3.255   4.635   2.989  0.0927 -0.1731 -0.9627
 9375SOL    HW139584   3.261   4.635   2.894 -1.2435 -1.1423 -1.0477
 9375SOL    HW239585   3.201   4.712   3.004 -0.3344 -0.5683 -0.4610
 9376SOL     OW39586   3.598   1.820   7.250  0.4236 -0.9032  0.3449
 9376SOL    HW139587   3.595   1.864   7.165  0.0692 -0.5290  0.5519
 9376SOL    HW239588   3.553   1.887   7.301 -1.8796 -1.5799 -0.7850
 9377SOL     OW39589   0.697   2.733   6.738 -0.2549  0.1471  0.1552
 9377SOL    HW139590   0.728   2.752   6.826 -0.0675 -0.5935  0.2456
 9377SOL    HW239591   0.648   2.813   6.718  0.1285 -0.5008 -3.5103
 9378SOL     OW39592   4.483   3.628   8.330 -0.4940  0.4826  0.0536
 9378SOL    HW139593   4.545   3.689   8.371  1.0673 -0.2078 -1.2688
 9378SOL    HW239594   4.415   3.641   8.396  0.3638 -0.1554  1.0782
 9379SOL     OW39595   3.173   3.917  14.579 -0.1994  0.2569 -0.0000
 9379SOL    HW139596   3.224   3.887  14.654 -1.7266 -2.2959  0.0160
 9379SOL    HW239597   3.237   3.928  14.509  3.1446  1.4170  3.2343
 9380SOL     OW39598   2.180   0.229   2.883  0.5122 -0.5860  0.0508
 9380SOL    HW139599   2.122   0.248   2.809  0.6162 -1.3542 -0.2306
 9380SOL    HW239600   2.237   0.306   2.881  1.1803 -1.1054 -1.2456
 9381SOL     OW39601   3.791   3.231   1.494 -0.3740  0.4218 -0.1187
 9381SOL    HW139602   3.809   3.261   1.584 -1.0908  1.5243 -0.3359
 9381SOL    HW239603   3.774   3.312   1.445  0.0538 -0.2289 -1.3422
 9382SOL     OW39604   4.059   0.844   0.311  0.6644  0.3042  0.4003
 9382SOL    HW139605   3.982   0.796   0.279  0.7365  0.2959  0.2398
 9382SOL    HW239606   4.034   0.840   0.404  0.1742  1.2269  0.3096
 9383SOL     OW39607   0.033   2.207   2.706  0.1006 -0.4747 -0.4535
 9383SOL    HW139608   4.681   2.150   2.707 -0.9599  0.9125 -1.5165
 9383SOL    HW239609   0.063   2.200   2.616  0.5804  1.0212 -0.4112
 9384SOL     OW39610   1.671   4.315   8.529  0.0562 -0.1378 -0.0428
 9384SOL    HW139611   1.673   4.364   8.447  0.4835  1.5465  0.9709
 9384SOL    HW239612   1.698   4.227   8.504  1.4559  0.3587 -0.2493
 9385SOL     OW39613   3.635   3.965  15.123  0.2507  0.1253 -0.6280
 9385SOL    HW139614   3.551   3.968  15.078  1.0996 -0.0427 -2.2245
 9385SOL    HW239615   3.671   4.053  15.116  0.5965  0.1280  1.1119
 9386SOL     OW39616   2.818   0.882   8.691  0.3758 -0.2500  0.0668
 9386SOL    HW139617   2.865   0.949   8.641  0.3990  0.7202  1.4005
 9386SOL    HW239618   2.726   0.903   8.675 -0.2037 -1.7576  1.4507
 9387SOL     OW39619   1.661   0.327   8.979 -0.9184  0.2948  0.0005
 9387SOL    HW139620   1.683   0.297   9.067  0.1614 -2.8642 -1.3244
 9387SOL    HW239621   1.673   0.252   8.921 -0.7596 -0.4846  1.0515
 9388SOL     OW39622   4.718   2.193   8.858 -0.1343 -0.5501  0.4026
 9388SOL    HW139623   0.015   2.204   8.951  2.3128 -0.3293 -0.2266
 9388SOL    HW239624   4.625   2.210   8.875 -0.5532 -1.9292 -0.4519
 9389SOL     OW39625   2.856   1.579   1.805 -0.5356 -0.4919  0.4197
 9389SOL    HW139626   2.937   1.550   1.762 -0.2840  0.8687 -0.0282
 9389SOL    HW239627   2.787   1.557   1.743 -0.5874 -0.1577  0.3579
 9390SOL     OW39628   1.651   1.547   3.503  0.3855 -0.2910  0.3542
 9390SOL    HW139629   1.585   1.559   3.570  1.5788 -1.3671  1.7294
 9390SOL    HW239630   1.661   1.452   3.509 -1.1080 -0.4688 -0.0160
 9391SOL     OW39631   0.190   1.034   9.027 -0.2676  0.3669 -0.8795
 9391SOL    HW139632   0.179   1.040   8.932  0.0510 -0.9142 -0.9919
 9391SOL    HW239633   0.111   1.086   9.044  1.1781  2.0823  0.5053
 9392SOL     OW39634   3.080   2.088   5.757  0.2820  0.3110 -0.3421
 9392SOL    HW139635   3.142   2.154   5.727  1.9606 -0.4128  1.5984
 9392SOL    HW239636   3.099   2.013   5.702  2.3234  0.0481  0.7386
 9393SOL     OW39637   0.741   4.008   5.501 -0.1268 -0.4377 -0.7635
 9393SOL    HW139638   0.709   4.005   5.591 -0.4529 -1.0137 -0.8997
 9393SOL    HW239639   0.726   3.917   5.474  1.4235 -0.5056 -1.3848
 9394SOL     OW39640   2.100   2.245   9.746  0.3607  0.4041  0.6116
 9394SOL    HW139641   2.178   2.193   9.766  0.0452 -0.2690  0.0698
 9394SOL    HW239642   2.133   2.335   9.753 -0.4819  0.7871 -0.3491
 9395SOL     OW39643   3.401   2.245  14.172 -0.1253  0.1794 -0.2605
 9395SOL    HW139644   3.456   2.236  14.251  1.0892  2.3874 -0.8418
 9395SOL    HW239645   3.363   2.332  14.185 -1.2556 -0.0014 -2.5644
 9396SOL     OW39646   4.335   3.842   3.315  0.0820  0.0260  0.2440
 9396SOL    HW139647   4.387   3.914   3.352 -0.1466  0.5252 -0.4052
 9396SOL    HW239648   4.249   3.859   3.353 -0.3077 -1.7471  0.1558
 9397SOL     OW39649   2.926   2.754   8.960  0.5915  0.0805  0.1365
 9397SOL    HW139650   2.926   2.658   8.952  3.2820  0.0471  0.5810
 9397SOL    HW239651   2.887   2.771   8.874  0.4110 -0.3568  0.1300
 9398SOL     OW39652   0.195   2.869   9.988 -0.0705 -0.3779  0.5612
 9398SOL    HW139653   0.162   2.869  10.077  0.6539  0.9014  0.8304
 9398SOL    HW239654   0.114   2.899   9.948  1.0225  1.8025  0.0207
 9399SOL     OW39655   0.799   0.887   7.883  0.2996  0.5863  0.9625
 9399SOL    HW139656   0.787   0.968   7.933 -1.7137  1.1246 -0.3766
 9399SOL    HW239657   0.875   0.848   7.925  0.8498  0.5305 -0.0935
 9400SOL     OW39658   3.455   3.363   1.196  0.0187 -0.0497  0.1134
 9400SOL    HW139659   3.426   3.284   1.242  0.4208  0.0334  0.5065
 9400SOL    HW239660   3.444   3.322   1.110 -2.4440  1.0314 -0.0696
 9401SOL     OW39661   3.231   3.192   2.068  0.0758  0.4202 -0.9110
 9401SOL    HW139662   3.250   3.249   2.143  2.5985  0.1214 -1.3282
 9401SOL    HW239663   3.204   3.114   2.116  0.8398 -0.1811 -1.4574
 9402SOL     OW39664   2.057   2.016   5.730  0.2713 -0.4131 -0.1925
 9402SOL    HW139665   1.963   2.006   5.739  0.2945  0.1131  0.6805
 9402SOL    HW239666   2.062   2.065   5.647 -1.1499  2.0483  1.1516
 9403SOL     OW39667   2.532   0.140  14.406  0.6258 -0.2893 -0.1701
 9403SOL    HW139668   2.543   0.175  14.495  0.9137 -1.0895  0.1121
 9403SOL    HW239669   2.446   0.099  14.416 -0.1996  1.1571 -1.3837
 9404SOL     OW39670   0.934   1.148   7.777  0.4833  0.5360  0.1161
 9404SOL    HW139671   0.885   1.142   7.859  2.5308 -0.6720  1.2507
 9404SOL    HW239672   1.006   1.086   7.787  0.0881  0.0709  0.0648
 9405SOL     OW39673   3.256   2.682   2.204  1.0357  0.0587 -0.5511
 9405SOL    HW139674   3.191   2.697   2.135  0.6516 -1.2362 -0.4832
 9405SOL    HW239675   3.327   2.730   2.162  1.5473  0.2164  0.5081
 9406SOL     OW39676   4.339   3.039  12.948  0.1923  0.7267 -0.6062
 9406SOL    HW139677   4.406   2.991  12.900 -0.7863  1.3809 -2.6392
 9406SOL    HW239678   4.299   2.966  12.995  2.6234 -0.2074 -0.0247
 9407SOL     OW39679   4.305   2.934  17.557  0.0079  0.5975  0.3855
 9407SOL    HW139680   4.400   2.941  17.566 -0.0395  1.7400 -0.0107
 9407SOL    HW239681   4.271   3.007  17.608  1.0810  0.9303  0.6272
 9408SOL     OW39682   4.639   1.270   7.169 -0.2327 -0.2112 -0.0359
 9408SOL    HW139683   4.678   1.280   7.256  0.7090  0.9216 -0.5772
 9408SOL    HW239684   4.675   1.347   7.124 -2.9747  1.9365  1.4508
 9409SOL     OW39685   0.851   3.362   5.169 -0.2654 -0.3434  0.0961
 9409SOL    HW139686   0.822   3.297   5.233 -0.5818  1.7672  2.0916
 9409SOL    HW239687   0.940   3.336   5.144  0.6886  1.5988  1.3822
 9410SOL     OW39688   3.962   2.897   8.356  0.6696  0.2360  0.1322
 9410SOL    HW139689   4.005   2.895   8.441 -0.4114  1.3810  0.7047
 9410SOL    HW239690   4.039   2.895   8.299  0.8934 -1.7410  0.5054
 9411SOL     OW39691   2.996   3.845   5.720 -0.1496  0.4632  0.1582
 9411SOL    HW139692   3.008   3.932   5.682  2.2984  0.5951  1.2228
 9411SOL    HW239693   3.082   3.812   5.692 -0.2975 -0.5681  0.9379
 9412SOL     OW39694   0.828   3.385  15.316 -0.4231  0.7130 -0.0027
 9412SOL    HW139695   0.795   3.307  15.273 -0.4066  0.4572  0.4389
 9412SOL    HW239696   0.746   3.423  15.347 -2.0307 -2.8753  0.1694
 9413SOL     OW39697   2.426   2.825   4.355 -0.4059  0.1422 -0.0344
 9413SOL    HW139698   2.358   2.784   4.300 -0.4039  1.8342 -1.2897
 9413SOL    HW239699   2.450   2.892   4.291  1.9032 -0.2882  0.4074
 9414SOL     OW39700   2.442   3.000   2.429  0.2247  0.7967  0.2441
 9414SOL    HW139701   2.533   3.016   2.402  0.8465 -1.1233  1.1830
 9414SOL    HW239702   2.422   2.919   2.381 -1.9515  2.2890 -1.3628
 9415SOL     OW39703   0.470   1.719   3.119 -0.3070 -0.7353 -0.0051
 9415SOL    HW139704   0.535   1.726   3.189 -1.2937 -1.6821  1.0004
 9415SOL    HW239705   0.488   1.793   3.060  0.2722  1.2545  2.6482
 9416SOL     OW39706   1.912   3.879   8.634 -0.0355  0.2949  0.6881
 9416SOL    HW139707   1.861   3.808   8.595 -0.2821  0.2913  1.0196
 9416SOL    HW239708   1.988   3.884   8.576  0.7414 -2.3168  1.4724
 9417SOL     OW39709   0.612   4.438  10.449 -0.2343 -0.0687  0.2541
 9417SOL    HW139710   0.528   4.454  10.407 -0.9196 -2.8752  0.5778
 9417SOL    HW239711   0.653   4.370  10.396 -1.8393  0.0840 -1.1879
 9418SOL     OW39712   2.200   4.532  11.861  0.0508  0.0890 -0.0010
 9418SOL    HW139713   2.115   4.489  11.869 -0.2187  0.4110 -1.1602
 9418SOL    HW239714   2.167   4.622  11.855 -0.9046 -0.3037 -0.7067
 9419SOL     OW39715   2.288   2.190   3.562 -0.3736  0.1537  0.4220
 9419SOL    HW139716   2.323   2.196   3.473 -1.6463 -0.5888 -0.1274
 9419SOL    HW239717   2.371   2.184   3.609 -0.0834  1.2943  0.0569
 9420SOL     OW39718   1.972   1.881   3.247  0.4253  0.4844 -0.1851
 9420SOL    HW139719   2.030   1.919   3.313  0.4920 -0.8567  0.5299
 9420SOL    HW239720   1.957   1.793   3.281 -0.8604  1.1411  0.9506
 9421SOL     OW39721   2.374   1.379  14.843  0.0879  0.4240  0.5652
 9421SOL    HW139722   2.375   1.375  14.939 -1.2810 -0.7453  0.5362
 9421SOL    HW239723   2.343   1.468  14.829 -1.3797  0.3297  3.2341
 9422SOL     OW39724   2.022   1.090   9.315  0.1851  0.0621  0.6825
 9422SOL    HW139725   1.929   1.085   9.338 -0.1999  1.2133 -0.5827
 9422SOL    HW239726   2.035   1.184   9.304 -0.8398  0.2984  1.4432
 9423SOL     OW39727   3.266   2.090   8.208  0.0651 -0.1139  0.0647
 9423SOL    HW139728   3.238   2.143   8.134 -0.2622  2.4339  2.0286
 9423SOL    HW239729   3.217   2.123   8.283 -0.5660 -0.8216 -0.0350
 9424SOL     OW39730   3.289   2.256   5.676 -0.1918 -0.3005  0.0701
 9424SOL    HW139731   3.251   2.309   5.605  0.2275  1.0586  0.8582
 9424SOL    HW239732   3.364   2.220   5.629  0.9339 -0.3296  1.9046
 9425SOL     OW39733   4.354   2.524   9.530 -0.1892 -0.4392 -0.2317
 9425SOL    HW139734   4.399   2.458   9.582  2.7951  1.3583 -0.5373
 9425SOL    HW239735   4.271   2.479   9.515 -0.5685  0.4844 -0.9218
 9426SOL     OW39736   4.624   2.138  15.730  0.5161  0.6409 -0.2730
 9426SOL    HW139737   4.587   2.068  15.784  0.6854  0.2507 -0.6682
 9426SOL    HW239738   4.611   2.205  15.797  0.5877  1.8813 -1.5005
 9427SOL     OW39739   1.815   3.892   2.657 -0.0294 -0.0584 -0.0843
 9427SOL    HW139740   1.900   3.936   2.657 -0.7325  1.3320 -1.4026
 9427SOL    HW239741   1.770   3.938   2.586 -1.0909  2.8284  2.4117
 9428SOL     OW39742   4.280   2.920   2.628  0.3409 -0.7001  0.5074
 9428SOL    HW139743   4.233   2.965   2.698 -0.2859  0.5157 -0.6909
 9428SOL    HW239744   4.353   2.979   2.648  1.3587 -1.7269 -0.1727
 9429SOL     OW39745   4.652   2.047  10.572 -0.5015  0.0602  0.2572
 9429SOL    HW139746   4.621   2.084  10.654  1.2471 -1.9834  1.8193
 9429SOL    HW239747   4.633   1.956  10.593  0.8018 -0.0140  1.1293
 9430SOL     OW39748   3.933   4.242   9.511  0.3187 -0.4332  0.5490
 9430SOL    HW139749   3.862   4.188   9.545 -0.3027  0.4809  0.6753
 9430SOL    HW239750   4.000   4.207   9.570  0.9183 -1.0542 -0.4853
 9431SOL     OW39751   2.370   3.721   7.542  0.1485  0.1572 -0.1290
 9431SOL    HW139752   2.331   3.654   7.598  0.5605 -1.1053 -1.3478
 9431SOL    HW239753   2.373   3.669   7.462 -0.1349  0.3960 -0.2984
 9432SOL     OW39754   2.016   0.991  17.346  0.1656  0.2948  0.1812
 9432SOL    HW139755   2.050   0.939  17.420 -1.3293  0.5946  1.0765
 9432SOL    HW239756   1.965   1.056  17.394 -0.8348  1.4158 -2.4176
 9433SOL     OW39757   2.710   3.569   1.785 -0.0976 -0.5688  0.3103
 9433SOL    HW139758   2.725   3.487   1.738  1.0306  0.8136 -1.7617
 9433SOL    HW239759   2.670   3.627   1.720  1.9544 -0.3700 -0.7904
 9434SOL     OW39760   1.810   1.952   9.796 -0.1384 -0.0320  0.6982
 9434SOL    HW139761   1.805   2.047   9.806  1.1397 -0.0973  1.9887
 9434SOL    HW239762   1.836   1.932   9.886  1.4237  2.8171  0.8811
 9435SOL     OW39763   1.640   1.890   4.292  0.1255  0.5720  0.1452
 9435SOL    HW139764   1.682   1.906   4.207 -1.3198  0.5524 -0.5659
 9435SOL    HW239765   1.606   1.977   4.313  0.9854  0.7885  0.6720
 9436SOL     OW39766   3.418   3.065   3.760  0.1813  0.1737  0.0041
 9436SOL    HW139767   3.399   3.000   3.693 -2.5650 -0.7483  1.7104
 9436SOL    HW239768   3.341   3.072   3.816  0.5522 -2.3137  0.8013
 9437SOL     OW39769   2.272   4.664   2.898  0.3178  0.6726 -0.2570
 9437SOL    HW139770   2.360   4.652   2.862  0.7108 -0.7411  1.1869
 9437SOL    HW239771   2.266   0.034   2.905 -0.3578  0.5448  0.8655
 9438SOL     OW39772   0.120   3.175   8.462 -0.0984  0.6154 -0.1686
 9438SOL    HW139773   0.133   3.191   8.369 -0.4812 -1.6228 -0.5907
 9438SOL    HW239774   0.109   3.081   8.472  0.0403  0.7521  1.2396
 9439SOL     OW39775   4.678   3.368  13.760 -0.2461  0.4122  0.5950
 9439SOL    HW139776   4.619   3.440  13.781  1.3085  1.4227  1.5616
 9439SOL    HW239777   0.005   3.415  13.695 -2.0597 -0.3865 -1.4322
 9440SOL     OW39778   1.022   3.673   7.458  0.7795 -0.1641  0.3370
 9440SOL    HW139779   0.938   3.639   7.429  0.4731  0.5970  0.3466
 9440SOL    HW239780   1.086   3.619   7.411  2.2398  0.4615  1.6125
 9441SOL     OW39781   0.320   0.929   2.084 -0.2198  0.1562  0.8426
 9441SOL    HW139782   0.360   0.970   2.008  0.3038  0.7739  1.4548
 9441SOL    HW239783   0.251   0.992   2.103 -0.7282 -0.3164  0.5906
 9442SOL     OW39784   2.354   0.931   9.655 -0.4725  0.4393 -0.0751
 9442SOL    HW139785   2.280   0.925   9.716 -1.0243  0.8753 -0.7003
 9442SOL    HW239786   2.344   1.023   9.629  0.4220 -0.0567 -2.2227
 9443SOL     OW39787   2.416   3.867   5.075  0.3921 -0.3085 -0.0934
 9443SOL    HW139788   2.427   3.958   5.049 -0.3981 -0.0098  0.6136
 9443SOL    HW239789   2.343   3.872   5.137  0.8416 -0.4430  0.4507
 9444SOL     OW39790   0.865   2.291  16.290 -0.6306 -0.4111  0.4235
 9444SOL    HW139791   0.844   2.238  16.214  0.1243  3.3093 -2.3944
 9444SOL    HW239792   0.863   2.221  16.355  0.6413  1.6012  2.6384
 9445SOL     OW39793   0.936   2.584   5.140 -0.2001  0.2448 -0.0574
 9445SOL    HW139794   0.954   2.631   5.221 -1.4251  0.0672  0.3250
 9445SOL    HW239795   1.022   2.577   5.100  0.3236 -1.6004  1.4041
 9446SOL     OW39796   2.690   0.639   8.687 -0.8700  0.3605 -0.5741
 9446SOL    HW139797   2.729   0.722   8.662  0.7726 -0.2898 -0.1885
 9446SOL    HW239798   2.704   0.583   8.610  1.7476  1.5264 -0.9559
 9447SOL     OW39799   3.991   2.459   1.743 -0.0910  0.5571  0.3275
 9447SOL    HW139800   4.033   2.421   1.820 -3.7010  1.8474  2.9240
 9447SOL    HW239801   3.983   2.553   1.760 -1.7690  0.5188 -0.1531
 9448SOL     OW39802   0.471   1.824  12.089  0.0633 -0.5051  0.0340
 9448SOL    HW139803   0.409   1.751  12.077 -0.5615  0.0473 -0.1106
 9448SOL    HW239804   0.555   1.781  12.106  0.0559 -0.2912  0.6022
 9449SOL     OW39805   3.839   1.196   2.380  0.0906 -0.2287 -0.1685
 9449SOL    HW139806   3.925   1.235   2.360 -1.2435  0.9520 -3.6322
 9449SOL    HW239807   3.784   1.225   2.307  2.0442  0.3617 -1.4057
 9450SOL     OW39808   3.537   2.653   3.368 -0.2186 -0.1374 -0.5941
 9450SOL    HW139809   3.574   2.682   3.285  0.2120 -1.8558 -1.0084
 9450SOL    HW239810   3.566   2.724   3.426  1.5982 -1.0957 -0.3210
 9451SOL     OW39811   3.140   0.550   4.938  0.0218  0.5489 -0.6899
 9451SOL    HW139812   3.110   0.639   4.919  0.0731  0.7115 -0.0079
 9451SOL    HW239813   3.064   0.511   4.982  1.9514 -0.3554  1.8151
 9452SOL     OW39814   0.786   3.457   1.869 -0.3324  0.0361  0.3197
 9452SOL    HW139815   0.797   3.363   1.885 -1.5606  0.0387  1.2104
 9452SOL    HW239816   0.847   3.471   1.796  0.4607 -1.9018  0.5890
 9453SOL     OW39817   1.195   2.716   9.638 -0.3944 -0.1245 -0.3512
 9453SOL    HW139818   1.271   2.670   9.675 -2.2188 -1.9362  1.1059
 9453SOL    HW239819   1.161   2.676   9.559  0.0616  1.0117 -1.1295
 9454SOL     OW39820   0.820   2.354   4.614 -0.1408  0.3594 -0.0570
 9454SOL    HW139821   0.814   2.365   4.709 -1.0750  2.3311 -0.3612
 9454SOL    HW239822   0.740   2.306   4.593  0.2983 -0.0490 -0.8165
 9455SOL     OW39823   4.637   0.358   9.611 -0.6093  0.4115 -0.2366
 9455SOL    HW139824   4.612   0.361   9.519  0.7886  0.0406 -0.6316
 9455SOL    HW239825   4.660   0.449   9.633  1.0915  0.2119 -1.2096
 9456SOL     OW39826   3.086   4.456  12.236 -0.6509  0.0717 -0.0245
 9456SOL    HW139827   3.055   4.454  12.326  0.3189  0.5223  0.3139
 9456SOL    HW239828   3.177   4.483  12.245 -0.6381  0.2741 -0.7270
 9457SOL     OW39829   3.878   2.091   4.942 -0.0359  0.3136  0.5653
 9457SOL    HW139830   3.917   2.004   4.933 -0.7035  0.2628 -1.6239
 9457SOL    HW239831   3.895   2.116   5.033  0.5878 -1.7996  1.0265
 9458SOL     OW39832   0.918   4.363  12.153  0.4428 -0.7663 -0.3100
 9458SOL    HW139833   0.851   4.422  12.116  0.9679  2.3462  3.7568
 9458SOL    HW239834   0.991   4.395  12.100  0.3418  2.4501  1.5118
 9459SOL     OW39835   2.762   3.495   4.052  0.1913  0.7732  0.2767
 9459SOL    HW139836   2.694   3.493   3.984  2.2064  2.0080 -1.7221
 9459SOL    HW239837   2.790   3.585   4.040  0.2149  0.7393  0.0843
 9460SOL     OW39838   4.362   2.159   8.533 -0.6008 -0.3143  0.1772
 9460SOL    HW139839   4.409   2.077   8.550  0.8046  0.1953 -1.3293
 9460SOL    HW239840   4.293   2.173   8.599  1.8283 -0.6714  2.8125
 9461SOL     OW39841   0.674   1.447   7.416  0.3656 -0.0319  0.2799
 9461SOL    HW139842   0.656   1.502   7.339  1.8631  1.9025  1.2892
 9461SOL    HW239843   0.751   1.397   7.387  1.5296  2.0644 -0.3325
 9462SOL     OW39844   3.973   0.433   6.584  0.7827 -0.0137  0.0902
 9462SOL    HW139845   3.909   0.432   6.654  0.4711  3.4871 -0.1610
 9462SOL    HW239846   3.926   0.500   6.534 -0.3944 -0.9602 -0.0481
 9463SOL     OW39847   0.646   3.896   8.582  0.3092  0.2132 -0.0715
 9463SOL    HW139848   0.732   3.867   8.612  0.2132 -1.3690 -1.3381
 9463SOL    HW239849   0.647   3.900   8.486  2.3947  0.7206 -0.0461
 9464SOL     OW39850   3.681   3.394   3.625 -0.5725 -1.0155  0.3666
 9464SOL    HW139851   3.666   3.442   3.543  1.7632  3.5456  2.6517
 9464SOL    HW239852   3.590   3.371   3.643 -1.1751  0.9368 -0.2299
 9465SOL     OW39853   1.931   1.654   3.381  0.2193  0.1633 -0.1856
 9465SOL    HW139854   1.893   1.615   3.460 -3.2464  0.1139 -1.8904
 9465SOL    HW239855   1.997   1.589   3.355  0.6292  0.4668  0.1020
 9466SOL     OW39856   0.367   0.044   7.168 -0.0701  0.0824 -0.1828
 9466SOL    HW139857   0.380   0.001   7.253 -1.6485  1.1568  0.6158
 9466SOL    HW239858   0.271   0.052   7.174 -0.2430 -2.3704  0.3201
 9467SOL     OW39859   3.599   0.631   1.710  0.2613  0.6196  0.0855
 9467SOL    HW139860   3.563   0.603   1.795 -1.6018  0.6271 -0.7055
 9467SOL    HW239861   3.575   0.723   1.701  0.2768  0.6030 -0.1129
 9468SOL     OW39862   4.310   2.455   4.255 -0.7081 -0.0860 -0.0999
 9468SOL    HW139863   4.220   2.427   4.239 -0.3457 -0.8204 -0.8480
 9468SOL    HW239864   4.351   2.395   4.193 -0.3270  0.7259 -0.6270
 9469SOL     OW39865   1.664   4.271   4.406 -0.0585  0.4044 -0.3559
 9469SOL    HW139866   1.735   4.253   4.344 -1.3178  0.1659 -1.7327
 9469SOL    HW239867   1.646   4.363   4.383  2.4805  0.5835 -1.6415
 9470SOL     OW39868   0.083   1.657   2.954 -0.6394 -0.1042 -0.3596
 9470SOL    HW139869   0.007   1.600   2.943 -2.5613  2.4671 -0.5935
 9470SOL    HW239870   0.143   1.631   2.884  0.0481  0.3453  0.0613
 9471SOL     OW39871   2.179   4.404   8.454 -0.6708 -0.0270  0.2701
 9471SOL    HW139872   2.182   4.467   8.526  0.7137  0.0684  0.1342
 9471SOL    HW239873   2.181   4.322   8.505  0.7711  1.4034  2.5510
 9472SOL     OW39874   2.194   2.401   4.619 -0.5714 -0.1502 -0.0421
 9472SOL    HW139875   2.285   2.375   4.633 -0.5723 -0.5776 -0.8120
 9472SOL    HW239876   2.190   2.490   4.652 -2.4058 -0.0809 -0.4625
 9473SOL     OW39877   3.023   4.472  11.159 -0.0406  0.1563 -0.3750
 9473SOL    HW139878   2.986   4.556  11.187 -0.8389 -0.4500  0.4009
 9473SOL    HW239879   3.114   4.499  11.170 -0.3781  1.4367 -0.7430
 9474SOL     OW39880   2.796   4.722   8.780  0.1990 -0.4649 -0.8945
 9474SOL    HW139881   2.797   0.087   8.748  1.3771 -0.3268 -0.4830
 9474SOL    HW239882   2.866   0.004   8.846  0.5355 -1.4131 -1.1467
 9475SOL     OW39883   4.481   0.971   6.683  0.0244 -0.3550  0.4390
 9475SOL    HW139884   4.486   0.890   6.634  1.4443 -0.4733  0.7715
 9475SOL    HW239885   4.491   0.940   6.773 -1.2420 -2.2529 -0.0896
 9476SOL     OW39886   0.539   4.386   7.914  0.8390  0.2044  0.4597
 9476SOL    HW139887   0.561   4.477   7.934 -1.7980  0.9181  0.1520
 9476SOL    HW239888   0.501   4.408   7.828  3.0466 -0.6436 -0.7300
 9477SOL     OW39889   3.351   0.570   4.397  0.6418  0.1549 -0.1128
 9477SOL    HW139890   3.365   0.484   4.358 -1.3000  0.2371 -1.0116
 9477SOL    HW239891   3.354   0.618   4.314  4.0670  2.7068  1.5027
 9478SOL     OW39892   1.741   3.453   1.608 -0.2962 -0.1591 -0.2293
 9478SOL    HW139893   1.783   3.375   1.643 -1.1854  0.8076  2.9610
 9478SOL    HW239894   1.760   3.445   1.514  0.1315 -0.0235 -0.1557
 9479SOL     OW39895   1.954   1.507  15.687 -0.1223  0.2292  0.2327
 9479SOL    HW139896   1.990   1.589  15.653  1.3174 -0.1253  0.8881
 9479SOL    HW239897   1.976   1.508  15.780  0.8817  0.6771 -0.0070
 9480SOL     OW39898   3.460   3.102  12.486 -0.3150  0.5346  0.3764
 9480SOL    HW139899   3.442   3.196  12.483  1.3340  0.7095 -4.0850
 9480SOL    HW239900   3.555   3.112  12.487 -0.0087 -2.2320  0.3559
 9481SOL     OW39901   4.524   1.197   7.878 -0.8104  0.5866  0.2086
 9481SOL    HW139902   4.512   1.202   7.783 -0.0024 -3.2267 -0.1036
 9481SOL    HW239903   4.618   1.214   7.883 -0.7940  0.6977 -0.4476
 9482SOL     OW39904   1.076   2.870   1.190 -0.3570 -0.5503  0.1140
 9482SOL    HW139905   1.119   2.923   1.257 -1.2658  0.9162 -0.4615
 9482SOL    HW239906   1.155   2.861   1.136 -1.2472 -1.2957 -1.0741
 9483SOL     OW39907   2.484   1.001   2.136 -0.2456 -0.2607  0.2345
 9483SOL    HW139908   2.426   1.066   2.097 -1.1459  1.3010  4.1239
 9483SOL    HW239909   2.502   0.951   2.057 -1.7649  3.2601 -2.3631
 9484SOL     OW39910   1.779   4.690   3.453  0.4694  0.4642 -0.6649
 9484SOL    HW139911   1.687   4.666   3.439  1.7517 -3.5796 -2.2524
 9484SOL    HW239912   1.756   0.056   3.473  1.5606  0.1336  2.0297
 9485SOL     OW39913   1.428   4.481   6.424 -0.2137 -0.9049 -0.7182
 9485SOL    HW139914   1.349   4.460   6.373 -0.7891  0.4304 -0.3805
 9485SOL    HW239915   1.490   4.468   6.352 -1.2825 -0.4128 -1.7307
 9486SOL     OW39916   0.417   2.675  11.895 -0.5083 -0.0684  0.4080
 9486SOL    HW139917   0.338   2.726  11.913 -1.2598 -1.4780  1.1131
 9486SOL    HW239918   0.467   2.666  11.976  0.5954 -0.6809 -0.3539
 9487SOL     OW39919   0.100   2.398  14.346 -0.3126 -0.6444  0.6085
 9487SOL    HW139920   0.181   2.431  14.385 -0.7823 -0.1159  1.1341
 9487SOL    HW239921   0.095   2.462  14.275 -2.6407 -0.9812  0.4751
 9488SOL     OW39922   0.697   4.438   1.347  0.2736 -0.1165 -0.3566
 9488SOL    HW139923   0.705   4.481   1.432 -0.4694  0.5853 -0.6386
 9488SOL    HW239924   0.646   4.362   1.373  0.1499 -0.0952 -0.5424
 9489SOL     OW39925   0.364   0.299   4.442  0.6506  0.5889  0.5047
 9489SOL    HW139926   0.430   0.308   4.374  0.1999  0.9393  0.1182
 9489SOL    HW239927   0.381   0.221   4.496 -0.3928 -2.0781 -2.9694
 9490SOL     OW39928   3.733   2.452   2.536 -0.5811 -0.1757  0.0334
 9490SOL    HW139929   3.775   2.394   2.600 -0.8057 -0.0262  0.3184
 9490SOL    HW239930   3.688   2.518   2.589 -1.7461  0.2882 -1.5158
 9491SOL     OW39931   0.353   2.003   6.724  0.5519 -0.1810 -0.1680
 9491SOL    HW139932   0.300   2.033   6.650  0.4824  1.3060  0.4789
 9491SOL    HW239933   0.319   2.050   6.800 -0.1306 -0.8450 -0.0616
 9492SOL     OW39934   3.602   0.819   8.430 -0.7079  0.0696  0.0020
 9492SOL    HW139935   3.549   0.807   8.508 -1.5833  0.4743 -0.5253
 9492SOL    HW239936   3.619   0.733   8.392 -2.0905 -0.7240  1.1797
 9493SOL     OW39937   2.916   1.946  11.659  0.1148 -0.1465  0.0796
 9493SOL    HW139938   2.850   2.004  11.696  0.1498  1.8776 -3.0869
 9493SOL    HW239939   2.870   1.863  11.644 -0.2815 -0.0125  0.5438
 9494SOL     OW39940   4.531   0.710   2.145  0.5682 -0.0237 -0.2250
 9494SOL    HW139941   4.445   0.666   2.147  0.7150 -0.2512  1.1747
 9494SOL    HW239942   4.561   0.695   2.055  1.0700 -0.2487 -0.0183
 9495SOL     OW39943   0.295   3.163   8.832 -0.0588  0.1999  0.3519
 9495SOL    HW139944   0.333   3.235   8.781 -1.1502 -0.7119 -1.7841
 9495SOL    HW239945   0.336   3.188   8.915  0.8826  1.6096 -0.5264
 9496SOL     OW39946   4.437   4.718   7.768 -0.2009  0.4662  0.2028
 9496SOL    HW139947   4.368   4.678   7.820 -0.1049  2.8574  2.1636
 9496SOL    HW239948   4.414   4.673   7.687  0.0122  0.7833 -0.0356
 9497SOL     OW39949   3.735   4.670   8.206  0.1166 -0.2317  0.4298
 9497SOL    HW139950   3.829   4.679   8.218  0.0932 -0.3292  0.6786
 9497SOL    HW239951   3.706   4.663   8.297  0.2745 -0.9203  0.4314
 9498SOL     OW39952   3.178   0.642   1.346 -0.5997 -0.1281  0.0062
 9498SOL    HW139953   3.237   0.703   1.301 -1.1538  1.2209  1.0949
 9498SOL    HW239954   3.213   0.643   1.435  0.4308  1.2467 -0.4119
 9499SOL     OW39955   2.242   2.270  10.638  0.8157  0.2092 -0.4907
 9499SOL    HW139956   2.157   2.304  10.668  0.0169 -3.9838  2.0032
 9499SOL    HW239957   2.269   2.337  10.575  0.9543 -0.4875 -1.1551
 9500SOL     OW39958   2.911   4.492   3.268  0.4388 -0.2289 -0.5771
 9500SOL    HW139959   2.875   4.463   3.184 -0.9859  0.6126 -0.2615
 9500SOL    HW239960   2.831   4.502   3.320  1.5221  0.1576  1.0077
 9501SOL     OW39961   4.453   3.241  15.117  0.1382 -0.4564  0.2974
 9501SOL    HW139962   4.385   3.192  15.072  0.3266 -1.2808  0.9118
 9501SOL    HW239963   4.489   3.306  15.057  0.2868  1.2953  2.2620
 9502SOL     OW39964   3.394   4.652  15.940 -0.2992  0.0042  0.2104
 9502SOL    HW139965   3.320   4.688  15.989 -0.8369  0.0945 -0.6777
 9502SOL    HW239966   3.384   4.691  15.853 -0.4926 -0.2050  0.1410
 9503SOL     OW39967   3.306   3.358   8.668  0.3258  0.1499  0.3407
 9503SOL    HW139968   3.385   3.305   8.657  1.1229  0.6575  3.5177
 9503SOL    HW239969   3.349   3.439   8.696  1.8109 -0.4988 -0.1029
 9504SOL     OW39970   2.664   1.243   7.296  0.1654  0.7885 -0.5262
 9504SOL    HW139971   2.749   1.218   7.258 -0.3993 -0.4653 -0.9613
 9504SOL    HW239972   2.681   1.308   7.364 -0.4352 -0.1033  0.4740
 9505SOL     OW39973   0.245   4.650   5.603 -0.0952 -0.2867 -0.2841
 9505SOL    HW139974   0.295   4.590   5.659 -0.1663  0.7392  0.8906
 9505SOL    HW239975   0.311   4.719   5.597 -0.7375  0.4600  1.0154
 9506SOL     OW39976   3.416   0.761   4.923  0.0110 -0.1230  0.5706
 9506SOL    HW139977   3.389   0.808   5.001 -2.8939  1.0311 -1.0939
 9506SOL    HW239978   3.430   0.835   4.863  0.9358  0.1340  1.1088
 9507SOL     OW39979   2.965   0.023  13.462  0.2173  0.7316 -0.4260
 9507SOL    HW139980   2.897   0.029  13.529 -0.2829 -0.2754 -0.8529
 9507SOL    HW239981   3.024   4.678  13.491 -1.2193 -0.0875  0.4855
 9508SOL     OW39982   1.084   4.513  15.937  0.4430 -0.2072 -0.0796
 9508SOL    HW139983   1.048   4.583  15.882  3.5096  1.1019 -0.3818
 9508SOL    HW239984   1.005   4.471  15.971 -0.5078 -0.4498 -2.5521
 9509SOL     OW39985   0.069   1.356  15.502 -0.1166 -0.0865  0.3285
 9509SOL    HW139986   0.105   1.307  15.428  3.4703  1.2550  1.1770
 9509SOL    HW239987   0.140   1.357  15.566 -0.2830 -0.2365  0.5134
 9510SOL     OW39988   0.317   2.787   7.812 -0.0112 -0.1436  0.5004
 9510SOL    HW139989   0.353   2.699   7.808 -1.8776 -0.7325 -3.5804
 9510SOL    HW239990   0.321   2.820   7.902 -1.1739 -0.1560  0.5642
 9511SOL     OW39991   2.308   2.483   3.830 -0.2222 -0.1449  0.3213
 9511SOL    HW139992   2.307   2.485   3.926  1.8232 -1.4075  0.3499
 9511SOL    HW239993   2.397   2.456   3.810 -1.1908 -0.5809 -3.4712
 9512SOL     OW39994   1.247   2.053   8.155 -0.0025 -0.0269 -0.2466
 9512SOL    HW139995   1.325   2.104   8.131 -1.9198  2.1667 -1.7191
 9512SOL    HW239996   1.186   2.069   8.083  0.2267  3.0111  0.2399
 9513SOL     OW39997   0.452   0.321  14.638 -0.3697  0.2181 -0.0649
 9513SOL    HW139998   0.461   0.330  14.733 -1.7219  1.0947 -0.0251
 9513SOL    HW239999   0.376   0.263  14.631 -0.9685  1.3540 -2.7382
 9514SOL     OW40000   3.995   2.355   3.593  0.5301 -0.7654 -0.3088
 9514SOL    HW140001   3.940   2.291   3.547 -0.3411 -0.0727 -0.2359
 9514SOL    HW240002   3.926   2.380   3.655  1.3404 -1.9345  1.0583
 9515SOL     OW40003   3.160   2.698   8.800  0.2258  0.2565 -0.1802
 9515SOL    HW140004   3.247   2.689   8.840  0.1436 -1.2053 -0.3298
 9515SOL    HW240005   3.118   2.615   8.822  1.9537 -0.7756 -0.7357
 9516SOL     OW40006   3.353   4.615  17.668 -0.0158  0.3815 -0.5630
 9516SOL    HW140007   3.353   4.691   0.026 -0.0147 -0.6252  0.7220
 9516SOL    HW240008   3.314   4.556   0.031  1.5622  0.0258  0.0677
 9517SOL     OW40009   0.910   0.769   4.644 -0.3135  0.4800  0.4681
 9517SOL    HW140010   0.867   0.700   4.694 -3.9235  0.3169 -2.8163
 9517SOL    HW240011   0.927   0.834   4.712  0.5611  0.7360  0.0042
 9518SOL     OW40012   3.861   1.875   3.196  0.0464  0.4214  0.2007
 9518SOL    HW140013   3.767   1.864   3.211  0.8507 -0.9690  4.2797
 9518SOL    HW240014   3.877   1.937   3.125  0.5950 -0.6518 -0.6189
 9519SOL     OW40015   3.568   4.096  11.133 -0.1336  0.0745 -0.3378
 9519SOL    HW140016   3.623   4.045  11.074 -0.4302  0.7918 -1.2331
 9519SOL    HW240017   3.621   4.084  11.212 -1.6239  0.1868  0.6615
 9520SOL     OW40018   2.812   2.496   6.779  0.1667  0.1582 -0.2323
 9520SOL    HW140019   2.798   2.591   6.785 -0.2277  0.0982 -0.2512
 9520SOL    HW240020   2.773   2.482   6.693 -1.2984 -0.3558  0.5263
 9521SOL     OW40021   2.711   1.057   7.017  0.0812 -0.3538 -0.1381
 9521SOL    HW140022   2.762   0.990   6.971  0.3486 -0.1918 -0.0778
 9521SOL    HW240023   2.674   1.012   7.093  0.6392 -0.3972  0.1069
 9522SOL     OW40024   3.379   0.598   7.373 -0.2070 -0.4760 -0.7276
 9522SOL    HW140025   3.377   0.511   7.413  1.6357 -0.6948 -1.1254
 9522SOL    HW240026   3.326   0.587   7.294 -1.8462  1.2299  0.1254
 9523SOL     OW40027   3.481   0.984  17.258 -0.2202 -0.4542  0.1114
 9523SOL    HW140028   3.555   1.012  17.204 -0.9063 -2.1830 -1.7209
 9523SOL    HW240029   3.498   1.007  17.349  0.8840  1.5975 -0.6137
 9524SOL     OW40030   0.082   0.067   7.173  0.0351  0.1434  0.2375
 9524SOL    HW140031   0.044   0.126   7.237 -0.5498 -0.5722  0.5400
 9524SOL    HW240032   0.033   4.710   7.179  0.0192  0.2494  1.5335
 9525SOL     OW40033   1.985   0.027   5.749  0.0662 -0.3607 -0.2572
 9525SOL    HW140034   1.918   4.697   5.789 -0.5252  0.1957 -0.4935
 9525SOL    HW240035   2.020   0.070   5.827  2.5147 -1.2989 -0.8312
 9526SOL     OW40036   3.351   3.902   7.348  0.1744  0.0850  0.0946
 9526SOL    HW140037   3.443   3.883   7.366  0.2634 -0.6486 -1.1195
 9526SOL    HW240038   3.355   3.990   7.385  3.7029 -0.6863  1.4940
 9527SOL     OW40039   3.453   0.457   8.608  0.6078 -0.1266  0.3825
 9527SOL    HW140040   3.463   0.550   8.630  1.3252  0.2616 -1.5551
 9527SOL    HW240041   3.408   0.421   8.684 -1.0096  1.7115  0.2775
 9528SOL     OW40042   1.783   1.605   4.050  0.0153 -0.0834  0.2284
 9528SOL    HW140043   1.858   1.621   4.107  0.6890 -0.2983 -0.5839
 9528SOL    HW240044   1.722   1.561   4.110 -1.3785  1.5335 -0.0257
 9529SOL     OW40045   4.307   1.714   3.428 -0.2133 -0.0374 -0.1511
 9529SOL    HW140046   4.279   1.776   3.495  1.1933 -0.3110  0.6855
 9529SOL    HW240047   4.232   1.690   3.374 -0.5420 -1.3962  0.9077
 9530SOL     OW40048   2.977   4.245   4.392  0.4593  0.0061  0.1864
 9530SOL    HW140049   2.959   4.153   4.412  0.1415 -0.4563 -2.2434
 9530SOL    HW240050   2.915   4.279   4.456  0.5948 -1.9494  1.3821
 9531SOL     OW40051   0.334   3.349   6.487 -0.0036 -0.0818 -0.0009
 9531SOL    HW140052   0.251   3.392   6.467 -0.3188  0.2503  1.9966
 9531SOL    HW240053   0.358   3.403   6.562  1.0406  0.2648 -0.5945
 9532SOL     OW40054   0.706   1.002   4.902  0.1031 -0.5821  0.3951
 9532SOL    HW140055   0.742   0.947   4.972  1.0074 -0.8692 -0.2991
 9532SOL    HW240056   0.732   1.085   4.943 -1.7936  1.1659 -1.9522
 9533SOL     OW40057   3.825   3.414   5.629 -0.0777 -0.3572 -0.2485
 9533SOL    HW140058   3.899   3.473   5.646 -1.0598  0.6706  0.3802
 9533SOL    HW240059   3.784   3.450   5.550 -0.7141  3.1247  1.6843
 9534SOL     OW40060   1.769   3.498   6.873  0.1322  0.6022  0.0694
 9534SOL    HW140061   1.732   3.412   6.893  0.6915  0.0420 -1.3332
 9534SOL    HW240062   1.695   3.549   6.906  0.7083  0.5964  1.3601
 9535SOL     OW40063   2.233   0.101   8.626  0.6876  0.3041 -0.1624
 9535SOL    HW140064   2.214   0.013   8.659  0.5002  0.9956  1.5501
 9535SOL    HW240065   2.285   0.084   8.547 -1.5698  1.1234 -1.7940
 9536SOL     OW40066   4.315   1.446  16.443  0.1143  0.9328  0.1333
 9536SOL    HW140067   4.225   1.431  16.412  0.1232 -0.7732  0.9413
 9536SOL    HW240068   4.351   1.482  16.362  2.2700  0.4512  0.9021
 9537SOL     OW40069   3.283   3.686   5.969 -0.2529 -0.6463 -0.7375
 9537SOL    HW140070   3.262   3.603   6.013  0.9547 -0.1219  0.8257
 9537SOL    HW240071   3.217   3.675   5.901  1.4634 -1.5939 -2.2389
 9538SOL     OW40072   0.375   0.722   8.372 -0.0733  0.0460  0.1580
 9538SOL    HW140073   0.372   0.631   8.343  0.6789  0.0289  0.1343
 9538SOL    HW240074   0.384   0.721   8.468  0.8571  1.3575  0.0783
 9539SOL     OW40075   3.926   2.714  12.079  0.0011  0.3074  0.5269
 9539SOL    HW140076   3.879   2.794  12.099 -0.6086  0.6127 -2.0834
 9539SOL    HW240077   3.859   2.679  12.020  1.3670 -0.9687 -0.2781
 9540SOL     OW40078   3.919   1.303   4.309 -0.2233  0.1848 -0.6123
 9540SOL    HW140079   3.958   1.282   4.224 -0.0860 -1.7074 -0.0739
 9540SOL    HW240080   3.932   1.222   4.357 -0.3329 -0.4867 -1.7072
 9541SOL     OW40081   4.351   4.321   4.580  0.0631  0.0995  0.0684
 9541SOL    HW140082   4.388   4.233   4.574  0.5522  0.3337 -0.3196
 9541SOL    HW240083   4.333   4.340   4.488  1.2256 -1.4919 -0.4933
 9542SOL     OW40084   1.171   1.571   0.448 -0.2403 -0.2038 -0.4011
 9542SOL    HW140085   1.114   1.588   0.373  0.4042  1.5109 -0.5048
 9542SOL    HW240086   1.235   1.642   0.453 -0.1000 -0.2563 -1.3116
 9543SOL     OW40087   0.687   3.422   7.002  0.1128 -0.1672  0.0834
 9543SOL    HW140088   0.729   3.502   7.033  0.0515 -1.8173  4.4863
 9543SOL    HW240089   0.711   3.364   7.075 -0.0598 -0.7819 -0.3550
 9544SOL     OW40090   4.072   0.769   3.082  0.3918  0.5561  0.1649
 9544SOL    HW140091   4.081   0.675   3.102 -0.8276  0.3977 -0.0450
 9544SOL    HW240092   3.980   0.787   3.062  0.7509  0.2750 -1.7640
 9545SOL     OW40093   0.218   3.442  10.286 -0.2799  0.5751 -0.0353
 9545SOL    HW140094   0.267   3.514  10.248  0.2174 -0.5573 -1.5127
 9545SOL    HW240095   0.218   3.483  10.373 -1.6853  0.0799  0.2088
 9546SOL     OW40096   3.049   3.494   3.622  0.0341  0.1744 -0.2010
 9546SOL    HW140097   2.973   3.456   3.666 -1.1817  1.7766 -0.9182
 9546SOL    HW240098   3.004   3.536   3.548 -0.3002 -0.7135 -0.5082
 9547SOL     OW40099   4.311   3.180   0.314 -0.1438 -0.2218 -0.3323
 9547SOL    HW140100   4.282   3.089   0.322 -0.1569 -0.1310  0.5448
 9547SOL    HW240101   4.229   3.226   0.297  2.0241  3.4157 -0.9382
 9548SOL     OW40102   1.422   2.009  13.832 -0.5359 -0.1287 -0.4656
 9548SOL    HW140103   1.417   1.916  13.809  0.1350  0.4193 -2.8150
 9548SOL    HW240104   1.327   2.021  13.842 -0.9855 -1.9954 -2.4509
 9549SOL     OW40105   0.369   2.282  13.438 -0.4144 -0.1902  0.1544
 9549SOL    HW140106   0.284   2.305  13.476 -0.4527 -2.0332  1.1655
 9549SOL    HW240107   0.429   2.289  13.513 -1.1577 -1.6044  0.8747
 9550SOL     OW40108   2.576   4.591   5.459  0.8886  0.4006  0.2466
 9550SOL    HW140109   2.560   4.675   5.417  0.1094  0.4100  0.5619
 9550SOL    HW240110   2.518   4.533   5.410 -1.2725  1.7846  1.1684
 9551SOL     OW40111   4.673   0.584  13.869  0.4695 -0.1521 -0.1232
 9551SOL    HW140112   0.028   0.562  13.916 -0.3275 -1.5984  0.5463
 9551SOL    HW240113   4.659   0.519  13.800 -0.2428  0.7990 -0.8763
 9552SOL     OW40114   2.519   3.922  17.008  0.0302  0.0651  0.0683
 9552SOL    HW140115   2.539   3.978  17.084  1.8841 -1.4998  0.7258
 9552SOL    HW240116   2.561   3.842  17.040  1.4359 -0.0584 -2.1711
 9553SOL     OW40117   0.859   1.093   1.216  0.0619  0.1019  0.1786
 9553SOL    HW140118   0.883   1.173   1.261  1.1586  0.1489 -0.4969
 9553SOL    HW240119   0.880   1.033   1.288 -2.8523 -1.6660 -0.4481
 9554SOL     OW40120   0.717   2.362   8.980 -0.0279  0.3797 -0.3473
 9554SOL    HW140121   0.759   2.429   9.035 -0.6642  0.0560  0.5317
 9554SOL    HW240122   0.687   2.304   9.050 -1.0260 -0.0202 -1.1030
 9555SOL     OW40123   1.264   4.403   4.812  0.1390 -0.0046 -0.0298
 9555SOL    HW140124   1.334   4.346   4.844 -1.7057 -0.8420  2.5074
 9555SOL    HW240125   1.187   4.378   4.863 -0.4565  0.6843 -0.5943
 9556SOL     OW40126   2.082   2.897   8.261  0.3373  0.1474  0.0156
 9556SOL    HW140127   2.109   2.806   8.245  0.1276  0.2491 -0.9414
 9556SOL    HW240128   2.140   2.908   8.336 -1.3513  1.2361  1.1662
 9557SOL     OW40129   2.109   3.592   4.828  0.3313 -0.2977  0.3991
 9557SOL    HW140130   2.088   3.631   4.743 -1.7394  1.5098  1.7284
 9557SOL    HW240131   2.197   3.628   4.840 -0.2145  0.5119  2.0546
 9558SOL     OW40132   2.977   2.398  10.820  0.3756  0.6507  0.0982
 9558SOL    HW140133   2.966   2.489  10.847  1.2098  0.4875  0.9962
 9558SOL    HW240134   3.021   2.404  10.735  0.2921  1.0744  0.0859
 9559SOL     OW40135   0.019   4.217   4.597 -0.2677 -0.0670  0.2308
 9559SOL    HW140136   0.082   4.244   4.665 -0.4509  2.3851 -0.5979
 9559SOL    HW240137   0.080   4.164   4.546 -0.9303 -0.7788  0.1762
 9560SOL     OW40138   1.229   2.301  13.752  0.0968  0.2288 -0.5468
 9560SOL    HW140139   1.144   2.336  13.779  0.5136  1.4047 -0.7698
 9560SOL    HW240140   1.229   2.210  13.781  1.3245  0.5232  0.3460
 9561SOL     OW40141   3.266   3.792  10.914  0.2330 -0.4056  0.3658
 9561SOL    HW140142   3.253   3.765  11.005 -0.9557 -1.3775 -0.1017
 9561SOL    HW240143   3.183   3.832  10.887 -0.2697 -1.4919  0.3155
 9562SOL     OW40144   0.138   4.512  13.757 -0.6727 -0.4023  0.0399
 9562SOL    HW140145   0.173   4.601  13.747 -4.5374  1.3922  2.5073
 9562SOL    HW240146   0.046   4.516  13.732  0.1508 -0.3167 -2.9841
 9563SOL     OW40147   3.718   3.002   5.259  0.4473 -0.0960  0.3790
 9563SOL    HW140148   3.628   2.980   5.234  0.1747  0.6686  0.7072
 9563SOL    HW240149   3.761   3.015   5.175 -1.6747 -2.0563 -1.0261
 9564SOL     OW40150   1.341   2.627  12.020  0.3609 -0.4456  0.1889
 9564SOL    HW140151   1.312   2.536  12.013 -1.8989  0.0802  2.3499
 9564SOL    HW240152   1.419   2.611  12.073  0.2213 -1.5473  0.0635
 9565SOL     OW40153   4.561   4.709  16.364  0.3752 -0.3824 -0.0550
 9565SOL    HW140154   4.619   0.024  16.429 -2.8588  2.9379  0.7969
 9565SOL    HW240155   4.582   4.617  16.384  2.1392  0.5034  2.1796
   4.72505   4.72505  17.70160
