Membrane in water
40155
    1TCq1    O1    1   2.697   1.749  11.181 -0.1707 -0.3335  0.1730
    1TCq1    C1    2   2.699   1.614  11.197 -0.4298  0.1642  0.1303
    1TCq1    O2    3   2.607   1.537  11.218 -0.1040 -0.6703  0.2388
    1TCq1    C2    4   2.836   1.582  11.217  0.3093 -0.5265  0.0876
    1TCq1    C3    5   2.924   1.610  11.125  0.2459 -0.7204 -0.9649
    1TCq1    C4    6   3.057   1.598  11.161  0.3870  0.0973  0.8866
    1TCq1    C5    7   3.086   1.561  11.286 -0.1942  0.0874 -0.2110
    1TCq1    C6    8   2.996   1.539  11.380 -0.4366  0.4188  0.5888
    1TCq1    C7    9   2.859   1.555  11.351  0.0780  0.5766 -0.5447
    1TCq1    C8   10   3.030   1.530  11.520  0.5769 -0.0716 -1.3436
    1TCq1    O4   11   2.942   1.562  11.595  0.0781  0.1683 -0.6732
    1TCq1    C9   12   3.154   1.639  11.066 -0.1886 -0.0192 -0.4407
    1TCq1    O5   13   3.276   1.631  11.097  0.6821 -0.0730  0.1669
    1TCq1    O6   14   3.123   1.707  10.963 -0.0539  0.5631  0.0055
    1TCq1    H1   15   2.783   1.796  11.179  0.7028 -1.9989 -0.9084
    1TCq1    H2   16   2.890   1.644  11.027  3.4301  2.1095 -1.0835
    1TCq1    H3   17   3.192   1.556  11.308 -0.0704 -1.2173 -1.0961
    1TCq1    H4   18   2.778   1.550  11.422  0.7223 -0.1750  0.1349
    2MPD2     C   19   3.323   1.460  11.933 -0.1529  0.0552 -0.2398
    2MPD2    C1   20   3.213   1.541  11.913  0.2575  0.1702 -0.1128
    2MPD2    C2   21   3.153   1.548  11.784 -0.1965 -0.8057  0.6755
    2MPD2    C3   22   3.211   1.483  11.672  0.3393 -0.9722  0.1279
    2MPD2    C4   23   3.327   1.416  11.694  0.2467 -0.4299 -0.1601
    2MPD2    C5   24   3.380   1.400  11.822 -0.2671  0.2489 -0.8592
    2MPD2     H   25   3.065   1.611  11.778 -0.1470 -0.7447  0.5851
    2MPD2    H1   26   3.383   1.375  11.611 -0.8779 -2.3279  0.0385
    2MPD2    H2   27   3.379   1.448  12.025 -1.9953  0.1906  0.9061
    2MPD2    H3   28   3.469   1.341  11.833 -0.3503  0.3341  0.2950
    2MPD2     N   29   3.156   1.486  11.545  0.0937  0.5947  0.2085
    2MPD2    H5   30   3.206   1.441  11.469 -1.7235 -0.6521 -0.2426
    2MPD2    N1   31   3.150   1.619  12.020 -0.1563 -0.5392 -0.1145
    2MPD2    H7   32   3.079   1.686  11.994 -3.2330 -3.9995 -0.5573
    3TCq1    O1   33   2.528   1.985  11.394  0.1487  0.2448 -0.3467
    3TCq1    C1   34   2.460   1.983  11.278 -0.0254 -0.4280 -0.4297
    3TCq1    O2   35   2.355   1.917  11.272  0.8759 -0.0372  0.0930
    3TCq1    C2   36   2.466   2.121  11.226 -0.4104  0.5615  0.1108
    3TCq1    C3   37   2.562   2.210  11.277 -0.2318 -0.5724  0.2503
    3TCq1    C4   38   2.542   2.345  11.265  0.2795  0.1713 -0.1664
    3TCq1    C5   39   2.428   2.402  11.216  0.4796 -0.7612 -0.6802
    3TCq1    C6   40   2.335   2.312  11.174  1.4603 -0.0733  0.1580
    3TCq1    C7   41   2.350   2.173  11.177  0.3679  0.1489  0.0776
    3TCq1    C8   42   2.203   2.348  11.136  0.3253  0.2704  0.2949
    3TCq1    O4   43   2.116   2.263  11.133  0.5397 -0.1853 -0.0874
    3TCq1    C9   44   2.644   2.440  11.296 -0.2002 -0.0039  0.7287
    3TCq1    O5   45   2.603   2.551  11.337 -0.3931 -0.7495  0.1352
    3TCq1    O6   46   2.766   2.411  11.281 -0.3781  0.1838  0.5183
    3TCq1    H1   47   2.620   2.020  11.392  0.7834 -1.4418 -0.8769
    3TCq1    H2   48   2.662   2.181  11.308 -0.0068 -0.7496 -0.6584
    3TCq1    H3   49   2.421   2.510  11.204  1.8510 -0.7630 -1.5225
    3TCq1    H4   50   2.275   2.101  11.149 -0.2754  0.6509  0.5162
    4MPD2     C   51   1.878   2.697  10.941  1.0947 -0.1716 -0.6370
    4MPD2    C1   52   1.999   2.757  10.967 -0.3822  0.4280  1.2454
    4MPD2    C2   53   2.095   2.681  11.023 -0.5203  0.7739  0.4095
    4MPD2    C3   54   2.080   2.545  11.051 -0.1111  0.1289 -0.3833
    4MPD2    C4   55   1.961   2.487  11.026 -0.7447 -0.0117 -0.3581
    4MPD2    C5   56   1.861   2.564  10.971 -0.7237  0.1305  0.2463
    4MPD2     H   57   2.191   2.726  11.048 -0.4991  0.9756 -0.0307
    4MPD2    H1   58   1.932   2.384  11.044 -1.1790  0.0487 -0.7228
    4MPD2    H2   59   1.794   2.754  10.903  0.2693  0.9455  2.8773
    4MPD2    H3   60   1.771   2.511  10.942 -0.1117 -1.5430  1.4006
    4MPD2     N   61   2.193   2.475  11.091  0.2839  0.6518  0.8762
    4MPD2    H5   62   2.284   2.519  11.084  1.1191 -1.1869  0.0885
    4MPD2    N1   63   2.019   2.893  10.939 -0.2523  0.1593 -0.1314
    4MPD2    H7   64   2.101   2.940  10.975  0.2440 -2.5374  2.2065
    5TCq1    O1   65   3.195   4.674  11.586 -0.0508  0.2891 -0.6926
    5TCq1    C1   66   3.168   4.539  11.589 -0.9875  0.0452 -0.1016
    5TCq1    O2   67   3.254   4.457  11.621  0.1906 -0.3594 -0.1627
    5TCq1    C2   68   3.082   4.529  11.473  0.5374 -0.6429 -0.4204
    5TCq1    C3   69   2.980   4.617  11.457 -0.0309 -0.0847  0.3380
    5TCq1    C4   70   2.924   4.633  11.333 -0.1201 -0.3922  0.0907
    5TCq1    C5   71   2.971   4.567  11.225  0.2560  0.3867 -0.3172
    5TCq1    C6   72   3.081   4.482  11.240 -0.6725 -0.4670 -0.8569
    5TCq1    C7   73   3.120   4.452  11.368 -0.4763 -0.6634 -0.0194
    5TCq1    C8   74   3.126   4.397  11.128  0.1038  0.1841  0.0671
    5TCq1    O4   75   3.204   4.308  11.152  0.0988  0.0045 -0.3740
    5TCq1    C9   76   2.817   0.003  11.311  0.1874  0.4731  0.4505
    5TCq1    O5   77   2.767   0.013  11.193  0.7616 -0.3172 -0.2619
    5TCq1    O6   78   2.787   0.079  11.408  0.2306 -0.1493  0.7359
    5TCq1    H1   79   3.130   4.726  11.534 -0.3041  1.5660  0.8983
    5TCq1    H2   80   2.930   4.668  11.539 -1.3937 -0.8027 -0.0374
    5TCq1    H3   81   2.933   4.592  11.127  0.6802  1.2229 -0.2698
    5TCq1    H4   82   3.208   4.388  11.372  1.1492  1.5008 -1.0261
    6MPD2     C   83   3.010   4.435  10.788 -0.3461  0.2013  0.2753
    6MPD2    C1   84   3.088   4.384  10.886 -0.0854 -0.2294 -0.4832
    6MPD2    C2   85   3.172   4.270  10.865 -1.1936  0.2409 -0.5316
    6MPD2    C3   86   3.174   4.208  10.742  0.8471  0.1525  0.1674
    6MPD2    C4   87   3.090   4.256  10.649  0.9231 -0.7456  0.0468
    6MPD2    C5   88   3.008   4.360  10.670  0.1329  0.3420 -0.8964
    6MPD2     H   89   3.225   4.221  10.947 -0.1379  0.4789 -1.0640
    6MPD2    H1   90   3.086   4.204  10.554  1.1451 -0.9767  0.1641
    6MPD2    H2   91   2.945   4.519  10.806 -1.9170 -0.8043 -0.7123
    6MPD2    H3   92   2.944   4.398  10.591  0.8581  0.5435 -1.3802
    6MPD2     N   93   3.251   4.092  10.725 -0.2263  0.2106  0.2571
    6MPD2    H5   94   3.290   4.048  10.808  0.8911 -0.1647 -0.4669
    6MPD2    N1   95   3.070   4.441  11.014  0.5355  0.5244  0.5314
    6MPD2    H7   96   3.006   4.519  11.023  0.9423  0.5536  3.0604
    7TCq1    O1   97   0.373   4.399  13.027  0.4626 -0.4647 -0.5183
    7TCq1    C1   98   0.287   4.375  12.926  0.2576  0.4287  0.0912
    7TCq1    O2   99   0.254   4.449  12.833  0.1993  0.1113 -0.0721
    7TCq1    C2  100   0.235   4.239  12.934 -0.7835 -0.0787 -0.1712
    7TCq1    C3  101   0.125   4.216  12.854 -0.1463 -0.2013 -0.3456
    7TCq1    C4  102   0.054   4.107  12.877  0.4992  0.4298  1.3475
    7TCq1    C5  103   0.093   4.004  12.953 -0.6764 -0.4581 -0.2418
    7TCq1    C6  104   0.199   4.027  13.031 -0.5762 -0.1162 -0.2127
    7TCq1    C7  105   0.279   4.138  13.015 -0.4304  0.7054 -0.2698
    7TCq1    C8  106   0.239   3.917  13.120  0.7979 -0.0712  0.4440
    7TCq1    O4  107   0.187   3.809  13.098 -0.3700  0.2303 -0.1578
    7TCq1    C9  108   4.660   4.093  12.797 -0.1005 -0.5890  0.5968
    7TCq1    O5  109   4.569   4.181  12.807  0.1545 -0.7800  0.2689
    7TCq1    O6  110   4.657   3.982  12.729  0.0527 -0.3960  0.2756
    7TCq1    H1  111   0.376   4.351  13.112  1.1970 -1.5776 -1.1801
    7TCq1    H2  112   0.080   4.295  12.794 -1.8813 -0.6632  0.3545
    7TCq1    H3  113   0.026   3.922  12.973 -0.2927 -0.9308 -0.8560
    7TCq1    H4  114   0.371   4.146  13.073 -0.6849 -0.4856  0.2872
    8MPD2     C  115   0.587   3.741  13.464 -0.5905 -0.1479  0.2752
    8MPD2    C1  116   0.477   3.679  13.412  0.1146 -0.3301 -0.6710
    8MPD2    C2  117   0.393   3.754  13.332  0.5067 -0.1928  0.5136
    8MPD2    C3  118   0.423   3.878  13.291  0.2923 -0.7938 -0.1031
    8MPD2    C4  119   0.534   3.945  13.344  0.8430 -0.1424  0.4926
    8MPD2    C5  120   0.617   3.869  13.429 -0.0046 -0.2820  0.4219
    8MPD2     H  121   0.296   3.714  13.305  1.1661 -1.0614 -0.5812
    8MPD2    H1  122   0.569   4.047  13.334  1.3974 -0.4940 -1.1663
    8MPD2    H2  123   0.654   3.691  13.533  1.7170  1.3951 -0.8377
    8MPD2    H3  124   0.709   3.911  13.467  0.2004 -0.9087  0.6044
    8MPD2     N  125   0.342   3.957  13.210 -0.5322  0.0010  0.3072
    8MPD2    H5  126   0.376   4.053  13.206 -1.4477  0.3073 -0.2301
    8MPD2    N1  127   0.442   3.547  13.455 -0.0291  0.3607 -0.2708
    8MPD2    H7  128   0.498   3.504  13.528  1.2815 -1.8951 -2.5831
    9TCq1    O1  129   3.241   3.627  10.931 -0.4565  0.1660  0.0652
    9TCq1    C1  130   3.296   3.505  10.909 -0.2605 -0.3251 -0.3988
    9TCq1    O2  131   3.387   3.478  10.830 -0.2620 -0.3340 -0.2780
    9TCq1    C2  132   3.288   3.440  11.039 -0.6356  0.3896  0.0498
    9TCq1    C3  133   3.403   3.374  11.081 -0.4746 -0.3670  0.1588
    9TCq1    C4  134   3.393   3.282  11.182  0.6827 -0.4110 -0.4272
    9TCq1    C5  135   3.272   3.262  11.244  0.2566 -0.3726 -0.6771
    9TCq1    C6  136   3.163   3.332  11.195  0.1723 -0.1345 -1.2123
    9TCq1    C7  137   3.166   3.421  11.095 -0.1375  0.1703 -0.0498
    9TCq1    C8  138   3.032   3.304  11.253  0.5405  0.3545 -0.1237
    9TCq1    O4  139   2.943   3.384  11.225 -0.1132  0.3944 -0.0140
    9TCq1    C9  140   3.509   3.201  11.206  0.1900  0.0555 -0.2291
    9TCq1    O5  141   3.612   3.217  11.136  0.3943  0.3073  0.1590
    9TCq1    O6  142   3.503   3.144  11.318  0.0327 -0.4468 -0.2158
    9TCq1    H1  143   3.201   3.639  11.020 -0.0145 -0.6505  0.3746
    9TCq1    H2  144   3.498   3.384  11.031  1.7850  1.8861  4.8905
    9TCq1    H3  145   3.264   3.191  11.326 -1.0358 -1.2715 -1.5969
    9TCq1    H4  146   3.074   3.452  11.047 -0.5516  0.0590  0.6787
   10MPD2     C  147   2.778   3.189  11.377  0.0204 -0.0145 -0.3287
   10MPD2    C1  148   2.907   3.145  11.398 -0.6041  0.0901  0.9556
   10MPD2    C2  149   2.924   3.039  11.489 -0.0577  0.3900  0.2364
   10MPD2    C3  150   2.816   2.983  11.558  0.9170  0.3078  0.5101
   10MPD2    C4  151   2.689   3.030  11.522  0.7171  0.3350  0.0723
   10MPD2    C5  152   2.663   3.132  11.438 -0.6900 -0.2982 -0.3844
   10MPD2     H  153   3.023   2.999  11.509  0.5475  0.8009 -2.0078
   10MPD2    H1  154   2.601   2.983  11.564 -0.2063  2.6026  0.6696
   10MPD2    H2  155   2.751   3.265  11.305 -0.5349 -1.5429 -1.7189
   10MPD2    H3  156   2.564   3.176  11.427 -0.3203  1.0521  1.7035
   10MPD2     N  157   2.825   2.891  11.670 -0.2016 -0.3345 -0.4167
   10MPD2    H5  158   2.737   2.857  11.707 -0.1718  1.4182  1.2676
   10MPD2    N1  159   3.027   3.192  11.336 -0.3622  0.0362 -0.0939
   10MPD2    H7  160   3.112   3.137  11.349  0.2931  0.8741 -0.8199
   11TCq1    O1  161   3.962   2.887  14.240 -0.4042 -0.0906 -0.8562
   11TCq1    C1  162   4.065   2.818  14.285 -0.0759 -0.6543 -0.5738
   11TCq1    O2  163   4.185   2.836  14.265  0.0101  0.0193  0.2152
   11TCq1    C2  164   4.013   2.767  14.411 -0.0003  0.1257  0.2717
   11TCq1    C3  165   4.064   2.803  14.531  0.3757  0.1511  0.5796
   11TCq1    C4  166   3.999   2.765  14.645  0.4825 -0.2431  0.1005
   11TCq1    C5  167   3.883   2.699  14.639  0.5299 -0.3578  0.3884
   11TCq1    C6  168   3.830   2.670  14.512 -0.3811 -0.2432  0.2014
   11TCq1    C7  169   3.884   2.707  14.399  0.4070  0.2757  0.5206
   11TCq1    C8  170   3.698   2.614  14.510  0.2087  0.5719  0.3551
   11TCq1    O4  171   3.612   2.645  14.591 -0.6340 -0.3410  0.0830
   11TCq1    C9  172   4.051   2.817  14.772 -0.1680  0.3246 -0.5860
   11TCq1    O5  173   3.965   2.881  14.841  0.3280  0.4998 -0.0784
   11TCq1    O6  174   4.165   2.863  14.753 -0.0899  0.0867 -0.5802
   11TCq1    H1  175   3.896   2.878  14.313  1.9275 -1.4920  1.0863
   11TCq1    H2  176   4.163   2.847  14.535 -0.2132  1.7035 -2.0600
   11TCq1    H3  177   3.823   2.680  14.727 -0.0599 -0.0372  0.0491
   11TCq1    H4  178   3.846   2.675  14.303 -0.1744 -0.9336  1.1468
   12MPD2     C  179   3.433   2.515  14.409 -0.7461  0.1461 -0.5149
   12MPD2    C1  180   3.555   2.470  14.371  0.5312 -0.4657 -0.0588
   12MPD2    C2  181   3.566   2.357  14.293  0.2959  0.6677 -0.2926
   12MPD2    C3  182   3.451   2.293  14.252  0.1727 -0.2646  0.2823
   12MPD2    C4  183   3.324   2.335  14.298  0.0308 -0.6541 -0.2694
   12MPD2    C5  184   3.325   2.449  14.371  0.4082 -0.8849  0.0456
   12MPD2     H  185   3.664   2.323  14.262 -1.4145 -1.0330 -3.7974
   12MPD2    H1  186   3.232   2.280  14.278 -0.5489  0.1524  0.1913
   12MPD2    H2  187   3.409   2.598  14.475  1.8115 -0.9704  1.8538
   12MPD2    H3  188   3.230   2.490  14.405 -0.0917 -1.5100 -0.5769
   12MPD2     N  189   3.449   2.176  14.181 -0.1091  0.2290 -0.3567
   12MPD2    H5  190   3.360   2.132  14.160 -0.2526  0.8973 -1.1397
   12MPD2    N1  191   3.678   2.533  14.406  0.2420  0.2043 -0.0087
   12MPD2    H7  192   3.755   2.520  14.342 -1.1329  0.6818 -1.7594
   13TCq1    O1  193   3.455   2.954  11.478 -0.3004  0.1042  0.3727
   13TCq1    C1  194   3.328   2.911  11.488 -1.2219  0.3053  0.1305
   13TCq1    O2  195   3.235   2.957  11.424  0.0707  0.6005 -0.3701
   13TCq1    C2  196   3.325   2.784  11.548  0.6759 -0.0949 -0.0972
   13TCq1    C3  197   3.423   2.731  11.625  0.4107  0.0366 -0.4559
   13TCq1    C4  198   3.396   2.614  11.683 -0.4344  0.3566 -0.2495
   13TCq1    C5  199   3.283   2.539  11.662 -0.1381  0.5747  0.4621
   13TCq1    C6  200   3.185   2.601  11.595 -0.9171 -0.2722 -0.0523
   13TCq1    C7  201   3.205   2.721  11.532  0.3281 -0.0267 -0.1575
   13TCq1    C8  202   3.047   2.551  11.599 -0.3620 -0.5161  0.2507
   13TCq1    O4  203   2.962   2.610  11.534 -0.2424 -0.3490  0.1289
   13TCq1    C9  204   3.502   2.568  11.777  0.1277 -0.3609 -0.7521
   13TCq1    O5  205   3.613   2.629  11.783 -0.0599 -0.4341  0.1767
   13TCq1    O6  206   3.468   2.476  11.863  0.4054 -0.1076  0.4051
   13TCq1    H1  207   3.468   3.028  11.415 -1.7464  1.5902  1.8267
   13TCq1    H2  208   3.511   2.789  11.650  1.3595 -2.0550  1.1280
   13TCq1    H3  209   3.274   2.447  11.718  0.5611  0.7675  0.8912
   13TCq1    H4  210   3.125   2.774  11.482 -0.3007 -1.0376 -0.2337
   14MPD2     C  211   2.901   2.259  11.754  0.0400  0.3905 -0.1894
   14MPD2    C1  212   2.901   2.367  11.669  0.7586 -0.3151  0.1211
   14MPD2    C2  213   2.780   2.406  11.614  0.4009 -0.2104 -0.1402
   14MPD2    C3  214   2.667   2.333  11.631  0.1645 -0.3849  0.0338
   14MPD2    C4  215   2.670   2.216  11.704 -0.2634 -0.0317  0.2231
   14MPD2    C5  216   2.787   2.183  11.767  0.4951 -0.7835  0.1364
   14MPD2     H  217   2.770   2.494  11.553  1.2024 -0.9079 -1.2779
   14MPD2    H1  218   2.583   2.151  11.710 -0.8143  0.6460 -0.3810
   14MPD2    H2  219   2.980   2.244  11.827 -1.1169  1.2886  1.2421
   14MPD2    H3  220   2.787   2.100  11.835 -0.3708 -0.1828  0.8731
   14MPD2     N  221   2.542   2.398  11.588  0.3297  0.8160 -0.1146
   14MPD2    H5  222   2.548   2.481  11.531  2.4326  0.9074  0.2464
   14MPD2    N1  223   3.024   2.432  11.661 -0.0216 -0.1822 -0.1155
   14MPD2    H7  224   3.109   2.392  11.701  0.1014 -1.2338 -1.4132
   15TCq1    O1  225   3.805   0.558   2.620  0.2420 -0.7931 -0.0407
   15TCq1    C1  226   3.874   0.660   2.558  0.3670 -0.7942  0.3372
   15TCq1    O2  227   3.815   0.751   2.501  0.0989  0.5869 -0.4435
   15TCq1    C2  228   4.016   0.631   2.572 -0.3916  0.0057 -0.4556
   15TCq1    C3  229   4.069   0.583   2.689 -0.3857 -0.0249 -0.4700
   15TCq1    C4  230   4.197   0.531   2.686  0.2796 -0.7193 -0.6711
   15TCq1    C5  231   4.265   0.537   2.567  0.1860  0.1917 -0.0771
   15TCq1    C6  232   4.214   0.602   2.458  0.0938 -0.1561  0.1841
   15TCq1    C7  233   4.090   0.653   2.462 -0.7801 -0.3799  0.1466
   15TCq1    C8  234   4.299   0.612   2.344  0.4087 -1.0571  0.1321
   15TCq1    O4  235   4.387   0.527   2.336  0.7015 -0.1719  0.2490
   15TCq1    C9  236   4.261   0.484   2.805 -0.6725  0.4624 -0.3883
   15TCq1    O5  237   4.205   0.497   2.916  0.0156 -0.2268 -0.1338
   15TCq1    O6  238   4.360   0.408   2.789 -0.2674 -0.6196  0.0979
   15TCq1    H1  239   3.854   0.481   2.656 -1.0516 -1.5211  0.1500
   15TCq1    H2  240   4.010   0.582   2.780 -0.8610 -1.7312 -0.8057
   15TCq1    H3  241   4.371   0.518   2.560  0.0261 -0.6352 -0.3384
   15TCq1    H4  242   4.037   0.676   2.370 -0.8462  0.0805  0.3002
   16MPD2     C  243   4.237   0.781   2.018 -0.1909 -0.6911 -0.0019
   16MPD2    C1  244   4.296   0.693   2.107 -0.2560  0.0262 -0.5356
   16MPD2    C2  245   4.406   0.615   2.065  0.5753 -0.2882  0.4909
   16MPD2    C3  246   4.443   0.619   1.927  0.2739 -0.1671 -0.1138
   16MPD2    C4  247   4.382   0.708   1.839  0.2225 -0.3411  0.1643
   16MPD2    C5  248   4.275   0.786   1.885  0.5858 -0.1457  0.4454
   16MPD2     H  249   4.454   0.541   2.128  0.9034  0.5353  1.2087
   16MPD2    H1  250   4.423   0.723   1.740 -1.1511 -0.3460 -0.3930
   16MPD2    H2  251   4.155   0.847   2.044 -1.3561 -2.1844  0.1197
   16MPD2    H3  252   4.234   0.858   1.815 -1.1216 -1.8557 -0.3144
   16MPD2     N  253   4.547   0.530   1.886 -0.3238 -1.2143 -0.3384
   16MPD2    H5  254   4.603   0.488   1.960  0.7647 -0.6884 -0.8594
   16MPD2    N1  255   4.260   0.701   2.245  0.1513 -0.3598  0.2639
   16MPD2    H7  256   4.192   0.771   2.275  1.1974 -0.1221  2.0852
   17TCq1    O1  257   2.848   1.799  11.799 -0.2973 -0.2415 -0.0386
   17TCq1    C1  258   2.949   1.885  11.821 -0.2860 -0.3953 -0.4381
   17TCq1    O2  259   3.011   1.884  11.930  0.0572 -0.3045  0.7343
   17TCq1    C2  260   3.002   1.914  11.692  0.2612 -0.0188 -0.3315
   17TCq1    C3  261   2.917   1.914  11.584  0.5019 -0.3484 -0.4637
   17TCq1    C4  262   2.971   1.899  11.458 -0.4871  0.0039 -0.6376
   17TCq1    C5  263   3.105   1.868  11.445  0.1358  0.1341 -0.2354
   17TCq1    C6  264   3.182   1.853  11.560 -0.3232  0.5235 -0.3485
   17TCq1    C7  265   3.133   1.884  11.681  0.6897  0.3985  0.7345
   17TCq1    C8  266   3.325   1.873  11.547 -0.1887  0.3437 -0.9866
   17TCq1    O4  267   3.387   1.903  11.648  0.0001 -0.4655 -0.0523
   17TCq1    C9  268   2.886   1.924  11.347  0.8112  0.0665  0.3916
   17TCq1    O5  269   2.798   2.015  11.367 -0.9026 -0.0687 -0.0269
   17TCq1    O6  270   2.933   1.886  11.233  0.1255 -0.0122  0.4594
   17TCq1    H1  271   2.825   1.787  11.705  2.1795 -1.3968 -0.4955
   17TCq1    H2  272   2.810   1.932  11.584  0.1292 -2.7186  1.5514
   17TCq1    H3  273   3.149   1.876  11.346  1.9963  2.8695  0.8089
   17TCq1    H4  274   3.201   1.879  11.766  0.7776  0.3213  0.6588
   18MPD2     C  275   3.584   1.998  11.465 -0.5032 -0.3027  0.0227
   18MPD2    C1  276   3.508   1.914  11.388  0.8165 -0.1763 -0.1361
   18MPD2    C2  277   3.556   1.884  11.263  0.3739 -0.1996 -0.2100
   18MPD2    C3  278   3.687   1.923  11.224  0.7531 -0.0348  0.1882
   18MPD2    C4  279   3.768   1.993  11.307  0.4917  0.3734  0.6061
   18MPD2    C5  280   3.717   2.031  11.430  0.2582 -0.3314  0.1576
   18MPD2     H  281   3.488   1.832  11.197 -0.0049 -0.2816  0.2483
   18MPD2    H1  282   3.867   2.017  11.271  0.8236 -0.2628  1.1106
   18MPD2    H2  283   3.548   2.030  11.563 -0.2570  0.6726 -0.2090
   18MPD2    H3  284   3.772   2.098  11.496 -0.8246  0.2524  0.4597
   18MPD2     N  285   3.745   1.885  11.098  0.2127  0.3005 -0.1890
   18MPD2    H5  286   3.844   1.903  11.090  0.9538 -2.6111  2.0212
   18MPD2    N1  287   3.378   1.876  11.419 -0.7852  0.8453  0.3420
   18MPD2    H7  288   3.316   1.842  11.346  1.0221 -0.7429 -0.4635
   19TMC2    C1  289   4.425   2.232  14.078  0.4064  0.4589 -0.0180
   19TMC2    C2  290   4.372   2.270  13.955  0.5708  0.0246  0.9136
   19TMC2    C3  291   4.234   2.260  13.939  0.0297  0.5592  0.6783
   19TMC2    C4  292   4.349   2.170  14.168 -0.8236 -0.8184 -0.2775
   19TMC2    C5  293   4.217   2.146  14.139 -0.0223 -0.2013  0.0299
   19TMC2    C6  294   4.154   2.191  14.024 -0.7332 -0.3299  0.4482
   19TMC2     C  295   4.567   2.204  14.088  0.1054  0.4773 -0.2237
   19TMC2     O  296   4.635   2.226  13.985 -0.1832  0.1409  0.7779
   19TMC2     H  297   4.431   2.309  13.872  0.0389 -0.4069  0.3301
   19TMC2    H1  298   4.390   2.132  14.261 -0.5307  0.3425  0.0750
   19TMC2    H2  299   4.046   2.185  14.015 -0.2993 -3.6409 -2.5103
   19TMC2    C7  300   4.189   2.005  14.171 -0.5272 -1.0490  0.8783
   19TMC2    C8  301   4.190   2.294  13.801 -0.7314  0.5475  0.3411
   19TMC2    O1  302   4.283   1.935  14.154  0.0014  0.5301 -0.6676
   19TMC2    O2  303   4.270   2.295  13.710 -0.0245 -0.2658 -0.3557
   19TMC2    O5  304   4.063   2.346  13.800 -0.6295 -0.1837 -0.6739
   19TMC2    H5  305   4.022   2.378  13.883  0.1829  0.6060 -0.5791
   20MPD2     C  306   0.065   2.031  14.153  0.5459 -0.2620  0.0562
   20MPD2    C1  307   0.009   2.118  14.253  0.4882 -0.9765  0.1059
   20MPD2    C2  308   0.056   2.119  14.385 -0.4695  0.1977  0.3360
   20MPD2    C3  309   0.146   2.025  14.428 -0.9144  0.2180 -0.9657
   20MPD2    C4  310   0.202   1.935  14.332 -0.0696 -0.1224 -0.6097
   20MPD2    C5  311   0.165   1.952  14.194  0.1069  0.0852 -0.0487
   20MPD2     H  312   0.008   2.195  14.446  0.5363  2.5504 -1.7642
   20MPD2    H1  313   0.278   1.861  14.354 -1.2974 -1.1149  0.3475
   20MPD2    H2  314   0.044   2.040  14.047  1.0798 -1.3722 -0.1430
   20MPD2    H3  315   0.215   1.882  14.127  0.0934 -0.9427  1.0012
   20MPD2     N  316   0.199   2.012  14.557 -0.6876 -0.3469 -0.1310
   20MPD2    H5  317   0.269   1.942  14.578 -0.9742 -0.3970  0.6743
   20MPD2    N1  318   4.619   2.198  14.216  0.3558 -0.5754  0.1940
   20MPD2    H7  319   4.561   2.230  14.294 -1.1855 -0.5385 -0.9696
   21MPD2     C  320   2.062   2.598  14.214 -0.0933 -0.0624  0.4369
   21MPD2    C1  321   2.125   2.481  14.260  0.0447 -0.2974 -0.0713
   21MPD2    C2  322   2.071   2.420  14.368  0.2119  0.0028 -0.8462
   21MPD2    C3  323   1.953   2.462  14.433 -0.5569 -0.3447 -0.3368
   21MPD2    C4  324   1.893   2.581  14.385  0.0062  0.2124  0.0005
   21MPD2    C5  325   1.948   2.639  14.277  0.0725 -0.0073 -0.4869
   21MPD2     H  326   2.119   2.330  14.403 -0.9532  0.1160  1.0671
   21MPD2    H1  327   1.801   2.619  14.428 -0.3839 -1.3372  0.5159
   21MPD2    H2  328   2.102   2.658  14.133 -1.4625  2.2743  1.5052
   21MPD2    H3  329   1.894   2.722  14.232  1.6945  1.4843  0.3040
   21MPD2     N  330   1.899   2.409  14.546  0.7870  0.0198 -0.0137
   21MPD2    H5  331   1.820   2.448  14.596  1.4726  0.8469  0.4396
   21MPD2    N1  332   2.243   2.428  14.203 -0.1265 -0.4951  1.1521
   21MPD2    H7  333   2.287   2.347  14.245 -0.9149 -1.9670 -0.8740
   22TCq2    C1  334   1.944   2.298  14.613  0.2349  0.8830  0.3544
   22TCq2    O2  335   2.048   2.232  14.601 -0.4913 -0.2037  0.7360
   22TCq2    C2  336   1.868   2.270  14.733 -0.0686 -0.0159  0.2029
   22TCq2    C3  337   1.928   2.205  14.832  0.4550 -0.0575 -0.2767
   22TCq2    C4  338   1.858   2.158  14.939 -0.2243 -0.1805 -0.3341
   22TCq2    C5  339   1.728   2.191  14.958 -0.4353 -0.3774 -0.2270
   22TCq2    C6  340   1.664   2.268  14.864 -0.4108  0.2079 -0.2766
   22TCq2    C7  341   1.737   2.305  14.751  0.5738 -0.3650  0.0861
   22TCq2    C8  342   1.516   2.282  14.869 -0.1268  0.6926 -0.0492
   22TCq2    O4  343   1.462   2.198  14.941  0.3068  0.3178 -0.1720
   22TCq2    C9  344   1.920   2.072  15.036 -0.3659 -0.5717  0.2003
   22TCq2    O5  345   2.047   2.059  15.020  0.2092 -0.6184 -0.0606
   22TCq2    O6  346   1.853   2.022  15.135  0.4003 -0.0157  0.3041
   22TCq2    H2  347   2.035   2.187  14.833  0.4455 -0.0738  0.1589
   22TCq2    H3  348   1.678   2.156  15.048  1.2017  0.0180  0.8312
   22TCq2    H4  349   1.677   2.350  14.673 -0.1503 -1.6494 -0.1036
   23MPD2     C  350   3.809   3.381  14.567 -0.1206 -0.2035  0.1610
   23MPD2    C1  351   3.725   3.431  14.666  0.4807 -0.2949  0.3994
   23MPD2    C2  352   3.621   3.515  14.627 -0.2982 -1.1705  0.4708
   23MPD2    C3  353   3.600   3.547  14.491 -0.0385  0.1874  0.6288
   23MPD2    C4  354   3.682   3.486  14.397  0.8377 -0.0012 -0.0576
   23MPD2    C5  355   3.783   3.404  14.439  0.0650 -0.1302 -0.6344
   23MPD2     H  356   3.544   3.554  14.693 -1.7267  1.2059 -2.5985
   23MPD2    H1  357   3.658   3.500  14.293  2.1840  0.5783 -0.2883
   23MPD2    H2  358   3.895   3.320  14.592 -0.6608 -1.4776 -1.1046
   23MPD2    H3  359   3.845   3.360  14.361 -0.4415 -0.7356 -0.6924
   23MPD2     N  360   3.495   3.630  14.439  0.0043 -0.0971  0.0690
   23MPD2    H5  361   3.479   3.619  14.339  0.4607 -2.1510  0.2031
   23MPD2    N1  362   3.739   3.394  14.795  0.4754 -0.2299  0.2139
   23MPD2    H7  363   3.676   3.429  14.865  1.1468  0.2679  0.5680
   24TCq2    C1  364   3.406   3.706  14.512  0.1845 -0.0804  0.3296
   24TCq2    O2  365   3.403   3.722  14.635  0.0996  0.0032  0.0097
   24TCq2    C2  366   3.296   3.766  14.438  0.2029 -0.1596 -0.3355
   24TCq2    C3  367   3.233   3.874  14.490 -0.3185  0.6974 -0.2884
   24TCq2    C4  368   3.116   3.914  14.435  0.2676  0.0949  0.5186
   24TCq2    C5  369   3.054   3.843  14.338 -0.6331  0.8136  0.4406
   24TCq2    C6  370   3.114   3.726  14.292 -0.2180 -0.0951  0.4389
   24TCq2    C7  371   3.241   3.689  14.338 -0.7908 -0.6597 -0.5176
   24TCq2    C8  372   3.074   3.656  14.164  0.3386 -0.4528 -0.1169
   24TCq2    O4  373   3.154   3.573  14.118 -0.2668 -0.1352 -0.3306
   24TCq2    C9  374   3.070   4.049  14.468  0.6768  0.5627  0.4272
   24TCq2    O5  375   2.946   4.070  14.447 -0.2705  0.1638  0.4634
   24TCq2    O6  376   3.147   4.121  14.533 -0.1596  0.3714 -0.0478
   24TCq2    H2  377   3.300   3.934  14.551  1.3976  0.8725 -2.3520
   24TCq2    H3  378   2.962   3.884  14.298 -0.6169  0.4623  0.0385
   24TCq2    H4  379   3.294   3.601  14.305 -0.8094 -1.0303  0.4164
   25TMC2    C1  380   2.328   0.878  11.591  0.7488 -0.1286  0.0925
   25TMC2    C2  381   2.443   0.946  11.565  0.0339 -0.3391 -0.2843
   25TMC2    C3  382   2.527   0.963  11.673 -0.5334  0.7729 -0.4648
   25TMC2    C4  383   2.279   0.850  11.716 -0.0426 -0.0334  0.0652
   25TMC2    C5  384   2.361   0.897  11.816 -0.2332 -0.1372 -0.6834
   25TMC2    C6  385   2.488   0.933  11.796  0.2173 -0.4712  1.0857
   25TMC2     C  386   2.249   0.823  11.479  0.4232  0.4879 -0.0188
   25TMC2     O  387   2.271   0.884  11.375 -0.6398  0.3417 -0.4190
   25TMC2     H  388   2.472   0.958  11.461  2.1208  1.4972  0.5125
   25TMC2    H1  389   2.180   0.807  11.724  0.8866 -2.1643  0.1135
   25TMC2    H2  390   2.547   0.964  11.881 -0.2290 -0.9274  1.5616
   25TMC2    C7  391   2.310   0.877  11.953 -0.0364 -0.0598  0.1152
   25TMC2    C8  392   2.668   0.986  11.636 -0.1805 -0.0090  0.8468
   25TMC2    O1  393   2.392   0.865  12.042 -0.2021 -0.1094 -0.2674
   25TMC2    O2  394   2.694   0.976  11.515 -0.9024 -0.0469  0.5278
   25TMC2    O5  395   2.734   1.067  11.723 -1.0117 -0.4505  0.0117
   25TMC2    H5  396   2.703   1.081  11.815 -2.2057 -0.5714 -0.3706
   26MPD2     C  397   1.986   0.459  11.243  0.5350 -0.1622 -0.3067
   26MPD2    C1  398   2.001   0.420  11.375  0.1467  0.4836  0.7135
   26MPD2    C2  399   2.051   0.519  11.467 -0.2778  0.1040  0.0883
   26MPD2    C3  400   2.096   0.638  11.421 -0.0869  0.6433 -0.4004
   26MPD2    C4  401   2.063   0.685  11.293 -0.4747 -0.5943  0.3796
   26MPD2    C5  402   2.025   0.589  11.204 -0.1377  0.6926 -0.3848
   26MPD2     H  403   2.071   0.492  11.570 -3.8238  0.2815  0.8101
   26MPD2    H1  404   2.081   0.787  11.260  0.7717 -0.0810  2.6328
   26MPD2    H2  405   1.945   0.391  11.170  0.0605  0.0330 -0.2197
   26MPD2    H3  406   2.016   0.611  11.098  1.0978 -4.3219 -1.5149
   26MPD2     N  407   2.170   0.719  11.512 -0.0401  0.2501  0.3005
   26MPD2    H5  408   2.185   0.670  11.599 -0.7545 -0.7498 -0.1439
   26MPD2    N1  409   1.977   0.285  11.408  0.2948 -0.4743 -0.2643
   26MPD2    H7  410   1.965   0.226  11.327  0.7800  1.6946 -1.9087
   27TMC2    C1  411   1.368   3.100  11.786  0.2261 -0.0088 -0.2122
   27TMC2    C2  412   1.317   3.138  11.663 -0.8485  0.2770 -0.4184
   27TMC2    C3  413   1.278   3.267  11.657  0.5915  0.1352  0.1316
   27TMC2    C4  414   1.391   3.193  11.881 -0.0092 -0.3156 -0.3865
   27TMC2    C5  415   1.361   3.324  11.868 -0.0792  0.0374  0.0345
   27TMC2    C6  416   1.294   3.363  11.753  0.5758  0.1907 -0.5080
   27TMC2     C  417   1.301   2.982  11.830  0.4313 -0.6224  0.2895
   27TMC2     O  418   1.286   2.883  11.760 -0.3034  0.2116  0.0564
   27TMC2     H  419   1.276   3.066  11.594 -0.4067 -1.1962  0.8509
   27TMC2    H1  420   1.433   3.164  11.977 -3.5313 -1.4735  0.8115
   27TMC2    H2  421   1.269   3.466  11.728  2.0263  0.2105 -1.8774
   27TMC2    C7  422   1.318   3.394  11.993 -0.0502 -0.3948  0.2649
   27TMC2    C8  423   1.201   3.324  11.542 -0.1895  0.2553  0.8326
   27TMC2    O1  424   1.273   3.322  12.080  0.2690 -0.7775  0.2691
   27TMC2    O2  425   1.135   3.434  11.549 -0.5444  0.1857  0.0548
   27TMC2    O5  426   1.262   3.278  11.432  0.2048 -0.1530  0.2340
   27TMC2    H5  427   1.295   3.186  11.441  1.6767  0.5261  1.5987
   28MPD2     C  428   0.971   2.815  12.204  0.3043 -0.6184 -0.4649
   28MPD2    C1  429   0.982   2.950  12.218 -0.0804 -0.4058  0.1537
   28MPD2    C2  430   1.064   3.017  12.123  0.2741  0.4972 -0.2087
   28MPD2    C3  431   1.135   2.950  12.026 -0.3849 -0.3386  0.0140
   28MPD2    C4  432   1.112   2.818  12.007  0.6718 -0.6860 -0.0577
   28MPD2    C5  433   1.033   2.751  12.094 -0.4868 -0.2506 -0.5412
   28MPD2     H  434   1.079   3.123  12.139  1.8571  0.0000  1.5907
   28MPD2    H1  435   1.160   2.767  11.923 -0.2652  1.0061 -1.6209
   28MPD2    H2  436   0.919   2.750  12.273  0.4032 -0.4715 -0.2522
   28MPD2    H3  437   1.013   2.646  12.076  0.7237 -0.4445 -0.7668
   28MPD2     N  438   1.226   3.021  11.943 -0.4898  0.0003 -0.6629
   28MPD2    H5  439   1.241   3.112  11.985 -0.6208 -0.7997  1.0889
   28MPD2    N1  440   0.919   3.007  12.326 -0.6985  0.4910 -0.2467
   28MPD2    H7  441   0.869   2.938  12.381  2.4258  0.0531  2.0652
   29MPD2     C  442   0.636   0.613  14.216  0.2538 -0.1383 -0.0870
   29MPD2    C1  443   0.740   0.605  14.300  0.3964 -0.8573  0.1361
   29MPD2    C2  444   0.776   0.720  14.376  0.0998 -0.1255  0.1654
   29MPD2    C3  445   0.691   0.830  14.374 -0.2021  0.3320  0.1669
   29MPD2    C4  446   0.592   0.850  14.282 -0.0765  0.4949 -0.7380
   29MPD2    C5  447   0.567   0.735  14.206  0.1084  0.2911  0.3120
   29MPD2     H  448   0.856   0.707  14.448  0.5065  2.1057  0.1020
   29MPD2    H1  449   0.526   0.935  14.285 -1.1917 -0.4832  2.9774
   29MPD2    H2  450   0.619   0.529  14.150  1.2663 -0.6762  0.3339
   29MPD2    H3  451   0.488   0.729  14.131  0.7049 -1.5321 -0.1611
   29MPD2     N  452   0.694   0.938  14.460 -0.2357 -0.2143 -0.6688
   29MPD2    H5  453   0.615   1.001  14.452  1.0475  1.7382  2.2627
   29MPD2    N1  454   0.829   0.493  14.310  0.4905  0.3200 -0.7527
   29MPD2    H7  455   0.917   0.509  14.360  0.4703 -0.3431 -0.5025
   30TCq2    C1  456   0.799   0.959  14.548  0.9941 -0.4844  0.1419
   30TCq2    O2  457   0.901   0.892  14.573  0.2828 -0.2302  0.2248
   30TCq2    C2  458   0.803   1.100  14.592 -0.1318 -0.9620  0.2475
   30TCq2    C3  459   0.868   1.129  14.705 -0.3855  1.0358  0.4365
   30TCq2    C4  460   0.898   1.261  14.727 -0.4289 -0.3390  0.4240
   30TCq2    C5  461   0.874   1.356  14.637 -0.3679 -0.1707  0.1457
   30TCq2    C6  462   0.811   1.324  14.519 -0.3007  0.3309  0.1019
   30TCq2    C7  463   0.771   1.198  14.494 -0.2939 -0.4201  1.0224
   30TCq2    C8  464   0.843   1.409  14.404 -0.1066  0.3197  0.0549
   30TCq2    O4  465   0.784   1.383  14.298  0.1374 -0.3452 -0.2318
   30TCq2    C9  466   0.962   1.298  14.850  0.4531 -0.5120 -0.3650
   30TCq2    O5  467   0.947   1.222  14.948 -0.5623 -0.2864 -0.2503
   30TCq2    O6  468   1.043   1.393  14.847  0.5620 -0.0843 -0.3646
   30TCq2    H2  469   0.908   1.057  14.775  0.3502 -0.6433 -1.7024
   30TCq2    H3  470   0.900   1.455  14.672 -2.0301 -0.2441  1.5993
   30TCq2    H4  471   0.722   1.171  14.402  2.2126  0.0017 -0.4397
   31MPD2     C  472   3.848   4.139  14.886  0.4643 -0.6665 -0.0629
   31MPD2    C1  473   3.725   4.208  14.891  0.1825  0.1156  0.6620
   31MPD2    C2  474   3.605   4.136  14.901  0.1252 -0.5951 -0.3796
   31MPD2    C3  475   3.604   3.992  14.899 -0.2201  0.1887 -0.8767
   31MPD2    C4  476   3.731   3.930  14.903 -0.9075  0.4091 -0.8827
   31MPD2    C5  477   3.845   4.004  14.889 -0.6500  0.0628  0.4583
   31MPD2     H  478   3.512   4.191  14.900  0.5205  0.0623 -1.2886
   31MPD2    H1  479   3.742   3.822  14.900 -1.8035  0.2846  0.4094
   31MPD2    H2  480   3.941   4.188  14.858 -0.7548  0.5617 -1.9093
   31MPD2    H3  481   3.940   3.952  14.882 -1.7721 -2.0425  0.7678
   31MPD2     N  482   3.487   3.918  14.895  0.1674 -1.2362  0.6454
   31MPD2    H5  483   3.485   3.818  14.913  2.5048 -1.1403  1.3250
   31MPD2    N1  484   3.730   4.353  14.877 -0.5676 -0.1169  0.2950
   31MPD2    H7  485   3.819   4.390  14.845 -0.8007  1.8073  1.8142
   32TCq2    C1  486   3.364   3.970  14.845  0.4391  0.6926 -0.1733
   32TCq2    O2  487   3.348   4.074  14.786  0.5895  0.9251 -0.4239
   32TCq2    C2  488   3.243   3.902  14.893 -0.9953 -0.2639 -0.3119
   32TCq2    C3  489   3.128   3.950  14.849 -0.0313 -0.1408 -0.2797
   32TCq2    C4  490   3.012   3.952  14.923  0.1027 -0.4409  0.0427
   32TCq2    C5  491   3.014   3.914  15.051  0.7964 -0.1910 -0.2251
   32TCq2    C6  492   3.137   3.869  15.101  0.0119  0.5298 -0.1257
   32TCq2    C7  493   3.252   3.862  15.021 -0.0668  0.1579 -0.7291
   32TCq2    C8  494   3.167   3.877  15.243 -0.5390  0.2715 -0.0012
   32TCq2    O4  495   3.273   3.836  15.292 -0.1270 -0.2880 -0.1733
   32TCq2    C9  496   2.895   4.008  14.868  0.2405  0.1832  0.0043
   32TCq2    O5  497   2.917   4.084  14.776 -0.0271  0.6748  0.1091
   32TCq2    O6  498   2.787   4.001  14.933 -0.0919 -0.1024 -0.3299
   32TCq2    H2  499   3.116   3.983  14.747  2.2913 -1.7172 -1.0405
   32TCq2    H3  500   2.921   3.910  15.107 -0.4324  1.4969 -2.1146
   32TCq2    H4  501   3.347   3.834  15.064 -0.7154  0.1938  0.7142
   33MPD2     C  502   3.977   2.243  10.685  0.3112 -1.1059  0.1867
   33MPD2    C1  503   3.993   2.126  10.622 -0.2664  0.7019  0.1042
   33MPD2    C2  504   4.001   2.109  10.482  0.9666 -0.7963 -0.5427
   33MPD2    C3  505   4.001   2.228  10.412  0.3479  0.2533  0.0249
   33MPD2    C4  506   3.990   2.353  10.478 -0.6448 -0.4057  0.2882
   33MPD2    C5  507   3.981   2.360  10.611 -1.2918 -0.7153 -0.3631
   33MPD2     H  508   4.007   2.011  10.437  2.0225 -1.3435  0.7982
   33MPD2    H1  509   3.986   2.448  10.425 -1.5584  0.5323  2.0381
   33MPD2    H2  510   3.972   2.236  10.793  0.0671  1.5795  0.3346
   33MPD2    H3  511   3.959   2.455  10.658 -0.8285 -0.1002 -1.3901
   33MPD2     N  512   4.026   2.235  10.270  0.2644  0.0159 -0.6075
   33MPD2    H5  513   4.028   2.329  10.230  0.6869  0.0204 -0.5761
   33MPD2    N1  514   4.013   2.017  10.706  0.2596 -0.2436 -0.4174
   33MPD2    H7  515   3.987   2.023  10.804 -0.4280  3.1905 -0.8068
   34TCq2    C1  516   4.008   2.133  10.185  0.2379  0.5403  0.5265
   34TCq2    O2  517   3.970   2.022  10.210 -0.6935 -0.1248  0.5198
   34TCq2    C2  518   4.038   2.171  10.043 -0.0895  0.3585  0.9100
   34TCq2    C3  519   3.989   2.096   9.934 -0.4487 -0.2724 -0.2998
   34TCq2    C4  520   4.037   2.107   9.806  0.0015 -0.5037 -0.2119
   34TCq2    C5  521   4.133   2.197   9.776  0.0729 -0.4922 -0.9212
   34TCq2    C6  522   4.191   2.260   9.885  0.4362  0.0122  0.2170
   34TCq2    C7  523   4.140   2.257  10.012  0.1505  0.3620  0.2493
   34TCq2    C8  524   4.321   2.316   9.867  0.8827 -0.3181 -0.8546
   34TCq2    O4  525   4.377   2.363   9.967  0.2663 -0.9010  0.0164
   34TCq2    C9  526   3.965   2.037   9.702 -0.2054  0.0990  0.7337
   34TCq2    O5  527   3.846   1.999   9.721 -0.2151  0.0742  0.3849
   34TCq2    O6  528   4.031   2.038   9.592 -0.7540  0.2683 -0.4409
   34TCq2    H2  529   3.904   2.030   9.953  0.7600 -1.3182  1.4523
   34TCq2    H3  530   4.162   2.223   9.675 -0.1642 -0.6906 -1.0424
   34TCq2    H4  531   4.177   2.321  10.090 -0.5849  1.2462 -0.1233
   35MPD2     C  532   0.773   3.168  12.008  0.3003  0.0355 -0.7591
   35MPD2    C1  533   0.735   3.039  12.004 -0.5752  1.2334  0.3338
   35MPD2    C2  534   0.772   2.961  11.894  0.1612 -0.0194 -0.2533
   35MPD2    C3  535   0.853   3.023  11.796 -0.2507 -0.2539  0.2615
   35MPD2    C4  536   0.904   3.149  11.816 -0.9548 -0.1229  1.0547
   35MPD2    C5  537   0.861   3.218  11.919 -0.2085  0.0828  0.7313
   35MPD2     H  538   0.728   2.862  11.887  0.0323  0.0120  0.1322
   35MPD2    H1  539   0.976   3.197  11.750 -0.6327 -0.4144  1.1956
   35MPD2    H2  540   0.738   3.241  12.081  1.7043 -0.9531  0.8870
   35MPD2    H3  541   0.888   3.321  11.936  0.8045  0.0249 -0.5194
   35MPD2     N  542   0.895   2.935  11.698  1.0685  0.1003 -0.3718
   35MPD2    H5  543   0.875   2.837  11.717 -0.3706  0.6182  0.7200
   35MPD2    N1  544   0.659   2.989  12.107 -0.2784 -0.2537  0.0449
   35MPD2    H7  545   0.630   3.063  12.171 -2.2167  1.4063 -2.7582
   36TCq2    C1  546   0.979   2.962  11.593  0.6598 -0.0049  0.3348
   36TCq2    O2  547   1.036   3.065  11.563  0.1372  0.5123 -0.5442
   36TCq2    C2  548   0.987   2.859  11.496 -0.7659 -0.5717 -0.5154
   36TCq2    C3  549   1.112   2.834  11.447 -0.3748 -0.3594 -1.0212
   36TCq2    C4  550   1.129   2.724  11.369  0.0154 -0.5844 -0.1535
   36TCq2    C5  551   1.029   2.638  11.338  0.3483  0.1034 -0.5660
   36TCq2    C6  552   0.907   2.666  11.388  0.3257 -0.5204  0.5095
   36TCq2    C7  553   0.877   2.771  11.474  0.2248 -0.8044  0.0725
   36TCq2    C8  554   0.795   2.594  11.344 -0.0611 -0.5837 -0.6179
   36TCq2    O4  555   0.702   2.584  11.424 -0.0788 -0.0907 -0.2273
   36TCq2    C9  556   1.260   2.706  11.306 -0.4793  0.2694  0.2457
   36TCq2    O5  557   1.269   2.604  11.228 -0.3277 -0.1652  0.5775
   36TCq2    O6  558   1.355   2.777  11.338 -0.0837 -0.1144 -0.1430
   36TCq2    H2  559   1.195   2.897  11.477 -1.3308  0.1434  0.5816
   36TCq2    H3  560   1.054   2.560  11.267  2.2285 -2.1814  2.6109
   36TCq2    H4  561   0.779   2.799  11.511  1.0763 -0.5560  2.1745
   37TMC2    C1  562   2.178   3.566  12.047  0.2191 -0.4646 -0.5036
   37TMC2    C2  563   2.114   3.644  11.950 -0.6048 -0.4351  0.3410
   37TMC2    C3  564   2.169   3.670  11.830  0.2960  0.6225  0.2933
   37TMC2    C4  565   2.291   3.504  12.009 -0.1430 -0.2359 -0.1738
   37TMC2    C5  566   2.347   3.529  11.882  0.3762  0.2414 -0.5588
   37TMC2    C6  567   2.281   3.602  11.791 -0.0157 -0.2163 -0.5336
   37TMC2     C  568   2.089   3.526  12.157  0.1506  0.4034  0.6733
   37TMC2     O  569   1.971   3.566  12.146 -0.3250  0.4227 -0.1527
   37TMC2     H  570   2.028   3.704  11.978 -0.4677  0.3921 -1.0177
   37TMC2    H1  571   2.348   3.441  12.075 -1.3712  0.2787  1.3827
   37TMC2    H2  572   2.313   3.616  11.688 -4.4718  1.1432 -1.7544
   37TMC2    C7  573   2.495   3.513  11.872 -0.1903 -0.4301 -0.5462
   37TMC2    C8  574   2.072   3.708  11.732 -0.4725  0.5608 -0.1797
   37TMC2    O1  575   2.552   3.464  11.969  0.0461 -0.6153  0.5515
   37TMC2    O2  576   1.974   3.783  11.749 -0.5566 -0.4302  0.2745
   37TMC2    O5  577   2.067   3.609  11.640 -0.1138 -0.6251 -0.1355
   37TMC2    H5  578   2.133   3.537  11.650 -0.3234 -0.7946  0.0251
   38MPD2     C  579   1.908   3.215  12.528  0.7759 -0.5457  0.6566
   38MPD2    C1  580   2.045   3.216  12.537 -0.2909  0.5050 -0.2160
   38MPD2    C2  581   2.112   3.290  12.440 -1.1385 -0.0774 -0.0589
   38MPD2    C3  582   2.049   3.367  12.345 -0.0409 -0.3904  0.1961
   38MPD2    C4  583   1.906   3.367  12.337  0.1286  0.1794  0.3991
   38MPD2    C5  584   1.843   3.281  12.427 -0.5900  0.4799 -0.4049
   38MPD2     H  585   2.220   3.282  12.438 -1.1401  0.0221 -0.7889
   38MPD2    H1  586   1.849   3.425  12.266 -0.6377  1.6459  2.1965
   38MPD2    H2  587   1.841   3.155  12.589 -0.7105 -1.0232 -1.4463
   38MPD2    H3  588   1.735   3.285  12.431 -0.7243 -1.4516 -2.1755
   38MPD2     N  589   2.131   3.438  12.255 -0.1437  0.4998  0.7980
   38MPD2    H5  590   2.228   3.406  12.258 -1.2481 -3.1174 -1.3942
   38MPD2    N1  591   2.117   3.151  12.633  0.0653 -0.4779  0.4301
   38MPD2    H7  592   2.217   3.167  12.636  0.2311 -1.0764 -1.7816
   39MPD2     C  593   0.542   0.018   1.473 -0.5118  0.2329 -0.5959
   39MPD2    C1  594   0.495   0.081   1.588 -0.6337  0.2421  0.2421
   39MPD2    C2  595   0.369   0.046   1.630 -0.8648  0.4685 -0.3346
   39MPD2    C3  596   0.298   4.677   1.560  0.8290  0.8312 -0.7433
   39MPD2    C4  597   0.346   4.618   1.450  0.2827 -1.1949  0.7520
   39MPD2    C5  598   0.465   4.659   1.401  0.5534 -0.0905  0.1118
   39MPD2     H  599   0.323   0.099   1.712 -0.4816 -1.3369  1.0512
   39MPD2    H1  600   0.287   4.550   1.390  0.0450  1.3010 -1.7995
   39MPD2    H2  601   0.635   0.037   1.420 -0.4238 -1.3057 -0.9871
   39MPD2    H3  602   0.505   4.620   1.308  3.2571 -0.9071  1.5954
   39MPD2     N  603   0.160   4.648   1.584  0.4550  0.0228 -0.3029
   39MPD2    H5  604   0.116   4.588   1.515  0.9476 -0.0081 -0.5910
   39MPD2    N1  605   0.579   0.176   1.651  0.0725 -0.1316  0.0502
   39MPD2    H7  606   0.673   0.189   1.613  0.1133  1.5899  0.7451
   40TCq2    C1  607   0.545   0.253   1.766  0.1902  0.1846 -0.3844
   40TCq2    O2  608   0.441   0.245   1.828  0.1111 -0.2008 -0.1114
   40TCq2    C2  609   0.648   0.337   1.818 -0.0140 -0.4089  0.4025
   40TCq2    C3  610   0.641   0.390   1.942 -0.2116 -0.3183 -0.2083
   40TCq2    C4  611   0.750   0.455   1.990 -0.4960 -0.0536  0.7020
   40TCq2    C5  612   0.867   0.483   1.916  0.4577 -0.5650  0.3966
   40TCq2    C6  613   0.870   0.434   1.793  0.4957  0.0793 -0.0583
   40TCq2    C7  614   0.764   0.366   1.744 -0.4140  0.7993 -0.3560
   40TCq2    C8  615   0.999   0.411   1.736 -0.9681 -0.6595 -0.9543
   40TCq2    O4  616   1.020   0.305   1.680 -0.6599 -0.1334  0.2023
   40TCq2    C9  617   0.736   0.503   2.128 -0.0830 -0.2768 -0.6791
   40TCq2    O5  618   0.617   0.510   2.170 -0.6359 -0.8266 -0.5712
   40TCq2    O6  619   0.840   0.519   2.197 -0.2305  0.4269 -0.2277
   40TCq2    H2  620   0.549   0.374   1.997  1.7212  0.2995  3.2342
   40TCq2    H3  621   0.950   0.535   1.963 -0.2467  0.2768  0.7113
   40TCq2    H4  622   0.781   0.320   1.648  0.1291  1.9572 -0.8083
   41TMC2    C1  623   4.372   3.672  13.858  0.1623 -0.0819 -0.0635
   41TMC2    C2  624   4.461   3.604  13.938 -0.5123  0.0825 -0.0988
   41TMC2    C3  625   4.585   3.662  13.938  0.5388 -0.2343  0.2833
   41TMC2    C4  626   4.402   3.777  13.776  0.4381 -0.1959  0.1667
   41TMC2    C5  627   4.528   3.824  13.794  0.3784  0.1056 -0.3643
   41TMC2    C6  628   4.622   3.774  13.875  0.3785  0.1406  0.3155
   41TMC2     C  629   4.235   3.672  13.891  0.5216  0.1372 -0.1033
   41TMC2     O  630   4.154   3.714  13.808 -0.0747 -0.3260  0.4527
   41TMC2     H  631   4.439   3.519  14.000 -1.3160 -0.7334 -1.5053
   41TMC2    H1  632   4.332   3.831  13.713 -1.9613  0.9566  3.8263
   41TMC2    H2  633   4.726   3.791  13.851  0.5065 -2.6170 -1.1605
   41TMC2    C7  634   4.568   3.931  13.705  0.6609 -0.6037 -0.0266
   41TMC2    C8  635   4.688   3.578  13.999  0.0422 -0.2020  0.4202
   41TMC2    O1  636   4.654   3.997  13.749 -0.6684 -0.0749 -0.0659
   41TMC2    O2  637   4.660   3.461  14.017 -0.1404  0.0189 -0.1776
   41TMC2    O5  638   0.042   3.653  14.075 -0.0112  0.2270  0.0382
   41TMC2    H5  639   0.054   3.748  14.055  0.7696  0.1836  0.3002
   42MPD2     C  640   4.000   3.716  14.054 -0.0879  0.8303  0.1425
   42MPD2    C1  641   4.109   3.651  14.106  0.0461 -0.3228 -0.3690
   42MPD2    C2  642   4.114   3.607  14.240  0.0945  0.3849  0.4899
   42MPD2    C3  643   4.007   3.635  14.320  0.4241  0.1197 -0.2057
   42MPD2    C4  644   3.896   3.702  14.276  0.0051 -0.4311  0.6901
   42MPD2    C5  645   3.888   3.725  14.137  0.4658  0.1128  0.0127
   42MPD2     H  646   4.200   3.550  14.273  1.0414  0.4058 -1.9576
   42MPD2    H1  647   3.806   3.716  14.334 -0.4843 -1.3883  0.1517
   42MPD2    H2  648   3.991   3.754  13.952 -1.3910  0.6673  0.1904
   42MPD2    H3  649   3.811   3.788  14.094  0.7738 -0.1704 -0.9352
   42MPD2     N  650   4.015   3.619  14.457 -0.0779 -0.0431 -0.0321
   42MPD2    H5  651   3.958   3.674  14.520  1.3954  0.9377  0.4522
   42MPD2    N1  652   4.222   3.633  14.027 -0.0197  0.5543  0.1466
   42MPD2    H7  653   4.297   3.596  14.084 -0.3972 -1.8865 -0.9213
   43MPD2     C  654   1.037   1.731   0.638  0.8310  0.1369  0.7087
   43MPD2    C1  655   1.068   1.648   0.742  0.1508  0.9184 -0.0221
   43MPD2    C2  656   0.993   1.644   0.854 -0.7813 -1.0153 -0.2582
   43MPD2    C3  657   0.890   1.741   0.874 -0.1424  0.0374  0.2064
   43MPD2    C4  658   0.864   1.832   0.770  0.3305  0.8110 -0.3066
   43MPD2    C5  659   0.933   1.819   0.653  0.5587 -0.4680  1.4565
   43MPD2     H  660   1.021   1.571   0.928  1.2905 -0.8027 -0.8439
   43MPD2    H1  661   0.789   1.910   0.779  1.2075  1.5250  0.8223
   43MPD2    H2  662   1.077   1.714   0.539 -1.0479  1.1729 -0.2339
   43MPD2    H3  663   0.903   1.883   0.570 -0.2148 -1.9815  0.5792
   43MPD2     N  664   0.821   1.772   0.990  0.1750 -0.6219 -0.4345
   43MPD2    H5  665   0.767   1.858   0.994 -2.3506 -2.3045  1.4065
   43MPD2    N1  666   1.173   1.551   0.731 -0.0353 -0.5583  0.0831
   43MPD2    H7  667   1.175   1.474   0.796 -1.3658  1.0812  2.0780
   44TCq2    C1  668   0.823   2.053   1.406 -0.0103 -0.3069  0.3200
   44TCq2    O2  669   0.880   2.110   1.315  0.8898 -0.5354 -0.0499
   44TCq2    C2  670   0.756   1.931   1.373 -0.4212  0.5837 -0.1111
   44TCq2    C3  671   0.698   1.846   1.468 -0.1778  0.2174  0.4521
   44TCq2    C4  672   0.659   1.719   1.434  0.0477 -0.6201 -0.6686
   44TCq2    C5  673   0.691   1.675   1.309  0.0072 -0.5729 -0.4829
   44TCq2    C6  674   0.742   1.758   1.213 -0.1193  0.4488 -0.3951
   44TCq2    C7  675   0.780   1.886   1.248  0.0232  0.2842  0.1973
   44TCq2    C8  676   0.806   1.689   1.098 -0.5522  0.5219  0.2132
   44TCq2    O4  677   0.844   1.574   1.105 -0.1272  0.5016  0.5238
   44TCq2    C9  678   0.602   1.633   1.529 -0.4182 -0.3655  1.1951
   44TCq2    O5  679   0.583   1.670   1.644 -0.3851  0.5181 -0.3933
   44TCq2    O6  680   0.559   1.524   1.487 -0.3745 -0.2940  0.0045
   44TCq2    H2  681   0.678   1.868   1.572  3.6528  0.7761  1.0591
   44TCq2    H3  682   0.674   1.572   1.279  1.0733 -1.1434  0.8737
   44TCq2    H4  683   0.815   1.955   1.173  3.1969 -1.7782 -0.2020
   45TMC2    C1  684   2.192   3.510   9.831 -0.1824 -0.2453 -0.0770
   45TMC2    C2  685   2.183   3.515   9.696  0.5063 -0.7456 -0.0824
   45TMC2    C3  686   2.263   3.598   9.626 -0.0677  0.5423 -0.6830
   45TMC2    C4  687   2.279   3.600   9.897  0.0909 -0.0906  0.7137
   45TMC2    C5  688   2.352   3.688   9.820 -0.9852 -0.2763 -0.2291
   45TMC2    C6  689   2.349   3.687   9.685  0.9391  0.4807  0.5028
   45TMC2     C  690   2.130   3.413   9.918 -0.7509  0.1270 -0.3224
   45TMC2     O  691   2.149   3.418  10.037  0.3452  0.3257 -0.5327
   45TMC2     H  692   2.107   3.459   9.644 -0.3889  0.3962 -0.0092
   45TMC2    H1  693   2.289   3.590  10.004 -0.9138 -1.0119  0.7300
   45TMC2    H2  694   2.393   3.770   9.632 -0.0320  1.1631  0.7604
   45TMC2    C7  695   2.432   3.792   9.887  0.4903  0.6011 -0.8761
   45TMC2    C8  696   2.263   3.584   9.486  0.0415 -0.5436  0.4582
   45TMC2    O1  697   2.479   3.873   9.812  0.2098 -0.2167  0.0013
   45TMC2    O2  698   2.227   3.481   9.433  0.0420  0.3070  0.1908
   45TMC2    O5  699   2.232   3.704   9.437  0.0638 -0.0853  0.0296
   45TMC2    H5  700   2.234   3.774   9.506  1.0110  0.6031 -0.6957
   46MPD2     C  701   2.019   3.155  10.036 -0.1961  0.8662  0.2015
   46MPD2    C1  702   2.021   3.188   9.898  0.0983 -0.1614 -0.1565
   46MPD2    C2  703   1.975   3.087   9.821 -0.1813  0.0669  0.3031
   46MPD2    C3  704   1.931   2.967   9.871 -0.6599  0.0534  0.5889
   46MPD2    C4  705   1.938   2.940  10.002  0.1716 -0.7552 -0.2950
   46MPD2    C5  706   1.970   3.042  10.087 -0.4991  0.1919  0.5235
   46MPD2     H  707   1.968   3.096   9.713  0.4581  1.6605  0.4028
   46MPD2    H1  708   1.895   2.849  10.042  2.5584 -1.0369  1.6517
   46MPD2    H2  709   2.045   3.226  10.114  0.7054  1.5293 -0.7072
   46MPD2    H3  710   1.978   3.029  10.195 -5.0747  0.6100  0.9215
   46MPD2     N  711   1.879   2.866   9.786  0.1616  0.6935 -0.2552
   46MPD2    H5  712   1.859   2.899   9.692 -0.6044 -1.8674 -0.9783
   46MPD2    N1  713   2.075   3.307   9.845 -0.2245 -0.9306  0.6011
   46MPD2    H7  714   2.091   3.304   9.745 -2.1823  1.5178  0.2165
   47TMC2    C1  715   4.476   3.784   9.363  0.5704 -0.4592  0.1776
   47TMC2    C2  716   4.523   3.694   9.273  0.5104  0.2101  0.2369
   47TMC2    C3  717   4.432   3.646   9.183  0.0226 -0.3847  0.8149
   47TMC2    C4  718   4.341   3.831   9.352 -0.7644 -0.4349  0.2824
   47TMC2    C5  719   4.260   3.783   9.253  0.3711 -0.4447  0.3796
   47TMC2    C6  720   4.303   3.689   9.167 -0.3178 -0.1846  1.2836
   47TMC2     C  721   4.549   3.805   9.486  0.1700  0.0441  0.2185
   47TMC2     O  722   4.651   3.736   9.491 -0.3256  0.1240 -0.2176
   47TMC2     H  723   4.617   3.640   9.272  1.2331  1.4484  1.3575
   47TMC2    H1  724   4.299   3.891   9.432  0.5305 -1.2361  1.5554
   47TMC2    H2  725   4.233   3.618   9.126 -1.0178  1.6804 -0.7349
   47TMC2    C7  726   4.136   3.856   9.230 -0.0795 -0.8747  0.1500
   47TMC2    C8  727   4.476   3.556   9.079 -0.5070  0.3366  0.1557
   47TMC2    O1  728   4.103   3.925   9.323  0.3098 -0.0565 -0.1115
   47TMC2    O2  729   4.584   3.495   9.085 -0.1296  0.0358  0.2668
   47TMC2    O5  730   4.405   3.580   8.960  0.1079  0.0520 -0.1632
   47TMC2    H5  731   4.339   3.652   8.971  1.3567  0.8900  1.9530
   48MPD2     C  732   4.477   4.026   9.773  0.3605 -0.0026 -0.4440
   48MPD2    C1  733   4.548   3.937   9.702 -0.2372 -0.3156  0.1923
   48MPD2    C2  734   4.666   3.875   9.753 -0.4579 -0.3542  0.2351
   48MPD2    C3  735   4.706   3.911   9.878  0.0366  0.2190 -0.0426
   48MPD2    C4  736   4.630   4.004   9.949  0.2335  0.6099  0.1546
   48MPD2    C5  737   4.518   4.064   9.903 -0.4794 -0.6588 -0.1475
   48MPD2     H  738   0.002   3.806   9.700 -1.6762 -0.7101 -0.7657
   48MPD2    H1  739   4.668   4.038  10.045 -0.4021 -0.0561  0.6439
   48MPD2    H2  740   4.378   4.059   9.745  0.3606  1.8574  1.7515
   48MPD2    H3  741   4.459   4.136   9.959  1.2649 -1.1607  2.2909
   48MPD2     N  742   0.085   3.842   9.939  0.1169 -0.6233 -1.1806
   48MPD2    H5  743   0.144   3.791   9.874  2.2697  1.1422 -0.6083
   48MPD2    N1  744   4.492   3.897   9.573  0.3850  0.9162  0.8774
   48MPD2    H7  745   4.402   3.940   9.556 -0.3666 -0.4095  1.5125
   49MPD2     C  746   2.650   1.249   9.841  0.2799  0.0583 -0.2481
   49MPD2    C1  747   2.570   1.231   9.953 -0.3191  0.2029  0.0556
   49MPD2    C2  748   2.605   1.301  10.066 -0.6678  0.1997  0.1308
   49MPD2    C3  749   2.708   1.392  10.073 -0.6481 -0.1673 -0.3899
   49MPD2    C4  750   2.772   1.428   9.959  0.0387  0.4678  0.2999
   49MPD2    C5  751   2.742   1.351   9.841 -0.4891  0.3172 -0.4335
   49MPD2     H  752   2.557   1.270  10.158  0.6586  0.3219  0.8586
   49MPD2    H1  753   2.853   1.500   9.965 -0.2019  0.9778 -2.1629
   49MPD2    H2  754   2.634   1.198   9.747 -0.1269  1.2998 -0.8555
   49MPD2    H3  755   2.785   1.384   9.747  2.9788 -0.4356  0.9027
   49MPD2     N  756   2.764   1.451  10.193 -0.0872 -0.0156  0.4701
   49MPD2    H5  757   2.836   1.522  10.180 -0.9169  1.2353  2.6142
   49MPD2    N1  758   2.473   1.131   9.965  0.2589 -0.3991  0.0226
   49MPD2    H7  759   2.442   1.105  10.059 -2.7205 -0.7476 -1.0567
   50TCq2    C1  760   2.425   1.052   9.862 -0.1160  1.0551 -0.1283
   50TCq2    O2  761   2.449   1.048   9.747  0.8433  0.9918  0.0656
   50TCq2    C2  762   2.322   0.963   9.916  0.0495  0.1390  0.8975
   50TCq2    C3  763   2.285   0.872   9.829  0.7603 -0.7110  0.0141
   50TCq2    C4  764   2.187   0.782   9.864  0.0957 -0.2631  0.0693
   50TCq2    C5  765   2.128   0.784   9.988  0.1876  0.3685  0.1672
   50TCq2    C6  766   2.167   0.887  10.073  0.1782  0.3972 -0.0712
   50TCq2    C7  767   2.263   0.977  10.039  0.5781  0.2796 -0.5403
   50TCq2    C8  768   2.099   0.909  10.197  0.9662  0.6941 -0.2608
   50TCq2    O4  769   2.160   0.978  10.277 -0.5465  0.0969 -0.3417
   50TCq2    C9  770   2.149   0.668   9.780 -0.6674  0.7743 -0.1293
   50TCq2    O5  771   2.205   0.648   9.669 -0.3718 -0.2107 -0.1260
   50TCq2    O6  772   2.033   0.621   9.800  0.1034 -0.5667  0.1824
   50TCq2    H2  773   2.338   0.869   9.734  2.2426 -0.3779  0.8470
   50TCq2    H3  774   2.067   0.699  10.015 -0.2856  0.1516 -1.6281
   50TCq2    H4  775   2.282   1.060  10.106  0.7184 -0.2250  0.0417
   51MPD2     C  776   2.447   0.435   0.612 -0.2599  0.4897  0.3756
   51MPD2    C1  777   2.439   0.323   0.692  0.1784  0.0359  0.4426
   51MPD2    C2  778   2.405   0.331   0.820  0.7904 -0.0032 -0.1305
   51MPD2    C3  779   2.392   0.457   0.878 -0.2947 -0.4046  0.0670
   51MPD2    C4  780   2.406   0.569   0.803  0.6507 -0.0778  0.8927
   51MPD2    C5  781   2.430   0.556   0.668 -0.3637 -0.2978 -0.2771
   51MPD2     H  782   2.386   0.238   0.873 -2.5167  1.4213  1.1571
   51MPD2    H1  783   2.383   0.663   0.851  0.2021  0.8130 -1.0798
   51MPD2    H2  784   2.476   0.439   0.508 -0.3227  1.2198  0.3834
   51MPD2    H3  785   2.429   0.646   0.607  1.2259  1.1188  1.7543
   51MPD2     N  786   2.365   0.472   1.014  0.4556  0.0051  0.0691
   51MPD2    H5  787   2.378   0.561   1.061 -0.0496  0.1111  0.0053
   51MPD2    N1  788   2.442   0.188   0.645 -0.6141 -0.4629  0.5154
   51MPD2    H7  789   2.434   0.112   0.713 -2.8467  0.0442  0.8128
   52TCq2    C1  790   2.348   0.369   1.105 -0.2162 -0.1114  0.4005
   52TCq2    O2  791   2.328   0.250   1.090  0.1716  0.5573 -0.4094
   52TCq2    C2  792   2.353   0.413   1.247  0.0460  0.0669  0.0151
   52TCq2    C3  793   2.352   0.312   1.340 -0.0005  0.9185 -0.1802
   52TCq2    C4  794   2.392   0.340   1.468 -0.1901  0.2509 -0.1046
   52TCq2    C5  795   2.447   0.461   1.502 -0.2064  0.4292  0.6813
   52TCq2    C6  796   2.443   0.556   1.405  0.7723  0.1736  0.2181
   52TCq2    C7  797   2.400   0.535   1.277 -0.0850 -0.3561  0.1593
   52TCq2    C8  798   2.475   0.690   1.445  0.4562 -0.2888  0.0756
   52TCq2    O4  799   2.519   0.708   1.556  0.3213  0.4090 -0.0839
   52TCq2    C9  800   2.391   0.236   1.571 -0.0394  0.2479  0.5078
   52TCq2    O5  801   2.305   0.144   1.557 -0.4124  0.1105  0.1688
   52TCq2    O6  802   2.486   0.254   1.651 -0.2218  0.0174 -0.0662
   52TCq2    H2  803   2.315   0.211   1.328 -3.3125  1.9934  0.9213
   52TCq2    H3  804   2.481   0.477   1.603  0.7003  1.3107  0.2249
   52TCq2    H4  805   2.393   0.614   1.204 -1.6015  0.7398  1.4907
   53TMC2    C1  806   3.207   3.510  12.015  0.3147  0.2738  0.0586
   53TMC2    C2  807   3.301   3.410  12.031  0.3952  0.6009 -0.2579
   53TMC2    C3  808   3.345   3.381  12.166  1.0668  0.0484 -0.0659
   53TMC2    C4  809   3.151   3.576  12.121  0.1723 -0.2166  0.3466
   53TMC2    C5  810   3.192   3.550  12.242 -0.2217  0.1327  0.8982
   53TMC2    C6  811   3.292   3.460  12.268  0.4986  0.9016 -0.0408
   53TMC2     C  812   3.145   3.519  11.883  0.3821 -0.7164  0.2302
   53TMC2     O  813   3.220   3.482  11.793  0.1861  0.0243 -0.0996
   53TMC2     H  814   3.346   3.358  11.947  0.8567 -1.8400  1.4918
   53TMC2    H1  815   3.076   3.653  12.107 -0.1731 -0.7691 -0.9102
   53TMC2    H2  816   3.316   3.435  12.371  0.9233 -0.6332 -0.5203
   53TMC2    C7  817   3.098   3.591  12.352 -0.0693  0.5478 -0.6487
   53TMC2    C8  818   3.466   3.310  12.179  0.4885 -0.1169 -0.3694
   53TMC2    O1  819   3.026   3.690  12.332 -0.0161 -0.3487  0.0681
   53TMC2    O2  820   3.509   3.243  12.087 -0.1618  0.0661  0.2386
   53TMC2    O5  821   3.493   3.280  12.302  0.7301 -0.2053  0.1889
   53TMC2    H5  822   3.421   3.309  12.362 -0.8129 -3.6345  0.0500
   54MPD2     C  823   2.950   3.548  11.647 -0.1721  0.2124  0.3128
   54MPD2    C1  824   2.920   3.555  11.781  0.4375 -0.2410 -0.0378
   54MPD2    C2  825   2.787   3.553  11.823  0.1637  0.1489 -0.6759
   54MPD2    C3  826   2.679   3.559  11.731 -0.2606 -0.5608  0.6003
   54MPD2    C4  827   2.717   3.571  11.596  0.4857 -0.8739 -0.0509
   54MPD2    C5  828   2.852   3.566  11.553  0.5432 -0.5122 -0.1111
   54MPD2     H  829   2.760   3.516  11.921  0.5079 -0.4022 -0.7885
   54MPD2    H1  830   2.641   3.581  11.520  0.3815  2.0708  0.4169
   54MPD2    H2  831   3.046   3.519  11.607 -1.0861 -1.7339 -0.4755
   54MPD2    H3  832   2.871   3.558  11.447  0.8466  1.5166 -0.2146
   54MPD2     N  833   2.541   3.557  11.756 -0.3800  0.1884  0.0516
   54MPD2    H5  834   2.480   3.554  11.675 -0.8818  0.8522  0.4138
   54MPD2    N1  835   3.014   3.556  11.887  0.4473  0.6098 -0.1466
   54MPD2    H7  836   2.986   3.553  11.985  1.0933 -0.0208  0.0209
   55MPD2     C  837   3.859   1.627   0.096  0.3852  0.2016 -0.0387
   55MPD2    C1  838   3.780   1.521   0.146  0.3204  0.5631  0.6016
   55MPD2    C2  839   3.660   1.554   0.207 -0.5191  0.2198  0.1283
   55MPD2    C3  840   3.639   1.689   0.242 -0.8597  0.1753  0.9750
   55MPD2    C4  841   3.716   1.794   0.192  0.4390 -0.1088  0.3431
   55MPD2    C5  842   3.826   1.763   0.119 -0.5993 -0.4110  0.3458
   55MPD2     H  843   3.594   1.478   0.246  1.2669 -2.9877 -3.0684
   55MPD2    H1  844   3.701   1.901   0.205  0.7060 -0.0420  0.0868
   55MPD2    H2  845   3.939   1.618   0.024  1.5145  0.3272  1.2058
   55MPD2    H3  846   3.878   1.847   0.075 -1.7980  1.5646  2.7041
   55MPD2     N  847   3.532   1.714   0.326 -0.2061 -0.1381 -0.2419
   55MPD2    H5  848   3.479   1.635   0.363  0.2998 -0.9805 -1.3311
   55MPD2    N1  849   3.834   1.389   0.127  0.5208  0.2804 -0.2948
   55MPD2    H7  850   3.924   1.381   0.082  1.2278  2.5235  0.7685
   56TCq2    C1  851   3.772   1.279   0.182 -0.2738  0.1335  0.0105
   56TCq2    O2  852   3.701   1.277   0.281  0.4654 -0.0559  0.4735
   56TCq2    C2  853   3.810   1.150   0.121  0.1997 -0.1289 -0.3169
   56TCq2    C3  854   3.883   1.144   0.002  0.7900  1.1079  0.0349
   56TCq2    C4  855   3.900   1.023  17.644  0.4719  0.4745 -0.1596
   56TCq2    C5  856   3.837   0.908  17.699  0.2071  0.1952 -0.4536
   56TCq2    C6  857   3.759   0.916   0.101  0.2624  0.2024  0.2284
   56TCq2    C7  858   3.747   1.038   0.168  0.0490 -0.8474  0.3302
   56TCq2    C8  859   3.707   0.796   0.157 -0.3014 -0.6201  0.7302
   56TCq2    O4  860   3.753   0.688   0.117 -0.1189  0.4849 -0.4508
   56TCq2    C9  861   3.971   1.005  17.525  1.0201  0.1602 -0.0326
   56TCq2    O5  862   4.025   1.109  17.476  0.1376  0.1286  0.7290
   56TCq2    O6  863   3.993   0.888  17.480 -0.1538 -0.5644  0.2768
   56TCq2    H2  864   3.931   1.230  17.667 -0.1468  1.0643 -1.0201
   56TCq2    H3  865   3.850   0.810  17.653  1.1839  0.5327 -0.8909
   56TCq2    H4  866   3.691   1.047   0.260 -1.5618  1.3758 -0.8894
   57TMC2    C1  867   2.915   2.422  13.710 -0.2558  0.1488  0.1207
   57TMC2    C2  868   2.917   2.350  13.824  0.0849  0.0977  0.1625
   57TMC2    C3  869   3.041   2.335  13.878 -1.1371 -0.1232 -0.4250
   57TMC2    C4  870   3.027   2.472  13.651 -0.4433  0.0843  0.3018
   57TMC2    C5  871   3.147   2.447  13.707  0.0142 -0.3699 -0.1639
   57TMC2    C6  872   3.161   2.364  13.817 -0.1226 -0.0018  0.0273
   57TMC2     C  873   2.785   2.460  13.654  0.2236  0.1633 -0.2367
   57TMC2     O  874   2.774   2.576  13.617 -0.7066  0.2886  0.5708
   57TMC2     H  875   2.833   2.306  13.876  0.0015  0.7154  0.5558
   57TMC2    H1  876   3.012   2.541  13.569 -2.9947 -0.1468  0.5560
   57TMC2    H2  877   3.255   2.323  13.851 -1.0400  0.3821  3.0277
   57TMC2    C7  878   3.239   2.446  13.602  0.4544 -0.0826  0.1455
   57TMC2    C8  879   3.046   2.280  14.011 -0.8123 -0.2322  0.2092
   57TMC2    O1  880   3.262   2.555  13.560 -0.6005 -0.1730 -0.1604
   57TMC2    O2  881   3.079   2.162  14.016 -0.0472  0.1692  0.4660
   57TMC2    O5  882   3.115   2.373  14.074 -0.8073 -0.0563  0.0495
   57TMC2    H5  883   3.073   2.455  14.040 -0.2347  0.7882  1.3891
   58MPD2     C  884   2.295   2.347  13.697 -0.2206 -0.8579 -0.2539
   58MPD2    C1  885   2.353   2.477  13.691 -0.5734  0.1102  0.0826
   58MPD2    C2  886   2.491   2.487  13.666 -0.0152  0.1856  0.2518
   58MPD2    C3  887   2.563   2.368  13.660  0.0233  0.6628 -1.3822
   58MPD2    C4  888   2.499   2.248  13.663 -0.7747 -0.0155 -0.0398
   58MPD2    C5  889   2.369   2.237  13.687  0.2307  0.8805 -0.4093
   58MPD2     H  890   2.549   2.579  13.667  0.2542  0.0194 -0.3392
   58MPD2    H1  891   2.555   2.155  13.654 -0.1959  0.1160  2.0936
   58MPD2    H2  892   2.190   2.326  13.713 -0.7232 -0.3985 -3.1335
   58MPD2    H3  893   2.331   2.136  13.694  2.1831  0.0612 -1.6923
   58MPD2     N  894   2.705   2.355  13.668  0.1320 -0.0823 -0.3219
   58MPD2    H5  895   2.742   2.263  13.686  0.6207  0.3449  0.8871
   58MPD2    N1  896   2.277   2.595  13.699  0.3321 -0.0093 -0.1309
   58MPD2    H7  897   2.328   2.684  13.697 -0.4196  0.4334  0.6025
   59MPD2     C  898   0.244   2.519  13.591  0.2289  0.7680  0.3126
   59MPD2    C1  899   0.323   2.513  13.479  0.9960 -0.1360  0.4165
   59MPD2    C2  900   0.420   2.615  13.463  0.2700  0.0493  0.0956
   59MPD2    C3  901   0.460   2.703  13.566  1.0103  0.2224 -0.7415
   59MPD2    C4  902   0.384   2.697  13.684  0.0113  0.3377 -0.0876
   59MPD2    C5  903   0.277   2.613  13.689  0.0812  0.7264 -0.1449
   59MPD2     H  904   0.485   2.605  13.378 -0.0110 -0.4699 -0.0579
   59MPD2    H1  905   0.408   2.762  13.768 -1.0531  2.8131 -1.6973
   59MPD2    H2  906   0.164   2.448  13.611  0.4205  0.7658  1.0480
   59MPD2    H3  907   0.213   2.615  13.776 -0.2060  2.1513 -0.4030
   59MPD2     N  908   0.573   2.796  13.562 -0.3101 -0.0774  0.3913
   59MPD2    H5  909   0.582   2.869  13.633 -0.1504 -0.2191  0.5174
   59MPD2    N1  910   0.316   2.413  13.374 -0.0358  0.2209  0.4212
   59MPD2    H7  911   0.373   2.423  13.290 -0.9256  0.1296 -0.1997
   60TCq2    C1  912   0.251   2.294  13.393 -0.3682 -0.0358 -0.0412
   60TCq2    O2  913   0.190   2.253  13.488  0.0001  0.0921  0.2716
   60TCq2    C2  914   0.242   2.203  13.277  0.2619  0.2759 -0.1611
   60TCq2    C3  915   0.200   2.075  13.297 -0.1918  0.9594 -0.0628
   60TCq2    C4  916   0.179   1.986  13.195  0.4848 -0.6414 -0.1919
   60TCq2    C5  917   0.192   2.033  13.067  0.3284  0.1567 -0.1248
   60TCq2    C6  918   0.233   2.161  13.044 -0.4872  0.8012 -0.2139
   60TCq2    C7  919   0.256   2.252  13.147 -0.7236  0.1104  0.0282
   60TCq2    C8  920   0.321   2.158  12.929 -0.7106  0.1217 -0.3562
   60TCq2    O4  921   0.395   2.058  12.925 -0.2716 -0.4060  0.0761
   60TCq2    C9  922   0.120   1.865  13.230 -0.5425 -0.0586 -0.6600
   60TCq2    O5  923   0.058   1.868  13.339 -0.7628 -0.3714  0.2501
   60TCq2    O6  924   0.145   1.770  13.152 -0.5675 -0.2817 -0.6154
   60TCq2    H2  925   0.192   2.028  13.394 -0.5232  0.3896 -0.3697
   60TCq2    H3  926   0.178   1.967  12.982 -0.3627  0.3077 -0.1291
   60TCq2    H4  927   0.301   2.347  13.120  1.8022 -0.7821  1.1552
   61MPD2     C  928   4.632   3.766  14.888  0.2426  0.4610 -0.0696
   61MPD2    C1  929   4.660   3.888  14.938 -0.2184 -0.2855  0.0032
   61MPD2    C2  930   0.018   3.972  14.864  0.0295  0.4077  0.0274
   61MPD2    C3  931   0.064   3.927  14.739 -0.1644  0.2764  0.0169
   61MPD2    C4  932   0.026   3.802  14.686  0.0273 -0.1153 -0.7541
   61MPD2    C5  933   4.673   3.720  14.767 -0.4788 -0.0254 -0.0846
   61MPD2     H  934   0.040   4.073  14.897  2.4143  0.2806 -1.0783
   61MPD2    H1  935   0.054   3.760  14.591 -1.8264 -1.9355 -0.4989
   61MPD2    H2  936   4.565   3.696  14.937 -0.4922  1.3197  0.1394
   61MPD2    H3  937   4.642   3.625  14.726 -3.7413  0.5975  0.9620
   61MPD2     N  938   0.117   4.022  14.646  0.4907  0.2362  0.0667
   61MPD2    H5  939   0.145   4.108  14.691 -0.9538  1.3491 -1.1573
   61MPD2    N1  940   4.598   3.954  15.050 -0.1410 -0.1732 -0.6926
   61MPD2    H7  941   4.622   4.050  15.073  1.0156 -0.0982 -2.1706
   62TCq2    C1  942   4.496   3.895  15.128  0.5255  0.4595  0.3556
   62TCq2    O2  943   4.468   3.779  15.144  0.1838  0.2293  0.3571
   62TCq2    C2  944   4.424   3.990  15.208  0.8445  0.1642  0.4906
   62TCq2    C3  945   4.321   3.937  15.289 -0.2278 -1.2858  0.4825
   62TCq2    C4  946   4.243   4.029  15.356  0.1687  0.2282  0.5218
   62TCq2    C5  947   4.268   4.159  15.352  0.1074  0.1381 -0.5094
   62TCq2    C6  948   4.359   4.204  15.268 -0.1438 -0.1126  0.2358
   62TCq2    C7  949   4.444   4.126  15.199  0.2515 -0.4612 -0.9120
   62TCq2    C8  950   4.358   4.342  15.232 -0.0682 -0.9422 -0.2276
   62TCq2    O4  951   4.462   4.401  15.196  0.4113 -0.5089  0.7143
   62TCq2    C9  952   4.119   3.979  15.423  0.1575  1.1336 -1.4018
   62TCq2    O5  953   4.054   4.059  15.493 -0.0692  0.8037 -0.6251
   62TCq2    O6  954   4.089   3.856  15.414  0.0522 -0.0640 -0.1596
   62TCq2    H2  955   4.291   3.834  15.278 -0.1734 -1.2258 -0.2159
   62TCq2    H3  956   4.200   4.221  15.409 -0.0229  0.7116 -1.2926
   62TCq2    H4  957   4.521   4.174  15.141  0.4350 -0.5361 -0.7323
   63TMC2    C1  958   4.539   3.996  10.918  0.5221 -0.5140 -0.2291
   63TMC2    C2  959   4.658   4.027  10.977 -0.3560 -0.1750  0.0902
   63TMC2    C3  960   0.010   4.120  10.926 -1.0268  0.1411  0.1241
   63TMC2    C4  961   4.505   4.064  10.807  0.0367 -0.3111 -0.1428
   63TMC2    C5  962   4.582   4.161  10.761 -0.3497 -0.5991 -0.4555
   63TMC2    C6  963   4.708   4.193  10.818 -0.2508 -0.7665 -0.1275
   63TMC2     C  964   4.473   3.862  10.939 -0.7092 -0.6007 -0.0489
   63TMC2     O  965   4.528   3.781  11.015 -0.9498 -1.1379 -0.2165
   63TMC2     H  966   4.678   3.970  11.067  0.0670  1.3381  0.9554
   63TMC2    H1  967   4.411   4.045  10.756 -0.6284  0.0883  0.9177
   63TMC2    H2  968   0.048   4.262  10.768 -0.4939 -0.6891 -0.3450
   63TMC2    C7  969   4.542   4.222  10.636  0.0920  0.2314 -0.4920
   63TMC2    C8  970   0.105   4.171  11.025  0.1202  0.0674  0.2757
   63TMC2    O1  971   4.469   4.154  10.568 -0.2295  0.0397 -0.1556
   63TMC2    O2  972   0.123   4.288  11.049 -0.1655  0.4462  0.3744
   63TMC2    O5  973   0.203   4.074  11.038 -0.7907  1.1049  0.9510
   63TMC2    H5  974   0.177   3.986  11.004  1.1862  0.6300  0.6317
   64MPD2     C  975   4.047   3.566  10.929 -0.1735 -0.8066  0.1177
   64MPD2    C1  976   4.176   3.536  10.959 -0.1421  0.4377 -0.3091
   64MPD2    C2  977   4.276   3.625  10.936 -0.9745 -0.3958 -0.2442
   64MPD2    C3  978   4.246   3.758  10.900 -0.1785 -0.2658 -0.3224
   64MPD2    C4  979   4.119   3.785  10.864 -0.1754 -0.3023  0.2345
   64MPD2    C5  980   4.023   3.692  10.878 -0.3949  0.3638  0.0651
   64MPD2     H  981   4.378   3.593  10.954 -0.6543  0.7933  0.0740
   64MPD2    H1  982   4.092   3.881  10.822 -0.9434 -1.2873 -1.5268
   64MPD2    H2  983   3.957   3.508  10.943 -0.4895 -1.1741 -3.5915
   64MPD2    H3  984   3.923   3.714  10.842 -0.2830  0.6481 -0.0674
   64MPD2     N  985   4.345   3.864  10.893 -0.0870 -0.2082  0.4918
   64MPD2    H5  986   4.300   3.947  10.857  1.4373 -0.2878 -1.5871
   64MPD2    N1  987   4.213   3.410  11.013 -0.6427  0.0269  0.0995
   64MPD2    H7  988   4.312   3.392  11.024 -0.6751  0.0468  0.4022
   65MPD2     C  989   0.657   3.495  15.912 -0.1936 -0.6452 -0.0579
   65MPD2    C1  990   0.617   3.460  15.782 -0.1844  0.4282 -0.0582
   65MPD2    C2  991   0.602   3.326  15.755 -0.2092 -0.2512  0.1817
   65MPD2    C3  992   0.609   3.232  15.859  0.2408  0.0732  0.2161
   65MPD2    C4  993   0.647   3.274  15.982 -0.1633 -0.0577  0.5734
   65MPD2    C5  994   0.676   3.404  16.011 -0.5360  0.3011  0.0549
   65MPD2     H  995   0.563   3.293  15.659  1.9897 -2.2742 -0.0261
   65MPD2    H1  996   0.666   3.200  16.059 -0.2816 -0.4510  0.2265
   65MPD2    H2  997   0.689   3.597  15.930 -0.7952 -0.5352  0.3548
   65MPD2    H3  998   0.711   3.436  16.109  0.2289 -0.9616  0.1912
   65MPD2     N  999   0.582   3.094  15.843 -0.1685  0.0533  0.2861
   65MPD2    H5 1000   0.565   3.051  15.933  2.0622 -0.5472  0.4314
   65MPD2    N1 1001   0.600   3.554  15.679 -0.4763  0.4403  0.7051
   65MPD2    H7 1002   0.541   3.526  15.601  0.3830  1.0989 -0.1873
   66TCq2    C1 1003   0.643   3.686  15.675  0.1612  0.1248 -0.0062
   66TCq2    O2 1004   0.721   3.749  15.741  0.3692  0.5472  0.5969
   66TCq2    C2 1005   0.580   3.762  15.566  0.6608 -0.5235 -0.0875
   66TCq2    C3 1006   0.519   3.698  15.457  0.1973 -0.0702  0.1633
   66TCq2    C4 1007   0.448   3.779  15.370 -0.5123 -0.4549  0.9621
   66TCq2    C5 1008   0.441   3.913  15.390  0.2146  0.3170 -0.0923
   66TCq2    C6 1009   0.498   3.970  15.497 -0.4252  0.3998 -0.0112
   66TCq2    C7 1010   0.557   3.895  15.594  0.4572  0.0812 -0.2031
   66TCq2    C8 1011   0.477   4.114  15.513 -0.1802  0.0022  0.1807
   66TCq2    O4 1012   0.462   4.175  15.409 -0.4008  0.4593 -0.0986
   66TCq2    C9 1013   0.394   3.723  15.248  0.7330  0.2973  0.1632
   66TCq2    O5 1014   0.424   3.605  15.217 -0.3483  0.1476 -0.6655
   66TCq2    O6 1015   0.325   3.804  15.170 -0.3610  0.1402  0.8403
   66TCq2    H2 1016   0.536   3.592  15.437  1.0713  0.3948 -1.6255
   66TCq2    H3 1017   0.400   3.976  15.312 -0.1539 -0.7538 -0.7598
   66TCq2    H4 1018   0.597   3.934  15.687 -1.9536  2.5434 -0.2064
   67MPD2     C 1019   0.670   2.734  14.470 -1.0397  0.0888 -0.7395
   67MPD2    C1 1020   0.626   2.864  14.486 -0.2299 -0.0092  0.2737
   67MPD2    C2 1021   0.528   2.905  14.398  0.1565  0.6818  0.0547
   67MPD2    C3 1022   0.473   2.823  14.306  0.0737 -0.8402  0.1290
   67MPD2    C4 1023   0.512   2.686  14.298 -0.1676  0.4671  0.8500
   67MPD2    C5 1024   0.608   2.644  14.385  0.2517 -0.7848  0.2044
   67MPD2     H 1025   0.492   3.006  14.407  2.5592  1.5247  0.2579
   67MPD2    H1 1026   0.473   2.618  14.223 -1.2086  3.3535 -1.2159
   67MPD2    H2 1027   0.748   2.695  14.534  0.2408  0.6323 -1.9946
   67MPD2    H3 1028   0.651   2.544  14.388  0.1991 -0.7702  1.3359
   67MPD2     N 1029   0.380   2.884  14.224  0.3866 -0.1177  0.4499
   67MPD2    H5 1030   0.359   2.979  14.253  0.8359 -0.3324  1.4731
   67MPD2    N1 1031   0.674   2.956  14.583  0.3900 -0.2086  0.4573
   67MPD2    H7 1032   0.631   3.048  14.578 -0.3233 -0.5905 -0.3074
   68TCq2    C1 1033   0.774   2.922  14.679  0.6606 -0.0012  0.1240
   68TCq2    O2 1034   0.855   2.826  14.671 -0.4960  0.1278 -0.8956
   68TCq2    C2 1035   0.801   3.014  14.787 -0.6780 -0.1311  0.1224
   68TCq2    C3 1036   0.713   3.111  14.816  0.8125  0.1560  0.6044
   68TCq2    C4 1037   0.720   3.187  14.931  1.1423 -0.2620  0.0974
   68TCq2    C5 1038   0.826   3.163  15.014 -0.8514 -0.0686  0.2094
   68TCq2    C6 1039   0.912   3.060  14.982 -0.5608 -0.9639 -0.5592
   68TCq2    C7 1040   0.901   2.985  14.871 -0.4272 -0.9492 -0.0303
   68TCq2    C8 1041   1.046   3.058  15.046  0.1681 -0.2853 -0.2616
   68TCq2    O4 1042   1.129   2.988  14.989  0.3592 -0.1783  0.1030
   68TCq2    C9 1043   0.634   3.297  14.952  0.2391  0.5877 -0.3009
   68TCq2    O5 1044   0.536   3.315  14.872  0.8708  0.0754 -0.0765
   68TCq2    O6 1045   0.620   3.334  15.072 -0.0079 -0.4491  0.4061
   68TCq2    H2 1046   0.626   3.129  14.754  0.9023 -1.3834  0.0207
   68TCq2    H3 1047   0.821   3.209  15.112  0.1746  1.3148 -0.3763
   68TCq2    H4 1048   0.966   2.900  14.858 -0.1933 -0.8184  0.2883
   69TMC2    C1 1049   2.354   4.241  12.178 -0.0343 -0.0303 -0.4167
   69TMC2    C2 1050   2.231   4.249  12.122  0.2827  0.4585 -0.3926
   69TMC2    C3 1051   2.234   4.281  11.988 -0.3902  0.0720 -0.2889
   69TMC2    C4 1052   2.479   4.255  12.113  0.4681  0.2898  0.4586
   69TMC2    C5 1053   2.468   4.283  11.975 -0.8712  0.1443  0.3061
   69TMC2    C6 1054   2.349   4.302  11.914 -0.3226 -0.3326  0.1269
   69TMC2     C 1055   2.350   4.189  12.316 -0.8044 -0.0364 -0.0364
   69TMC2     O 1056   2.247   4.134  12.351  0.3511  0.3988 -0.0542
   69TMC2     H 1057   2.140   4.250  12.182  0.9189 -0.6318  0.6079
   69TMC2    H1 1058   2.576   4.235  12.157 -0.0109 -1.2245  0.8335
   69TMC2    H2 1059   2.336   4.294  11.807  0.1720 -1.1335  0.1323
   69TMC2    C7 1060   2.592   4.274  11.898 -0.0082  0.5929  0.5547
   69TMC2    C8 1061   2.113   4.299  11.916  0.2368  0.0332  0.0305
   69TMC2    O1 1062   2.697   4.245  11.951 -0.3134  0.3504  0.1220
   69TMC2    O2 1063   2.105   4.365  11.816 -0.1437  0.0409  0.0711
   69TMC2    O5 1064   2.013   4.230  11.973  0.5992  0.2042 -0.0671
   69TMC2    H5 1065   2.047   4.159  12.032 -1.1836 -0.8758 -0.3129
   70MPD2     C 1066   2.647   4.176  12.534  0.4769  0.5359  0.5136
   70MPD2    C1 1067   2.519   4.143  12.499  0.1141  0.9229 -0.3586
   70MPD2    C2 1068   2.442   4.061  12.577  0.6500  0.2837  0.1767
   70MPD2    C3 1069   2.493   4.010  12.695  0.1695 -1.4259 -0.7105
   70MPD2    C4 1070   2.621   4.044  12.731 -0.1068 -0.5458 -0.6945
   70MPD2    C5 1071   2.694   4.121  12.647 -0.0928 -0.4566  0.7225
   70MPD2     H 1072   2.340   4.032  12.555  1.0759 -1.0657 -0.0301
   70MPD2    H1 1073   2.654   4.003  12.826 -1.0882 -1.1683 -0.6264
   70MPD2    H2 1074   2.704   4.241  12.468 -0.2178 -0.1510 -0.7420
   70MPD2    H3 1075   2.798   4.135  12.673 -0.6231  1.1769  1.9859
   70MPD2     N 1076   2.438   3.920  12.791  0.2017 -0.6555  0.3282
   70MPD2    H5 1077   2.498   3.882  12.864  0.9147  0.4107  0.2933
   70MPD2    N1 1078   2.477   4.201  12.378 -0.5336 -0.0315 -0.1638
   70MPD2    H7 1079   2.547   4.256  12.329  0.7332 -1.5282 -0.0157
   71TMC2    C1 1080   4.156   4.469   1.920 -0.2795 -0.1485  0.6537
   71TMC2    C2 1081   4.227   4.438   2.034  0.2417 -0.1326  0.0201
   71TMC2    C3 1082   4.174   4.495   2.150 -0.9631  0.1856 -0.1086
   71TMC2    C4 1083   4.070   4.576   1.909 -0.2402 -0.3089 -0.5073
   71TMC2    C5 1084   4.030   4.637   2.028 -0.0854  0.1284 -0.0151
   71TMC2    C6 1085   4.070   4.595   2.151 -0.1308  0.5270  0.1287
   71TMC2     C 1086   4.205   4.407   1.801 -0.0062  0.3262 -0.5681
   71TMC2     O 1087   4.325   4.391   1.796 -0.3270 -0.5164  0.3589
   71TMC2     H 1088   4.303   4.362   2.047  1.1690  1.1850  2.3422
   71TMC2    H1 1089   4.023   4.595   1.813  1.3973 -0.8213 -1.4108
   71TMC2    H2 1090   4.038   4.639   2.245 -2.0214  0.2687 -0.4107
   71TMC2    C7 1091   3.921   0.013   2.027  0.3911 -0.6664 -0.3520
   71TMC2    C8 1092   4.252   4.484   2.272 -1.0390 -0.5989 -0.7750
   71TMC2    O1 1093   3.890   0.062   2.134 -0.2870  0.2098 -0.3845
   71TMC2    O2 1094   4.374   4.476   2.264  0.0745 -0.4037 -0.3729
   71TMC2    O5 1095   4.174   4.500   2.381  0.0162  0.1275 -0.1342
   71TMC2    H5 1096   4.079   4.503   2.355  0.2707 -3.1891 -1.4290
   72MPD2     C 1097   4.101   4.272   1.314 -0.1524 -0.1286  0.6261
   72MPD2    C1 1098   4.225   4.299   1.367  0.0749 -0.2444  0.5387
   72MPD2    C2 1099   4.229   4.332   1.503  0.1746  0.4421  0.3666
   72MPD2    C3 1100   4.109   4.354   1.575 -0.0735  0.3241  0.3579
   72MPD2    C4 1101   3.988   4.346   1.509  0.0252 -0.1352 -0.0124
   72MPD2    C5 1102   3.984   4.300   1.383  0.3879  0.0419  0.2537
   72MPD2     H 1103   4.328   4.332   1.547  0.0365  1.1925  0.6873
   72MPD2    H1 1104   3.895   4.386   1.545 -0.7151 -1.8803  0.0337
   72MPD2    H2 1105   4.084   4.251   1.209 -1.5248 -2.0167  1.2259
   72MPD2    H3 1106   3.887   4.297   1.334  1.4564 -0.5949 -1.8021
   72MPD2     N 1107   4.104   4.394   1.710  0.4362  0.6609 -0.1914
   72MPD2    H5 1108   4.008   4.404   1.743  0.4385 -1.4888  0.4510
   72MPD2    N1 1109   4.350   4.290   1.301 -0.5764 -0.1629  0.6567
   72MPD2    H7 1110   4.434   4.317   1.350  0.7218 -0.2304 -1.5072
   73TMC2    C1 1111   4.565   1.688  14.231  0.1805  0.3417 -0.6097
   73TMC2    C2 1112   4.538   1.813  14.290  0.7967 -0.1774  0.0210
   73TMC2    C3 1113   4.585   1.816  14.419  0.2295  0.2981  0.9073
   73TMC2    C4 1114   4.648   1.598  14.288 -0.4264 -0.1648  0.6860
   73TMC2    C5 1115   4.711   1.622  14.403 -0.1419 -0.2961 -0.1498
   73TMC2    C6 1116   4.678   1.731  14.475 -0.2621  0.1610 -0.2296
   73TMC2     C 1117   4.571   1.693  14.089 -0.5027 -0.1233  0.1847
   73TMC2     O 1118   4.654   1.620  14.036 -0.1948  0.3123  1.0644
   73TMC2     H 1119   4.488   1.896  14.242 -1.8956 -0.2244  2.7948
   73TMC2    H1 1120   4.646   1.500  14.241 -2.1953 -0.2651  0.9571
   73TMC2    H2 1121   0.003   1.751  14.568  0.1415 -1.1826 -0.1731
   73TMC2    C7 1122   0.128   1.612  14.389  0.3209  0.4226 -0.5070
   73TMC2    C8 1123   4.528   1.919  14.503 -0.2135  0.3474 -0.0041
   73TMC2    O1 1124   0.207   1.599  14.480 -0.0935  0.7809  0.4723
   73TMC2    O2 1125   4.459   2.012  14.459 -0.3656  0.4096  0.3901
   73TMC2    O5 1126   4.542   1.884  14.631  0.0124 -0.4232 -0.3049
   73TMC2    H5 1127   4.593   1.801  14.641  1.3125  0.3477 -0.4453
   74MPD2     C 1128   4.539   1.939  13.646  0.5436 -0.9840  0.0333
   74MPD2    C1 1129   4.639   1.865  13.698  0.3012 -0.0613  0.7448
   74MPD2    C2 1130   4.612   1.807  13.819 -0.2000  0.1418  0.7574
   74MPD2    C3 1131   4.501   1.825  13.898  0.0468 -0.0472 -0.0378
   74MPD2    C4 1132   4.405   1.907  13.848  0.1402 -0.2393  0.5014
   74MPD2    C5 1133   4.419   1.958  13.719 -0.4275  0.4164 -0.0792
   74MPD2     H 1134   4.684   1.738  13.863  0.2473 -0.8245 -1.4823
   74MPD2    H1 1135   4.320   1.938  13.908  1.7635 -0.4874  2.9055
   74MPD2    H2 1136   4.549   1.984  13.548  1.3047 -3.4504 -1.0044
   74MPD2    H3 1137   4.345   2.027  13.680 -0.4323  0.3632 -0.1645
   74MPD2     N 1138   4.490   1.779  14.026  0.2295  0.0235  0.6165
   74MPD2    H5 1139   4.426   1.828  14.088 -0.9995  0.1082 -0.7312
   74MPD2    N1 1140   0.030   1.854  13.624  0.4727 -0.2602  0.0645
   74MPD2    H7 1141   0.029   1.886  13.528  0.9449  3.4639  1.2996
   75TCq2    C1 1142   0.319   2.832  14.114  0.3665 -0.2260 -0.0961
   75TCq2    O2 1143   0.363   2.743  14.040  0.0496  0.1110  0.1479
   75TCq2    C2 1144   0.194   2.910  14.076 -1.0213 -0.1193 -1.1172
   75TCq2    C3 1145   0.103   2.935  14.174  0.0217  0.4185 -0.1638
   75TCq2    C4 1146   0.018   3.046  14.158  0.5410  0.2798 -0.1635
   75TCq2    C5 1147   0.004   3.116  14.039 -0.3652 -0.1334 -0.1280
   75TCq2    C6 1148   0.093   3.079  13.941  0.6755 -1.1723 -0.2169
   75TCq2    C7 1149   0.185   2.973  13.953 -0.0039  0.7917 -0.0670
   75TCq2    C8 1150   0.055   3.095  13.804 -0.7268 -0.6121 -0.1132
   75TCq2    O4 1151   0.075   3.001  13.731 -0.3959  0.9531  0.1920
   75TCq2    C9 1152   4.651   3.072  14.266 -0.0957 -0.0323  0.3976
   75TCq2    O5 1153   4.591   3.188  14.263 -0.0603  0.2494  0.0963
   75TCq2    O6 1154   4.608   2.972  14.332 -0.6941  0.1927 -0.4661
   75TCq2    H2 1155   0.095   2.873  14.262 -1.6069  0.5616 -0.2183
   75TCq2    H3 1156   4.651   3.188  14.034  0.0332  0.2459 -0.9557
   75TCq2    H4 1157   0.249   2.950  13.869  1.0245 -0.7400  1.1357
   76MPD2     C 1158   3.513   3.714  12.144 -0.4786 -0.4205  0.0480
   76MPD2    C1 1159   3.544   3.677  12.017  0.2298 -0.1121  0.4705
   76MPD2    C2 1160   3.649   3.597  11.993  0.3594  0.4833  0.3220
   76MPD2    C3 1161   3.731   3.556  12.092 -0.0593  0.6913 -0.1780
   76MPD2    C4 1162   3.696   3.583  12.220 -0.1852 -0.0210  0.5922
   76MPD2    C5 1163   3.590   3.664  12.245  0.0059  0.2575  0.0290
   76MPD2     H 1164   3.673   3.577  11.889  1.6493  0.2068  0.6732
   76MPD2    H1 1165   3.771   3.559  12.295 -0.1662 -1.3002  0.1517
   76MPD2    H2 1166   3.428   3.774  12.173  2.1842  2.9997  0.8149
   76MPD2    H3 1167   3.573   3.689  12.349  1.9393  3.2750 -0.3978
   76MPD2     N 1168   3.850   3.479  12.078  0.1685  0.1189 -0.0220
   76MPD2    H5 1169   3.898   3.461  12.165  0.1259  1.4641  0.2847
   76MPD2    N1 1170   3.471   3.723  11.902 -0.2662  0.0535  0.0178
   76MPD2    H7 1171   3.502   3.688  11.812  0.0838 -0.8016  0.4709
   77TCq2    C1 1172   3.886   3.415  11.963 -0.3622  0.3384  0.5429
   77TCq2    O2 1173   3.825   3.410  11.858 -0.0393  0.2617  0.2259
   77TCq2    C2 1174   3.992   3.322  11.982  0.1251  0.7331  0.9000
   77TCq2    C3 1175   3.980   3.216  11.897 -0.0330  0.4245 -0.7443
   77TCq2    C4 1176   4.050   3.110  11.939 -0.4263  0.3753 -0.3964
   77TCq2    C5 1177   4.127   3.101  12.051  0.2595  0.0914  0.4468
   77TCq2    C6 1178   4.140   3.212  12.123  0.4596  0.5856  0.2632
   77TCq2    C7 1179   4.064   3.322  12.096  0.7201 -0.7973 -0.0720
   77TCq2    C8 1180   4.274   3.225  12.193 -0.1135 -0.2310 -0.4662
   77TCq2    O4 1181   4.347   3.127  12.192  0.7940 -0.4958  0.7227
   77TCq2    C9 1182   4.039   2.987  11.856  0.1505 -0.5463  0.1413
   77TCq2    O5 1183   3.945   2.978  11.779 -0.1623 -0.5311  0.4020
   77TCq2    O6 1184   4.135   2.907  11.860 -0.1767  0.2635  0.4645
   77TCq2    H2 1185   3.922   3.213  11.805 -1.3047  1.1750  0.0342
   77TCq2    H3 1186   4.194   3.016  12.063 -0.5426 -0.6687 -0.4636
   77TCq2    H4 1187   4.087   3.415  12.147 -2.8715  0.4911 -0.7443
   78MPD1     C 1188   4.055   4.149   2.221  0.7262 -0.0373 -0.2671
   78MPD1    C1 1189   4.176   4.104   2.257  0.8173  0.4362  0.6971
   78MPD1    C2 1190   4.272   4.077   2.160 -0.1777 -0.1130 -0.3745
   78MPD1    C3 1191   4.252   4.093   2.029 -0.1295  0.6365 -0.1750
   78MPD1    C4 1192   4.131   4.137   1.993  0.3851  0.3069  0.5380
   78MPD1    C5 1193   4.031   4.163   2.086 -0.5758  0.5579 -0.8255
   78MPD1     H 1194   4.373   4.055   2.190 -0.0534  2.3321  0.9464
   78MPD1    H1 1195   4.106   4.154   1.889 -1.1871  1.4276  1.0882
   78MPD1    H2 1196   3.971   4.180   2.282 -0.4768 -0.6796 -1.6077
   78MPD1    H3 1197   3.934   4.193   2.051 -0.2356  2.0839 -0.4364
   78MPD1     N 1198   4.337   4.058   1.923 -0.3132 -0.5033 -0.0016
   78MPD1    H5 1199   4.302   4.059   1.828  2.0810 -1.4617 -0.9049
   78MPD1    N1 1200   4.203   4.083   2.394  0.0534  0.1330 -0.0309
   78MPD1    H6 1201   4.149   4.135   2.463 -2.3784  0.3616 -2.0996
   78MPD1    H7 1202   4.301   4.103   2.412 -0.4617 -0.0873  3.0456
   79TCq2    C1 1203   4.462   4.001   1.932 -0.1287 -0.0976  0.2530
   79TCq2    O2 1204   4.522   3.978   2.034 -0.2371 -0.1513  0.0416
   79TCq2    C2 1205   4.526   3.973   1.808  0.2638 -0.6608  0.2438
   79TCq2    C3 1206   4.461   4.011   1.695 -0.7674  0.2874 -0.6548
   79TCq2    C4 1207   4.528   3.992   1.577 -0.5129 -0.0035 -0.3121
   79TCq2    C5 1208   4.660   3.948   1.575  0.3070 -0.2109 -0.0692
   79TCq2    C6 1209   4.724   3.930   1.695  0.4677  0.5605 -0.1186
   79TCq2    C7 1210   4.656   3.940   1.816  0.0838 -0.0870 -0.2221
   79TCq2    C8 1211   0.137   3.885   1.700  0.0559 -0.4922  0.1850
   79TCq2    O4 1212   0.192   3.892   1.589  0.2741 -0.6040 -0.1284
   79TCq2    C9 1213   4.453   3.996   1.454  0.1767  0.3217 -0.0373
   79TCq2    O5 1214   4.328   4.001   1.459  0.2934 -0.2074 -0.0755
   79TCq2    O6 1215   4.523   3.971   1.352 -0.6912 -0.2679 -0.4014
   79TCq2    H2 1216   4.355   4.032   1.687 -0.6238  2.0482  1.9804
   79TCq2    H3 1217   4.703   3.920   1.480 -3.0133 -0.1782 -1.5867
   79TCq2    H4 1218   4.704   3.935   1.913  3.1130 -0.6959 -1.7799
   80MPD2     C 1219   2.930   2.950  13.116 -0.1846  0.4619  0.4432
   80MPD2    C1 1220   2.874   2.983  12.990  0.5601  0.1500  0.3072
   80MPD2    C2 1221   2.745   3.032  12.982 -0.2867  0.5566  0.2108
   80MPD2    C3 1222   2.666   3.039  13.097 -0.5317  0.0303  0.1141
   80MPD2    C4 1223   2.720   3.001  13.217 -0.3002 -0.1373 -0.6642
   80MPD2    C5 1224   2.850   2.963  13.226  0.1984  0.7726 -0.4024
   80MPD2     H 1225   2.712   3.063  12.884 -0.4989  0.3718  0.2236
   80MPD2    H1 1226   2.665   3.002  13.311  0.7945 -0.1269 -0.0321
   80MPD2    H2 1227   3.026   2.906  13.138 -1.0863 -1.5845  0.3032
   80MPD2    H3 1228   2.889   2.945  13.325 -0.6043 -1.8315 -0.5688
   80MPD2     N 1229   2.531   3.086  13.091  0.4333 -0.1186  0.7514
   80MPD2    H5 1230   2.479   3.077  13.179  1.1492 -1.7088  1.0206
   80MPD2    N1 1231   2.946   2.965  12.870 -0.1809  0.0164 -0.4129
   80MPD2    H7 1232   2.895   2.977  12.783  1.0961  0.3884 -1.1030
   81TCq2    C1 1233   3.076   2.951  12.866 -1.0691  0.5054 -0.5796
   81TCq2    O2 1234   3.163   2.956  12.949 -0.6670  0.3848  0.1791
   81TCq2    C2 1235   3.112   2.937  12.723 -0.0443 -0.7084 -0.3928
   81TCq2    C3 1236   3.185   3.029  12.661 -0.2463 -0.2543  0.1458
   81TCq2    C4 1237   3.186   3.032  12.528  1.2007 -0.2384 -0.0842
   81TCq2    C5 1238   3.118   2.942  12.453 -0.1736  0.3278 -0.1563
   81TCq2    C6 1239   3.047   2.842  12.518  0.1107  0.3615 -0.2595
   81TCq2    C7 1240   3.040   2.843  12.652  0.0203 -0.4029  0.3468
   81TCq2    C8 1241   2.953   2.763  12.438  0.5551  0.3455 -0.2192
   81TCq2    O4 1242   2.903   2.819  12.341 -0.1247 -0.1356  0.2638
   81TCq2    C9 1243   3.242   3.144  12.462 -0.5395  0.0526 -0.1162
   81TCq2    O5 1244   3.274   3.244  12.531 -0.1191  0.7048  0.3337
   81TCq2    O6 1245   3.248   3.139  12.338 -0.2743 -0.7030 -0.4718
   81TCq2    H2 1246   3.250   3.096  12.717 -1.7432 -1.3212  3.1641
   81TCq2    H3 1247   3.112   2.943  12.345  1.2777 -0.1584 -0.2360
   81TCq2    H4 1248   2.965   2.779  12.698  0.3926 -0.0979  1.3826
   82MPD2     C 1249   0.708   2.072  10.444  0.5644 -0.1785  0.3850
   82MPD2    C1 1250   0.806   2.167  10.432 -0.3591 -0.0323  0.3534
   82MPD2    C2 1251   0.901   2.190  10.529 -0.1903  0.0428  0.1132
   82MPD2    C3 1252   0.907   2.110  10.648 -0.0477  0.5272 -0.0028
   82MPD2    C4 1253   0.804   2.019  10.662  0.5856  0.8020  0.3493
   82MPD2    C5 1254   0.703   1.999  10.567 -0.4495 -0.2740 -0.8801
   82MPD2     H 1255   0.977   2.266  10.514 -0.3631  0.5769  1.9625
   82MPD2    H1 1256   0.793   1.956  10.750  0.9208  0.2603  0.0036
   82MPD2    H2 1257   0.630   2.055  10.371 -1.7660  2.5211  2.2517
   82MPD2    H3 1258   0.623   1.926  10.574 -0.6565  0.1181  0.8611
   82MPD2     N 1259   1.002   2.134  10.753 -0.6776 -0.0017 -0.6767
   82MPD2    H5 1260   0.972   2.095  10.842 -0.0783  0.2992 -0.3474
   82MPD2    N1 1261   0.801   2.246  10.315  0.1503  0.4360 -0.5758
   82MPD2    H7 1262   0.722   2.225  10.254 -0.7695  0.1948  0.7023
   83TCq2    C1 1263   1.124   2.199  10.740  0.0139 -0.0080  0.5106
   83TCq2    O2 1264   1.167   2.250  10.636  0.0282 -0.5058 -0.2315
   83TCq2    C2 1265   1.204   2.199  10.865  0.5669  0.6227  0.0160
   83TCq2    C3 1266   1.303   2.297  10.874 -0.4667  0.8340 -0.3998
   83TCq2    C4 1267   1.390   2.284  10.978  0.3419 -0.6563 -0.5998
   83TCq2    C5 1268   1.400   2.169  11.043  0.3815 -1.3088 -0.2237
   83TCq2    C6 1269   1.320   2.066  11.017 -0.2075 -0.0676  0.1920
   83TCq2    C7 1270   1.211   2.082  10.935  0.5712 -0.2194  0.2559
   83TCq2    C8 1271   1.313   1.953  11.114 -0.6693 -0.5245  0.0493
   83TCq2    O4 1272   1.202   1.907  11.139  0.2299 -0.0850 -1.0757
   83TCq2    C9 1273   1.468   2.398  11.027  0.7265 -0.5153  0.3850
   83TCq2    O5 1274   1.515   2.395  11.145 -0.3226 -0.2084  0.3599
   83TCq2    O6 1275   1.432   2.508  10.984  0.2245  0.1269  0.1567
   83TCq2    H2 1276   1.276   2.393  10.832 -1.7214 -0.1096 -1.7604
   83TCq2    H3 1277   1.478   2.161  11.118  0.1550 -1.9941 -0.0599
   83TCq2    H4 1278   1.135   2.004  10.932 -1.4143  1.6717  1.1995
   84TCq2    C1 1279   2.726   1.406  10.318  0.8045  0.4567  0.1974
   84TCq2    O2 1280   2.647   1.321  10.352 -0.8440 -0.4381 -0.0440
   84TCq2    C2 1281   2.773   1.490  10.427 -0.7158 -0.4123  0.1731
   84TCq2    C3 1282   2.877   1.577  10.402  0.0679  0.5348  0.4245
   84TCq2    C4 1283   2.905   1.674  10.486 -0.3933 -0.7087 -0.2440
   84TCq2    C5 1284   2.840   1.678  10.604  0.0128 -0.1969  0.2597
   84TCq2    C6 1285   2.742   1.585  10.641  0.6789 -1.2345 -0.1231
   84TCq2    C7 1286   2.695   1.501  10.543 -0.2002 -0.2774 -0.1631
   84TCq2    C8 1287   2.653   1.607  10.763  0.8907 -0.1126 -0.3645
   84TCq2    O4 1288   2.707   1.662  10.858 -0.1328 -0.1338  0.5277
   84TCq2    C9 1289   2.994   1.781  10.452 -0.1259 -0.3201 -0.5233
   84TCq2    O5 1290   3.003   1.868  10.538 -0.4707 -0.1902 -0.4326
   84TCq2    O6 1291   3.041   1.792  10.335  0.2325 -0.3311 -0.0297
   84TCq2    H2 1292   2.933   1.571  10.310 -1.4986  0.3623 -0.5165
   84TCq2    H3 1293   2.865   1.765  10.663 -0.3142  1.0753 -1.4719
   84TCq2    H4 1294   2.610   1.434  10.550 -0.2639 -0.4266 -2.2721
   85MPD2     C 1295   2.565   4.400  16.372 -0.2314 -0.3126  0.0221
   85MPD2    C1 1296   2.520   4.421  16.243  0.6147  0.2984 -0.3816
   85MPD2    C2 1297   2.567   4.526  16.172  0.0111 -0.4363 -0.1329
   85MPD2    C3 1298   2.653   4.626  16.224  0.0586 -0.1946  0.2147
   85MPD2    C4 1299   2.695   4.601  16.358  0.5566  0.1186  0.5471
   85MPD2    C5 1300   2.657   4.486  16.427 -0.1203 -0.0627 -0.4419
   85MPD2     H 1301   2.540   4.541  16.068 -2.1412  2.7751  0.8966
   85MPD2    H1 1302   2.773   4.657  16.407  0.6736  0.9961 -0.6358
   85MPD2    H2 1303   2.529   4.315  16.429 -0.8594 -0.0965 -0.0435
   85MPD2    H3 1304   2.687   4.470  16.530 -0.2637 -1.9111 -0.6831
   85MPD2     N 1305   2.686   0.020  16.152 -0.0052 -0.0348 -0.0145
   85MPD2    H5 1306   2.655   0.021  16.056 -2.0131  0.0902  0.6419
   85MPD2    N1 1307   2.435   4.335  16.187  0.3912 -0.0754  0.4309
   85MPD2    H7 1308   2.416   4.346  16.088  1.6562 -1.8658 -0.0185
   86TCq2    C1 1309   2.749   0.135  16.208 -0.1487 -0.3804 -0.4852
   86TCq2    O2 1310   2.775   0.157  16.330  0.3139  0.2193  1.0954
   86TCq2    C2 1311   2.764   0.250  16.117 -0.4642 -0.1665 -0.6026
   86TCq2    C3 1312   2.779   0.382  16.170  0.6250  0.9835  0.2478
   86TCq2    C4 1313   2.843   0.479  16.090 -0.5608  0.4885 -0.1138
   86TCq2    C5 1314   2.888   0.450  15.963 -0.3449 -0.1488  0.2028
   86TCq2    C6 1315   2.866   0.329  15.914  0.4822  0.7023  0.2448
   86TCq2    C7 1316   2.805   0.226  15.987  0.0536 -0.2853 -0.2444
   86TCq2    C8 1317   2.955   0.277  15.806 -0.0782 -0.9293 -0.0136
   86TCq2    O4 1318   2.928   0.169  15.754 -0.1230  0.1855 -0.7656
   86TCq2    C9 1319   2.863   0.614  16.144  0.0875 -0.2164  0.3101
   86TCq2    O5 1320   2.837   0.617  16.270  0.1032  0.9901  0.6227
   86TCq2    O6 1321   2.962   0.674  16.093 -0.1505 -0.1920 -0.5175
   86TCq2    H2 1322   2.740   0.408  16.268 -1.8844  3.9567 -1.5425
   86TCq2    H3 1323   2.928   0.527  15.897 -0.2184 -0.6044 -0.2528
   86TCq2    H4 1324   2.808   0.123  15.952  0.6711 -0.3738  0.0692
   87MPD2     C 1325   4.423   3.164   1.364 -0.2164  0.4782  0.6410
   87MPD2    C1 1326   4.472   3.081   1.264 -0.1237 -0.0261  0.0326
   87MPD2    C2 1327   4.412   3.089   1.141  0.6296  1.1597  0.0530
   87MPD2    C3 1328   4.307   3.179   1.117  0.4069 -0.0196 -0.1462
   87MPD2    C4 1329   4.281   3.272   1.215  0.0069 -0.1766 -0.2293
   87MPD2    C5 1330   4.336   3.262   1.340  0.0553 -0.1392  0.2820
   87MPD2     H 1331   4.443   3.029   1.057 -1.2595  0.8739 -0.4410
   87MPD2    H1 1332   4.211   3.354   1.202 -1.7594 -1.6986 -0.3108
   87MPD2    H2 1333   4.458   3.156   1.466 -0.9169  1.9915  1.0110
   87MPD2    H3 1334   4.303   3.329   1.419  3.3491 -0.6951  2.0884
   87MPD2     N 1335   4.255   3.208   0.993 -0.0460  0.0194 -0.1315
   87MPD2    H5 1336   4.229   3.305   0.977  0.4564 -0.1780 -2.1796
   87MPD2    N1 1337   4.569   2.978   1.303  0.0987  0.4875  0.4527
   87MPD2    H7 1338   4.588   2.979   1.402  1.1951 -0.1074  0.2514
   88TCq2    C1 1339   4.624   2.882   1.225 -0.9435  0.5664  1.0868
   88TCq2    O2 1340   4.623   2.880   1.100  0.2497  0.0435  0.5534
   88TCq2    C2 1341   4.718   2.790   1.296  0.1228  0.9317 -0.1277
   88TCq2    C3 1342   4.712   2.766   1.430  0.3740 -0.6900 -0.1197
   88TCq2    C4 1343   0.092   2.714   1.494  0.9755  1.3819  0.1684
   88TCq2    C5 1344   0.214   2.692   1.422 -0.0166  0.0779  0.3202
   88TCq2    C6 1345   0.211   2.710   1.289  0.3327 -0.3552  0.2946
   88TCq2    C7 1346   0.101   2.749   1.226 -0.7123 -0.0493  0.7211
   88TCq2    C8 1347   0.337   2.741   1.226  0.3484  0.3847 -0.1817
   88TCq2    O4 1348   0.404   2.835   1.254 -0.2943  0.1148 -0.0800
   88TCq2    C9 1349   0.091   2.699   1.640  0.6350  0.3599  0.1176
   88TCq2    O5 1350   0.008   2.767   1.701 -0.1796 -0.5216  0.2625
   88TCq2    O6 1351   0.192   2.642   1.695  0.0048 -0.2537 -0.1563
   88TCq2    H2 1352   4.632   2.809   1.488 -0.2504 -0.7396 -0.9503
   88TCq2    H3 1353   0.309   2.654   1.460 -0.2693 -1.2576 -0.3655
   88TCq2    H4 1354   0.104   2.777   1.121  0.1431 -0.4662  0.6362
   89MPD2     C 1355   1.278   0.424   1.671 -0.4978 -0.0531  0.1657
   89MPD2    C1 1356   1.201   0.535   1.678 -0.1856 -0.1280 -0.7507
   89MPD2    C2 1357   1.245   0.662   1.628 -0.7293  0.0273 -0.4342
   89MPD2    C3 1358   1.366   0.668   1.555 -0.0236 -0.7236 -0.3407
   89MPD2    C4 1359   1.443   0.543   1.554 -0.4128  0.2908  0.1026
   89MPD2    C5 1360   1.398   0.432   1.611 -0.0204 -0.5422 -0.2042
   89MPD2     H 1361   1.188   0.754   1.638  0.4686  0.6918  0.2801
   89MPD2    H1 1362   1.535   0.539   1.497  0.1802 -1.9998  1.2078
   89MPD2    H2 1363   1.241   0.323   1.681 -3.5534  0.6736 -3.9630
   89MPD2    H3 1364   1.454   0.341   1.592  2.2110  0.3538  2.2241
   89MPD2     N 1365   1.413   0.795   1.502 -0.2965 -0.5859 -0.2590
   89MPD2    H5 1366   1.345   0.870   1.494  1.7094  1.4304  1.2948
   89MPD2    N1 1367   1.070   0.533   1.732 -0.2583 -0.5612  0.7505
   89MPD2    H7 1368   1.041   0.617   1.780  0.7113  0.1858  0.0328
   90TCq2    C1 1369   1.550   0.821   1.487 -0.0906  0.4113  0.4261
   90TCq2    O2 1370   1.644   0.748   1.514 -0.3582  0.1477  0.0024
   90TCq2    C2 1371   1.577   0.956   1.438 -0.0562  0.0506  0.9074
   90TCq2    C3 1372   1.706   1.001   1.446 -0.2872  0.2577  0.2977
   90TCq2    C4 1373   1.738   1.131   1.429  0.0884  0.1914 -0.0577
   90TCq2    C5 1374   1.641   1.219   1.404 -0.4471 -0.2294 -0.2268
   90TCq2    C6 1375   1.513   1.169   1.387 -0.0372 -0.4346 -0.1813
   90TCq2    C7 1376   1.476   1.045   1.421  0.3749 -0.2264  0.7945
   90TCq2    C8 1377   1.402   1.246   1.330 -0.1154 -0.0818  0.5845
   90TCq2    O4 1378   1.284   1.211   1.337 -0.5945 -0.1526 -0.3433
   90TCq2    C9 1379   1.874   1.168   1.409 -0.4409 -0.4665 -0.6325
   90TCq2    O5 1380   1.886   1.289   1.390 -0.0292  0.9604  0.2849
   90TCq2    O6 1381   1.964   1.081   1.392 -0.4690 -0.1691  0.3017
   90TCq2    H2 1382   1.779   0.921   1.447 -0.2053  0.3327  0.1489
   90TCq2    H3 1383   1.671   1.315   1.363  0.9381 -1.1098 -1.2321
   90TCq2    H4 1384   1.381   1.014   1.378 -0.1832  2.1601  0.3280
   91TMC2    C1 1385   3.070   0.861  16.916 -0.4806  0.6856  0.1832
   91TMC2    C2 1386   3.104   0.959  17.004  0.2146  0.0785 -0.0967
   91TMC2    C3 1387   3.020   1.001  17.101  0.3739  0.0044 -0.8459
   91TMC2    C4 1388   2.943   0.809  16.920  0.0265  0.4695 -0.3767
   91TMC2    C5 1389   2.861   0.854  17.020  0.0656  0.8642  0.0961
   91TMC2    C6 1390   2.899   0.950  17.107  0.5992 -0.3380 -0.2401
   91TMC2     C 1391   3.171   0.768  16.886 -1.1050 -0.3570 -0.2800
   91TMC2     O 1392   3.142   0.652  16.917 -0.4937 -0.1747  0.6034
   91TMC2     H 1393   3.206   0.996  17.012  0.5813 -1.4324  2.3507
   91TMC2    H1 1394   2.918   0.724  16.857  2.0727 -0.0387 -0.5281
   91TMC2    H2 1395   2.827   0.988  17.178 -1.0255 -1.8314 -1.0912
   91TMC2    C7 1396   2.724   0.808  17.017 -0.0083  0.1952 -0.0439
   91TMC2    C8 1397   3.026   1.136  17.131  0.2287  0.2072  0.5621
   91TMC2    O1 1398   2.668   0.827  17.126 -0.2825 -0.3108 -0.6114
   91TMC2    O2 1399   3.137   1.184  17.130 -0.1997  0.1271 -0.8346
   91TMC2    O5 1400   2.922   1.196  17.068  0.1643 -0.5432  0.2776
   91TMC2    H5 1401   2.850   1.131  17.056 -1.1570  0.8266  0.8161
   92MPD2     C 1402   3.429   0.611  16.890  0.2319 -0.2168 -0.0469
   92MPD2    C1 1403   3.412   0.735  16.825  0.0798  0.2867 -0.5485
   92MPD2    C2 1404   3.510   0.783  16.741  0.0600 -0.2633 -1.2522
   92MPD2    C3 1405   3.627   0.717  16.724  0.3440 -0.2572  0.1886
   92MPD2    C4 1406   3.644   0.603  16.799  0.4770 -0.0066  0.1753
   92MPD2    C5 1407   3.552   0.550  16.880  0.2066  0.1249 -0.2061
   92MPD2     H 1408   3.489   0.884  16.705 -2.3895 -0.2464  0.2093
   92MPD2    H1 1409   3.738   0.551  16.785  1.6870  1.7884  1.5352
   92MPD2    H2 1410   3.363   0.568  16.964  3.4826  0.4554  3.2384
   92MPD2    H3 1411   3.559   0.456  16.933 -0.7177 -0.1708 -0.6067
   92MPD2     N 1412   3.726   0.764  16.631 -0.0856 -1.0378 -0.3626
   92MPD2    H5 1413   3.702   0.856  16.596  0.7749 -0.8509 -0.4776
   92MPD2    N1 1414   3.296   0.815  16.845  0.0933 -0.1389 -0.0807
   92MPD2    H7 1415   3.289   0.908  16.804 -0.4135  0.1664  0.7193
   93MPD2     C 1416   4.598   0.695  13.815  0.1491  0.0086  0.0613
   93MPD2    C1 1417   4.511   0.797  13.851 -0.1980 -0.1210  0.0969
   93MPD2    C2 1418   4.376   0.784  13.822 -0.7714  0.6780 -0.5639
   93MPD2    C3 1419   4.329   0.667  13.773 -0.3827  0.1750 -0.9210
   93MPD2    C4 1420   4.420   0.562  13.742 -0.6442  0.7907 -0.6553
   93MPD2    C5 1421   4.553   0.587  13.755 -0.1490  0.0563  0.0973
   93MPD2     H 1422   4.314   0.869  13.850  1.5381  1.8198  1.0569
   93MPD2    H1 1423   4.392   0.467  13.697 -0.3001  0.8527 -0.9967
   93MPD2    H2 1424   4.704   0.704  13.832 -0.1170 -0.1993  1.8137
   93MPD2    H3 1425   4.625   0.510  13.728 -0.8212  0.0457 -1.6569
   93MPD2     N 1426   4.187   0.632  13.762  0.4740  0.5120 -0.0167
   93MPD2    H5 1427   4.162   0.546  13.714 -0.8554  1.3798 -0.8607
   93MPD2    N1 1428   4.560   0.915  13.917  0.0764  0.0728  0.2764
   93MPD2    H7 1429   4.490   0.980  13.949 -0.2368 -0.0173 -0.2176
   94TCq2    C1 1430   4.692   0.958  13.907  0.1192 -0.2495  1.1288
   94TCq2    O2 1431   0.061   0.899  13.858  0.2432 -0.6615  0.3666
   94TCq2    C2 1432   0.003   1.076  13.985 -0.0618  0.0783  0.3875
   94TCq2    C3 1433   4.660   1.109  14.101 -0.6069  0.4600 -0.3545
   94TCq2    C4 1434   4.726   1.195  14.191  0.1177 -0.5050  0.3575
   94TCq2    C5 1435   0.126   1.244  14.175 -0.7763  0.1975 -0.5931
   94TCq2    C6 1436   0.185   1.208  14.060  0.2090  0.0255 -0.1668
   94TCq2    C7 1437   0.131   1.126  13.970  0.0289 -0.1655  0.3158
   94TCq2    C8 1438   0.327   1.231  14.047  0.4501 -0.7046  0.6381
   94TCq2    O4 1439   0.392   1.241  14.152  0.5435 -0.5769 -0.3192
   94TCq2    C9 1440   4.663   1.221  14.325 -0.1416 -0.1776 -0.1771
   94TCq2    O5 1441   4.547   1.173  14.348  0.1503  0.5811  0.5033
   94TCq2    O6 1442   4.716   1.298  14.404  0.0288  0.1141 -0.1140
   94TCq2    H2 1443   4.565   1.061  14.124 -0.1334  0.1909  1.0480
   94TCq2    H3 1444   0.168   1.313  14.246 -1.0403  1.0746 -1.2851
   94TCq2    H4 1445   0.192   1.100  13.884  0.9148 -0.0996  0.9357
   95TMC2    C1 1446   4.457   2.966  16.371  0.3943  0.6145  0.5889
   95TMC2    C2 1447   4.379   2.891  16.457 -0.4437  0.3455  0.3094
   95TMC2    C3 1448   4.296   2.968  16.536  0.3201 -0.4160 -0.2170
   95TMC2    C4 1449   4.456   3.107  16.363 -0.1433 -0.1390  0.1602
   95TMC2    C5 1450   4.372   3.175  16.454  0.1857 -0.3568 -0.6689
   95TMC2    C6 1451   4.294   3.106  16.540 -0.1179  0.3263 -0.5269
   95TMC2     C 1452   4.526   2.901  16.263  0.6236  1.1451  0.1937
   95TMC2     O 1453   4.585   2.968  16.182 -0.6437 -0.3130  0.2675
   95TMC2     H 1454   4.369   2.783  16.453 -2.3849  0.5561 -0.6275
   95TMC2    H1 1455   4.525   3.157  16.295 -0.2841 -1.4594 -0.9618
   95TMC2    H2 1456   4.238   3.164  16.613 -0.9509 -2.7538  1.2618
   95TMC2    C7 1457   4.353   3.321  16.450 -0.1278 -0.0023  0.5354
   95TMC2    C8 1458   4.192   2.889  16.606  1.0720 -0.6389 -0.2757
   95TMC2    O1 1459   4.276   3.373  16.529  0.7004 -0.2477  0.5720
   95TMC2    O2 1460   4.198   2.770  16.622  0.2958 -0.2342  0.1193
   95TMC2    O5 1461   4.075   2.955  16.586  0.5384  0.3316 -0.5270
   95TMC2    H5 1462   4.085   3.028  16.521 -1.8314  0.3070 -0.9127
   96MPD2     C 1463   0.024   2.495  16.073 -0.0313 -0.0044  0.1797
   96MPD2    C1 1464   0.042   2.626  16.036  0.0209  0.5649  0.4183
   96MPD2    C2 1465   4.698   2.722  16.110  0.5077  1.0936 -0.2376
   96MPD2    C3 1466   4.609   2.675  16.207 -0.1435  0.4451 -0.4335
   96MPD2    C4 1467   4.585   2.544  16.230 -0.4615  0.4334 -0.1596
   96MPD2    C5 1468   4.653   2.449  16.163  0.2389  0.2976  0.4293
   96MPD2     H 1469   4.706   2.828  16.086 -0.0999  1.2087  0.0718
   96MPD2    H1 1470   4.515   2.513  16.306 -0.2911 -0.6893 -0.4655
   96MPD2    H2 1471   0.087   2.428  16.015 -0.0227 -0.4961  0.7574
   96MPD2    H3 1472   4.624   2.346  16.177  0.4709  0.0833 -0.7270
   96MPD2     N 1473   4.538   2.768  16.283 -0.0612  0.3063  0.0620
   96MPD2    H5 1474   4.483   2.734  16.361  1.4004  0.6639  1.2501
   96MPD2    N1 1475   0.148   2.654  15.944 -0.2954  0.0442 -0.1737
   96MPD2    H7 1476   0.200   2.574  15.909 -0.5791 -0.2679  0.1150
   97MPD2     C 1477   2.064   4.698   0.973  0.1122 -0.4629  0.1925
   97MPD2    C1 1478   1.928   4.684   0.954  0.3503  0.3071 -0.6607
   97MPD2    C2 1479   1.871   0.040   0.856 -0.1597 -0.3921  0.3686
   97MPD2    C3 1480   1.948   0.132   0.785  0.2330 -0.1005  0.2054
   97MPD2    C4 1481   2.088   0.133   0.804 -0.3390 -0.1619  0.3592
   97MPD2    C5 1482   2.143   0.057   0.903 -1.1055 -0.7600 -0.4606
   97MPD2     H 1483   1.763   0.042   0.842 -0.3927 -1.6297  2.0142
   97MPD2    H1 1484   2.158   0.188   0.743  0.2153 -1.7336 -0.4213
   97MPD2    H2 1485   2.121   4.628   1.034  0.3956 -0.3097  0.1056
   97MPD2    H3 1486   2.249   0.070   0.921 -0.9326  1.4907 -3.0808
   97MPD2     N 1487   1.893   0.214   0.685  0.0249 -0.6081  0.6954
   97MPD2    H5 1488   1.952   0.278   0.633 -1.4821 -0.9149 -1.3993
   97MPD2    N1 1489   1.859   4.595   1.037 -0.2648 -0.5626  1.1400
   97MPD2    H7 1490   1.911   4.547   1.110  0.7757 -0.3396  0.5290
   98TCq2    C1 1491   1.764   0.213   0.644 -0.6343  0.4218 -0.6313
   98TCq2    O2 1492   1.672   0.138   0.680 -0.3892  0.0088 -0.6577
   98TCq2    C2 1493   1.730   0.319   0.548 -0.1451 -0.3657 -0.0356
   98TCq2    C3 1494   1.609   0.302   0.485 -0.1467 -0.0521 -0.0596
   98TCq2    C4 1495   1.577   0.392   0.391 -0.5895 -0.3600 -0.3825
   98TCq2    C5 1496   1.656   0.496   0.353  0.4403 -0.5655  0.1685
   98TCq2    C6 1497   1.780   0.504   0.416  0.0045 -0.3811 -0.0449
   98TCq2    C7 1498   1.814   0.421   0.519 -0.9022 -0.7988 -0.5483
   98TCq2    C8 1499   1.881   0.604   0.374 -0.9706 -1.0772 -0.4703
   98TCq2    O4 1500   1.973   0.627   0.452  0.3122  0.0005  0.1844
   98TCq2    C9 1501   1.454   0.373   0.318 -0.7501 -0.1474  0.5662
   98TCq2    O5 1502   1.450   0.409   0.198 -0.3914 -0.3099 -0.2858
   98TCq2    O6 1503   1.382   0.282   0.366  0.1061  0.2587 -0.0351
   98TCq2    H2 1504   1.548   0.213   0.492 -0.3775 -0.0131 -1.6245
   98TCq2    H3 1505   1.640   0.572   0.277 -1.7606 -1.3217 -0.1299
   98TCq2    H4 1506   1.918   0.424   0.551 -1.0328 -3.7719  0.1159
   99MPD2     C 1507   0.866   2.469   1.705  0.0298 -0.2797  0.2386
   99MPD2    C1 1508   0.834   2.368   1.785 -0.1576 -0.1179  0.0490
   99MPD2    C2 1509   0.816   2.245   1.721  0.9123 -0.0154  0.3280
   99MPD2    C3 1510   0.822   2.232   1.581 -0.8263 -0.2568  0.8382
   99MPD2    C4 1511   0.854   2.343   1.501  0.4095  0.3265 -0.3365
   99MPD2    C5 1512   0.870   2.459   1.565 -0.2478  0.4810  0.6920
   99MPD2     H 1513   0.791   2.155   1.777  2.5884  0.7788  2.3428
   99MPD2    H1 1514   0.853   2.333   1.393  0.3762 -1.6584 -0.1689
   99MPD2    H2 1515   0.894   2.566   1.745 -1.0828 -0.0759  0.5137
   99MPD2    H3 1516   0.894   2.555   1.520  0.8986  0.0993  0.4985
   99MPD2     N 1517   0.811   2.095   1.533 -0.1087  0.5256  0.4709
   99MPD2    H5 1518   0.790   2.022   1.601 -1.7484  1.0890  0.5639
   99MPD2    N1 1519   0.809   2.380   1.927  0.1971 -0.3552 -0.7276
   99MPD2    H7 1520   0.761   2.302   1.971  1.2680 -0.1909  0.7191
  100TCq2    C1 1521   0.834   2.492   2.002 -0.0451 -0.0997 -0.2206
  100TCq2    O2 1522   0.915   2.579   1.975 -0.0670  0.5754 -0.0754
  100TCq2    C2 1523   0.772   2.483   2.137  0.0240  0.5657  0.0937
  100TCq2    C3 1524   0.804   2.592   2.209  0.0773  0.2443  0.8133
  100TCq2    C4 1525   0.764   2.598   2.337  0.1070  0.2286  0.2195
  100TCq2    C5 1526   0.696   2.495   2.400 -0.6067  0.1066  0.0598
  100TCq2    C6 1527   0.658   2.390   2.327  0.3934  0.4947 -0.2324
  100TCq2    C7 1528   0.688   2.384   2.191 -0.2821  0.0280 -0.1209
  100TCq2    C8 1529   0.597   2.275   2.390 -0.8009 -0.2594  0.3883
  100TCq2    O4 1530   0.605   2.280   2.514  0.3271  0.1012  0.2644
  100TCq2    C9 1531   0.817   2.700   2.423  0.5846 -0.6785 -0.6107
  100TCq2    O5 1532   0.845   2.816   2.377 -0.1798  0.1325 -0.2075
  100TCq2    O6 1533   0.803   2.673   2.547  0.2212  1.0110 -0.0307
  100TCq2    H2 1534   0.866   2.674   2.173 -1.9430  1.5553  0.3405
  100TCq2    H3 1535   0.668   2.495   2.505  1.4821 -1.0698  0.6018
  100TCq2    H4 1536   0.659   2.296   2.135  1.2686 -1.0172  0.7328
  101MPD2     C 1537   1.365   3.303  12.963 -0.3702 -0.4391  0.3703
  101MPD2    C1 1538   1.298   3.395  13.033  0.6879  0.1781  0.2940
  101MPD2    C2 1539   1.198   3.360  13.122 -0.2754  0.2097 -0.9414
  101MPD2    C3 1540   1.175   3.226  13.150 -0.2428 -0.5305 -0.8476
  101MPD2    C4 1541   1.256   3.130  13.081  0.4023  0.1905  0.2236
  101MPD2    C5 1542   1.344   3.169  12.981  0.2426 -0.4762 -0.0752
  101MPD2     H 1543   1.134   3.432  13.172  2.4877  1.8021  0.2902
  101MPD2    H1 1544   1.247   3.024  13.102  2.0865  0.1610  0.7475
  101MPD2    H2 1545   1.442   3.318  12.887  0.0496 -1.2372  0.6390
  101MPD2    H3 1546   1.392   3.102  12.911 -1.8196 -0.2183 -1.7435
  101MPD2     N 1547   1.080   3.181  13.248 -0.8725 -0.0049 -0.1322
  101MPD2    H5 1548   1.043   3.255  13.306 -1.2189  1.3350 -2.0583
  101MPD2    N1 1549   1.340   3.529  13.019  0.5109  0.9976  0.2727
  101MPD2    H7 1550   1.399   3.552  12.939  0.0402  0.8282 -0.1249
  102TCq2    C1 1551   1.604   3.816  12.816  0.3268  0.5142 -0.4653
  102TCq2    O2 1552   1.701   3.743  12.846 -0.2522  0.0372  0.4146
  102TCq2    C2 1553   1.511   3.861  12.917  0.3019  0.5044 -0.7766
  102TCq2    C3 1554   1.427   3.962  12.884 -0.0053 -0.1361 -0.3027
  102TCq2    C4 1555   1.304   3.968  12.938 -1.2831  0.3006 -0.1050
  102TCq2    C5 1556   1.253   3.859  13.007  0.2964  0.5470  0.4250
  102TCq2    C6 1557   1.342   3.766  13.041 -0.1490 -0.9842 -0.0154
  102TCq2    C7 1558   1.473   3.763  13.001 -0.8147 -0.1510 -0.0080
  102TCq2    C8 1559   1.283   3.639  13.079  1.1717  0.7566  0.0804
  102TCq2    O4 1560   1.196   3.646  13.164  0.2509  0.3410  0.2705
  102TCq2    C9 1561   1.220   4.075  12.899  0.3457 -0.8375  0.1720
  102TCq2    O5 1562   1.099   4.046  12.900  0.0149 -0.2691  0.2113
  102TCq2    O6 1563   1.273   4.163  12.827  0.4179  0.1335  0.6990
  102TCq2    H2 1564   1.469   4.035  12.816  1.0337 -2.0617 -1.7306
  102TCq2    H3 1565   1.150   3.859  13.042  0.0805 -1.3108 -0.2093
  102TCq2    H4 1566   1.540   3.679  13.018 -1.1214 -0.3378  0.2704
  103TMC2    C1 1567   4.313   3.820  12.723  0.7609  0.3899 -0.2278
  103TMC2    C2 1568   4.262   3.942  12.684 -0.5817  0.8174  0.4688
  103TMC2    C3 1569   4.272   4.043  12.776  0.1273 -0.5938 -0.3787
  103TMC2    C4 1570   4.373   3.796  12.849 -0.5840  0.4007  0.2384
  103TMC2    C5 1571   4.388   3.906  12.927 -0.0463  0.0196 -0.0242
  103TMC2    C6 1572   4.343   4.033  12.891  0.0864 -0.6355  0.0120
  103TMC2     C 1573   4.322   3.726  12.621  0.4706 -0.4926 -0.4946
  103TMC2     O 1574   4.275   3.753  12.513 -0.2980 -0.0726  0.1064
  103TMC2     H 1575   4.228   3.972  12.585 -0.3621  0.4139  0.2683
  103TMC2    H1 1576   4.405   3.697  12.880  1.7102  0.4142 -2.1512
  103TMC2    H2 1577   4.340   4.110  12.967 -1.0808 -0.3933 -0.2843
  103TMC2    C7 1578   4.445   3.894  13.056  1.0472  0.0686 -0.1433
  103TMC2    C8 1579   4.237   4.176  12.729 -0.0809 -0.1269 -0.3570
  103TMC2    O1 1580   4.435   3.782  13.104  0.3041  0.0032 -0.2054
  103TMC2    O2 1581   4.120   4.208  12.730 -0.2643 -0.9348 -0.4418
  103TMC2    O5 1582   4.337   4.263  12.771  0.2896  0.3583 -0.2737
  103TMC2    H5 1583   4.429   4.230  12.774 -0.6107 -2.3967 -3.8593
  104MPD2     C 1584   4.541   3.432  12.585 -0.0892 -0.2855  0.3165
  104MPD2    C1 1585   4.437   3.518  12.550  0.5546 -0.1124  0.1166
  104MPD2    C2 1586   4.345   3.474  12.460 -0.0073 -0.0297 -0.1520
  104MPD2    C3 1587   4.369   3.353  12.388 -0.1251 -0.4062  0.1250
  104MPD2    C4 1588   4.482   3.279  12.412  0.5497 -0.9078 -0.0390
  104MPD2    C5 1589   4.569   3.326  12.503  0.5893  0.2556  0.6340
  104MPD2     H 1590   4.252   3.524  12.436 -1.4713 -2.0452  1.2774
  104MPD2    H1 1591   4.504   3.186  12.360  0.3138 -0.1269 -1.5403
  104MPD2    H2 1592   4.615   3.454  12.661 -0.4166 -0.6176  0.7296
  104MPD2    H3 1593   4.652   3.266  12.540 -0.4067 -2.0257 -0.8081
  104MPD2     N 1594   4.273   3.320  12.291 -0.6168 -0.8290 -0.6640
  104MPD2    H5 1595   4.188   3.376  12.285  0.1572  0.2786 -1.3787
  104MPD2    N1 1596   4.420   3.629  12.638  0.2928  0.3337  0.0914
  104MPD2    H7 1597   4.485   3.638  12.716 -1.1959  4.3889  0.8824
  105MPD2     C 1598   1.391   2.943   0.123 -0.3949  0.3149 -0.9845
  105MPD2    C1 1599   1.254   2.930   0.119 -0.0686  0.3032 -0.7460
  105MPD2    C2 1600   1.184   2.955   0.237 -0.7203  0.5989  0.3106
  105MPD2    C3 1601   1.245   2.999   0.354 -0.4217 -0.0372 -0.0963
  105MPD2    C4 1602   1.381   3.002   0.356  0.4525 -0.1087  0.5912
  105MPD2    C5 1603   1.451   2.991   0.236 -1.1315  0.5322  0.8284
  105MPD2     H 1604   1.078   2.932   0.242 -1.0065  1.6559 -0.8166
  105MPD2    H1 1605   1.438   3.028   0.445  2.0243  1.1608 -0.7896
  105MPD2    H2 1606   1.460   2.909   0.047  0.6331 -1.1541  0.6100
  105MPD2    H3 1607   1.557   2.974   0.247 -1.2237 -0.7128 -0.2059
  105MPD2     N 1608   1.166   2.998   0.476  0.4064 -0.5596 -0.0530
  105MPD2    H5 1609   1.067   2.979   0.472  0.6049 -1.8803  1.3587
  105MPD2    N1 1610   1.179   2.897  17.707 -0.1535  0.0925 -0.3340
  105MPD2    H7 1611   1.080   2.888   0.013 -0.0772 -0.9799 -0.4767
  106TCq2    C1 1612   1.194   3.068   0.588 -0.3015  0.1581 -0.2001
  106TCq2    O2 1613   1.299   3.123   0.617  0.1538  0.0214  0.4056
  106TCq2    C2 1614   1.089   3.060   0.690  0.9335 -0.7495 -0.2076
  106TCq2    C3 1615   1.111   3.129   0.807 -0.6958 -0.3329  0.1847
  106TCq2    C4 1616   1.029   3.104   0.912  0.2063  0.4205  0.0717
  106TCq2    C5 1617   0.922   3.020   0.901  0.2329  0.0696  0.6560
  106TCq2    C6 1618   0.917   2.937   0.795  0.7898  0.2999 -0.3110
  106TCq2    C7 1619   0.993   2.966   0.684  0.5491  0.0781 -0.3609
  106TCq2    C8 1620   0.808   2.844   0.772  0.6849  0.2362 -0.2706
  106TCq2    O4 1621   0.832   2.763   0.683  0.3712 -0.3978 -0.2672
  106TCq2    C9 1622   1.055   3.172   1.039  0.1786  0.0091  0.1991
  106TCq2    O5 1623   0.978   3.147   1.139  0.0690  0.2993  0.4091
  106TCq2    O6 1624   1.166   3.241   1.042  0.3033  0.0923 -0.0069
  106TCq2    H2 1625   1.196   3.198   0.810  1.8777 -3.5069  0.2138
  106TCq2    H3 1626   0.858   3.014   0.989 -1.6018 -0.0061 -0.6902
  106TCq2    H4 1627   0.993   2.901   0.597 -1.1346  0.5512 -0.7156
  107TMC2    C1 1628   2.239   1.619  11.646 -0.1167 -0.6958  0.2740
  107TMC2    C2 1629   2.362   1.671  11.682 -0.2661 -0.6425 -0.1243
  107TMC2    C3 1630   2.450   1.684  11.583 -0.1709  0.0629 -0.1765
  107TMC2    C4 1631   2.198   1.620  11.518  0.6895  0.0299  0.1931
  107TMC2    C5 1632   2.287   1.641  11.420 -0.2311  0.7279  0.1360
  107TMC2    C6 1633   2.419   1.674  11.451 -0.0110 -0.5444 -0.2656
  107TMC2     C 1634   2.151   1.603  11.763  1.3143 -0.1083 -0.1642
  107TMC2     O 1635   2.184   1.666  11.860 -0.2828 -0.8223 -0.2413
  107TMC2     H 1636   2.392   1.649  11.784  4.6353 -2.2034 -1.8825
  107TMC2    H1 1637   2.099   1.584  11.494 -0.8196  3.1411  1.6756
  107TMC2    H2 1638   2.494   1.700  11.377 -0.8113  1.6216 -0.3039
  107TMC2    C7 1639   2.238   1.622  11.280 -0.1881  0.0898 -0.0835
  107TMC2    C8 1640   2.575   1.739  11.622  0.1144 -0.3196 -0.2081
  107TMC2    O1 1641   2.119   1.616  11.266 -0.2212 -0.5339 -0.0498
  107TMC2    O2 1642   2.682   1.692  11.579  0.0439  0.1141 -0.6986
  107TMC2    O5 1643   2.559   1.818  11.731 -0.0292 -0.1905 -0.0298
  107TMC2    H5 1644   2.466   1.831  11.758 -0.2261 -1.9323  0.1218
  108MPD2     C 1645   1.842   1.398  11.772 -0.1477 -0.0120  0.5898
  108MPD2    C1 1646   1.939   1.487  11.824  0.1771  0.4715 -0.0721
  108MPD2    C2 1647   1.936   1.513  11.957 -0.5757 -0.7849  0.5580
  108MPD2    C3 1648   1.834   1.457  12.038 -0.2456 -0.4229  0.6235
  108MPD2    C4 1649   1.740   1.364  11.989  0.0600 -0.0342  0.6497
  108MPD2    C5 1650   1.759   1.330  11.855  0.0319  0.3400 -0.5660
  108MPD2     H 1651   2.004   1.586  12.001 -0.5644 -1.3847  1.5304
  108MPD2    H1 1652   1.660   1.314  12.044  0.5265 -0.0027  1.3535
  108MPD2    H2 1653   1.841   1.362  11.670  1.2056  0.7046  0.3327
  108MPD2    H3 1654   1.685   1.259  11.819  0.5917  0.0288 -1.1024
  108MPD2     N 1655   1.807   1.504  12.172  0.4392 -0.0765  0.1599
  108MPD2    H5 1656   1.720   1.478  12.217  0.1949  0.4230 -0.0299
  108MPD2    N1 1657   2.043   1.533  11.736  0.3292 -0.0078 -0.1948
  108MPD2    H7 1658   2.034   1.494  11.642 -2.3911  0.0058  0.0490
  109MPD2     C 1659   1.161   3.622   1.994 -0.3147 -0.0623 -0.2775
  109MPD2    C1 1660   1.210   3.710   1.906  1.0228 -0.5693 -0.0525
  109MPD2    C2 1661   1.345   3.724   1.887  0.7532  1.2692  0.2956
  109MPD2    C3 1662   1.433   3.650   1.959  0.7378  0.0833  0.1076
  109MPD2    C4 1663   1.384   3.562   2.047 -0.8307 -0.4359 -0.7179
  109MPD2    C5 1664   1.250   3.539   2.055 -0.0787  0.6179 -0.6366
  109MPD2     H 1665   1.386   3.809   1.833  2.6905 -0.9363 -1.6974
  109MPD2    H1 1666   1.447   3.487   2.093  1.8316  1.9189 -0.5915
  109MPD2    H2 1667   1.054   3.609   2.009 -0.0158  1.6558  3.4539
  109MPD2    H3 1668   1.219   3.458   2.119 -2.9250  0.5985 -2.0611
  109MPD2     N 1669   1.570   3.669   1.933 -0.0797  0.2044 -0.0025
  109MPD2    H5 1670   1.588   3.727   1.852 -0.3349 -0.1432 -0.3119
  109MPD2    N1 1671   1.114   3.789   1.837 -0.0798  0.5237 -0.6411
  109MPD2    H7 1672   1.016   3.779   1.861 -0.3683 -0.7915 -2.3431
  110TCq2    C1 1673   1.673   3.624   2.011  0.1232 -0.1371  0.6443
  110TCq2    O2 1674   1.669   3.567   2.117  0.3726  0.0571 -0.0274
  110TCq2    C2 1675   1.805   3.639   1.955 -0.1392  0.0912 -0.1575
  110TCq2    C3 1676   1.914   3.601   2.035 -0.8483  0.0174 -0.4507
  110TCq2    C4 1677   2.038   3.635   1.996  0.3140  0.0859 -0.1876
  110TCq2    C5 1678   2.060   3.705   1.877  0.3802  0.1817  0.0290
  110TCq2    C6 1679   1.949   3.741   1.799  0.3138 -0.0608  0.9201
  110TCq2    C7 1680   1.818   3.701   1.839  1.1312 -0.7924  0.2821
  110TCq2    C8 1681   1.958   3.844   1.704  0.2732 -0.3680 -0.6505
  110TCq2    O4 1682   1.855   3.909   1.696  0.5028 -0.0136 -0.0317
  110TCq2    C9 1683   2.153   3.600   2.070  0.0854 -0.4108  0.1298
  110TCq2    O5 1684   2.131   3.550   2.188  0.1656 -0.2393 -0.6913
  110TCq2    O6 1685   2.255   3.664   2.038  0.2245 -0.1238  0.5043
  110TCq2    H2 1686   1.909   3.544   2.127  2.7206 -0.7113 -0.6823
  110TCq2    H3 1687   2.160   3.735   1.850  0.7142 -2.0065 -1.1567
  110TCq2    H4 1688   1.732   3.713   1.774  0.8437  1.5342  1.1299
  111TMC2    C1 1689   2.094   4.008  11.427 -0.6932  0.1075 -0.0189
  111TMC2    C2 1690   2.145   3.926  11.333 -0.2110 -0.2814 -0.6376
  111TMC2    C3 1691   2.274   3.880  11.362 -0.2810  1.0025  0.8545
  111TMC2    C4 1692   2.153   4.028  11.551  0.3533  0.0627 -0.4896
  111TMC2    C5 1693   2.278   3.977  11.572 -0.0281 -0.7383 -0.3474
  111TMC2    C6 1694   2.344   3.896  11.480 -0.2335 -1.0186  0.0194
  111TMC2     C 1695   1.982   4.083  11.382 -0.4599 -0.2812  0.3335
  111TMC2     O 1696   1.980   4.103  11.261 -0.1475  0.1673  0.6084
  111TMC2     H 1697   2.108   3.899  11.235 -2.3270  0.6105 -0.0852
  111TMC2    H1 1698   2.102   4.080  11.632  0.4857  0.3798 -0.6113
  111TMC2    H2 1699   2.437   3.841  11.490  0.3536 -0.2179 -1.0471
  111TMC2    C7 1700   2.329   3.972  11.710 -0.0943 -0.1378  0.6620
  111TMC2    C8 1701   2.342   3.805  11.257  0.7300  0.5225 -0.2032
  111TMC2    O1 1702   2.253   3.994  11.799  0.7362  0.3173 -0.2734
  111TMC2    O2 1703   2.279   3.790  11.155 -0.2313 -0.4526  0.1884
  111TMC2    O5 1704   2.475   3.808  11.274 -0.7209 -0.1664  0.0928
  111TMC2    H5 1705   2.493   3.848  11.362 -0.7947 -0.6426  0.3218
  112MPD2     C 1706   1.558   4.360  11.427 -0.0822 -0.8688 -0.0564
  112MPD2    C1 1707   1.606   4.289  11.320 -0.1712 -0.4766 -0.2341
  112MPD2    C2 1708   1.722   4.211  11.334  0.2651 -0.6380  0.2385
  112MPD2    C3 1709   1.795   4.214  11.455  0.8091  0.3122 -0.1770
  112MPD2    C4 1710   1.744   4.292  11.560 -0.3181  0.3991  0.2328
  112MPD2    C5 1711   1.630   4.369  11.543  0.4189 -0.2477  0.4889
  112MPD2     H 1712   1.754   4.140  11.259 -0.9178 -0.5856 -0.3133
  112MPD2    H1 1713   1.790   4.277  11.658  1.3740  1.9864 -0.3195
  112MPD2    H2 1714   1.461   4.408  11.429  0.1551 -0.2713 -3.1300
  112MPD2    H3 1715   1.579   4.419  11.624  0.2266 -1.9091  1.3952
  112MPD2     N 1716   1.911   4.143  11.479  0.6547 -0.7704  0.4325
  112MPD2    H5 1717   1.933   4.121  11.576 -1.0507 -0.1235  0.9658
  112MPD2    N1 1718   1.536   4.279  11.197  0.3379  0.0436  0.1368
  112MPD2    H7 1719   1.589   4.221  11.132 -0.4815 -0.9890  0.3770
  113MPD2     C 1720   4.566   1.103   1.565 -0.2525  0.6041  0.4571
  113MPD2    C1 1721   4.537   1.171   1.447  0.4306  0.0408  0.5514
  113MPD2    C2 1722   4.455   1.106   1.353  0.0031 -0.1848  0.5445
  113MPD2    C3 1723   4.400   0.980   1.374 -0.3333  0.2138 -0.6190
  113MPD2    C4 1724   4.424   0.923   1.498  0.4924 -0.7256  1.0517
  113MPD2    C5 1725   4.510   0.981   1.588 -0.5767  0.1680 -0.0222
  113MPD2     H 1726   4.437   1.161   1.261 -0.2044 -1.9713 -0.4862
  113MPD2    H1 1727   4.397   0.818   1.508 -2.5163 -0.0103  0.6134
  113MPD2    H2 1728   4.632   1.144   1.640 -1.8705 -1.1700  2.8707
  113MPD2    H3 1729   4.547   0.922   1.670 -2.9192 -1.1488  0.1004
  113MPD2     N 1730   4.316   0.911   1.285  0.0953 -0.5277  0.6768
  113MPD2    H5 1731   4.254   0.843   1.328 -1.8194  1.5650  1.1887
  113MPD2    N1 1732   4.578   1.305   1.423  0.1753 -0.4791  0.2209
  113MPD2    H7 1733   4.548   1.360   1.343  0.0707 -1.0236 -0.1174
  114TCq2    C1 1734   4.299   0.945   1.152  0.5305  0.2682 -0.2853
  114TCq2    O2 1735   4.343   1.037   1.084 -0.0151  0.0170  0.3714
  114TCq2    C2 1736   4.184   0.870   1.103  1.4187 -0.6065 -0.4356
  114TCq2    C3 1737   4.102   0.940   1.019  0.1521  0.3643 -0.0731
  114TCq2    C4 1738   3.995   0.871   0.963  0.2105  0.2818  0.0136
  114TCq2    C5 1739   3.980   0.734   0.975 -0.0736  0.2556 -0.4341
  114TCq2    C6 1740   4.073   0.670   1.052 -0.4339 -0.3554 -0.0198
  114TCq2    C7 1741   4.172   0.734   1.119  0.3282  0.2521 -0.7262
  114TCq2    C8 1742   4.016   0.552   1.113 -0.4265 -0.1644  0.2209
  114TCq2    O4 1743   3.965   0.469   1.043  0.6364 -0.6160  0.1452
  114TCq2    C9 1744   3.882   0.952   0.915  0.3646 -0.5684 -0.2319
  114TCq2    O5 1745   3.781   0.880   0.905 -0.3829  0.3305 -0.3920
  114TCq2    O6 1746   3.901   1.069   0.872 -0.7922 -0.0100 -0.2589
  114TCq2    H2 1747   4.115   1.048   1.010 -1.2140  0.7916  2.9501
  114TCq2    H3 1748   3.889   0.684   0.944 -1.5746  1.1429  2.5347
  114TCq2    H4 1749   4.242   0.678   1.180  2.0441  1.3815 -1.6406
  115TMC2    C1 1750   0.501   4.605   0.085 -1.2551 -0.2235  0.6373
  115TMC2    C2 1751   0.635   4.567   0.080 -0.1533 -0.4753  0.1541
  115TMC2    C3 1752   0.732   4.659   0.050  0.4385 -0.1569  0.0823
  115TMC2    C4 1753   0.469   0.005   0.029 -0.3355  0.8478  0.0391
  115TMC2    C5 1754   0.570   0.092   0.001 -0.3899  0.4048  0.6004
  115TMC2    C6 1755   0.704   0.062   0.023 -0.2423 -0.2445 -0.3122
  115TMC2     C 1756   0.397   4.501   0.083 -0.1327 -0.6299  0.1354
  115TMC2     O 1757   0.444   4.386   0.073  0.6356  0.0738 -0.4165
  115TMC2     H 1758   0.663   4.473   0.125 -2.3088 -1.6742 -1.0360
  115TMC2    H1 1759   0.368   0.033   0.005 -0.7466  0.3050  1.1366
  115TMC2    H2 1760   0.780   0.139   0.023 -1.0138  0.4953 -2.5687
  115TMC2    C7 1761   0.529   0.229  17.685 -0.0547  0.6467 -0.7266
  115TMC2    C8 1762   0.859   4.642   0.113  0.2888 -0.8918 -0.3293
  115TMC2    O1 1763   0.415   0.259   0.001 -0.6865  0.0309 -0.3596
  115TMC2    O2 1764   0.930   4.544   0.090  0.0396 -0.6316  0.3787
  115TMC2    O5 1765   0.867   4.713   0.234 -0.0067 -0.4786  0.1828
  115TMC2    H5 1766   0.790   0.045   0.245 -0.4839 -1.0818  0.1051
  116MPD2     C 1767   4.647   4.357   0.070 -0.1532 -0.5098 -0.6835
  116MPD2    C1 1768   0.027   4.323  17.700  0.2156  0.3002  0.0107
  116MPD2    C2 1769   0.145   4.391   0.005 -0.2510  0.4328 -0.6095
  116MPD2    C3 1770   0.157   4.485   0.100  0.3948 -0.2814  0.6021
  116MPD2    C4 1771   0.048   4.529   0.174 -0.5025  0.2681 -0.8217
  116MPD2    C5 1772   4.661   4.457   0.163  0.4555  0.4978 -0.5935
  116MPD2     H 1773   0.229   4.374  17.648 -1.0469 -0.4529 -1.3761
  116MPD2    H1 1774   0.045   4.616   0.239 -0.5104 -0.3825  0.0465
  116MPD2    H2 1775   4.558   4.298   0.055 -2.7757  3.3491 -0.2995
  116MPD2    H3 1776   4.580   4.487   0.228 -0.5981 -1.0401 -1.2005
  116MPD2     N 1777   0.276   4.557   0.120  0.0694  0.5144  0.4812
  116MPD2    H5 1778   0.280   4.636   0.183  0.2482  0.6877  0.2490
  116MPD2    N1 1779   4.720   4.228  17.597 -0.6552  0.8008  0.2511
  116MPD2    H7 1780   4.624   4.202  17.577 -1.1931  0.5033  3.2070
  117TMC2    C1 1781   4.135   1.230  13.982  0.9065  0.2630 -0.3237
  117TMC2    C2 1782   4.189   1.113  14.022  0.2363  0.1143  0.0776
  117TMC2    C3 1783   4.261   1.118  14.147  0.2834  0.0720  0.1620
  117TMC2    C4 1784   4.149   1.347  14.048  0.3972 -0.3573  0.3313
  117TMC2    C5 1785   4.215   1.349  14.165  0.3066  0.0060  0.7232
  117TMC2    C6 1786   4.279   1.238  14.213 -0.0016  0.5315 -0.1587
  117TMC2     C 1787   4.046   1.229  13.868 -0.1657 -0.4819 -0.0916
  117TMC2     O 1788   4.073   1.168  13.762 -0.3919 -0.6558  0.6520
  117TMC2     H 1789   4.157   1.021  13.976 -2.2484  0.3575  1.3497
  117TMC2    H1 1790   4.108   1.436  14.001 -0.1846 -0.5479  0.4733
  117TMC2    H2 1791   4.330   1.249  14.308 -2.6814  2.6905  1.0247
  117TMC2    C7 1792   4.204   1.466  14.243 -0.0215  0.9537 -0.2081
  117TMC2    C8 1793   4.257   0.998  14.222  0.8527 -0.1027  0.7327
  117TMC2    O1 1794   4.301   1.536  14.275  0.1763  0.6152  0.8320
  117TMC2    O2 1795   4.173   0.916  14.202 -0.2564  0.0513  0.2483
  117TMC2    O5 1796   4.359   0.995  14.306 -0.2888 -0.6046 -0.2862
  117TMC2    H5 1797   4.419   1.072  14.310 -4.3982  2.4886  2.1707
  118MPD2     C 1798   3.872   1.620  14.283 -0.1966 -0.2900 -0.3270
  118MPD2    C1 1799   4.008   1.624  14.259  0.7272 -0.3501  0.0655
  118MPD2    C2 1800   4.073   1.740  14.226  0.3905  0.2561 -0.0087
  118MPD2    C3 1801   4.003   1.865  14.244  0.3705 -0.9015  0.1564
  118MPD2    C4 1802   3.865   1.859  14.275  0.5746  0.0613  1.0104
  118MPD2    C5 1803   3.802   1.739  14.290  0.5552  0.0688  0.1329
  118MPD2     H 1804   4.170   1.737  14.178 -0.1560  1.4595 -1.1751
  118MPD2    H1 1805   3.802   1.947  14.289  0.3546  0.2092 -0.8755
  118MPD2    H2 1806   3.809   1.533  14.291 -1.0978  0.7964  4.0116
  118MPD2    H3 1807   3.698   1.743  14.320  0.4494 -0.6080 -0.1385
  118MPD2     N 1808   4.061   1.990  14.206  0.2952 -0.3359 -0.2069
  118MPD2    H5 1809   4.000   2.072  14.212 -0.3882 -0.9398  1.2492
  118MPD2    N1 1810   4.067   1.497  14.245 -0.2095  0.0727 -0.0348
  118MPD2    H7 1811   4.004   1.418  14.251  0.4345 -0.5528 -1.6536
  119MPD2     C 1812   2.503   3.073  13.663  0.0823  0.9740 -0.1484
  119MPD2    C1 1813   2.381   3.035  13.622 -0.1700 -0.3303 -0.3685
  119MPD2    C2 1814   2.376   2.937  13.519  0.3372 -0.4068 -0.0005
  119MPD2    C3 1815   2.484   2.858  13.489  0.1803  0.3576  0.0991
  119MPD2    C4 1816   2.604   2.887  13.549 -0.4590 -0.5636  0.3043
  119MPD2    C5 1817   2.615   3.002  13.626 -0.3128 -0.1375  0.2398
  119MPD2     H 1818   2.283   2.923  13.465  0.9413 -0.4641 -1.0280
  119MPD2    H1 1819   2.697   2.836  13.525  0.0147  0.0720  0.7794
  119MPD2    H2 1820   2.524   3.159  13.726  0.0044  1.1170 -0.3198
  119MPD2    H3 1821   2.708   3.036  13.671  1.5804 -2.0080 -2.2795
  119MPD2     N 1822   2.480   2.747  13.403 -0.9067 -0.3174 -0.0697
  119MPD2    H5 1823   2.558   2.682  13.402 -0.6168  0.0268  0.5570
  119MPD2    N1 1824   2.268   3.106  13.672 -0.2738 -0.3052 -0.6206
  119MPD2    H7 1825   2.296   3.187  13.726  0.3551 -1.1528  0.3331
  120TCq2    C1 1826   2.363   2.688  13.357  0.3664  0.1663 -0.3046
  120TCq2    O2 1827   2.249   2.726  13.366 -0.3931  0.5063 -0.3800
  120TCq2    C2 1828   2.390   2.557  13.310  0.3070  0.5067 -0.2416
  120TCq2    C3 1829   2.514   2.527  13.256 -0.0306 -0.4468 -0.2955
  120TCq2    C4 1830   2.552   2.395  13.257 -0.2797  0.3690 -0.1752
  120TCq2    C5 1831   2.472   2.300  13.293  0.4851 -0.5768 -0.4151
  120TCq2    C6 1832   2.338   2.331  13.335 -0.0839 -0.0592  0.4281
  120TCq2    C7 1833   2.301   2.459  13.343  0.1376  0.1960 -0.1689
  120TCq2    C8 1834   2.245   2.225  13.358 -0.3551  0.0179  0.9514
  120TCq2    O4 1835   2.276   2.114  13.313  0.0673 -0.2637 -0.7115
  120TCq2    C9 1836   2.678   2.351  13.206 -0.2589  0.1191  0.0421
  120TCq2    O5 1837   2.706   2.231  13.224 -0.1149  0.1706  0.5214
  120TCq2    O6 1838   2.754   2.431  13.148 -0.2286  0.7493  0.0275
  120TCq2    H2 1839   2.581   2.594  13.206  0.5947  0.6478  2.0047
  120TCq2    H3 1840   2.514   2.200  13.295 -0.6761 -1.1187 -3.3602
  120TCq2    H4 1841   2.209   2.490  13.391  1.9001  3.8769  0.8491
  121TMC2    C1 1842   3.787   4.236  14.430 -0.0229  0.5282 -0.8609
  121TMC2    C2 1843   3.832   4.158  14.526 -0.6358  0.6220 -0.0752
  121TMC2    C3 1844   3.802   4.023  14.528  0.1682 -0.2637  0.1767
  121TMC2    C4 1845   3.686   4.195  14.343  0.0032 -0.0584 -0.1468
  121TMC2    C5 1846   3.660   4.060  14.344 -0.1157 -0.2953 -0.1331
  121TMC2    C6 1847   3.718   3.969  14.431 -0.5583 -0.6935  0.3291
  121TMC2     C 1848   3.829   4.373  14.435 -0.2513 -0.1498 -0.0224
  121TMC2     O 1849   3.861   4.416  14.549  0.5591  0.0372  0.6082
  121TMC2     H 1850   3.908   4.202  14.590  0.5660 -0.3295 -0.8340
  121TMC2    H1 1851   3.624   4.268  14.293 -0.0886 -0.1076 -0.1052
  121TMC2    H2 1852   3.705   3.862  14.422  0.6333 -0.7444 -0.8169
  121TMC2    C7 1853   3.550   4.001  14.264  0.4972 -0.0325 -0.0150
  121TMC2    C8 1854   3.897   3.924  14.574  0.1799  0.1261  0.3054
  121TMC2    O1 1855   3.548   3.880  14.251  0.0728  0.2819  0.0024
  121TMC2    O2 1856   3.864   3.806  14.595 -0.4325  0.4175  0.3204
  121TMC2    O5 1857   4.017   3.980  14.595 -0.5688 -0.5694 -0.0999
  121TMC2    H5 1858   4.034   4.063  14.545  1.6363 -1.0127 -0.0579
  122MPD2     C 1859   3.933   4.651  14.392  0.0557  0.0578  0.0334
  122MPD2    C1 1860   3.864   4.574  14.301  0.2081 -0.6421 -0.1001
  122MPD2    C2 1861   3.851   4.623  14.172 -0.3801 -0.3516  0.4383
  122MPD2    C3 1862   3.896   0.023  14.135 -0.3426  0.2995  0.1189
  122MPD2    C4 1863   3.952   0.103  14.232 -0.2821 -0.0173  0.0190
  122MPD2    C5 1864   3.976   0.049  14.360 -0.1107  0.6871 -0.5021
  122MPD2     H 1865   3.812   4.557  14.096  0.0117 -0.6160  0.4671
  122MPD2    H1 1866   3.999   0.198  14.206  0.9385 -0.7228 -0.3306
  122MPD2    H2 1867   3.945   4.637  14.499  2.4043 -2.9142 -0.5964
  122MPD2    H3 1868   4.030   0.108  14.433 -1.0088 -0.2293  0.9083
  122MPD2     N 1869   3.886   0.077  14.002  0.5047 -0.2956  0.2981
  122MPD2    H5 1870   3.911   0.176  14.001  1.2520 -0.4502  2.1907
  122MPD2    N1 1871   3.826   4.441  14.319  0.4966 -0.3152 -0.0669
  122MPD2    H7 1872   3.787   4.399  14.235  0.0411  1.8118 -0.9106
  123MPD2     C 1873   2.644   2.324  10.506 -0.0863  0.7853  0.1208
  123MPD2    C1 1874   2.608   2.349  10.379 -0.6910  1.1648  0.6075
  123MPD2    C2 1875   2.619   2.478  10.329 -0.1432 -0.0117  0.2603
  123MPD2    C3 1876   2.677   2.581  10.405  0.6335 -0.2949  0.2119
  123MPD2    C4 1877   2.716   2.551  10.534 -0.3273 -0.0379 -0.1452
  123MPD2    C5 1878   2.699   2.424  10.582 -1.0799 -0.4796 -1.0677
  123MPD2     H 1879   2.578   2.506  10.233  2.1801 -1.0596 -1.0535
  123MPD2    H1 1880   2.762   2.625  10.599 -1.4637  1.9547 -1.6006
  123MPD2    H2 1881   2.620   2.237  10.565  0.5980  0.7214  0.3073
  123MPD2    H3 1882   2.717   2.398  10.686  1.3008 -1.1207 -1.6474
  123MPD2     N 1883   2.710   2.707  10.342 -0.0255  0.0067 -0.2550
  123MPD2    H5 1884   2.689   2.709  10.242  0.7469 -0.3589 -0.4217
  123MPD2    N1 1885   2.547   2.237  10.311  0.2908  0.7425 -0.2155
  123MPD2    H7 1886   2.507   2.165  10.369  1.4912 -1.0474 -1.5727
  124TCq2    C1 1887   2.757   2.821  10.405  0.9145 -0.1663 -0.0003
  124TCq2    O2 1888   2.790   2.837  10.522 -0.1391  0.5213  0.3698
  124TCq2    C2 1889   2.754   2.937  10.314  0.1652  0.4251  0.4933
  124TCq2    C3 1890   2.754   3.062  10.379 -0.0875  0.5211  0.0055
  124TCq2    C4 1891   2.746   3.169  10.294 -0.0931 -0.0601  0.2483
  124TCq2    C5 1892   2.755   3.145  10.160 -0.1221 -0.5768 -0.4640
  124TCq2    C6 1893   2.749   3.023  10.106 -0.0087  0.2369  0.2511
  124TCq2    C7 1894   2.761   2.912  10.183  0.3123  0.1284  0.3920
  124TCq2    C8 1895   2.747   3.017   9.959 -0.8567  0.5399 -0.3325
  124TCq2    O4 1896   2.762   3.121   9.897 -0.1536  0.4487  0.1463
  124TCq2    C9 1897   2.728   3.302  10.346 -0.3186  0.1120 -0.0867
  124TCq2    O5 1898   2.763   3.393  10.264  0.1518 -0.2197 -0.2718
  124TCq2    O6 1899   2.626   3.312  10.420  0.3267 -0.6133 -0.1272
  124TCq2    H2 1900   2.741   3.075  10.486  4.0551 -3.5120  0.9705
  124TCq2    H3 1901   2.747   3.236  10.102 -1.6682  0.6649  1.7057
  124TCq2    H4 1902   2.770   2.817  10.131  2.1032  0.2236  0.5413
  125TMC2    C1 1903   3.406   4.109   9.516  0.1271 -0.7532 -0.0388
  125TMC2    C2 1904   3.280   4.143   9.490 -0.0186  0.0704  0.4864
  125TMC2    C3 1905   3.235   4.189   9.366  0.1920  0.3300 -0.0782
  125TMC2    C4 1906   3.491   4.091   9.409 -0.0533 -0.7643 -0.2542
  125TMC2    C5 1907   3.444   4.123   9.285  0.7638  0.0952 -0.2850
  125TMC2    C6 1908   3.316   4.170   9.258 -0.0307  0.2797  0.9210
  125TMC2     C 1909   3.440   4.074   9.657  0.5968  0.0529  0.0448
  125TMC2     O 1910   3.521   3.985   9.671 -0.1740  0.6019  0.2494
  125TMC2     H 1911   3.207   4.139   9.571  0.4747 -0.8489  0.8870
  125TMC2    H1 1912   3.591   4.055   9.433 -0.5469 -2.0264 -0.0654
  125TMC2    H2 1913   3.270   4.176   9.160  0.9432  1.1295  0.5163
  125TMC2    C7 1914   3.529   4.095   9.162 -0.3655 -0.8997  0.1032
  125TMC2    C8 1915   3.091   4.202   9.345 -0.1436 -0.0198  0.0468
  125TMC2    O1 1916   3.482   4.122   9.053 -0.3478  0.0932  0.1182
  125TMC2    O2 1917   3.037   4.160   9.242  0.4205  0.2007  0.2503
  125TMC2    O5 1918   3.023   4.233   9.459 -0.0209  0.1130  0.3329
  125TMC2    H5 1919   3.082   4.276   9.525 -0.2356 -0.6116  1.0019
  126MPD1     C 1920   3.335   4.028  10.172 -0.0378  0.9909  0.3214
  126MPD1    C1 1921   3.259   4.129  10.118  0.9727 -0.0617 -0.2019
  126MPD1    C2 1922   3.284   4.170   9.988 -0.2631 -0.3822 -0.2444
  126MPD1    C3 1923   3.371   4.104   9.898 -0.4855  0.8072 -0.3731
  126MPD1    C4 1924   3.435   3.995   9.954  0.9223 -0.1592 -0.8366
  126MPD1    C5 1925   3.421   3.964  10.087  0.1995  0.6469 -0.2570
  126MPD1     H 1926   3.217   4.252   9.964 -1.5569 -1.0842  0.9905
  126MPD1    H1 1927   3.498   3.933   9.892  0.5500  1.0472 -2.4112
  126MPD1    H2 1928   3.323   3.998  10.275 -0.4652  0.2125  0.0468
  126MPD1    H3 1929   3.479   3.881  10.125  2.6984  2.9853  0.9986
  126MPD1     N 1930   3.372   4.144   9.760 -0.2287  0.6460 -0.3492
  126MPD1    H5 1931   3.314   4.222   9.731 -0.9468  0.2302 -0.0225
  126MPD1    N1 1932   3.149   4.173  10.195 -0.0188  0.3289 -0.3745
  126MPD1    H6 1933   3.120   4.266  10.166 -0.0611  0.1657 -0.8552
  126MPD1    H7 1934   3.155   4.156  10.295 -1.4067  2.6598  0.1160
  127MPD2     C 1935   0.521   3.082   9.667 -0.8987 -0.2664 -0.1846
  127MPD2    C1 1936   0.468   3.058   9.790  0.2625  0.5560  0.0100
  127MPD2    C2 1937   0.419   3.161   9.866  0.0287  0.1414 -0.6223
  127MPD2    C3 1938   0.418   3.293   9.818  0.3760  0.1369 -0.3788
  127MPD2    C4 1939   0.469   3.316   9.686  0.5641  0.3303  0.0110
  127MPD2    C5 1940   0.512   3.211   9.614  0.2923 -0.8740 -0.2721
  127MPD2     H 1941   0.380   3.146   9.966  0.2850 -1.0407 -0.6987
  127MPD2    H1 1942   0.470   3.414   9.641  0.8440  0.1127 -0.4498
  127MPD2    H2 1943   0.569   3.010   9.602 -2.2376 -1.2024 -0.1446
  127MPD2    H3 1944   0.544   3.235   9.513  0.0564 -1.1539 -0.4157
  127MPD2     N 1945   0.393   3.387   9.915  0.5950 -0.1805 -0.3206
  127MPD2    H5 1946   0.379   3.352  10.010  0.5294 -0.1880 -0.3327
  127MPD2    N1 1947   0.469   2.922   9.836  0.5095  0.0959  0.6777
  127MPD2    H7 1948   0.502   2.850   9.773 -1.1763 -0.1348  0.0627
  128TCq2    C1 1949   0.433   2.876   9.963  0.0965  0.2384  0.1199
  128TCq2    O2 1950   0.398   2.939  10.061  0.0433  0.3029 -0.6848
  128TCq2    C2 1951   0.433   2.730   9.969  0.3526 -1.2141  0.3442
  128TCq2    C3 1952   0.427   2.679  10.094  0.3061 -0.4623 -0.0128
  128TCq2    C4 1953   0.363   2.560  10.111  0.1360  0.2634  0.5957
  128TCq2    C5 1954   0.309   2.486  10.009  0.2969  0.4939  0.8168
  128TCq2    C6 1955   0.314   2.538   9.884 -0.2666 -0.1057 -0.1851
  128TCq2    C7 1956   0.377   2.661   9.862  0.4469  0.3618 -0.3244
  128TCq2    C8 1957   0.223   2.497   9.777 -0.2185 -0.2120 -0.2570
  128TCq2    O4 1958   0.239   2.555   9.669  0.3841  0.4720 -0.4251
  128TCq2    C9 1959   0.363   2.503  10.247 -0.8749  0.0363 -0.3645
  128TCq2    O5 1960   0.346   2.380  10.267  0.1664  0.1533 -0.3002
  128TCq2    O6 1961   0.412   2.578  10.335  0.1375  0.1261  0.3454
  128TCq2    H2 1962   0.456   2.724  10.188 -1.6662 -0.6540  0.6923
  128TCq2    H3 1963   0.267   2.389  10.031  0.2299  0.1213 -0.9588
  128TCq2    H4 1964   0.367   2.703   9.763  2.0906 -0.8937 -1.0222
  129MPD2     C 1965   1.862   4.289   0.851  0.6227  0.7799  0.2018
  129MPD2    C1 1966   1.992   4.236   0.857 -0.7069  0.6007 -0.6029
  129MPD2    C2 1967   2.091   4.302   0.788 -0.7109 -0.3297  0.5464
  129MPD2    C3 1968   2.064   4.421   0.715 -0.7228  0.0554  0.3013
  129MPD2    C4 1969   1.934   4.458   0.705  0.5109  0.1102  0.9045
  129MPD2    C5 1970   1.837   4.404   0.782  0.8460 -0.6631 -0.2470
  129MPD2     H 1971   2.189   4.255   0.796 -0.3006  0.3847 -0.2546
  129MPD2    H1 1972   1.917   4.554   0.658  0.0231  0.8614  2.6156
  129MPD2    H2 1973   1.777   4.245   0.900  1.9259 -1.6760  0.2410
  129MPD2    H3 1974   1.738   4.447   0.780  0.4274 -1.6536 -1.6605
  129MPD2     N 1975   2.163   4.484   0.637  0.0500  0.6780 -0.2032
  129MPD2    H5 1976   2.141   4.573   0.594  0.1145 -0.0185 -1.6740
  129MPD2    N1 1977   2.031   4.138   0.953 -0.2781 -0.9773 -0.0101
  129MPD2    H7 1978   2.123   4.096   0.950  1.0563  1.6394  2.7229
  130TCq2    C1 1979   1.951   4.079   1.048  0.2798 -0.1419 -0.3258
  130TCq2    O2 1980   1.833   4.105   1.068 -0.4702  0.5086  0.7037
  130TCq2    C2 1981   2.013   3.963   1.119 -0.1282  0.4854  0.2446
  130TCq2    C3 1982   2.140   3.922   1.089 -0.4248  0.0403 -0.3899
  130TCq2    C4 1983   2.188   3.804   1.146 -1.0162  0.2810  0.2489
  130TCq2    C5 1984   2.111   3.736   1.241  0.0790  0.3740  0.2167
  130TCq2    C6 1985   1.986   3.786   1.272 -0.1202  0.5000  0.2719
  130TCq2    C7 1986   1.935   3.885   1.201 -0.0798 -0.1535  0.2494
  130TCq2    C8 1987   1.909   3.728   1.374 -0.7294 -0.5259  0.1669
  130TCq2    O4 1988   1.790   3.758   1.380 -0.1463  0.3500 -0.2188
  130TCq2    C9 1989   2.322   3.771   1.121  1.3333  0.5398  0.1512
  130TCq2    O5 1990   2.372   3.809   1.014  0.1402 -0.2115 -0.3284
  130TCq2    O6 1991   2.377   3.680   1.190 -0.3093  0.1390 -0.2272
  130TCq2    H2 1992   2.211   3.971   1.023 -0.8632  2.1057  0.6745
  130TCq2    H3 1993   2.150   3.646   1.287 -0.1974  1.9823  3.6072
  130TCq2    H4 1994   1.836   3.921   1.227  0.8476 -0.4381  4.1794
  131MPD2     C 1995   2.151   2.622   9.580  0.5999  0.8208 -0.0209
  131MPD2    C1 1996   2.210   2.646   9.703  0.3679  0.1582  0.0661
  131MPD2    C2 1997   2.246   2.539   9.784 -0.4797 -0.3637 -0.0439
  131MPD2    C3 1998   2.220   2.411   9.741  0.1321  0.7903 -0.4682
  131MPD2    C4 1999   2.162   2.386   9.621 -0.1081  0.9477  0.2563
  131MPD2    C5 2000   2.124   2.491   9.542 -0.2751  0.0549 -0.6922
  131MPD2     H 2001   2.295   2.558   9.880  1.1185 -0.6765 -0.7925
  131MPD2    H1 2002   2.153   2.281   9.595  4.1865  1.0686 -1.8549
  131MPD2    H2 2003   2.122   2.705   9.516  1.5264  1.0927 -0.0962
  131MPD2    H3 2004   2.091   2.475   9.440 -0.6355  0.7778 -0.6849
  131MPD2     N 2005   2.248   2.300   9.830  0.1391 -0.1367 -0.4592
  131MPD2    H5 2006   2.308   2.310   9.912 -0.2215 -0.6220 -0.1390
  131MPD2    N1 2007   2.228   2.775   9.741 -0.5851 -0.1259  0.3393
  131MPD2    H7 2008   2.210   2.842   9.667  2.5476  0.9370  0.5053
  132TCq2    C1 2009   2.475   3.219   9.684  0.4678  0.0154 -0.3416
  132TCq2    O2 2010   2.388   3.251   9.605  0.0428  0.3488 -0.2822
  132TCq2    C2 2011   2.439   3.132   9.793  0.2228 -0.2381 -0.5631
  132TCq2    C3 2012   2.453   3.182   9.924  0.4357  0.1867 -0.0899
  132TCq2    C4 2013   2.387   3.123  10.029 -0.5560  0.7535  0.5193
  132TCq2    C5 2014   2.313   3.010  10.002 -0.1983 -0.5768  0.5470
  132TCq2    C6 2015   2.311   2.953   9.873 -0.8054  0.0803 -0.0221
  132TCq2    C7 2016   2.368   3.016   9.766  0.3230  0.1933 -0.1212
  132TCq2    C8 2017   2.264   2.818   9.866 -0.2741 -0.1260 -0.1738
  132TCq2    O4 2018   2.259   2.756   9.973  0.4529 -0.4583 -0.5674
  132TCq2    C9 2019   2.389   3.174  10.167  0.2392  0.0830 -0.0991
  132TCq2    O5 2020   2.366   3.100  10.263 -0.1655  0.1078 -0.0848
  132TCq2    O6 2021   2.414   3.295  10.173  0.1121  0.4109 -0.0182
  132TCq2    H2 2022   2.494   3.282   9.934 -2.2111  1.3841 -1.0514
  132TCq2    H3 2023   2.260   2.967  10.087 -1.0021 -1.4375 -0.3919
  132TCq2    H4 2024   2.384   2.975   9.667 -0.1840  0.7714 -0.4440
  133MPD2     C 2025   1.792   1.932  10.040  0.0086 -0.0991 -0.4753
  133MPD2    C1 2026   1.716   1.932   9.926  0.2804 -0.2542  0.0669
  133MPD2    C2 2027   1.723   2.042   9.847 -0.3281 -0.9788 -0.4959
  133MPD2    C3 2028   1.800   2.150   9.879  0.3777  0.7298 -0.2950
  133MPD2    C4 2029   1.880   2.145   9.997  0.1366 -0.2002  0.4984
  133MPD2    C5 2030   1.876   2.037  10.077  0.2694 -0.9535  0.0370
  133MPD2     H 2031   1.658   2.052   9.761 -0.5084 -2.1763 -0.5104
  133MPD2    H1 2032   1.960   2.217  10.008 -0.8693  0.9699  0.0249
  133MPD2    H2 2033   1.775   1.849  10.108 -1.6430  0.2983 -0.3926
  133MPD2    H3 2034   1.939   2.040  10.165 -0.1336  1.7433  0.2383
  133MPD2     N 2035   1.811   2.269   9.809 -0.4343  0.2683 -0.6387
  133MPD2    H5 2036   1.863   2.339   9.860 -1.1625  0.2749  0.0974
  133MPD2    N1 2037   1.653   1.810   9.888  0.0654 -0.3986 -0.0815
  133MPD2    H7 2038   1.654   1.737   9.958  1.9437  0.2652  0.6070
  134TCq2    C1 2039   1.595   1.785   9.769  0.1430  0.4499 -0.5086
  134TCq2    O2 2040   1.598   1.854   9.670  0.4329  0.4286  0.2290
  134TCq2    C2 2041   1.535   1.655   9.760  0.4251 -0.2122  0.2819
  134TCq2    C3 2042   1.519   1.608   9.629  0.2712  0.1301 -0.8480
  134TCq2    C4 2043   1.477   1.481   9.612 -0.3249  0.2544  0.6900
  134TCq2    C5 2044   1.434   1.415   9.720  0.1694  0.2985  0.2905
  134TCq2    C6 2045   1.446   1.460   9.849 -0.4662 -0.0098 -0.2322
  134TCq2    C7 2046   1.510   1.577   9.872 -0.0931 -0.2644 -0.6338
  134TCq2    C8 2047   1.403   1.372   9.959 -0.2387  0.1885  0.2426
  134TCq2    O4 2048   1.444   1.405  10.071  0.3666  0.0147  0.2500
  134TCq2    C9 2049   1.466   1.430   9.478  0.7639  0.5739 -0.6177
  134TCq2    O5 2050   1.424   1.315   9.455  0.1811  0.1833 -0.3704
  134TCq2    O6 2051   1.487   1.507   9.379 -0.4795  0.3487  0.2012
  134TCq2    H2 2052   1.535   1.677   9.547 -0.2497  0.0797 -0.9913
  134TCq2    H3 2053   1.393   1.316   9.702  0.2285  0.0003  1.7713
  134TCq2    H4 2054   1.525   1.608   9.975 -0.4095  0.9375 -0.9541
  135MPD2     C 2055   3.386   4.493   9.445 -0.3640 -0.1226  0.2365
  135MPD2    C1 2056   3.503   4.466   9.517 -0.4120 -0.4997 -0.1679
  135MPD2    C2 2057   3.618   4.438   9.448 -0.0458 -0.0533  0.0376
  135MPD2    C3 2058   3.610   4.420   9.316 -0.0837 -0.0235  0.3050
  135MPD2    C4 2059   3.497   4.434   9.240 -0.7319  0.5846  0.5539
  135MPD2    C5 2060   3.390   4.469   9.310  0.1522  0.2949  0.3131
  135MPD2     H 2061   3.710   4.408   9.496  0.0206  1.4821  0.8681
  135MPD2    H1 2062   3.500   4.409   9.134  1.3214 -2.3562  1.2910
  135MPD2    H2 2063   3.293   4.522   9.494 -1.2126  0.6524 -1.8497
  135MPD2    H3 2064   3.298   4.491   9.258 -0.7654 -0.4408  1.6438
  135MPD2     N 2065   3.719   4.391   9.231 -0.0783  0.2651 -0.4381
  135MPD2    H5 2066   3.699   4.374   9.132 -1.3116  3.4157 -0.7394
  135MPD2    N1 2067   3.503   4.468   9.659  0.3879 -0.2043 -0.5650
  135MPD2    H7 2068   3.589   4.440   9.705  0.4978  0.7315 -0.2011
  136TCq2    C1 2069   3.413   4.519   9.748  0.3565 -0.6341  0.1849
  136TCq2    O2 2070   3.314   4.586   9.733  0.0409  0.2374  0.0325
  136TCq2    C2 2071   3.445   4.496   9.886 -0.2197  0.7249 -0.7952
  136TCq2    C3 2072   3.367   4.561   9.982  0.2081  0.5725  0.3150
  136TCq2    C4 2073   3.395   4.560  10.113  0.0031  0.0737 -0.3381
  136TCq2    C5 2074   3.505   4.495  10.142 -0.5992  0.0265  0.6478
  136TCq2    C6 2075   3.578   4.416  10.057 -0.1069  0.0894  0.2963
  136TCq2    C7 2076   3.553   4.417   9.927  0.1984  0.9584  0.1316
  136TCq2    C8 2077   3.684   4.330  10.102 -0.0248  0.0537  1.0292
  136TCq2    O4 2078   3.701   4.217  10.061 -0.0340  0.6655  0.1014
  136TCq2    C9 2079   3.325   4.642  10.209 -0.0023 -0.2910  0.3933
  136TCq2    O5 2080   3.370   4.641  10.325  0.3919  0.3205  0.0017
  136TCq2    O6 2081   3.205   4.666  10.181  0.2197 -0.0286 -0.0132
  136TCq2    H2 2082   3.279   4.615   9.948 -0.2363 -0.4865 -0.2224
  136TCq2    H3 2083   3.540   4.501  10.245 -2.5829 -0.8945  1.3759
  136TCq2    H4 2084   3.614   4.349   9.870  0.1244  0.8781  0.1478
  137MPD2     C 2085   4.304   3.133   9.013 -0.0071  0.1937  0.7633
  137MPD2    C1 2086   4.246   3.236   9.086 -0.5259 -0.3625 -0.2086
  137MPD2    C2 2087   4.288   3.247   9.219 -0.6572  0.2680  0.2383
  137MPD2    C3 2088   4.377   3.160   9.274  0.2720  0.3525 -0.4836
  137MPD2    C4 2089   4.424   3.053   9.202  0.0292  0.1146  0.0574
  137MPD2    C5 2090   4.391   3.039   9.069  0.3101  0.0933  0.0532
  137MPD2     H 2091   4.257   3.332   9.279 -2.2060 -1.9846  2.6561
  137MPD2    H1 2092   4.497   2.981   9.237  1.1558  0.8837 -0.7086
  137MPD2    H2 2093   4.266   3.127   8.911  1.4265  1.4569  0.1372
  137MPD2    H3 2094   4.426   2.961   9.003  0.4495  1.7355 -1.8495
  137MPD2     N 2095   4.428   3.179   9.406 -0.1320  0.1424 -0.2312
  137MPD2    H5 2096   4.387   3.255   9.459  1.4321 -0.0988  1.3067
  137MPD2    N1 2097   4.153   3.323   9.022 -0.2733 -0.2107  0.1878
  137MPD2    H7 2098   4.144   3.324   8.921 -1.2083  0.4456  0.2691
  138TCq2    C1 2099   4.071   3.412   9.085  0.3321 -0.0024 -0.3162
  138TCq2    O2 2100   4.052   3.436   9.203  0.6197 -0.1864  0.5276
  138TCq2    C2 2101   4.005   3.486   8.983 -0.5989 -1.0612  0.1993
  138TCq2    C3 2102   4.052   3.490   8.854  0.1998 -1.0209 -0.4666
  138TCq2    C4 2103   3.963   3.545   8.766  0.0291 -0.1621  0.8661
  138TCq2    C5 2104   3.836   3.581   8.806 -0.3112  0.2108 -0.4102
  138TCq2    C6 2105   3.791   3.565   8.936  0.4211 -0.2981  0.0835
  138TCq2    C7 2106   3.884   3.530   9.022  0.6928  0.6596 -0.3702
  138TCq2    C8 2107   3.655   3.611   8.972 -0.6848  0.0452 -0.7149
  138TCq2    O4 2108   3.568   3.604   8.886 -0.1756  0.2109  0.1920
  138TCq2    C9 2109   3.999   3.569   8.627  0.3055  0.4564  0.0318
  138TCq2    O5 2110   3.904   3.555   8.547 -0.1439  0.2357  1.0092
  138TCq2    O6 2111   4.115   3.532   8.589 -0.1280 -0.6415  0.1892
  138TCq2    H2 2112   4.150   3.461   8.819  0.5942 -0.5987  0.3112
  138TCq2    H3 2113   3.765   3.623   8.736 -0.7488  0.3224  0.1000
  138TCq2    H4 2114   3.849   3.508   9.123  0.3118 -2.8004 -1.2312
  139TMC2    C1 2115   3.897   2.322  13.530 -0.0900 -0.0305 -0.1977
  139TMC2    C2 2116   3.981   2.393  13.440  0.1918  0.1030 -0.6023
  139TMC2    C3 2117   3.964   2.522  13.424 -0.1986  0.1368  0.5203
  139TMC2    C4 2118   3.792   2.379  13.594  0.2949 -0.2655  0.7329
  139TMC2    C5 2119   3.779   2.514  13.571 -0.1774  0.1622  0.4266
  139TMC2    C6 2120   3.859   2.585  13.486  0.5350 -0.2320  0.4959
  139TMC2     C 2121   3.929   2.180  13.546 -0.1041  0.1405  0.1630
  139TMC2     O 2122   4.008   2.128  13.471  0.2122 -0.4049 -0.0735
  139TMC2     H 2123   4.055   2.341  13.381  0.3792  0.5242 -0.7351
  139TMC2    H1 2124   3.708   2.322  13.632  0.3185 -0.8002 -0.0243
  139TMC2    H2 2125   3.844   2.686  13.448 -1.3508 -1.2153 -1.4166
  139TMC2    C7 2126   3.673   2.586  13.639 -0.3836 -0.1543  0.1012
  139TMC2    C8 2127   3.987   2.555  13.280  1.0084  0.5209  0.7237
  139TMC2    O1 2128   3.644   2.690  13.581  0.2559  0.0627  0.5892
  139TMC2    O2 2129   3.935   2.482  13.194 -0.0742  0.1436  0.5407
  139TMC2    O5 2130   4.010   2.691  13.282  0.8763  0.2684  0.0033
  139TMC2    H5 2131   4.072   2.714  13.354 -0.4047  0.5317  1.0097
  140MPD2     C 2132   3.851   1.974  13.835 -0.0887  0.1142 -0.3592
  140MPD2    C1 2133   3.911   2.006  13.713 -0.0014 -0.2410 -0.1443
  140MPD2    C2 2134   3.990   1.910  13.654 -0.0838 -0.1045  0.2919
  140MPD2    C3 2135   4.018   1.794  13.719  0.4297 -0.6586  0.2177
  140MPD2    C4 2136   3.964   1.767  13.843 -0.2217  0.0982  0.1392
  140MPD2    C5 2137   3.880   1.858  13.899  0.3860  0.0659 -0.0850
  140MPD2     H 2138   4.046   1.927  13.563  0.0492 -0.5262  0.2935
  140MPD2    H1 2139   3.983   1.670  13.888  2.4917 -0.0668 -1.3466
  140MPD2    H2 2140   3.788   2.038  13.895  1.4210 -1.2192  2.6840
  140MPD2    H3 2141   3.835   1.837  13.996  1.2489  0.9819  0.5203
  140MPD2     N 2142   4.121   1.712  13.658  0.9095  0.0220  0.4823
  140MPD2    H5 2143   4.153   1.750  13.570  1.6158 -1.2928  0.1630
  140MPD2    N1 2144   3.867   2.131  13.658 -0.3789 -0.1667 -0.2603
  140MPD2    H7 2145   3.825   2.195  13.724 -0.6124 -2.1013  1.4526
  141TCq2    C1 2146   4.107   3.532  14.511 -0.8360 -1.2669  0.2904
  141TCq2    O2 2147   4.168   3.438  14.464 -0.0415 -0.0661  0.2712
  141TCq2    C2 2148   4.099   3.535  14.656 -0.9045  0.3463  0.6515
  141TCq2    C3 2149   4.139   3.422  14.720 -0.0109  0.2134 -0.4557
  141TCq2    C4 2150   4.181   3.430  14.850 -0.6771  0.2773  0.8702
  141TCq2    C5 2151   4.163   3.538  14.922 -0.5825 -0.0453 -1.4959
  141TCq2    C6 2152   4.128   3.651  14.853  0.0563  0.6593  0.1176
  141TCq2    C7 2153   4.104   3.657  14.722  0.0233  0.0391  0.8284
  141TCq2    C8 2154   4.161   3.781  14.914 -0.0075 -0.2677  0.0042
  141TCq2    O4 2155   4.109   3.814  15.018 -0.3096 -0.3210  0.1604
  141TCq2    C9 2156   4.211   3.303  14.916 -0.4297  0.0600 -0.6341
  141TCq2    O5 2157   4.187   3.198  14.848  0.5165  0.3125  0.3509
  141TCq2    O6 2158   4.277   3.308  15.025  0.0388 -0.0797 -0.4481
  141TCq2    H2 2159   4.146   3.326  14.671 -2.4198  0.9193 -2.1668
  141TCq2    H3 2160   4.182   3.539  15.029 -3.5926  1.3542 -0.9717
  141TCq2    H4 2161   4.080   3.749  14.671 -0.5991 -1.5057 -1.7148
  142MPD2     C 2162   2.659   1.811  10.264  0.1106 -0.5516  0.1860
  142MPD2    C1 2163   2.587   1.767  10.160 -0.2255  0.3040  0.0107
  142MPD2    C2 2164   2.606   1.830  10.041  0.3709 -0.4214 -0.4810
  142MPD2    C3 2165   2.696   1.935  10.016 -0.1280  0.9570 -0.1097
  142MPD2    C4 2166   2.769   1.975  10.124 -0.3890 -0.2791  0.1366
  142MPD2    C5 2167   2.747   1.916  10.245 -0.4385  0.8258  0.4394
  142MPD2     H 2168   2.542   1.795   9.961  1.1907 -1.4241 -0.6974
  142MPD2    H1 2169   2.843   2.055  10.121 -2.4302  1.5973 -0.3714
  142MPD2    H2 2170   2.662   1.757  10.358 -1.3565 -1.1423 -0.1140
  142MPD2    H3 2171   2.807   1.961  10.324  1.1513 -0.4905 -0.0284
  142MPD2     N 2172   2.700   2.014   9.898 -0.2242  0.8428  0.3757
  142MPD2    H5 2173   2.739   2.108   9.904  0.6862  0.6300 -2.3796
  142MPD2    N1 2174   2.486   1.669  10.186 -0.5592 -0.0774  0.0099
  142MPD2    H7 2175   2.470   1.648  10.284  0.0384 -0.0304  0.1171
  143TCq2    C1 2176   2.634   1.985   9.781 -0.1828 -0.0101  0.8737
  143TCq2    O2 2177   2.565   1.887   9.759  0.1757 -0.1775  0.2759
  143TCq2    C2 2178   2.622   2.096   9.685 -0.4973 -0.8097 -0.2740
  143TCq2    C3 2179   2.548   2.077   9.563  0.2970 -0.5117  0.7857
  143TCq2    C4 2180   2.495   2.184   9.495  0.5746  0.3039  0.1794
  143TCq2    C5 2181   2.505   2.310   9.536 -0.1236  0.4739  0.2051
  143TCq2    C6 2182   2.558   2.325   9.666 -0.0348 -0.7865  0.1126
  143TCq2    C7 2183   2.617   2.223   9.735  0.5676 -0.2895 -0.1864
  143TCq2    C8 2184   2.568   2.461   9.716 -0.3499 -0.2017 -0.0082
  143TCq2    O4 2185   2.607   2.471   9.834  0.1859  0.4605  0.8643
  143TCq2    C9 2186   2.443   2.157   9.364  0.5391 -0.5832 -0.3133
  143TCq2    O5 2187   2.448   2.037   9.312 -0.1725  0.3281  0.8628
  143TCq2    O6 2188   2.390   2.253   9.312  0.4186  0.3931  0.0142
  143TCq2    H2 2189   2.533   1.973   9.534  0.4575  0.1528 -1.6352
  143TCq2    H3 2190   2.455   2.387   9.478  1.8068  0.7627 -1.0704
  143TCq2    H4 2191   2.647   2.258   9.833  0.7826  0.7628 -0.6282
  144MPD2     C 2192   4.705   1.399   0.948  1.0962 -0.3705  0.2969
  144MPD2    C1 2193   4.645   1.280   0.992 -0.8127 -0.1733  0.0530
  144MPD2    C2 2194   4.711   1.199   1.077 -0.5892 -0.2089 -0.1684
  144MPD2    C3 2195   0.104   1.247   1.134 -0.2677  0.4632 -0.0810
  144MPD2    C4 2196   0.155   1.376   1.103  0.1698  0.4918 -0.5253
  144MPD2    C5 2197   0.086   1.453   1.016  0.2435  0.2351  0.3263
  144MPD2     H 2198   4.673   1.099   1.091  0.4608 -0.4351  1.1765
  144MPD2    H1 2199   0.247   1.415   1.145  1.5109 -2.0097 -1.1740
  144MPD2    H2 2200   4.658   1.460   0.871 -1.2061 -0.4806  1.6015
  144MPD2    H3 2201   0.116   1.556   0.999  2.0616 -0.4683 -0.7586
  144MPD2     N 2202   0.180   1.173   1.223  0.8160 -0.5201 -0.1986
  144MPD2    H5 2203   0.258   1.216   1.272  1.3959 -0.3679 -1.2486
  144MPD2    N1 2204   4.533   1.225   0.922 -0.0327 -0.0546  0.5847
  144MPD2    H7 2205   4.485   1.145   0.961 -0.8291  0.2783  0.2853
  145TCq2    C1 2206   0.160   1.039   1.253 -0.1261 -0.5751 -0.2787
  145TCq2    O2 2207   0.068   0.959   1.230  0.3695 -0.5555 -0.1410
  145TCq2    C2 2208   0.235   1.006   1.374  0.3093  0.3273 -0.1780
  145TCq2    C3 2209   0.349   1.066   1.399  0.6335  0.1952 -0.3310
  145TCq2    C4 2210   0.403   1.043   1.521  0.8384 -0.1251  0.9608
  145TCq2    C5 2211   0.341   0.953   1.611 -0.4207 -0.4236 -0.1131
  145TCq2    C6 2212   0.225   0.881   1.580  0.2314  0.1291 -0.1230
  145TCq2    C7 2213   0.164   0.925   1.467 -0.0672 -0.3397  0.5311
  145TCq2    C8 2214   0.136   0.845   1.691 -0.7503 -0.8396  0.0215
  145TCq2    O4 2215   0.032   0.790   1.669 -0.1358  0.1542 -0.2637
  145TCq2    C9 2216   0.536   1.107   1.548 -0.1877  0.1412  1.1112
  145TCq2    O5 2217   0.601   1.150   1.447 -0.2143 -0.1908 -0.4425
  145TCq2    O6 2218   0.583   1.116   1.666  0.4519  0.0944  0.7662
  145TCq2    H2 2219   0.396   1.137   1.331 -0.5037  0.2193 -1.0976
  145TCq2    H3 2220   0.386   0.929   1.707 -3.3666  0.0466  1.3654
  145TCq2    H4 2221   0.066   0.884   1.443 -1.3790  2.8860  0.4589
  146TMC2    C1 2222   1.303   4.536  12.440 -0.6443 -0.4909 -0.2266
  146TMC2    C2 2223   1.200   4.542  12.348 -0.4088 -0.2661 -0.2227
  146TMC2    C3 2224   1.221   4.476  12.230 -0.0396 -0.1626  0.3889
  146TMC2    C4 2225   1.404   4.443  12.424 -0.1343 -0.6196  0.1682
  146TMC2    C5 2226   1.401   4.356  12.321 -0.3415  0.0668  0.0207
  146TMC2    C6 2227   1.308   4.374  12.221  0.3799 -0.6582 -0.6522
  146TMC2     C 2228   1.297   4.632  12.548  0.1257 -0.2913 -0.5814
  146TMC2     O 2229   1.194   4.701  12.564 -0.3755 -0.4948 -0.9075
  146TMC2     H 2230   1.126   4.621  12.358 -1.1839 -0.9188 -0.7247
  146TMC2    H1 2231   1.484   4.452  12.496 -0.8163 -0.8895  0.9727
  146TMC2    H2 2232   1.295   4.308  12.137 -0.9205 -0.0622 -0.9206
  146TMC2    C7 2233   1.493   4.249  12.309 -0.0835  0.7360 -0.5706
  146TMC2    C8 2234   1.116   4.488  12.132 -0.7620  0.3205  0.2865
  146TMC2    O1 2235   1.498   4.206  12.196 -0.3911  0.8588  0.3043
  146TMC2    O2 2236   1.002   4.524  12.163  0.0397 -0.1886 -0.1193
  146TMC2    O5 2237   1.171   4.493  12.007 -0.3324  0.4596 -0.1306
  146TMC2    H5 2238   1.262   4.528  12.019  0.2615 -0.9309 -0.5199
  147MPD2     C 2239   1.930   4.055  12.470  0.2295 -0.3333  0.2947
  147MPD2    C1 2240   1.857   4.083  12.584 -0.3183  0.5920 -0.4039
  147MPD2    C2 2241   1.729   4.132  12.562 -0.0387  0.4179 -0.2970
  147MPD2    C3 2242   1.678   4.161  12.435 -0.2136  0.0096  0.0708
  147MPD2    C4 2243   1.750   4.135  12.323 -0.3945 -0.4374  1.0231
  147MPD2    C5 2244   1.874   4.087  12.346  0.5540 -0.5890 -0.2098
  147MPD2     H 2245   1.653   4.150  12.637  2.0143  0.6990  1.7361
  147MPD2    H1 2246   1.712   4.162  12.224 -0.3399 -1.2775  0.7763
  147MPD2    H2 2247   2.028   4.009  12.469  0.8004  0.9364 -1.4364
  147MPD2    H3 2248   1.932   4.074  12.256  0.1155  3.2810 -1.0580
  147MPD2     N 2249   1.556   4.228  12.431 -0.5409  0.2120  0.1693
  147MPD2    H5 2250   1.513   4.262  12.517  0.5879  1.6833  0.1666
  147MPD2    N1 2251   1.917   4.060  12.708 -0.0617 -0.2152 -0.1294
  147MPD2    H7 2252   2.009   4.018  12.703 -0.1232  0.1824 -4.6578
  148MPD2     C 2253   2.300   2.916  10.636  0.3429  0.1919  0.3001
  148MPD2    C1 2254   2.302   2.787  10.683 -0.2341 -0.3968 -0.2853
  148MPD2    C2 2255   2.190   2.709  10.666  0.4209 -0.2580 -0.7739
  148MPD2    C3 2256   2.070   2.762  10.615 -0.2402 -0.1509 -0.5423
  148MPD2    C4 2257   2.067   2.892  10.567 -0.1482  0.7381  0.6697
  148MPD2    C5 2258   2.183   2.968  10.574 -0.3393 -0.2961  0.1735
  148MPD2     H 2259   2.199   2.607  10.700 -1.0891 -0.9747 -2.6184
  148MPD2    H1 2260   1.973   2.932  10.534 -0.1643 -0.0801 -0.2772
  148MPD2    H2 2261   2.386   2.981  10.640  0.6188 -0.2800  1.7849
  148MPD2    H3 2262   2.186   3.070  10.537 -2.0902 -0.2512  0.1584
  148MPD2     N 2263   1.951   2.681  10.598 -0.6469  0.6929  0.1446
  148MPD2    H5 2264   1.866   2.722  10.560 -1.8577 -2.9292 -1.0993
  148MPD2    N1 2265   2.418   2.736  10.749 -0.2945 -0.0874 -0.1240
  148MPD2    H7 2266   2.415   2.641  10.784 -0.6899 -0.0781 -0.1279
  149TCq2    C1 2267   2.534   2.810  10.782 -0.5206 -0.4145 -0.4908
  149TCq2    O2 2268   2.561   2.927  10.768 -0.2218  0.0895  0.3432
  149TCq2    C2 2269   2.608   2.740  10.885 -0.1591  0.5337  0.5563
  149TCq2    C3 2270   2.743   2.734  10.863  0.2667  0.8568 -0.0341
  149TCq2    C4 2271   2.812   2.615  10.888  0.2010  0.2232 -0.1286
  149TCq2    C5 2272   2.742   2.502  10.916 -0.0176 -0.4755  0.4556
  149TCq2    C6 2273   2.607   2.507  10.934 -0.0448 -0.3074 -0.0802
  149TCq2    C7 2274   2.544   2.627  10.927 -0.3029  0.1808  0.3285
  149TCq2    C8 2275   2.524   2.397  10.890 -0.6570 -0.1412 -0.1744
  149TCq2    O4 2276   2.405   2.413  10.869  0.0840  0.1418 -0.5430
  149TCq2    C9 2277   2.945   2.594  10.832 -0.0187 -0.4398  0.7601
  149TCq2    O5 2278   3.022   2.689  10.808 -0.1466  0.1742  0.2796
  149TCq2    O6 2279   2.977   2.473  10.828 -0.5635  0.6367 -0.4557
  149TCq2    H2 2280   2.796   2.819  10.820  0.5494  0.9230  0.4531
  149TCq2    H3 2281   2.799   2.410  10.917  0.0287 -0.4237  2.0722
  149TCq2    H4 2282   2.438   2.631  10.948 -0.5701 -3.3851 -0.3725
  150MPD2     C 2283   3.279   2.437  12.324  0.9645  0.5281  0.1868
  150MPD2    C1 2284   3.254   2.571  12.285 -0.1657  0.1800 -0.5109
  150MPD2    C2 2285   3.329   2.666  12.353  0.2604  0.2120  0.0807
  150MPD2    C3 2286   3.426   2.634  12.444 -0.0255 -0.4030  0.2196
  150MPD2    C4 2287   3.445   2.506  12.480 -0.2896 -0.2439 -0.1005
  150MPD2    C5 2288   3.371   2.410  12.422  0.0002 -0.3237  0.1935
  150MPD2     H 2289   3.333   2.770  12.323  0.9157  0.0824 -0.2717
  150MPD2    H1 2290   3.522   2.480  12.552  0.0621 -2.4943 -1.2860
  150MPD2    H2 2291   3.216   2.354  12.293  2.5803  0.1091 -2.0380
  150MPD2    H3 2292   3.391   2.310  12.460 -1.3900 -0.5889  0.1953
  150MPD2     N 2293   3.502   2.736  12.492 -0.1411  0.6586 -0.3176
  150MPD2    H5 2294   3.479   2.829  12.457  1.2066  0.5809 -1.4207
  150MPD2    N1 2295   3.162   2.593  12.187  0.2240 -0.0496 -0.1696
  150MPD2    H7 2296   3.122   2.509  12.145 -0.4850  1.1622 -1.9129
  151TCq2    C1 2297   3.620   2.727  12.570  0.4977 -0.2755  0.1808
  151TCq2    O2 2298   3.691   2.626  12.590 -0.4537  0.7518  0.0361
  151TCq2    C2 2299   3.683   2.854  12.588  0.8085  0.3493  0.1937
  151TCq2    C3 2300   3.604   2.957  12.610 -0.8405  0.3299 -0.2095
  151TCq2    C4 2301   3.665   3.079  12.631 -0.9319  0.1867  0.0084
  151TCq2    C5 2302   3.798   3.087  12.626 -0.0900 -0.9377 -0.0874
  151TCq2    C6 2303   3.877   2.975  12.592 -0.2272  0.2616  0.2537
  151TCq2    C7 2304   3.821   2.854  12.580 -0.1143 -0.1148 -0.8712
  151TCq2    C8 2305   4.022   3.002  12.565 -0.3755  0.2467  0.1567
  151TCq2    O4 2306   4.052   3.119  12.562  0.3469  0.4666 -0.3515
  151TCq2    C9 2307   3.576   3.188  12.675  0.2984 -0.4866 -0.1743
  151TCq2    O5 2308   3.490   3.158  12.766  0.7009  0.2170  0.0100
  151TCq2    O6 2309   3.603   3.307  12.637 -0.2016  0.2427  0.6893
  151TCq2    H2 2310   3.497   2.956  12.628 -0.7004 -0.7107  0.5348
  151TCq2    H3 2311   3.831   3.190  12.638  4.6815 -2.5416  0.3896
  151TCq2    H4 2312   3.878   2.769  12.544  0.7750  0.3742 -0.6287
  152MPD2     C 2313   3.268   1.800  13.153 -0.5028  0.0379 -0.0313
  152MPD2    C1 2314   3.253   1.934  13.121 -0.0628 -1.0692 -0.7044
  152MPD2    C2 2315   3.131   1.977  13.092 -0.6705  0.2073  0.4383
  152MPD2    C3 2316   3.024   1.892  13.107  0.1051 -0.0059  0.0920
  152MPD2    C4 2317   3.038   1.761  13.148 -0.0256  0.6360  0.1570
  152MPD2    C5 2318   3.166   1.719  13.165 -1.1164 -0.1534  0.0358
  152MPD2     H 2319   3.115   2.080  13.061 -0.8486 -0.8021 -2.8002
  152MPD2    H1 2320   2.952   1.695  13.154  0.1611  0.1269 -2.9864
  152MPD2    H2 2321   3.365   1.754  13.168 -0.9282 -0.6986  0.4678
  152MPD2    H3 2322   3.186   1.615  13.188  0.1191  0.2008  0.5603
  152MPD2     N 2323   2.900   1.942  13.061 -0.3892  0.2999 -0.1164
  152MPD2    H5 2324   2.894   2.038  13.031 -0.0260  0.3278 -0.1048
  152MPD2    N1 2325   3.370   2.015  13.124 -0.1215  0.3756  0.3198
  152MPD2    H7 2326   3.457   1.967  13.146  0.8477  1.5419 -0.9054
  153TCq2    C1 2327   3.369   2.148  13.090  0.0747  0.3946 -0.5613
  153TCq2    O2 2328   3.280   2.228  13.064 -0.0815  0.0909  0.3983
  153TCq2    C2 2329   3.499   2.192  13.045 -0.1246  0.6871  0.2444
  153TCq2    C3 2330   3.596   2.102  13.001 -0.6278  1.0046  0.0339
  153TCq2    C4 2331   3.703   2.139  12.926  0.1240 -0.0942 -0.1105
  153TCq2    C5 2332   3.720   2.267  12.886  0.1315  0.6262  0.3092
  153TCq2    C6 2333   3.630   2.358  12.935  0.1511 -0.1388 -0.1470
  153TCq2    C7 2334   3.516   2.327  13.012 -0.4156 -0.3948 -0.4917
  153TCq2    C8 2335   3.652   2.501  12.910 -0.5301 -0.1843  0.0153
  153TCq2    O4 2336   3.550   2.566  12.897 -0.3732  0.1407 -0.1839
  153TCq2    C9 2337   3.793   2.041  12.877  0.5614 -0.0553  0.1452
  153TCq2    O5 2338   3.862   2.068  12.774 -0.0947 -0.3433  0.1722
  153TCq2    O6 2339   3.789   1.926  12.930  0.3214  0.3423 -0.4156
  153TCq2    H2 2340   3.596   1.994  13.016 -0.6484  1.2923  2.0545
  153TCq2    H3 2341   3.805   2.287  12.822 -0.3135  2.9814  0.4609
  153TCq2    H4 2342   3.430   2.391  13.029  0.2896  0.1621  0.9723
  154MPD2     C 2343   0.538   2.039   0.628  0.7549  1.0138 -0.3079
  154MPD2    C1 2344   0.446   1.957   0.694 -0.8715  0.1019 -0.1283
  154MPD2    C2 2345   0.318   2.012   0.725  0.5721 -0.2971  0.3348
  154MPD2    C3 2346   0.281   2.134   0.671 -0.4912  0.2493  0.3221
  154MPD2    C4 2347   0.379   2.209   0.607  0.0542 -0.0833 -0.1417
  154MPD2    C5 2348   0.507   2.164   0.592 -0.4914  0.1650 -0.0581
  154MPD2     H 2349   0.245   1.950   0.775  0.5678 -1.0817 -0.6404
  154MPD2    H1 2350   0.355   2.312   0.584 -0.5506 -0.2363 -0.2040
  154MPD2    H2 2351   0.636   1.997   0.607 -0.4089 -2.1403  0.5756
  154MPD2    H3 2352   0.573   2.226   0.534  2.0839 -2.2565  0.2643
  154MPD2     N 2353   0.155   2.180   0.695  0.6578  0.0661 -0.5722
  154MPD2    H5 2354   0.093   2.128   0.757 -0.0099 -1.8854 -2.8917
  154MPD2    N1 2355   0.498   1.831   0.731  0.6180 -0.3714 -0.1284
  154MPD2    H7 2356   0.592   1.806   0.700  1.4963  1.6582  0.9290
  155TCq2    C1 2357   0.427   1.737   0.811 -0.2294 -0.4568 -0.0099
  155TCq2    O2 2358   0.327   1.766   0.874 -0.1789 -1.2581 -0.2936
  155TCq2    C2 2359   0.492   1.609   0.823 -0.0116 -0.2750 -0.3056
  155TCq2    C3 2360   0.478   1.552   0.947  0.0095  0.2492  0.6983
  155TCq2    C4 2361   0.557   1.442   0.974 -0.0588 -0.4229 -0.3638
  155TCq2    C5 2362   0.658   1.413   0.896 -0.3432 -0.2485  0.2957
  155TCq2    C6 2363   0.681   1.479   0.772  0.2052  0.8570 -0.5936
  155TCq2    C7 2364   0.590   1.572   0.730 -0.1570 -0.8902 -0.0864
  155TCq2    C8 2365   0.788   1.421   0.691  0.4163  0.7178  0.0273
  155TCq2    O4 2366   0.841   1.320   0.738 -0.1066  0.0972  0.0400
  155TCq2    C9 2367   0.550   1.377   1.102  0.4555  0.0673 -0.4362
  155TCq2    O5 2368   0.474   1.419   1.193 -0.2740 -0.5310 -0.1884
  155TCq2    O6 2369   0.646   1.299   1.135 -0.1158 -0.7443  0.1188
  155TCq2    H2 2370   0.397   1.588   1.009 -0.1496  0.6148  0.2890
  155TCq2    H3 2371   0.734   1.342   0.926 -0.3863 -0.5494 -0.3015
  155TCq2    H4 2372   0.586   1.604   0.627 -0.5040  0.5640  0.3826
  156MPD2     C 2373   4.249   0.021  12.075 -0.0770  0.5931 -0.4671
  156MPD2    C1 2374   4.120   4.727  12.025  0.0613  0.0799 -0.0560
  156MPD2    C2 2375   4.015   0.043  12.097 -0.2608 -0.2970 -0.1141
  156MPD2    C3 2376   4.024   0.091  12.228  0.0005  0.5285  0.0314
  156MPD2    C4 2377   4.150   0.095  12.282 -0.5168 -0.1515  0.2951
  156MPD2    C5 2378   4.262   0.053  12.211 -0.9055 -0.3376 -0.6258
  156MPD2     H 2379   3.911   0.044  12.066 -0.4862 -0.4224  0.6225
  156MPD2    H1 2380   4.158   0.135  12.382  0.8452 -2.6040  1.1627
  156MPD2    H2 2381   4.329   4.713  12.012 -0.1748 -0.7146  0.1432
  156MPD2    H3 2382   4.360   0.050  12.256 -0.9298 -1.5085 -0.6556
  156MPD2     N 2383   3.915   0.151  12.299  0.1932 -0.0873 -0.2084
  156MPD2    H5 2384   3.830   0.152  12.244  0.6636 -1.9602 -0.9606
  156MPD2    N1 2385   4.104   4.659  11.903  0.3827  0.4904  0.9214
  156MPD2    H7 2386   4.184   4.642  11.844 -1.3025  2.5010 -1.9918
  157TCq2    C1 2387   3.994   4.590  11.867  0.0218  0.1045  0.5677
  157TCq2    O2 2388   3.906   4.546  11.938  0.0654 -1.0645  1.1036
  157TCq2    C2 2389   3.993   4.553  11.727 -0.0327  0.1235 -0.6118
  157TCq2    C3 2390   3.917   4.441  11.704  0.0447 -0.5481 -0.2714
  157TCq2    C4 2391   3.818   4.449  11.609  0.3267 -0.0332  1.0025
  157TCq2    C5 2392   3.788   4.553  11.537  0.5391  0.5564  0.2220
  157TCq2    C6 2393   3.860   4.666  11.565 -0.3001  0.7375 -0.4004
  157TCq2    C7 2394   3.961   4.668  11.655 -1.0586 -0.5125 -0.2707
  157TCq2    C8 2395   3.794   0.070  11.548  0.5504 -0.2146  0.2980
  157TCq2    O4 2396   3.878   0.165  11.545  0.1314 -0.3803 -0.1113
  157TCq2    C9 2397   3.738   4.336  11.585  0.2470 -0.0465  0.0904
  157TCq2    O5 2398   3.614   4.361  11.572 -0.4543  0.3775  0.0666
  157TCq2    O6 2399   3.786   4.229  11.626 -0.1996 -0.0824 -0.3481
  157TCq2    H2 2400   3.930   4.352  11.765  2.0754 -0.1975 -0.1993
  157TCq2    H3 2401   3.713   4.546  11.460  0.4444  2.0267  0.1917
  157TCq2    H4 2402   4.002   0.036  11.687 -0.9539 -1.0180  1.1190
  158TMC2    C1 2403   3.905   3.550  13.329 -0.1398  0.1953  0.3054
  158TMC2    C2 2404   3.972   3.575  13.213  0.6094  0.3489 -0.1450
  158TMC2    C3 2405   3.917   3.668  13.131  0.1362  0.0618 -0.4477
  158TMC2    C4 2406   3.776   3.596  13.352 -0.2183  0.0023 -0.6747
  158TMC2    C5 2407   3.726   3.685  13.255 -0.0238 -0.1226  0.4415
  158TMC2    C6 2408   3.800   3.725  13.151 -0.6690  0.0221  0.2547
  158TMC2     C 2409   3.994   3.509  13.437 -0.0187  0.3387  0.2919
  158TMC2     O 2410   4.113   3.541  13.435 -0.0385  0.9964  0.4786
  158TMC2     H 2411   4.063   3.523  13.187  0.3685 -0.1192 -0.0414
  158TMC2    H1 2412   3.739   3.594  13.453  0.1625 -0.1235 -0.5393
  158TMC2    H2 2413   3.766   3.806  13.088  2.9408  1.6158  0.3930
  158TMC2    C7 2414   3.584   3.683  13.235 -0.0232 -0.3919 -0.6999
  158TMC2    C8 2415   4.009   3.734  13.041  0.3839 -0.4464 -0.1119
  158TMC2    O1 2416   3.543   3.711  13.121 -0.1064 -1.0196  0.4227
  158TMC2    O2 2417   4.130   3.720  13.062  0.6708 -0.3895  0.5277
  158TMC2    O5 2418   3.947   3.758  12.923 -0.2462 -0.2523  0.3394
  158TMC2    H5 2419   3.852   3.737  12.915 -0.2285  0.8400 -2.5309
  159MPD2     C 2420   4.088   3.339  13.912  0.0747  0.9330 -0.4119
  159MPD2    C1 2421   3.955   3.309  13.877  0.0734  0.0465  0.0260
  159MPD2    C2 2422   3.907   3.331  13.752 -0.1695  0.2581 -0.0554
  159MPD2    C3 2423   3.996   3.399  13.658  0.6133 -0.1000  0.1553
  159MPD2    C4 2424   4.129   3.421  13.689 -0.0011 -0.5834 -0.1203
  159MPD2    C5 2425   4.175   3.382  13.812  0.6653  0.0010  0.1798
  159MPD2     H 2426   3.805   3.307  13.727 -0.1293 -1.7228  1.7071
  159MPD2    H1 2427   4.198   3.468  13.619 -2.1011  0.6607 -1.3620
  159MPD2    H2 2428   4.136   3.325  14.008  1.0759 -0.6316 -1.1421
  159MPD2    H3 2429   4.278   3.394  13.842  0.8297  0.4730 -0.5684
  159MPD2     N 2430   3.928   3.429  13.533  0.6932  0.5517 -0.1186
  159MPD2    H5 2431   3.833   3.399  13.518  1.4859 -1.7251 -0.5598
  159MPD2    N1 2432   3.873   3.264  13.976 -0.3543 -0.4398  0.3614
  159MPD2    H7 2433   3.921   3.252  14.065 -0.8653 -0.1091  0.6826
  160TMC2    C1 2434   2.954   1.688   1.230 -0.4154  0.2930  0.3343
  160TMC2    C2 2435   2.833   1.642   1.270  0.4321  0.2379 -0.7542
  160TMC2    C3 2436   2.829   1.568   1.380  0.1454  0.2853 -0.0411
  160TMC2    C4 2437   3.068   1.642   1.293 -0.4952  0.1285  0.1339
  160TMC2    C5 2438   3.058   1.540   1.386  0.2093 -0.4271  0.0885
  160TMC2    C6 2439   2.936   1.503   1.435  0.4488 -0.4011 -0.9660
  160TMC2     C 2440   2.960   1.799   1.132  0.1156  0.6357 -0.0979
  160TMC2     O 2441   3.058   1.794   1.060 -0.1415 -0.7284  0.0983
  160TMC2     H 2442   2.741   1.666   1.219  1.3233  3.5422 -0.7842
  160TMC2    H1 2443   3.165   1.672   1.256 -1.6165  2.3123 -1.0105
  160TMC2    H2 2444   2.931   1.434   1.518 -0.6836  0.6574 -0.1406
  160TMC2    C7 2445   3.182   1.491   1.455 -0.2294  0.1219  0.5582
  160TMC2    C8 2446   2.691   1.537   1.418  0.9212 -0.4123 -0.1656
  160TMC2    O1 2447   3.170   1.425   1.554  0.0599 -0.1177 -0.2951
  160TMC2    O2 2448   2.603   1.534   1.337 -0.6168  0.5731  0.7836
  160TMC2    O5 2449   2.687   1.483   1.544 -0.6089  0.1212  0.0953
  160TMC2    H5 2450   2.760   1.501   1.607  0.3201 -0.7965 -0.7243
  161MPD2     C 2451   2.910   2.003   0.919 -0.6879  0.0017 -0.5299
  161MPD2    C1 2452   2.835   1.994   1.032  0.5464  0.1131  0.0497
  161MPD2    C2 2453   2.719   2.075   1.048  0.5921 -0.4439  0.6673
  161MPD2    C3 2454   2.694   2.172   0.954 -0.2837  0.0551  0.7683
  161MPD2    C4 2455   2.777   2.190   0.844 -1.0529  0.0430 -0.1442
  161MPD2    C5 2456   2.880   2.098   0.828 -0.8188  0.4001 -0.4772
  161MPD2     H 2457   2.657   2.047   1.132 -2.6309  1.9739 -0.9421
  161MPD2    H1 2458   2.744   2.246   0.758 -4.7224 -1.6621  0.1456
  161MPD2    H2 2459   2.988   1.930   0.896 -0.1227 -0.1292  1.8058
  161MPD2    H3 2460   2.947   2.112   0.744 -0.7228  0.5995 -0.3689
  161MPD2     N 2461   2.575   2.251   0.964 -0.3654 -0.0189 -0.8162
  161MPD2    H5 2462   2.550   2.314   0.888 -1.9255  0.2722 -0.0463
  161MPD2    N1 2463   2.855   1.890   1.132 -0.3622 -0.2230  0.0131
  161MPD2    H7 2464   2.790   1.893   1.210 -0.6707  0.5286 -0.2694
  162TMC2    C1 2465   1.124   4.113   0.843 -0.5845  0.1900  0.1378
  162TMC2    C2 2466   1.062   4.220   0.777  0.5989 -0.1887 -0.2448
  162TMC2    C3 2467   0.937   4.254   0.824  0.0849 -0.5456  0.0283
  162TMC2    C4 2468   1.060   4.039   0.937 -0.0553  0.5160  0.4514
  162TMC2    C5 2469   0.943   4.079   0.981 -0.0810 -0.1773 -0.2036
  162TMC2    C6 2470   0.882   4.191   0.933 -0.4143 -0.4365 -0.0936
  162TMC2     C 2471   1.203   4.032   0.748  0.4235  0.5963 -0.0582
  162TMC2     O 2472   1.206   3.912   0.764  0.0549  0.4532 -0.6752
  162TMC2     H 2473   1.102   4.276   0.693 -0.1253  1.9767  0.8708
  162TMC2    H1 2474   1.102   3.943   0.965  2.0403  0.7333 -1.9372
  162TMC2    H2 2475   0.799   4.226   0.993 -1.1073 -0.7144 -0.8917
  162TMC2    C7 2476   0.872   4.007   1.083 -0.1741  0.3527  0.0686
  162TMC2    C8 2477   0.897   4.389   0.808 -0.3915  0.8757 -0.9202
  162TMC2    O1 2478   0.765   4.057   1.116  0.2487  0.3908 -0.4935
  162TMC2    O2 2479   0.974   4.486   0.802 -0.2043  0.5577  0.6169
  162TMC2    O5 2480   0.761   4.399   0.809 -0.2594  0.2518 -0.6973
  162TMC2    H5 2481   0.718   4.312   0.800 -3.3847  1.7275  0.0016
  163MPD2     C 2482   1.549   3.991   0.356  0.5167 -0.1417 -0.5957
  163MPD2    C1 2483   1.473   3.895   0.428  0.0702 -0.6142  0.5143
  163MPD2    C2 2484   1.387   3.931   0.534  0.5630 -0.5037 -0.0066
  163MPD2    C3 2485   1.367   4.064   0.564 -0.3834 -0.0840 -0.0809
  163MPD2    C4 2486   1.439   4.158   0.494  0.5108 -0.3941  0.8119
  163MPD2    C5 2487   1.527   4.122   0.396  0.3247  0.0288 -0.6218
  163MPD2     H 2488   1.338   3.856   0.596  1.9619 -2.9862 -1.8812
  163MPD2    H1 2489   1.434   4.266   0.507  1.0702 -0.0903 -1.4953
  163MPD2    H2 2490   1.622   3.971   0.279 -2.2353  0.9535 -3.5049
  163MPD2    H3 2491   1.584   4.203   0.354  1.2641  0.1666  0.9396
  163MPD2     N 2492   1.273   4.110   0.662 -0.4911 -0.0481  0.2256
  163MPD2    H5 2493   1.262   4.211   0.672  2.0390  0.1965  0.6002
  163MPD2    N1 2494   1.490   3.767   0.386  0.6176  0.3159 -0.3648
  163MPD2    H7 2495   1.533   3.749   0.296  0.5930  1.0434 -0.5156
  164TCq2    C1 2496   1.933   2.978  10.874  0.2304  0.3138  0.6658
  164TCq2    O2 2497   1.838   2.952  10.805 -0.1374 -0.1513  0.0182
  164TCq2    C2 2498   1.969   3.119  10.880  0.0703  0.1872 -0.0273
  164TCq2    C3 2499   2.104   3.155  10.871 -0.4925  0.6294 -0.2137
  164TCq2    C4 2500   2.132   3.282  10.890 -0.3424 -0.1598 -0.2349
  164TCq2    C5 2501   2.032   3.366  10.911 -0.3755 -0.0065  0.8523
  164TCq2    C6 2502   1.900   3.332  10.902  0.2736 -0.2256  0.2426
  164TCq2    C7 2503   1.866   3.207  10.885 -0.1454  0.2218  0.3128
  164TCq2    C8 2504   1.800   3.430  10.942  0.4228 -0.1149 -0.0487
  164TCq2    O4 2505   1.685   3.400  10.909  0.6493  0.1030  0.1276
  164TCq2    C9 2506   2.262   3.334  10.872  0.2431 -0.3718  0.2277
  164TCq2    O5 2507   2.336   3.263  10.806  1.1366 -0.0050 -0.2176
  164TCq2    O6 2508   2.282   3.453  10.917 -0.3715  0.0484 -0.0612
  164TCq2    H2 2509   2.183   3.083  10.856 -1.0882 -0.0771  0.0412
  164TCq2    H3 2510   2.068   3.468  10.920  0.9951 -0.2972 -1.3533
  164TCq2    H4 2511   1.761   3.178  10.879 -0.1972  0.4713 -0.0027
  165MPD2     C 2512   2.416   1.021   1.305 -0.2144 -0.0320  0.4530
  165MPD2    C1 2513   2.471   0.923   1.383 -0.1719 -0.4525  0.4095
  165MPD2    C2 2514   2.573   0.968   1.471 -0.4362  0.5366  0.2397
  165MPD2    C3 2515   2.601   1.103   1.481 -0.0767 -0.5167 -0.1851
  165MPD2    C4 2516   2.532   1.192   1.411 -0.4428 -1.3711  0.4223
  165MPD2    C5 2517   2.446   1.151   1.314 -0.5962 -0.3028 -0.4906
  165MPD2     H 2518   2.637   0.899   1.526  0.2461  0.5326 -0.5594
  165MPD2    H1 2519   2.551   1.298   1.422  1.0464 -1.4563 -1.2373
  165MPD2    H2 2520   2.342   0.991   1.232 -0.6649 -2.7378  2.0353
  165MPD2    H3 2521   2.386   1.229   1.269 -1.0388  0.3048  1.1804
  165MPD2     N 2522   2.697   1.148   1.577 -0.4930  0.4938 -0.5096
  165MPD2    H5 2523   2.716   1.247   1.564  1.5470  0.3126  1.0808
  165MPD2    N1 2524   2.428   0.794   1.362  0.0119  0.5827 -0.2184
  165MPD2    H7 2525   2.369   0.771   1.282  0.9494  2.1011 -1.3498
  166TCq2    C1 2526   2.754   1.074   1.676  0.5549  0.1297  0.2164
  166TCq2    O2 2527   2.733   0.961   1.720  0.0939 -0.6178 -0.5953
  166TCq2    C2 2528   2.838   1.157   1.763  0.0772  0.2544  0.0424
  166TCq2    C3 2529   2.827   1.290   1.764 -0.4352 -0.3451  0.6769
  166TCq2    C4 2530   2.931   1.360   1.811 -0.4491  0.1472 -0.5850
  166TCq2    C5 2531   3.046   1.307   1.856 -0.5795 -1.0700 -0.1705
  166TCq2    C6 2532   3.057   1.169   1.851 -1.4694 -0.5248 -0.8648
  166TCq2    C7 2533   2.952   1.097   1.812 -0.0690  0.4079  0.3906
  166TCq2    C8 2534   3.170   1.095   1.912  0.4980  0.3574 -0.2245
  166TCq2    O4 2535   3.171   0.974   1.901 -0.0607 -0.2534  0.4842
  166TCq2    C9 2536   2.929   1.506   1.808 -0.0223  0.1945 -0.9399
  166TCq2    O5 2537   3.009   1.562   1.885  0.5356 -0.0153 -0.5448
  166TCq2    O6 2538   2.849   1.570   1.734  0.3164  0.3303 -0.4739
  166TCq2    H2 2539   2.742   1.349   1.730  0.2649 -0.3509 -1.1168
  166TCq2    H3 2540   3.136   1.364   1.876  0.9482 -2.6808 -2.4361
  166TCq2    H4 2541   2.959   0.989   1.804  1.0944  0.4687  0.6100
  167TMC2    C1 2542   1.140   3.649  12.663 -0.0611 -0.9566  0.3424
  167TMC2    C2 2543   1.085   3.731  12.758  0.1712 -0.0055 -0.2237
  167TMC2    C3 2544   1.016   3.670  12.855  0.5239  0.8349  0.0675
  167TMC2    C4 2545   1.139   3.512  12.663 -0.2337  0.2317 -0.1561
  167TMC2    C5 2546   1.068   3.456  12.759  0.2106  0.3877  0.0384
  167TMC2    C6 2547   1.001   3.534  12.849 -0.1933  0.0585  0.0013
  167TMC2     C 2548   1.197   3.710  12.551 -0.4392 -0.0449  0.5544
  167TMC2     O 2549   1.214   3.830  12.556  0.3835 -0.1636  0.5199
  167TMC2     H 2550   1.097   3.839  12.750  0.8960 -0.0327  0.4378
  167TMC2    H1 2551   1.209   3.449  12.609 -1.3933 -1.2850  0.0846
  167TMC2    H2 2552   0.945   3.485  12.929  0.7443 -0.0263  0.6081
  167TMC2    C7 2553   1.047   3.312  12.776  0.0737 -0.2948 -0.0728
  167TMC2    C8 2554   0.927   3.741  12.948 -0.4642 -0.7179 -0.5000
  167TMC2    O1 2555   0.957   3.277  12.851 -0.2425  0.3432 -0.0922
  167TMC2    O2 2556   0.838   3.678  13.001  0.0906 -0.4666 -0.0332
  167TMC2    O5 2557   0.914   3.864  12.887  0.5075 -1.0779  0.2969
  167TMC2    H5 2558   0.993   3.921  12.884 -0.0952 -0.1683  1.4824
  168MPD2     C 2559   1.257   3.813  12.282  0.3332 -0.1817 -0.0184
  168MPD2    C1 2560   1.244   3.677  12.317  0.0684 -0.8151  1.0720
  168MPD2    C2 2561   1.277   3.587  12.219  0.1774 -0.8806  1.2231
  168MPD2    C3 2562   1.335   3.616  12.094  0.2915  0.4201  0.0481
  168MPD2    C4 2563   1.356   3.749  12.065 -0.5913  0.2685  0.6952
  168MPD2    C5 2564   1.302   3.839  12.155  0.8492  0.2748  0.7513
  168MPD2     H 2565   1.289   3.483  12.248  1.2581 -1.5746 -1.7236
  168MPD2    H1 2566   1.396   3.784  11.971  0.1960 -1.5430  0.3526
  168MPD2    H2 2567   1.234   3.904  12.335 -0.2391 -0.3952  0.0960
  168MPD2    H3 2568   1.299   3.942  12.122 -0.6299  0.1642  0.5683
  168MPD2     N 2569   1.352   3.527  11.988  0.1750  0.5052  0.4437
  168MPD2    H5 2570   1.397   3.552  11.900 -0.5683  3.1641  0.8089
  168MPD2    N1 2571   1.201   3.627  12.446 -0.3584  0.1959  0.0420
  168MPD2    H7 2572   1.190   3.527  12.463  0.0838 -0.2533 -2.3621
  169MPD1     C 2573   3.681   2.448  10.291  0.6910 -0.3611 -0.5234
  169MPD1    C1 2574   3.661   2.439  10.157 -0.4861 -0.1330  0.5007
  169MPD1    C2 2575   3.626   2.313  10.104 -0.3439 -0.8287  0.3727
  169MPD1    C3 2576   3.624   2.199  10.187 -0.2811 -0.3366  0.1128
  169MPD1    C4 2577   3.657   2.214  10.322 -0.0878 -0.0062  0.1723
  169MPD1    C5 2578   3.675   2.343  10.380  0.5259  0.9828  0.1819
  169MPD1     H 2579   3.614   2.298   9.997  0.2819  2.5688 -0.1706
  169MPD1    H1 2580   3.660   2.134  10.394 -0.6227 -0.6010 -0.4615
  169MPD1    H2 2581   3.709   2.544  10.333  1.2465 -0.6687 -0.1823
  169MPD1    H3 2582   3.694   2.351  10.486 -0.2674 -0.9130  0.4541
  169MPD1     N 2583   3.591   2.079  10.121 -0.5267 -0.1511 -0.2670
  169MPD1    H5 2584   3.603   2.074  10.021 -2.5559 -1.1501 -0.4525
  169MPD1    N1 2585   3.655   2.550  10.077  0.1366 -0.7261  0.6697
  169MPD1    H6 2586   3.675   2.526   9.980 -0.1687  0.6384  0.2620
  169MPD1    H7 2587   3.724   2.618  10.109  0.7353 -1.3971  0.8076
  170MPD1     C 2588   1.677   0.379  13.802 -0.2514  0.7344 -0.2283
  170MPD1    C1 2589   1.752   0.384  13.922 -0.0409 -0.0343  0.6806
  170MPD1    C2 2590   1.860   0.472  13.935  0.1284 -0.4098 -0.0835
  170MPD1    C3 2591   1.894   0.564  13.839  0.5543 -0.4910 -0.5147
  170MPD1    C4 2592   1.813   0.569  13.729 -0.8384  0.1785 -0.4897
  170MPD1    C5 2593   1.709   0.472  13.704 -0.3485 -0.9755  0.8276
  170MPD1     H 2594   1.921   0.473  14.025 -1.7286  0.9391  1.1973
  170MPD1    H1 2595   1.830   0.645  13.654  0.0299  0.5491  0.0890
  170MPD1    H2 2596   1.599   0.308  13.778 -0.8320  0.5934  2.0702
  170MPD1    H3 2597   1.664   0.460  13.606  2.7093  0.2718 -0.7287
  170MPD1     N 2598   2.004   0.651  13.864  0.2691 -0.0723  0.7404
  170MPD1    H5 2599   2.052   0.636  13.952  4.0694  0.5598 -1.2223
  170MPD1    N1 2600   1.736   0.286  14.020 -0.1111  0.9661  0.1982
  170MPD1    H6 2601   1.642   0.247  14.032  0.7045 -1.0088  0.0321
  170MPD1    H7 2602   1.766   0.313  14.113 -1.3289  2.1088  0.2706
  171MPD1     C 2603   0.556   2.041  16.045  0.5364  0.2112  0.1824
  171MPD1    C1 2604   0.628   1.997  16.151 -0.1767  0.0184 -0.0066
  171MPD1    C2 2605   0.698   1.873  16.149 -0.5966  0.4963 -0.7316
  171MPD1    C3 2606   0.702   1.799  16.037  0.9823  0.7156 -0.1281
  171MPD1    C4 2607   0.641   1.838  15.923 -0.1637  0.3251 -0.0649
  171MPD1    C5 2608   0.573   1.963  15.930 -0.0320  0.1695  0.3834
  171MPD1     H 2609   0.741   1.841  16.243 -2.4220 -0.9950 -0.3993
  171MPD1    H1 2610   0.647   1.786  15.828  0.6197  0.7218 -0.2370
  171MPD1    H2 2611   0.505   2.136  16.045  2.1757  1.0815  0.5362
  171MPD1    H3 2612   0.526   1.998  15.839  1.7590  0.8020 -0.3046
  171MPD1     N 2613   0.784   1.686  16.037 -0.5587 -0.9392  0.5247
  171MPD1    H5 2614   0.830   1.680  16.128 -0.4748  1.5644  0.6440
  171MPD1    N1 2615   0.610   2.073  16.272  0.1217  0.0685  0.2381
  171MPD1    H6 2616   0.652   2.030  16.354  1.3899 -0.3243 -0.6049
  171MPD1    H7 2617   0.514   2.102  16.286 -0.2993 -1.3662  0.2942
  172MPD1     C 2618   4.352   0.420   0.980  0.5298  0.0691  0.1604
  172MPD1    C1 2619   4.374   0.487   0.864  0.4766 -0.9446 -0.3848
  172MPD1    C2 2620   4.472   0.587   0.861 -0.8820 -0.4428 -0.0486
  172MPD1    C3 2621   4.544   0.627   0.971  0.4030  0.0633  0.3817
  172MPD1    C4 2622   4.515   0.566   1.090 -0.4086  0.0751 -0.4298
  172MPD1    C5 2623   4.428   0.456   1.090 -0.2628 -0.0782 -0.2162
  172MPD1     H 2624   4.496   0.632   0.765 -1.3599 -0.0609  0.0122
  172MPD1    H1 2625   4.574   0.571   1.181 -0.5327 -1.3913 -0.2777
  172MPD1    H2 2626   4.300   0.325   0.983 -0.7449  0.7330 -1.1554
  172MPD1    H3 2627   4.419   0.402   1.183 -0.1683 -2.1761 -1.4338
  172MPD1     N 2628   4.655   0.713   0.966 -0.4824 -0.4296  0.0638
  172MPD1    H5 2629   4.717   0.717   1.047 -0.6864  0.9254  0.1566
  172MPD1    N1 2630   4.303   0.450   0.752  0.2187 -0.2419 -0.5991
  172MPD1    H6 2631   4.284   0.531   0.694  1.9984 -1.8265 -3.3508
  172MPD1    H7 2632   4.218   0.404   0.785 -1.8559  2.9727 -1.4717
  173MPD1     C 2633   1.583   1.760  14.322 -0.9559 -0.0384  0.1980
  173MPD1    C1 2634   1.692   1.678  14.329  0.2038  0.4336 -0.2485
  173MPD1    C2 2635   1.678   1.558  14.393 -0.1376  0.5217  0.0713
  173MPD1    C3 2636   1.564   1.514  14.455  0.2801 -0.3846  0.5258
  173MPD1    C4 2637   1.455   1.597  14.443 -0.1734 -0.2360 -0.1394
  173MPD1    C5 2638   1.469   1.716  14.384 -0.2007  0.2462  1.0478
  173MPD1     H 2639   1.765   1.495  14.407  0.0394  0.8030  0.2379
  173MPD1    H1 2640   1.354   1.569  14.471 -0.1492 -0.2260 -0.0435
  173MPD1    H2 2641   1.584   1.852  14.266 -1.3539 -0.2993 -0.2341
  173MPD1    H3 2642   1.378   1.775  14.377 -0.9768 -1.1330 -0.3817
  173MPD1     N 2643   1.548   1.381  14.512  0.0884 -0.1019  0.0372
  173MPD1    H5 2644   1.621   1.318  14.480  1.8099  0.4253  2.9838
  173MPD1    N1 2645   1.808   1.697  14.241  0.1113 -0.0214  0.7425
  173MPD1    H6 2646   1.815   1.798  14.232 -0.2593 -0.2163 -1.9115
  173MPD1    H7 2647   1.898   1.670  14.280  0.9862  1.6478 -0.1212
  174MPD1     C 2648   1.635   0.755  14.029 -0.5854 -0.4722  0.4497
  174MPD1    C1 2649   1.595   0.680  14.137 -0.2361 -0.1583  0.1754
  174MPD1    C2 2650   1.568   0.736  14.256 -0.4459 -0.0675 -0.0326
  174MPD1    C3 2651   1.600   0.868  14.283 -0.3777 -0.9470  0.3435
  174MPD1    C4 2652   1.642   0.943  14.182  0.0426  0.1145 -0.6689
  174MPD1    C5 2653   1.657   0.891  14.049 -0.3707 -0.3760 -0.0851
  174MPD1     H 2654   1.528   0.669  14.332 -0.2108 -1.2209 -0.9231
  174MPD1    H1 2655   1.646   1.050  14.194 -0.7393  0.3574 -2.4995
  174MPD1    H2 2656   1.651   0.718  13.928 -1.2870  0.1918  0.0962
  174MPD1    H3 2657   1.676   0.957  13.965 -0.8328 -1.2527 -0.8766
  174MPD1     N 2658   1.579   0.938  14.406  0.2758 -0.5844  0.2695
  174MPD1    H5 2659   1.585   1.039  14.400 -1.5573 -0.4838  0.2248
  174MPD1    N1 2660   1.542   0.550  14.121  0.2030  0.3821  0.5477
  174MPD1    H6 2661   1.571   0.496  14.202  1.8388 -2.4089 -1.8962
  174MPD1    H7 2662   1.589   0.498  14.047 -1.1951  0.8732 -0.6950
  175MPD1     C 2663   4.064   2.100  16.434 -0.1413  0.0585  0.1011
  175MPD1    C1 2664   4.017   1.991  16.507  0.7263  0.0875  0.9389
  175MPD1    C2 2665   4.100   1.947  16.612 -0.4397 -0.7282 -0.3028
  175MPD1    C3 2666   4.219   2.012  16.643 -0.4269 -0.1660 -1.0120
  175MPD1    C4 2667   4.264   2.117  16.561 -0.3271 -0.2161 -1.1292
  175MPD1    C5 2668   4.189   2.150  16.453 -0.2423 -0.7053 -0.5471
  175MPD1     H 2669   4.062   1.869  16.676 -3.5316 -1.3465 -2.8849
  175MPD1    H1 2670   4.365   2.155  16.575 -2.1102  1.6623  6.1857
  175MPD1    H2 2671   4.003   2.142  16.354  0.5714 -0.9006 -0.9513
  175MPD1    H3 2672   4.239   2.216  16.382 -1.0303  0.5394  0.0464
  175MPD1     N 2673   4.297   1.981  16.753  0.3192 -0.3264  1.3022
  175MPD1    H5 2674   4.369   2.048  16.776  0.8670 -0.2455 -0.6500
  175MPD1    N1 2675   3.896   1.926  16.478  0.1645 -0.2779  0.2988
  175MPD1    H6 2676   3.906   1.835  16.521 -0.1284 -0.1179  0.7046
  175MPD1    H7 2677   3.902   1.899  16.380  0.0859  0.8796 -0.0303
  176MPD1     C 2678   1.237   3.442  16.454 -0.7252 -0.4962  0.3726
  176MPD1    C1 2679   1.146   3.537  16.486  0.0484 -0.0524  0.3548
  176MPD1    C2 2680   1.119   3.557  16.620  0.3268  0.2773 -0.2159
  176MPD1    C3 2681   1.187   3.485  16.722 -0.1380  0.4937  0.0596
  176MPD1    C4 2682   1.280   3.392  16.685 -0.4391  0.1106  0.5125
  176MPD1    C5 2683   1.307   3.383  16.556 -0.3555 -0.2919  0.8141
  176MPD1     H 2684   1.051   3.634  16.655  2.1073  1.0193  1.5926
  176MPD1    H1 2685   1.340   3.333  16.754 -1.3228 -0.1045  1.0972
  176MPD1    H2 2686   1.256   3.414  16.351 -2.9037  1.2742 -0.5042
  176MPD1    H3 2687   1.385   3.314  16.526  0.0321  0.9731 -1.1071
  176MPD1     N 2688   1.171   3.530  16.856 -0.1846  0.2421  0.1402
  176MPD1    H5 2689   1.102   3.604  16.869 -0.1142  0.0170  1.7862
  176MPD1    N1 2690   1.075   3.588  16.380  0.1439 -0.1117  0.7921
  176MPD1    H6 2691   1.028   3.677  16.391 -1.4687 -1.1250  2.1514
  176MPD1    H7 2692   1.131   3.587  16.295 -1.4376  1.9657 -0.2526
  177MPD1     C 2693   0.208   3.422  10.873  0.3958  0.3453 -0.3577
  177MPD1    C1 2694   0.268   3.546  10.861 -0.7400  0.4631 -0.2456
  177MPD1    C2 2695   0.290   3.600  10.732 -0.1240 -0.1390 -0.7738
  177MPD1    C3 2696   0.266   3.531  10.613  0.1144 -0.7951  0.6265
  177MPD1    C4 2697   0.210   3.406  10.633  0.1935 -0.1206 -0.1334
  177MPD1    C5 2698   0.181   3.355  10.759 -0.8274  0.3122  0.0739
  177MPD1     H 2699   0.327   3.701  10.715  0.7694 -0.1087  1.3207
  177MPD1    H1 2700   0.181   3.344  10.549 -2.5871  0.1166  0.6612
  177MPD1    H2 2701   0.185   3.371  10.965  1.7561 -3.3741 -2.0876
  177MPD1    H3 2702   0.134   3.257  10.753  1.7327 -0.8577 -1.1324
  177MPD1     N 2703   0.293   3.588  10.480  0.6509  0.9515  0.1066
  177MPD1    H5 2704   0.317   3.686  10.482  0.9645  0.9078 -1.4286
  177MPD1    N1 2705   0.288   3.620  10.979  0.5361 -0.4607  0.3032
  177MPD1    H6 2706   0.301   3.566  11.064  0.0318 -1.5671 -0.3163
  177MPD1    H7 2707   0.368   3.681  10.966  0.9902 -0.7164  1.9170
  178MPD1     C 2708   2.961   3.447  17.183 -0.0428 -0.5508  0.2460
  178MPD1    C1 2709   2.829   3.450  17.222 -0.3102  0.5048 -0.5631
  178MPD1    C2 2710   2.764   3.574  17.222 -0.3610  0.8316  0.2830
  178MPD1    C3 2711   2.826   3.688  17.182 -0.1508  0.1136 -0.7191
  178MPD1    C4 2712   2.959   3.679  17.136 -0.0894  0.0177  0.3225
  178MPD1    C5 2713   3.023   3.558  17.140  0.5747  0.6519  0.0713
  178MPD1     H 2714   2.665   3.566  17.266 -0.1988 -0.8226  0.3526
  178MPD1    H1 2715   3.022   3.758  17.096  0.4560 -0.7046 -0.2500
  178MPD1    H2 2716   3.012   3.351  17.193 -0.5171 -0.6536  1.7499
  178MPD1    H3 2717   3.130   3.561  17.121  0.5191 -0.3424 -0.3923
  178MPD1     N 2718   2.766   3.819  17.183  0.0184 -0.1890  0.1333
  178MPD1    H5 2719   2.811   3.895  17.133 -2.2766  2.2472  1.7805
  178MPD1    N1 2720   2.761   3.334  17.261 -0.2944 -0.2101 -0.1725
  178MPD1    H6 2721   2.769   3.251  17.203 -1.1446 -0.4598  0.0670
  178MPD1    H7 2722   2.661   3.352  17.276 -0.0856  1.5788 -0.9881
  179MPD1     C 2723   2.033   3.318  15.960  0.0960 -0.0290 -0.1607
  179MPD1    C1 2724   1.907   3.283  16.006  0.3721  0.2038 -0.3917
  179MPD1    C2 2725   1.875   3.149  16.017 -1.2456  0.5062 -0.0817
  179MPD1    C3 2726   1.967   3.054  15.981 -0.0407 -0.1274  0.5107
  179MPD1    C4 2727   2.087   3.093  15.940  0.9630  0.4398  0.0433
  179MPD1    C5 2728   2.116   3.220  15.923 -0.2578  0.7366  0.1181
  179MPD1     H 2729   1.780   3.133  16.066 -1.1452  0.8706  0.2349
  179MPD1    H1 2730   2.165   3.024  15.911  0.0921 -0.7629  0.5520
  179MPD1    H2 2731   2.062   3.422  15.965 -0.9385  0.2498  0.0178
  179MPD1    H3 2732   2.211   3.255  15.885  0.4595 -1.2058  0.1158
  179MPD1     N 2733   1.946   2.916  15.981  0.0737 -0.7413  0.4800
  179MPD1    H5 2734   2.022   2.855  15.954  0.6017  0.0572  0.1824
  179MPD1    N1 2735   1.828   3.385  16.060  0.4776 -0.7305  0.1367
  179MPD1    H6 2736   1.729   3.363  16.061  0.0850  1.0779  0.8570
  179MPD1    H7 2737   1.839   3.467  16.000 -0.7135 -1.2436 -0.7793
  180MPD1     C 2738   2.255   0.118  15.285 -0.0903  0.2445 -0.1220
  180MPD1    C1 2739   2.324   0.097  15.164  0.3179 -0.1431 -0.4016
  180MPD1    C2 2740   2.260   0.035  15.059  0.1161  0.1048 -0.3715
  180MPD1    C3 2741   2.137   4.711  15.070 -0.0218  0.1882  0.0686
  180MPD1    C4 2742   2.070   0.001  15.191 -0.2473  0.6345  0.3734
  180MPD1    C5 2743   2.125   0.069  15.292 -0.5514  0.2771 -0.0419
  180MPD1     H 2744   2.308   0.029  14.963 -0.8308  2.5416 -0.9961
  180MPD1    H1 2745   1.971   4.694  15.219 -0.1092 -0.5618 -0.6222
  180MPD1    H2 2746   2.306   0.160  15.371 -0.4524  2.6904 -1.1092
  180MPD1    H3 2747   2.071   0.071  15.386  0.6094 -2.4165  0.6778
  180MPD1     N 2748   2.082   4.654  14.960 -0.0220 -0.5525  0.1540
  180MPD1    H5 2749   2.144   4.623  14.886 -1.0758  1.1914 -1.4434
  180MPD1    N1 2750   2.436   0.184  15.141 -0.1657 -0.4559 -0.1545
  180MPD1    H6 2751   2.501   0.188  15.219  1.8460  0.7369 -1.8777
  180MPD1    H7 2752   2.483   0.158  15.054 -0.8561 -3.4979  0.4018
  181MPD1     C 2753   2.804   0.439   9.826  0.1978 -0.3148  0.4687
  181MPD1    C1 2754   2.822   0.494   9.946 -0.6941  0.1013 -0.5369
  181MPD1    C2 2755   2.926   0.584   9.960 -1.0736  0.0824  0.3597
  181MPD1    C3 2756   3.006   0.629   9.855 -0.1432  0.3108  0.8529
  181MPD1    C4 2757   2.992   0.568   9.733 -0.3735 -0.5538 -0.5347
  181MPD1    C5 2758   2.887   0.484   9.721 -0.3103 -0.1691 -0.3353
  181MPD1     H 2759   2.940   0.615  10.063  0.7694 -0.6623  0.3278
  181MPD1    H1 2760   3.061   0.588   9.652  0.9468 -0.7123  0.5549
  181MPD1    H2 2761   2.730   0.367   9.793 -1.3002  1.3974  0.1029
  181MPD1    H3 2762   2.866   0.448   9.621 -1.7269 -0.9491  0.2301
  181MPD1     N 2763   3.118   0.712   9.876  0.5455 -0.3753 -0.4970
  181MPD1    H5 2764   3.183   0.726   9.799 -1.1262  1.6860 -1.5169
  181MPD1    N1 2765   2.759   0.438  10.065 -0.0625 -0.4016 -0.2555
  181MPD1    H6 2766   2.681   0.374  10.051 -1.7466  1.0439  2.5659
  181MPD1    H7 2767   2.736   0.515  10.127 -2.5043  0.2766 -2.0287
  182MPD1     C 2768   3.989   4.642   1.220  0.0896  0.1045 -0.2200
  182MPD1    C1 2769   3.857   4.666   1.238  0.3472 -0.3744 -0.3017
  182MPD1    C2 2770   3.800   0.036   1.160 -0.7761  0.1135  0.5302
  182MPD1    C3 2771   3.868   0.109   1.069 -0.2181 -0.6356  0.0045
  182MPD1    C4 2772   4.000   0.071   1.043  0.0730 -0.2816 -0.0615
  182MPD1    C5 2773   4.059   4.707   1.116 -0.0162  0.2181 -0.2201
  182MPD1     H 2774   3.692   0.037   1.170 -0.7691 -1.3134  0.7269
  182MPD1    H1 2775   4.055   0.110   0.959 -3.0709  0.1972 -1.9080
  182MPD1    H2 2776   4.054   4.570   1.268 -2.2032 -0.3455  2.1931
  182MPD1    H3 2777   4.159   4.677   1.086  0.2969 -0.3999  1.4448
  182MPD1     N 2778   3.811   0.209   0.988 -0.2231  0.0735 -0.2695
  182MPD1    H5 2779   3.864   0.255   0.915  0.6537 -1.1248 -0.3797
  182MPD1    N1 2780   3.779   4.584   1.313  0.2406 -0.1959 -0.0166
  182MPD1    H6 2781   3.708   4.640   1.360 -0.3864 -0.4230 -0.6924
  182MPD1    H7 2782   3.826   4.538   1.391  1.4337 -1.3739 -1.4438
  183MPD1     C 2783   4.629   4.462   8.617 -0.6225  0.7921  0.1562
  183MPD1    C1 2784   4.703   4.424   8.734  0.1459 -0.5969  0.0585
  183MPD1    C2 2785   4.675   4.494   8.850  0.4784 -0.5309  0.1128
  183MPD1    C3 2786   4.577   4.589   8.859 -0.5994 -0.4932  0.4039
  183MPD1    C4 2787   4.514   4.632   8.745  0.1754 -0.1632  0.5492
  183MPD1    C5 2788   4.539   4.564   8.625  0.9169  0.2854 -0.1365
  183MPD1     H 2789   4.721   4.464   8.944 -0.4224 -0.6779  0.5034
  183MPD1    H1 2790   4.443   4.714   8.742  1.2046  0.6732 -0.6403
  183MPD1    H2 2791   4.651   4.408   8.526 -2.2682 -1.7661  1.2689
  183MPD1    H3 2792   4.485   4.596   8.537  0.1425 -1.4459 -0.2938
  183MPD1     N 2793   4.558   4.644   8.993 -0.3593  0.1834  0.1814
  183MPD1    H5 2794   4.606   4.604   9.072  0.2391 -0.3119 -0.4304
  183MPD1    N1 2795   0.094   4.355   8.726  0.3152  0.1688  0.3670
  183MPD1    H6 2796   0.090   4.292   8.646 -2.7397 -0.1445  0.7715
  183MPD1    H7 2797   0.096   4.296   8.808  1.3828 -1.9098 -1.1713
  184MPD1     C 2798   0.077   2.549  10.601  0.4910 -0.7589  0.1148
  184MPD1    C1 2799   0.070   2.466  10.491 -0.4547  0.8664 -0.3493
  184MPD1    C2 2800   0.043   2.521  10.372  0.1411  0.5170  0.2520
  184MPD1    C3 2801   0.002   2.654  10.356 -0.2437  0.6764 -0.1392
  184MPD1    C4 2802   4.716   2.730  10.471 -0.2501 -0.3332 -0.2725
  184MPD1    C5 2803   0.034   2.674  10.588  0.2629 -0.7342 -0.3266
  184MPD1     H 2804   0.060   2.458  10.286 -3.8307  1.4945 -1.2717
  184MPD1    H1 2805   4.674   2.830  10.479  1.2188  0.2512  0.1148
  184MPD1    H2 2806   0.134   2.513  10.686  1.6316 -1.3553 -0.8986
  184MPD1    H3 2807   0.036   2.734  10.679  2.2638 -0.9506 -0.2102
  184MPD1     N 2808   4.709   2.714  10.231 -0.0068 -0.2861  0.5250
  184MPD1    H5 2809   4.699   2.815  10.235 -0.2878 -0.2569 -0.9858
  184MPD1    N1 2810   0.134   2.341  10.506  0.0234 -0.2982 -0.3780
  184MPD1    H6 2811   0.135   2.306  10.602  0.3592  0.0828 -0.2456
  184MPD1    H7 2812   0.105   2.267  10.442 -1.1809  1.3199 -1.6890
  185MPD1     C 2813   4.095   2.492   9.470 -0.3245  0.1003  0.5082
  185MPD1    C1 2814   4.219   2.512   9.405 -0.8348 -0.1471 -0.1963
  185MPD1    C2 2815   4.320   2.575   9.476  0.0921 -0.5397  0.0938
  185MPD1    C3 2816   4.309   2.596   9.616 -0.4203 -0.3400 -0.8316
  185MPD1    C4 2817   4.183   2.585   9.677  0.2452 -0.5165 -0.0032
  185MPD1    C5 2818   4.083   2.524   9.603  0.4326 -0.2208 -0.2425
  185MPD1     H 2819   4.417   2.570   9.428  0.4471 -0.4503  0.8020
  185MPD1    H1 2820   4.160   2.606   9.781  0.9347 -0.2058  0.0887
  185MPD1    H2 2821   4.003   2.449   9.430 -0.4253  2.0431 -1.3404
  185MPD1    H3 2822   3.989   2.498   9.652 -0.2805 -0.0086 -1.4801
  185MPD1     N 2823   4.415   2.637   9.698 -0.3505 -0.0768 -0.1619
  185MPD1    H5 2824   4.393   2.652   9.796  2.0686  1.1229  0.2153
  185MPD1    N1 2825   4.223   2.488   9.262 -0.2875  0.3412 -0.2430
  185MPD1    H6 2826   4.174   2.407   9.223 -1.2986  1.4594 -1.3131
  185MPD1    H7 2827   4.317   2.482   9.225  0.0979 -0.3914  0.8500
  186MPD1     C 2828   2.472   2.628  16.038  0.3682  0.6662  0.3570
  186MPD1    C1 2829   2.364   2.609  16.128  0.0516  0.6532 -0.7097
  186MPD1    C2 2830   2.303   2.724  16.178 -0.0065 -0.2340 -0.0510
  186MPD1    C3 2831   2.333   2.850  16.120 -0.1007  0.8021  0.5955
  186MPD1    C4 2832   2.433   2.855  16.026  0.1279 -0.5316  0.3860
  186MPD1    C5 2833   2.505   2.748  15.984  0.2697 -0.2150 -0.5853
  186MPD1     H 2834   2.233   2.717  16.260 -1.5694  0.6584 -1.3260
  186MPD1    H1 2835   2.479   2.946  15.990 -0.2100  0.1067  1.5567
  186MPD1    H2 2836   2.535   2.544  16.013 -0.8153 -0.5305  1.4027
  186MPD1    H3 2837   2.589   2.750  15.916  2.3318  2.0865  2.0453
  186MPD1     N 2838   2.289   2.976  16.164  0.2321  0.7634  0.3430
  186MPD1    H5 2839   2.316   3.059  16.112 -1.1204  1.8924  1.4396
  186MPD1    N1 2840   2.348   2.489  16.185 -0.3405 -0.0868  0.0677
  186MPD1    H6 2841   2.257   2.476  16.229  0.9145 -0.5979  2.5434
  186MPD1    H7 2842   2.366   2.415  16.118  2.3450  1.4518 -0.8926
  187MPD1     C 2843   2.000   4.529  17.611  0.3461  0.3218 -0.2101
  187MPD1    C1 2844   1.943   4.479  17.493  1.0634 -0.5058  0.8111
  187MPD1    C2 2845   1.858   4.556  17.418  0.4034  0.1220 -0.1256
  187MPD1    C3 2846   1.835   4.689  17.452  0.4135 -0.4771 -0.9447
  187MPD1    C4 2847   1.900   0.015  17.565  0.2854  0.2133  0.2113
  187MPD1    C5 2848   1.984   4.661  17.643 -0.2051  1.1130 -0.0665
  187MPD1     H 2849   1.796   4.501  17.348  2.0208 -0.8987 -0.7651
  187MPD1    H1 2850   1.897   0.118  17.598  0.8221  0.1094  0.5682
  187MPD1    H2 2851   2.058   4.459  17.671  0.1884  0.4610  0.1051
  187MPD1    H3 2852   2.036   4.704   0.017  2.0449 -2.0268  0.1596
  187MPD1     N 2853   1.747   0.047  17.385 -0.2192 -0.1737  0.4204
  187MPD1    H5 2854   1.739   0.136  17.434 -0.1313  0.0608  0.0075
  187MPD1    N1 2855   1.954   4.335  17.469 -0.2226  1.1617 -0.4959
  187MPD1    H6 2856   2.046   4.295  17.486 -0.6984  0.0919 -0.4358
  187MPD1    H7 2857   1.933   4.307  17.374 -1.1848  0.3567 -0.0479
  188MPD1     C 2858   2.488   4.529  10.424  0.3547 -0.1286 -0.2153
  188MPD1    C1 2859   2.493   4.493  10.288  0.1944 -0.1374 -0.8461
  188MPD1    C2 2860   2.421   4.381  10.251  0.3578 -0.2297  0.7865
  188MPD1    C3 2861   2.331   4.317  10.341 -0.2513 -0.0739  0.1825
  188MPD1    C4 2862   2.330   4.353  10.469  0.4985 -0.3870  0.0094
  188MPD1    C5 2863   2.411   4.457  10.512 -0.1531  0.1904  0.6412
  188MPD1     H 2864   2.431   4.325  10.158  0.6494  2.1852 -0.6549
  188MPD1    H1 2865   2.280   4.295  10.545  3.0041 -2.6385 -0.0436
  188MPD1    H2 2866   2.564   4.592  10.470  1.4730 -1.6011 -0.0191
  188MPD1    H3 2867   2.423   4.468  10.619 -0.8677  0.4434  0.6915
  188MPD1     N 2868   2.238   4.216  10.302 -0.9901 -0.3865 -0.0863
  188MPD1    H5 2869   2.180   4.171  10.372 -2.0939  1.1438 -0.0161
  188MPD1    N1 2870   2.586   4.558  10.202 -0.1265 -0.2337  0.1088
  188MPD1    H6 2871   2.559   4.548  10.104 -1.8939  0.4089  0.5362
  188MPD1    H7 2872   2.608   4.653  10.231  0.6126  0.5674 -2.9877
  189MPD1     C 2873   3.004   0.281   0.466  0.1487  0.1213  0.1950
  189MPD1    C1 2874   2.868   0.275   0.461  0.0553 -1.1766  0.5832
  189MPD1    C2 2875   2.806   0.398   0.429  0.6326 -0.8161 -0.0337
  189MPD1    C3 2876   2.879   0.516   0.412 -0.6338 -0.3915  0.3302
  189MPD1    C4 2877   3.013   0.521   0.431  0.1002  0.5600  0.3187
  189MPD1    C5 2878   3.073   0.398   0.445 -0.0503 -0.3528  0.5689
  189MPD1     H 2879   2.699   0.405   0.409  1.0187  0.3330 -1.6653
  189MPD1    H1 2880   3.081   0.606   0.432  1.4069 -0.4768 -1.1266
  189MPD1    H2 2881   3.072   0.196   0.470  1.1351  0.8683 -0.4123
  189MPD1    H3 2882   3.181   0.402   0.455 -0.0641 -3.3161  1.7297
  189MPD1     N 2883   2.800   0.625   0.384  0.8493  0.3479 -0.1820
  189MPD1    H5 2884   2.704   0.596   0.368  0.8241  0.1339  0.3437
  189MPD1    N1 2885   2.793   0.161   0.437 -0.0886 -0.2030 -0.6431
  189MPD1    H6 2886   2.829   0.082   0.490 -0.2091  0.0120 -0.2401
  189MPD1    H7 2887   2.693   0.167   0.454 -0.1221 -0.3559 -0.7885
  190MPD1     C 2888   1.555   3.735  15.949  0.1928  0.1503  0.2230
  190MPD1    C1 2889   1.575   3.859  16.005  0.8364 -0.0588  0.1688
  190MPD1    C2 2890   1.670   3.934  15.943 -0.7626 -0.0800  0.2691
  190MPD1    C3 2891   1.755   3.893  15.844  0.5890  0.8854  0.2142
  190MPD1    C4 2892   1.721   3.771  15.792 -0.2499  0.8059  0.3797
  190MPD1    C5 2893   1.634   3.684  15.846 -0.6406  0.4830  0.0122
  190MPD1     H 2894   1.682   4.033  15.987  3.0765  0.2359 -1.4749
  190MPD1    H1 2895   1.773   3.747  15.700 -2.5957 -0.5470 -0.5941
  190MPD1    H2 2896   1.481   3.667  15.989  0.0528  1.2460  1.8645
  190MPD1    H3 2897   1.614   3.586  15.806 -1.6068  0.6019  0.1984
  190MPD1     N 2898   1.847   3.977  15.788  0.3825 -0.1960 -0.4151
  190MPD1    H5 2899   1.842   4.078  15.800  0.8963 -0.2886  0.6563
  190MPD1    N1 2900   1.493   3.900  16.119  0.6799 -0.0219  0.3415
  190MPD1    H6 2901   1.536   3.971  16.178 -0.9152  1.8699 -0.7232
  190MPD1    H7 2902   1.443   3.826  16.168  0.4634 -1.5261 -2.1747
  191MPD1     C 2903   1.600   0.731  13.280 -0.2759  0.4334  0.2251
  191MPD1    C1 2904   1.469   0.760  13.248  0.1580  0.1668  0.1770
  191MPD1    C2 2905   1.444   0.809  13.120 -0.1109  0.3374  0.8546
  191MPD1    C3 2906   1.534   0.833  13.026  1.0463  0.0257 -0.2750
  191MPD1    C4 2907   1.667   0.799  13.056  0.0247  0.6070 -0.3754
  191MPD1    C5 2908   1.698   0.757  13.181 -0.1496  0.5779 -0.5428
  191MPD1     H 2909   1.350   0.860  13.101 -1.0307 -0.8916  2.2034
  191MPD1    H1 2910   1.750   0.815  12.989  0.9727 -1.9073  0.1954
  191MPD1    H2 2911   1.631   0.696  13.378 -0.2058 -0.5983 -0.1667
  191MPD1    H3 2912   1.804   0.745  13.200 -0.2588 -1.0170 -1.0006
  191MPD1     N 2913   1.489   0.885  12.900 -0.3233 -0.5617  0.3172
  191MPD1    H5 2914   1.388   0.893  12.897 -0.5430 -2.6020  1.4679
  191MPD1    N1 2915   1.371   0.769  13.346 -0.0523 -0.1333 -0.3215
  191MPD1    H6 2916   1.270   0.774  13.329  0.3649 -0.3277 -2.7765
  191MPD1    H7 2917   1.381   0.708  13.427  0.3481 -1.6687 -1.5470
  192MPD1     C 2918   1.072   1.760  12.687  0.6549 -0.4102 -0.0753
  192MPD1    C1 2919   1.035   1.654  12.766  0.3618  1.1555  0.5441
  192MPD1    C2 2920   1.101   1.530  12.750 -0.3789  0.3297  0.0435
  192MPD1    C3 2921   1.200   1.519  12.653 -0.0347 -0.0429  0.4946
  192MPD1    C4 2922   1.218   1.621  12.562  0.2719  0.4376  0.4219
  192MPD1    C5 2923   1.165   1.747  12.591  0.1684 -0.1397 -0.2060
  192MPD1     H 2924   1.072   1.451  12.818  0.0899 -0.3050 -0.4992
  192MPD1    H1 2925   1.294   1.609  12.486 -0.3359  0.8916 -0.2525
  192MPD1    H2 2926   1.028   1.858  12.694 -3.3902 -2.2050 -0.4098
  192MPD1    H3 2927   1.187   1.833  12.529 -0.3503  0.2428  0.1340
  192MPD1     N 2928   1.289   1.411  12.634 -0.3787  0.0548 -0.7399
  192MPD1    H5 2929   1.364   1.416  12.565 -0.0099  2.1549 -0.1647
  192MPD1    N1 2930   0.934   1.662  12.866 -0.5725  0.0707 -0.4288
  192MPD1    H6 2931   0.893   1.570  12.882  1.5967 -0.5367  1.4935
  192MPD1    H7 2932   0.866   1.735  12.846  1.2189  1.6628 -0.7041
  193MPD1     C 2933   0.858   1.246  16.285 -0.7212 -0.5313  0.2673
  193MPD1    C1 2934   0.810   1.372  16.324 -0.6877 -0.3327  0.1581
  193MPD1    C2 2935   0.895   1.445  16.401 -0.4625  0.6600 -0.0307
  193MPD1    C3 2936   1.003   1.387  16.467  0.4508  0.2654  0.0971
  193MPD1    C4 2937   1.035   1.259  16.444  0.3608  0.0233  0.2558
  193MPD1    C5 2938   0.968   1.190  16.348  0.2596  0.3190  0.1933
  193MPD1     H 2939   0.859   1.545  16.424  0.0861  0.5788  1.1635
  193MPD1    H1 2940   1.116   1.209  16.495  1.3385 -0.2372 -1.5389
  193MPD1    H2 2941   0.813   1.188  16.206 -0.1229 -0.8067  0.1366
  193MPD1    H3 2942   1.004   1.092  16.320 -1.4005 -0.1473 -0.2927
  193MPD1     N 2943   1.069   1.450  16.568  0.2865  0.7713 -0.1106
  193MPD1    H5 2944   1.130   1.388  16.619  0.1599  0.3702 -0.4465
  193MPD1    N1 2945   0.695   1.431  16.264 -0.1870 -0.1551 -0.5705
  193MPD1    H6 2946   0.638   1.488  16.327 -0.0029 -0.8234  0.2013
  193MPD1    H7 2947   0.633   1.357  16.234 -1.1495  0.7302 -0.7644
  194MPD1     C 2948   4.266   4.317   0.249  1.0986  0.5736  0.3995
  194MPD1    C1 2949   4.262   4.262   0.376 -0.1890  0.1506 -0.0324
  194MPD1    C2 2950   4.193   4.140   0.383 -0.3909  0.4040 -0.5582
  194MPD1    C3 2951   4.143   4.069   0.271  0.5655 -0.4642 -0.0703
  194MPD1    C4 2952   4.167   4.116   0.143  0.0014 -0.0065 -0.0425
  194MPD1    C5 2953   4.223   4.241   0.140  0.2947 -0.3962 -0.0726
  194MPD1     H 2954   4.178   4.099   0.482  1.8294  2.4685  0.6333
  194MPD1    H1 2955   4.116   4.071   0.059 -1.9633  1.6357  0.2503
  194MPD1    H2 2956   4.302   4.418   0.235 -0.4162  1.2869  1.7254
  194MPD1    H3 2957   4.230   4.288   0.043  0.6179 -1.1924 -0.4349
  194MPD1     N 2958   4.070   3.947   0.280  0.1316 -0.0742 -0.2379
  194MPD1    H5 2959   4.059   3.892   0.196  2.5832 -1.0696  0.0981
  194MPD1    N1 2960   4.270   4.340   0.492 -0.0750  0.3800 -0.1187
  194MPD1    H6 2961   4.344   4.409   0.476 -0.3171  1.4442  3.3810
  194MPD1    H7 2962   4.301   4.281   0.569  2.2213 -1.0342 -2.1195
  195MPD1     C 2963   1.638   4.471  17.695  0.8458 -0.6965  0.0379
  195MPD1    C1 2964   1.536   4.545   0.037  0.8711  0.7752  0.1291
  195MPD1    C2 2965   1.428   4.477   0.094  0.1003 -0.2243 -0.0460
  195MPD1    C3 2966   1.423   4.338   0.108 -0.1894  0.9779 -0.0957
  195MPD1    C4 2967   1.529   4.266   0.052  0.4413  0.4606 -0.1522
  195MPD1    C5 2968   1.629   4.335  17.705  0.0009  0.6118 -0.7507
  195MPD1     H 2969   1.341   4.531   0.129 -0.6728 -0.9914 -0.7634
  195MPD1    H1 2970   1.535   4.158   0.059 -0.5400  0.3687 -0.7896
  195MPD1    H2 2971   1.724   4.511  17.641  0.8518  1.1696  1.4407
  195MPD1    H3 2972   1.704   4.268  17.664  0.4321  0.8115 -0.2819
  195MPD1     N 2973   1.326   4.258   0.173  0.1641  0.4438  0.0010
  195MPD1    H5 2974   1.334   4.158   0.156 -0.0781  0.5788 -0.9369
  195MPD1    N1 2975   1.517   4.678  17.709  0.1697  0.5907  0.3516
  195MPD1    H6 2976   1.466   0.013   0.060 -0.3931  0.5962 -0.1237
  195MPD1    H7 2977   1.606   4.727  17.702  0.3767  0.1734  0.0385
  196MPD1     C 2978   0.014   3.697   0.641  0.0120  0.2192  0.3116
  196MPD1    C1 2979   0.062   3.819   0.598  0.2344  0.1136 -0.4231
  196MPD1    C2 2980   0.028   3.935   0.660  1.3839 -0.2253 -0.0412
  196MPD1    C3 2981   4.687   3.926   0.781 -0.3204 -0.1561  0.3311
  196MPD1    C4 2982   4.632   3.809   0.825  0.2924  0.0782 -0.3064
  196MPD1    C5 2983   4.661   3.697   0.748 -0.2992 -0.4462  0.2749
  196MPD1     H 2984   0.076   4.030   0.637 -0.1397  0.6709  0.4242
  196MPD1    H1 2985   4.561   3.803   0.907 -1.1637 -0.6593 -1.6156
  196MPD1    H2 2986   0.040   3.600   0.599  1.3377  1.8393 -2.6209
  196MPD1    H3 2987   4.619   3.606   0.790 -2.4274  1.0264  1.3482
  196MPD1     N 2988   4.661   4.036   0.860 -0.2118 -1.0065  0.4005
  196MPD1    H5 2989   4.591   4.031   0.933  0.0232  3.2075  0.9218
  196MPD1    N1 2990   0.109   3.824   0.464  0.1943  0.3875  0.2273
  196MPD1    H6 2991   0.177   3.899   0.453 -1.9446  1.8093 -3.1407
  196MPD1    H7 2992   0.153   3.736   0.435  0.8767  1.4587 -1.9928
  197MPD1     C 2993   0.203   2.227  17.595 -0.2686  0.0243  0.1240
  197MPD1    C1 2994   0.187   2.365  17.595 -0.1654  0.1790  0.1576
  197MPD1    C2 2995   0.082   2.418  17.517 -0.5527 -0.3336 -0.2763
  197MPD1    C3 2996   4.709   2.336  17.460  0.1927 -0.4172  0.4258
  197MPD1    C4 2997   4.721   2.199  17.463  0.2979  0.3791 -0.3127
  197MPD1    C5 2998   0.101   2.145  17.538  0.3248 -0.1201  0.1664
  197MPD1     H 2999   0.073   2.525  17.507  0.2589 -0.4983 -3.0507
  197MPD1    H1 3000   4.655   2.132  17.410  1.6891 -0.2507 -1.2472
  197MPD1    H2 3001   0.291   2.174  17.632  0.6457  1.4560  0.0002
  197MPD1    H3 3002   0.106   2.037  17.546 -1.8130 -0.2808 -0.6850
  197MPD1     N 3003   4.614   2.386  17.369 -0.1299 -1.0405  0.1896
  197MPD1    H5 3004   4.555   2.317  17.324  1.3871 -1.8186 -0.6105
  197MPD1    N1 3005   0.281   2.449  17.655 -0.5057 -0.1872 -0.0061
  197MPD1    H6 3006   0.230   2.527  17.696 -1.2727 -0.1666 -0.9907
  197MPD1    H7 3007   0.325   2.396   0.020 -1.1087 -0.0501  0.4432
  198MPD1     C 3008   1.631   0.435  15.786  0.9010 -0.6068  0.4623
  198MPD1    C1 3009   1.749   0.369  15.763  0.0357 -1.2550 -0.4724
  198MPD1    C2 3010   1.860   0.402  15.836  0.2324  1.1891  0.1706
  198MPD1    C3 3011   1.842   0.483  15.945  0.0734 -0.4855  0.3800
  198MPD1    C4 3012   1.723   0.545  15.968 -1.5827 -0.4266 -0.7867
  198MPD1    C5 3013   1.624   0.528  15.881 -0.0451  0.5605 -0.0106
  198MPD1     H 3014   1.957   0.362  15.811 -1.0380 -0.6648 -1.8212
  198MPD1    H1 3015   1.695   0.613  16.047  0.9401 -0.0493 -0.2063
  198MPD1    H2 3016   1.544   0.428  15.722 -0.3061  2.1835  1.8312
  198MPD1    H3 3017   1.529   0.574  15.906 -0.6438 -0.4279 -0.4603
  198MPD1     N 3018   1.962   0.519  16.017 -0.1305  0.3756  0.1145
  198MPD1    H5 3019   2.047   0.487  15.972 -0.3923  1.2483 -0.9998
  198MPD1    N1 3020   1.770   0.294  15.649  0.0716 -0.3628 -0.5042
  198MPD1    H6 3021   1.856   0.241  15.655  0.8189  0.8967 -0.0423
  198MPD1    H7 3022   1.687   0.236  15.633  0.2681 -0.4696 -1.1087
  199MPD1     C 3023   3.008   0.386   9.153 -0.5702  0.8939 -0.0526
  199MPD1    C1 3024   3.107   0.467   9.220  0.7341 -0.7532 -0.3031
  199MPD1    C2 3025   3.069   0.578   9.289  0.3196  0.9363 -0.5443
  199MPD1    C3 3026   2.936   0.603   9.314  0.9169  0.0967 -0.4587
  199MPD1    C4 3027   2.840   0.521   9.255 -0.2255  0.8159 -0.0488
  199MPD1    C5 3028   2.879   0.418   9.171 -0.4399  0.1486  0.0515
  199MPD1     H 3029   3.147   0.631   9.342  2.8051 -0.5184 -2.7454
  199MPD1    H1 3030   2.734   0.543   9.262 -0.5680 -1.4483  1.7170
  199MPD1    H2 3031   3.027   0.303   9.086  0.6163 -0.9937  2.6351
  199MPD1    H3 3032   2.801   0.355   9.130 -0.1674 -0.8736  1.1428
  199MPD1     N 3033   2.876   0.701   9.395  0.2201 -0.4204  0.8914
  199MPD1    H5 3034   2.775   0.703   9.405  0.1874  2.3136 -0.0239
  199MPD1    N1 3035   3.239   0.444   9.186 -0.1938 -0.0974  0.1035
  199MPD1    H6 3036   3.249   0.343   9.173 -1.2372 -0.2428  0.3658
  199MPD1    H7 3037   3.297   0.483   9.259 -0.8289 -0.7506  0.9565
  200MPD1     C 3038   2.741   1.645  15.441 -0.0263  0.0140  0.0806
  200MPD1    C1 3039   2.693   1.573  15.332  0.2884  0.5624  0.3501
  200MPD1    C2 3040   2.740   1.608  15.211  0.1093  0.1132  0.6195
  200MPD1    C3 3041   2.828   1.712  15.192 -0.5575 -0.0880  0.0372
  200MPD1    C4 3042   2.875   1.788  15.296 -0.4294  0.7382  0.3338
  200MPD1    C5 3043   2.822   1.753  15.422 -0.7658 -0.0499 -0.0191
  200MPD1     H 3044   2.713   1.554  15.121  0.5899  0.8616  0.0230
  200MPD1    H1 3045   2.940   1.872  15.274  1.9552 -1.5651 -1.5021
  200MPD1    H2 3046   2.723   1.619  15.545  0.4715  3.0659  0.9296
  200MPD1    H3 3047   2.845   1.812  15.510  1.4604 -1.4514  0.3506
  200MPD1     N 3048   2.868   1.734  15.059 -0.0887  0.1226  0.0530
  200MPD1    H5 3049   2.814   1.689  14.985 -0.7133  0.2786  0.4109
  200MPD1    N1 3050   2.616   1.463  15.349 -0.0643  0.1053  0.8320
  200MPD1    H6 3051   2.539   1.484  15.413  0.3529  1.8085  0.7714
  200MPD1    H7 3052   2.573   1.433  15.261  1.8893  1.7179 -0.6814
  201MPD1     C 3053   0.113   0.482  14.127 -0.5326  0.0147 -0.1231
  201MPD1    C1 3054   0.219   0.461  14.221 -0.5584  0.5092  0.1086
  201MPD1    C2 3055   0.338   0.431  14.162  0.3009  0.1275  0.4927
  201MPD1    C3 3056   0.355   0.408  14.022  0.2811  0.3683  0.3215
  201MPD1    C4 3057   0.245   0.431  13.944  0.0117  0.6128  0.0950
  201MPD1    C5 3058   0.124   0.468  13.988 -0.1893  0.3018 -0.4415
  201MPD1     H 3059   0.418   0.412  14.232  0.4830 -0.0720  0.2314
  201MPD1    H1 3060   0.257   0.419  13.837  2.0887  2.6157  0.1224
  201MPD1    H2 3061   0.010   0.488  14.163  0.1208  0.1153  1.7128
  201MPD1    H3 3062   0.040   0.467  13.919  1.0318 -0.8837 -1.9049
  201MPD1     N 3063   0.483   0.361  13.977  0.1636 -0.1944  0.0075
  201MPD1    H5 3064   0.544   0.328  14.052  2.2469  1.2650 -1.0325
  201MPD1    N1 3065   0.204   0.490  14.358  0.4353  0.2997 -0.3625
  201MPD1    H6 3066   0.265   0.444  14.424  0.4018 -0.6147 -0.9703
  201MPD1    H7 3067   0.109   0.491  14.394  0.0383  0.8653 -1.4019
  202MPD1     C 3068   0.124   3.760   8.787 -0.4836 -0.0927 -0.1474
  202MPD1    C1 3069   0.209   3.860   8.764  0.1274 -0.4370  0.2617
  202MPD1    C2 3070   0.276   3.909   8.877  0.5199  0.1938  0.7265
  202MPD1    C3 3071   0.288   3.835   8.991 -0.0907 -0.0848  0.5769
  202MPD1    C4 3072   0.222   3.712   8.994 -0.5875 -0.1949 -0.5143
  202MPD1    C5 3073   0.147   3.675   8.888 -0.1340  0.0493 -0.1402
  202MPD1     H 3074   0.333   4.000   8.864 -0.2664  0.4835 -0.7077
  202MPD1    H1 3075   0.231   3.654   9.085 -1.7179  0.8780  0.2911
  202MPD1    H2 3076   0.055   3.725   8.711  1.7891 -1.2101 -1.6876
  202MPD1    H3 3077   0.094   3.581   8.892 -0.2210  0.0583 -1.0602
  202MPD1     N 3078   0.370   3.864   9.103  0.3931 -0.0589 -0.1317
  202MPD1    H5 3079   0.392   3.796   9.175  2.0761 -2.3709 -2.8354
  202MPD1    N1 3080   0.195   3.943   8.655  0.4855 -0.2637 -0.0743
  202MPD1    H6 3081   0.185   3.894   8.566  0.8802  0.7990 -0.7059
  202MPD1    H7 3082   0.275   4.005   8.648 -1.0706  1.7624 -0.2768
  203MPD1     C 3083   4.112   1.402  12.739 -0.1795 -0.6187 -0.6113
  203MPD1    C1 3084   4.186   1.325  12.832  0.0462 -0.6464 -0.1307
  203MPD1    C2 3085   4.141   1.193  12.849 -0.0677  0.3411 -0.7908
  203MPD1    C3 3086   4.046   1.139  12.763  0.0429  0.5759 -0.2921
  203MPD1    C4 3087   3.984   1.219  12.665 -0.1689 -0.1761 -0.1174
  203MPD1    C5 3088   4.014   1.353  12.660 -0.1748 -0.1045  0.6751
  203MPD1     H 3089   4.177   1.127  12.927 -0.6880  0.7454 -0.1602
  203MPD1    H1 3090   3.916   1.180  12.591 -4.4934 -0.0942  3.7935
  203MPD1    H2 3091   4.145   1.505  12.726 -2.5090  0.4389  1.9946
  203MPD1    H3 3092   3.971   1.418  12.585  2.0380 -1.7001 -1.9892
  203MPD1     N 3093   4.032   1.002  12.776  0.4384  0.5903 -0.0481
  203MPD1    H5 3094   4.091   0.948  12.839  0.2972  1.4291  0.8042
  203MPD1    N1 3095   4.258   1.387  12.936 -0.8414 -0.0916 -0.2861
  203MPD1    H6 3096   4.315   1.464  12.903 -3.7703  2.8980  1.5979
  203MPD1    H7 3097   4.317   1.324  12.990  0.2534 -0.6095 -2.0782
  204MPD1     C 3098   3.379   2.234  17.709 -0.8721 -0.3433  0.1285
  204MPD1    C1 3099   3.501   2.228  17.645  0.1416 -0.0739 -0.4175
  204MPD1    C2 3100   3.552   2.102  17.623  1.0507  0.2621  0.9543
  204MPD1    C3 3101   3.481   1.985  17.644  0.3764  0.1130 -0.4895
  204MPD1    C4 3102   3.361   1.994   0.006 -0.3560 -0.1131  0.2631
  204MPD1    C5 3103   3.308   2.122   0.026  0.7090  0.0581  0.4168
  204MPD1     H 3104   3.649   2.091  17.578  1.2217  0.3055  1.3117
  204MPD1    H1 3105   3.305   1.913   0.051 -0.8269  0.1033  0.0656
  204MPD1    H2 3106   3.342   2.331   0.030 -2.5737 -1.0516  0.2975
  204MPD1    H3 3107   3.216   2.146   0.078 -0.0774 -2.2467  0.1060
  204MPD1     N 3108   3.526   1.864  17.587 -0.4065  0.5542 -0.0051
  204MPD1    H5 3109   3.610   1.878  17.533 -0.4287 -0.3881 -0.2904
  204MPD1    N1 3110   3.581   2.343  17.649  0.5004  0.2531  0.4270
  204MPD1    H6 3111   3.643   2.340  17.569 -2.4801  1.9154 -1.9483
  204MPD1    H7 3112   3.518   2.422  17.640 -0.2785 -0.8887 -4.3464
  205MPD1     C 3113   3.076   0.191  16.984 -0.1039  0.5854  0.1208
  205MPD1    C1 3114   3.029   0.173  17.113 -0.7584  0.1787 -0.3400
  205MPD1    C2 3115   3.095   0.224  17.217 -0.3024 -0.7351 -0.3963
  205MPD1    C3 3116   3.205   0.304  17.195  0.4355  0.0299 -0.0363
  205MPD1    C4 3117   3.253   0.321  17.066  0.4732  0.3228 -0.1733
  205MPD1    C5 3118   3.194   0.266  16.963  0.3099 -0.1518 -0.4060
  205MPD1     H 3119   3.061   0.203  17.317 -0.4387  2.1087  0.1545
  205MPD1    H1 3120   3.348   0.370  17.051 -0.9013  2.3989 -2.1658
  205MPD1    H2 3121   3.026   0.149  16.897 -1.4363  2.5933 -0.0704
  205MPD1    H3 3122   3.239   0.266  16.864  1.4177  1.7386  0.0921
  205MPD1     N 3123   3.279   0.372  17.300 -0.0702  0.6293 -0.2160
  205MPD1    H5 3124   3.371   0.405  17.274  0.3579 -0.1121  0.3522
  205MPD1    N1 3125   2.922   0.082  17.133 -0.1856 -0.0343  0.4252
  205MPD1    H6 3126   2.866   0.071  17.048  2.1844  1.6080 -1.3347
  205MPD1    H7 3127   2.869   0.096  17.218  0.9776 -0.3775  1.2014
  206MPD1     C 3128   3.626   3.598  16.745  0.2989  0.3054 -0.7080
  206MPD1    C1 3129   3.611   3.728  16.706 -0.1095  0.2429 -0.2687
  206MPD1    C2 3130   3.570   3.757  16.579 -0.2819  0.4035 -0.1080
  206MPD1    C3 3131   3.547   3.655  16.489  0.3089  0.3427 -0.4067
  206MPD1    C4 3132   3.557   3.524  16.529 -0.4100 -0.1513  0.5718
  206MPD1    C5 3133   3.602   3.492  16.655  0.6739  0.2121 -0.3348
  206MPD1     H 3134   3.553   3.858  16.542  0.2315 -0.7642 -3.5305
  206MPD1    H1 3135   3.543   3.438  16.464 -1.5425 -0.2707  0.9779
  206MPD1    H2 3136   3.641   3.564  16.847  1.1957  1.5174 -0.4251
  206MPD1    H3 3137   3.613   3.388  16.682 -1.1935 -0.1018 -0.7926
  206MPD1     N 3138   3.505   3.671  16.354  0.4622 -0.0630  0.0547
  206MPD1    H5 3139   3.492   3.592  16.293  3.0638  0.7747 -1.5714
  206MPD1    N1 3140   3.613   3.831  16.802 -0.3081 -0.0226  0.0457
  206MPD1    H6 3141   3.669   3.810  16.885 -1.1254  0.6563  0.7726
  206MPD1    H7 3142   3.641   3.918  16.757 -0.2867  0.9799  1.9564
  207MPD1     C 3143   1.621   1.066   9.890 -0.2851 -0.0536 -0.9441
  207MPD1    C1 3144   1.711   1.134   9.812 -0.5984 -0.0839 -0.1535
  207MPD1    C2 3145   1.824   1.182   9.878  0.4365 -0.0533  0.0034
  207MPD1    C3 3146   1.830   1.180  10.016 -0.0195  0.7206  0.0052
  207MPD1    C4 3147   1.728   1.128  10.091  0.3092  0.2014  0.0360
  207MPD1    C5 3148   1.625   1.064  10.028 -0.4035 -0.6502  0.1084
  207MPD1     H 3149   1.904   1.214   9.811  1.3935  2.4816  2.3759
  207MPD1    H1 3150   1.729   1.125  10.199  2.8643  2.7324  0.0749
  207MPD1    H2 3151   1.535   1.011   9.853  0.0511 -0.0454 -1.7588
  207MPD1    H3 3152   1.540   1.024  10.082 -0.8811 -0.6758 -0.6687
  207MPD1     N 3153   1.950   1.225  10.080 -0.5640 -0.4153 -0.1434
  207MPD1    H5 3154   1.950   1.221  10.181  0.0827  1.3500 -0.0698
  207MPD1    N1 3155   1.703   1.128   9.668  0.1117 -0.4710 -0.4940
  207MPD1    H6 3156   1.743   1.206   9.617 -0.4834 -0.4275 -0.9000
  207MPD1    H7 3157   1.610   1.114   9.628  0.7821 -0.7752 -1.9348
  208MPD1     C 3158   0.283   0.449   0.747  0.1869 -0.4222 -0.8343
  208MPD1    C1 3159   0.145   0.465   0.777 -0.5238  0.3738 -0.1584
  208MPD1    C2 3160   0.047   0.459   0.684  0.5031 -0.2952 -0.0953
  208MPD1    C3 3161   0.081   0.452   0.549  0.0773 -0.8868 -0.5168
  208MPD1    C4 3162   0.217   0.454   0.518 -0.3639 -0.4072 -0.1135
  208MPD1    C5 3163   0.315   0.437   0.616  0.2617 -0.0929  0.4026
  208MPD1     H 3164   4.672   0.453   0.718  0.8902  0.2549  1.1429
  208MPD1    H1 3165   0.250   0.451   0.415 -0.0638  1.5905 -0.0712
  208MPD1    H2 3166   0.362   0.444   0.821  0.4874 -1.5021 -1.2296
  208MPD1    H3 3167   0.417   0.445   0.581  0.9832 -3.0459  1.8876
  208MPD1     N 3168   4.707   0.442   0.461  0.6121 -0.2615  0.3160
  208MPD1    H5 3169   4.618   0.425   0.507 -0.3815 -1.2395 -1.9573
  208MPD1    N1 3170   0.121   0.456   0.917 -0.2024  0.4119  0.4625
  208MPD1    H6 3171   0.038   0.509   0.940 -0.5400  0.1002 -0.0202
  208MPD1    H7 3172   0.201   0.475   0.977 -0.1874 -1.3507  1.0105
  209MPD1     C 3173   2.302   1.277  11.976 -0.9435 -0.4553 -0.5311
  209MPD1    C1 3174   2.429   1.328  11.956  0.2585  0.2137  0.4171
  209MPD1    C2 3175   2.469   1.329  11.824  0.5580 -0.2004  0.2109
  209MPD1    C3 3176   2.389   1.289  11.719 -0.3634 -0.6844 -0.1809
  209MPD1    C4 3177   2.265   1.238  11.743  0.8386  0.5012  0.3976
  209MPD1    C5 3178   2.220   1.239  11.873 -0.6770 -0.1192 -0.5553
  209MPD1     H 3179   2.571   1.357  11.800  1.4202 -1.4541  2.3646
  209MPD1    H1 3180   2.201   1.201  11.664  0.2862  0.9515  0.6377
  209MPD1    H2 3181   2.259   1.275  12.075  0.8894  1.1597  0.2951
  209MPD1    H3 3182   2.121   1.199  11.894 -0.2446 -0.6908  0.4226
  209MPD1     N 3183   2.450   1.286  11.585 -0.0176  0.3134  0.4705
  209MPD1    H5 3184   2.544   1.324  11.582 -0.2787  0.8761 -0.6475
  209MPD1    N1 3185   2.519   1.350  12.058  0.5450 -0.1209 -0.0587
  209MPD1    H6 3186   2.598   1.408  12.032  0.8313 -0.5402 -0.1199
  209MPD1    H7 3187   2.475   1.400  12.135 -0.4207 -0.4361 -0.3997
  210MPD1     C 3188   3.249   1.143  11.472  0.2241 -0.0259 -0.2145
  210MPD1    C1 3189   3.218   1.213  11.360 -0.1094  0.4644 -0.6791
  210MPD1    C2 3190   3.087   1.209  11.311  1.3923 -0.4946 -0.2330
  210MPD1    C3 3191   2.993   1.132  11.376  0.3003  0.3361  0.4936
  210MPD1    C4 3192   3.034   1.051  11.486 -0.0981  0.2769  0.1245
  210MPD1    C5 3193   3.160   1.064  11.529 -0.4246  0.2397 -0.6785
  210MPD1     H 3194   3.062   1.277  11.231  0.4401 -0.3561  0.1805
  210MPD1    H1 3195   2.967   0.988  11.543 -0.3919 -1.3641 -2.0051
  210MPD1    H2 3196   3.352   1.148  11.507  0.5105  0.9634 -1.2115
  210MPD1    H3 3197   3.191   1.010  11.618 -1.2841  0.2777 -0.3537
  210MPD1     N 3198   2.857   1.131  11.340 -0.7171 -0.1088  0.0112
  210MPD1    H5 3199   2.795   1.075  11.397 -1.0909  0.2261 -0.0681
  210MPD1    N1 3200   3.297   1.323  11.325 -0.1493  0.5821 -0.0336
  210MPD1    H6 3201   3.288   1.360  11.230 -1.2570  1.2275  0.3250
  210MPD1    H7 3202   3.396   1.313  11.348 -0.7917  0.9301  2.8500
  211MPD1     C 3203   4.569   0.551  15.934  0.3237 -0.5623 -0.7195
  211MPD1    C1 3204   4.591   0.675  16.005  1.1959 -0.7780  0.2121
  211MPD1    C2 3205   4.505   0.711  16.105 -0.2076 -0.3023 -0.1175
  211MPD1    C3 3206   4.388   0.641  16.132  0.3274 -0.2362  0.0753
  211MPD1    C4 3207   4.369   0.520  16.069 -0.5178  0.0532  0.0636
  211MPD1    C5 3208   4.456   0.485  15.969 -0.2286  0.5374 -0.5169
  211MPD1     H 3209   4.531   0.803  16.156  0.4602 -0.5138 -0.0812
  211MPD1    H1 3210   4.280   0.462  16.091 -1.2550  2.0543  2.3510
  211MPD1    H2 3211   4.625   0.518  15.848  1.8212  1.2457 -0.4274
  211MPD1    H3 3212   4.437   0.389  15.922  0.6514 -0.7150  1.6526
  211MPD1     N 3213   4.292   0.708  16.214  0.2972  0.1197  0.1808
  211MPD1    H5 3214   4.312   0.804  16.241 -1.5751  1.3019 -2.6403
  211MPD1    N1 3215   4.715   0.742  15.983  0.5015  0.0179  0.0552
  211MPD1    H6 3216   0.023   0.727  15.889  0.5653 -0.2429  0.1201
  211MPD1    H7 3217   4.694   0.841  15.996 -2.9540 -0.6814 -0.2271
  212MPD1     C 3218   3.060   3.883  16.287 -0.5028 -0.0744  0.8176
  212MPD1    C1 3219   2.947   3.936  16.342  0.3123  0.7818  0.4160
  212MPD1    C2 3220   2.914   3.883  16.462  0.5332 -0.1084 -0.7842
  212MPD1    C3 3221   2.981   3.781  16.523  0.1997  0.0540 -0.0180
  212MPD1    C4 3222   3.099   3.739  16.469 -0.3834 -0.0531  0.5585
  212MPD1    C5 3223   3.142   3.799  16.356 -0.3199 -0.2652 -0.0268
  212MPD1     H 3224   2.825   3.912  16.515  1.5364  0.0911  0.7780
  212MPD1    H1 3225   3.155   3.671  16.532  1.5074  1.3403  0.3758
  212MPD1    H2 3226   3.091   3.894  16.184  2.9983 -0.9061  1.7648
  212MPD1    H3 3227   3.233   3.758  16.313 -0.6743 -2.0219  0.9158
  212MPD1     N 3228   2.937   3.711  16.639 -0.2528  0.1340 -0.0856
  212MPD1    H5 3229   2.992   3.631  16.668  0.3907  0.2355 -1.0035
  212MPD1    N1 3230   2.865   4.019  16.267 -0.5802 -0.1755  0.0087
  212MPD1    H6 3231   2.802   4.077  16.322 -0.0808 -0.6645  1.0991
  212MPD1    H7 3232   2.923   4.078  16.208  0.2075  1.2227  2.1951
  213MPD1     C 3233   1.458   4.353  16.014 -0.5677  0.1876 -0.2117
  213MPD1    C1 3234   1.368   4.257  15.965 -0.1466  0.6058  0.0045
  213MPD1    C2 3235   1.272   4.319  15.884  0.0257  0.8732 -0.0915
  213MPD1    C3 3236   1.302   4.437  15.811 -0.0547  0.4893  0.4768
  213MPD1    C4 3237   1.416   4.510  15.846 -0.2847  0.8655  0.5531
  213MPD1    C5 3238   1.495   4.475  15.951  1.1162 -0.3813 -0.5048
  213MPD1     H 3239   1.185   4.265  15.849 -0.4868  0.4560  1.8357
  213MPD1    H1 3240   1.442   4.592  15.781 -1.0260  0.6247 -0.0391
  213MPD1    H2 3241   1.517   4.336  16.103  0.0523 -1.3046 -0.9165
  213MPD1    H3 3242   1.568   4.546  15.988  2.6904 -1.9865 -0.5123
  213MPD1     N 3243   1.221   4.465  15.702 -0.4001  0.3568  0.0704
  213MPD1    H5 3244   1.158   4.387  15.684 -1.2267  0.9367  0.4523
  213MPD1    N1 3245   1.334   4.152  16.058  0.1275  0.0920 -0.1346
  213MPD1    H6 3246   1.271   4.087  16.011  2.0488 -0.7242 -1.5656
  213MPD1    H7 3247   1.417   4.106  16.095  0.8217  1.7104  0.3213
  214MPD1     C 3248   0.929   3.832  15.300 -0.3998  0.2838  0.1092
  214MPD1    C1 3249   0.961   3.910  15.199  0.1514 -0.4603  0.9915
  214MPD1    C2 3250   0.957   4.048  15.212  0.0826  0.1285  0.3041
  214MPD1    C3 3251   0.912   4.107  15.330  0.1551 -0.6948  0.7070
  214MPD1    C4 3252   0.880   4.024  15.436  0.4631  0.4980  0.4695
  214MPD1    C5 3253   0.892   3.888  15.424  0.4485  0.6891  0.7653
  214MPD1     H 3254   0.997   4.113  15.134  2.0183 -1.5948 -0.1507
  214MPD1    H1 3255   0.850   4.071  15.530  0.4906  1.1126  0.1727
  214MPD1    H2 3256   0.936   3.724  15.295 -0.1405  0.3159 -0.2417
  214MPD1    H3 3257   0.879   3.817  15.504  0.8926  0.5746  0.7311
  214MPD1     N 3258   0.927   4.236  15.363 -0.6414 -0.9538  0.0663
  214MPD1    H5 3259   0.914   4.262  15.460  0.0136  0.1644 -0.1435
  214MPD1    N1 3260   1.018   3.857  15.088 -0.6119 -0.1769  0.2208
  214MPD1    H6 3261   1.065   3.927  15.031 -1.6265  1.6121  1.5912
  214MPD1    H7 3262   1.079   3.776  15.096  0.1521  0.1467 -2.4950
  215MPD1     C 3263   1.729   4.599  11.051  0.0136 -0.1920 -0.4082
  215MPD1    C1 3264   1.728   4.712  10.968 -0.8231 -0.7257  0.4397
  215MPD1    C2 3265   1.712   0.116  11.016 -0.1276 -0.1876  0.5015
  215MPD1    C3 3266   1.695   0.134  11.153 -0.3005 -0.7067  0.7875
  215MPD1    C4 3267   1.702   0.022  11.237 -0.3901 -0.0985  0.1818
  215MPD1    C5 3268   1.716   4.622  11.190 -0.4787 -0.3888  0.0563
  215MPD1     H 3269   1.700   0.193  10.940 -0.5097 -0.5972  0.1461
  215MPD1    H1 3270   1.696   0.031  11.345  2.4864 -0.5802  0.3860
  215MPD1    H2 3271   1.740   4.496  11.019  3.1191 -0.0972  0.3712
  215MPD1    H3 3272   1.724   4.538  11.257  0.8090 -0.9536 -0.7927
  215MPD1     N 3273   1.678   0.267  11.197 -0.1525  0.0198  0.0973
  215MPD1    H5 3274   1.685   0.343  11.129 -2.1472  1.7779  1.8391
  215MPD1    N1 3275   1.707   4.684  10.830 -0.2154  0.0454 -0.0783
  215MPD1    H6 3276   1.774   4.614  10.800 -0.8321 -0.8612  0.6066
  215MPD1    H7 3277   1.725   0.047  10.788 -0.3232 -0.5506 -1.4040
  216MPD1     C 3278   3.449   2.560  16.425  0.0749  0.1834  0.0568
  216MPD1    C1 3279   3.338   2.581  16.510  0.8567 -0.7715 -0.1107
  216MPD1    C2 3280   3.362   2.568  16.641  0.4480  0.5435  0.6424
  216MPD1    C3 3281   3.484   2.524  16.692 -0.2212  0.4068  0.5101
  216MPD1    C4 3282   3.589   2.498  16.601 -0.3623  0.4922  0.2123
  216MPD1    C5 3283   3.573   2.515  16.462 -0.2381  0.0417  0.2603
  216MPD1     H 3284   3.282   2.583  16.712 -1.0800 -1.6745 -0.6215
  216MPD1    H1 3285   3.689   2.462  16.624 -0.7644 -0.7171  0.0677
  216MPD1    H2 3286   3.435   2.577  16.319  2.3475 -0.2062 -0.3062
  216MPD1    H3 3287   3.645   2.503  16.381  0.9509 -0.4202  1.3773
  216MPD1     N 3288   3.494   2.497  16.829 -0.2743  0.3229  0.5068
  216MPD1    H5 3289   3.412   2.484  16.887 -1.3025 -0.5511 -1.1677
  216MPD1    N1 3290   3.216   2.631  16.461  0.6562  0.2857  0.0901
  216MPD1    H6 3291   3.136   2.620  16.524  0.1002  0.1520 -0.6360
  216MPD1    H7 3292   3.192   2.597  16.368 -0.8757  2.5320 -0.3402
  217MPD1     C 3293   3.755   4.448   8.362 -0.5308 -0.4295 -0.2837
  217MPD1    C1 3294   3.886   4.431   8.398 -0.4080  0.6175 -0.3577
  217MPD1    C2 3295   3.912   4.393   8.524  0.2613  0.4061  0.2829
  217MPD1    C3 3296   3.822   4.372   8.623  0.1040  0.6674 -0.1976
  217MPD1    C4 3297   3.691   4.407   8.589 -0.5165 -0.7973 -0.3373
  217MPD1    C5 3298   3.659   4.441   8.462  0.3265  0.7315 -0.2879
  217MPD1     H 3299   4.015   4.402   8.554  0.2598  0.4596  0.2722
  217MPD1    H1 3300   3.619   4.407   8.670 -1.0428  0.2403 -0.8129
  217MPD1    H2 3301   3.730   4.483   8.263 -0.1512  0.3282 -0.1101
  217MPD1    H3 3302   3.562   4.478   8.429 -0.4790 -0.7913  0.3747
  217MPD1     N 3303   3.851   4.338   8.760 -0.0494  0.1799  0.0220
  217MPD1    H5 3304   3.776   4.327   8.828  1.1213  0.1533  1.3094
  217MPD1    N1 3305   3.981   4.423   8.289  0.6487  0.0352 -0.3946
  217MPD1    H6 3306   3.955   4.499   8.227 -0.2369  0.5635  0.6221
  217MPD1    H7 3307   4.078   4.443   8.316 -0.8419  3.7024  2.2876
  218MPD1     C 3308   0.184   0.964  12.660 -0.1264  0.2258 -0.3202
  218MPD1    C1 3309   0.227   1.090  12.671 -0.0120 -0.2950 -0.6772
  218MPD1    C2 3310   0.340   1.114  12.745 -0.0112  0.7710 -0.1719
  218MPD1    C3 3311   0.431   1.010  12.779 -0.3852 -0.2297  0.3386
  218MPD1    C4 3312   0.392   0.881  12.745  0.3968  0.3787 -0.3366
  218MPD1    C5 3313   0.262   0.858  12.692  0.2888 -0.6775 -0.0910
  218MPD1     H 3314   0.354   1.216  12.777  3.1813  0.1660  0.3215
  218MPD1    H1 3315   0.462   0.800  12.760  1.7131  1.6837  0.6539
  218MPD1    H2 3316   0.088   0.941  12.616 -0.2124  1.5629 -0.8249
  218MPD1    H3 3317   0.232   0.758  12.663  0.0361  0.2315 -2.8955
  218MPD1     N 3318   0.558   1.041  12.831 -0.3835  0.5401  0.1966
  218MPD1    H5 3319   0.584   1.139  12.835 -0.2439  0.4490  1.5976
  218MPD1    N1 3320   0.126   1.188  12.650 -0.5005  0.2316 -0.0133
  218MPD1    H6 3321   0.168   1.279  12.628 -1.7329  0.7278 -0.2955
  218MPD1    H7 3322   0.066   1.170  12.570 -0.3799 -1.7426  0.3608
  219MPD1     C 3323   1.278   1.248  12.188  0.0963 -0.6793 -0.3375
  219MPD1    C1 3324   1.180   1.328  12.254  0.7085 -0.4650  0.6248
  219MPD1    C2 3325   1.100   1.268  12.351 -0.5369 -0.1047  0.4433
  219MPD1    C3 3326   1.109   1.138  12.384  0.2367  0.1062  0.0489
  219MPD1    C4 3327   1.212   1.068  12.325 -0.3385  0.4652 -0.5509
  219MPD1    C5 3328   1.296   1.123  12.229 -0.7168  0.3702  0.5492
  219MPD1     H 3329   1.024   1.332  12.396 -2.3474 -0.4072 -2.1562
  219MPD1    H1 3330   1.228   0.964  12.349 -0.6777  0.2993 -1.0289
  219MPD1    H2 3331   1.343   1.290  12.113  0.0367 -0.5591 -0.3224
  219MPD1    H3 3332   1.367   1.057  12.180  0.5646  0.9810  1.5950
  219MPD1     N 3333   1.048   1.076  12.498  0.4587  0.5669  0.0902
  219MPD1    H5 3334   1.071   0.980  12.522 -1.1491  1.0432  3.4268
  219MPD1    N1 3335   1.177   1.464  12.217 -0.4874 -0.1781  0.1403
  219MPD1    H6 3336   1.083   1.504  12.219 -1.2818 -1.8887 -2.1921
  219MPD1    H7 3337   1.222   1.482  12.128 -1.8809 -3.6526 -1.3081
  220MPD1     C 3338   0.473   1.281  10.079  0.5056  0.4432 -0.5318
  220MPD1    C1 3339   0.417   1.151  10.100 -0.3902 -0.1327 -0.8219
  220MPD1    C2 3340   0.497   1.067  10.177  0.4396 -0.1912 -0.3648
  220MPD1    C3 3341   0.610   1.106  10.248  0.0634  0.8765  0.6416
  220MPD1    C4 3342   0.647   1.241  10.243 -0.0570  0.0760 -0.1893
  220MPD1    C5 3343   0.588   1.318  10.142 -0.4765 -0.3378 -0.3223
  220MPD1     H 3344   0.461   0.965  10.188 -2.3222  0.8286 -0.0080
  220MPD1    H1 3345   0.731   1.274  10.302 -1.8127  0.2954  2.1877
  220MPD1    H2 3346   0.419   1.358  10.025  0.1496  0.0798 -0.6892
  220MPD1    H3 3347   0.626   1.418  10.125 -1.6040 -0.0042 -0.8860
  220MPD1     N 3348   0.694   0.998  10.299  0.3860 -0.2408 -0.5192
  220MPD1    H5 3349   0.649   0.910  10.281  0.5184  0.2945 -3.4726
  220MPD1    N1 3350   0.314   1.105  10.010 -0.0880 -0.1070 -0.7250
  220MPD1    H6 3351   0.280   1.012  10.033 -0.1929 -0.8043 -3.7213
  220MPD1    H7 3352   0.244   1.171   9.975  0.2713 -0.2273 -1.6733
  221MPD1     C 3353   4.702   4.535  15.826  0.7080  0.0506  0.4347
  221MPD1    C1 3354   4.718   4.601  15.944  0.4642 -0.2799 -0.5847
  221MPD1    C2 3355   4.604   4.592  16.029 -0.6731  0.2797  0.4702
  221MPD1    C3 3356   4.476   4.546  15.997 -0.1628  0.1680 -0.1929
  221MPD1    C4 3357   4.464   4.499  15.866  1.4064  0.3245 -0.9459
  221MPD1    C5 3358   4.576   4.498  15.786 -0.6793 -0.4172 -0.4646
  221MPD1     H 3359   4.613   4.632  16.129  0.0132 -0.8035  0.8381
  221MPD1    H1 3360   4.375   4.452  15.825  0.1864  2.5303 -0.8301
  221MPD1    H2 3361   0.053   4.512  15.755  3.0153 -1.4389  3.4537
  221MPD1    H3 3362   4.560   4.438  15.697  2.6780  2.0981 -2.7788
  221MPD1     N 3363   4.361   4.557  16.087  0.3887  0.2377 -0.4601
  221MPD1    H5 3364   4.370   4.623  16.163  0.4885  0.6881 -0.8608
  221MPD1    N1 3365   0.115   4.644  15.989  0.4017 -0.1741 -0.5436
  221MPD1    H6 3366   0.170   4.685  15.914  0.9269 -1.6179 -0.9443
  221MPD1    H7 3367   0.127   4.701  16.073 -0.7204 -1.8416  0.7325
  222MPD1     C 3368   2.369   4.115  16.847  0.5229 -0.1002  0.3044
  222MPD1    C1 3369   2.395   4.090  16.719 -0.3973  0.5617 -0.7909
  222MPD1    C2 3370   2.526   4.121  16.677 -0.5328 -0.6299 -0.3059
  222MPD1    C3 3371   2.623   4.185  16.755  0.3274 -0.5545  0.2354
  222MPD1    C4 3372   2.584   4.220  16.877 -0.3960 -0.7844  0.0208
  222MPD1    C5 3373   2.462   4.178  16.930 -0.3810 -0.1872  0.1593
  222MPD1     H 3374   2.540   4.105  16.570 -1.8000  0.3406 -0.6141
  222MPD1    H1 3375   2.650   4.283  16.936 -0.1108  0.5150 -1.6846
  222MPD1    H2 3376   2.271   4.090  16.887 -0.3237  0.1480 -1.6102
  222MPD1    H3 3377   2.433   4.215  17.028 -0.6969  2.6702 -0.9988
  222MPD1     N 3378   2.753   4.214  16.710 -0.1277 -0.3163  0.0457
  222MPD1    H5 3379   2.813   4.258  16.779 -0.2979 -0.0932  0.0495
  222MPD1    N1 3380   2.298   4.033  16.632 -0.2636  0.3713  0.0930
  222MPD1    H6 3381   2.209   4.051  16.677  0.1305  0.3379  0.8818
  222MPD1    H7 3382   2.295   4.088  16.546  0.8841 -1.3707 -1.0631
  223MPD1     C 3383   3.105   4.660  15.854  0.0514  0.0183  0.1354
  223MPD1    C1 3384   2.979   4.619  15.906 -0.0812 -0.0656  0.1318
  223MPD1    C2 3385   2.971   4.532  16.021  0.2329 -0.1428  0.0857
  223MPD1    C3 3386   3.085   4.507  16.100 -0.6273  0.1038 -0.1018
  223MPD1    C4 3387   3.206   4.559  16.049 -0.1515  0.3910  0.5315
  223MPD1    C5 3388   3.214   4.642  15.939 -0.4548 -0.2069  0.4162
  223MPD1     H 3389   2.872   4.510  16.060  1.5990 -1.3340  2.9178
  223MPD1    H1 3390   3.295   4.531  16.104  0.5376 -0.4166 -0.9692
  223MPD1    H2 3391   3.120   4.717  15.762 -0.9503  2.7532  1.6583
  223MPD1    H3 3392   3.307   4.681  15.898 -0.7356  0.0510  0.0298
  223MPD1     N 3393   3.067   4.440  16.221  0.1905 -0.1880  0.0306
  223MPD1    H5 3394   2.974   4.402  16.234  0.1646 -0.3602 -0.7042
  223MPD1    N1 3395   2.868   4.637  15.822 -0.7063 -0.1443  0.6492
  223MPD1    H6 3396   2.785   4.629  15.880 -0.1838 -1.8181  1.1499
  223MPD1    H7 3397   2.880   0.003  15.783  2.0405 -1.6985 -2.2293
  224MPD1     C 3398   3.638   4.668   8.883 -0.1322 -0.6677  0.9128
  224MPD1    C1 3399   3.776   4.673   8.901 -0.1154  0.2646  0.1863
  224MPD1    C2 3400   3.829   4.718   9.020 -0.2789 -0.1762  0.4883
  224MPD1    C3 3401   3.745   4.723   9.137 -0.4251 -0.4265 -0.0248
  224MPD1    C4 3402   3.609   4.708   9.121 -0.0021  0.0642  0.1616
  224MPD1    C5 3403   3.558   4.684   8.992 -0.1057 -0.7312  0.1167
  224MPD1     H 3404   3.934   0.013   9.035 -0.7089  0.9261  1.8102
  224MPD1    H1 3405   3.543   4.706   9.207  0.3795 -0.1930  0.4537
  224MPD1    H2 3406   3.587   4.654   8.788  2.5195 -1.6696 -0.3370
  224MPD1    H3 3407   3.450   4.677   8.985 -0.3341  3.0683 -0.1856
  224MPD1     N 3408   3.789   0.022   9.271  0.0991  0.2154  0.2172
  224MPD1    H5 3409   3.717   0.048   9.338 -1.5470  0.1334 -1.5099
  224MPD1    N1 3410   3.854   4.670   8.782 -0.7622  0.2312  0.1641
  224MPD1    H6 3411   3.945   4.628   8.802  0.3079  2.0436 -0.9056
  224MPD1    H7 3412   3.810   4.608   8.714  0.9143  1.3097 -1.9205
  225MPD1     C 3413   0.659   1.859  12.964 -0.0964  0.4193  0.1695
  225MPD1    C1 3414   0.773   1.922  12.921 -0.0777  0.1339 -0.3925
  225MPD1    C2 3415   0.796   1.945  12.791 -0.2769  0.1499 -0.3028
  225MPD1    C3 3416   0.716   1.898  12.690 -0.9383  0.7321 -0.2070
  225MPD1    C4 3417   0.600   1.830  12.729 -0.1281 -0.1984  0.0078
  225MPD1    C5 3418   0.573   1.823  12.861 -0.0989 -0.2748  0.3820
  225MPD1     H 3419   0.886   2.002  12.770  0.1448 -0.0428  1.0173
  225MPD1    H1 3420   0.532   1.793  12.653 -0.1961  0.5187 -0.2806
  225MPD1    H2 3421   0.625   1.849  13.066 -1.8802  0.5225 -0.4084
  225MPD1    H3 3422   0.473   1.795  12.892 -1.2810  2.8613 -0.5021
  225MPD1     N 3423   0.755   1.910  12.557  0.5805 -0.4846 -0.2319
  225MPD1    H5 3424   0.695   1.864  12.489  0.0684  1.3148 -1.0012
  225MPD1    N1 3425   0.848   1.993  13.014 -0.2676 -0.3604 -0.1593
  225MPD1    H6 3426   0.838   1.956  13.109 -0.1867 -0.9016 -0.3648
  225MPD1    H7 3427   0.947   1.991  12.993  0.6324 -2.2279  4.1642
  226MPD1     C 3428   4.582   0.918   9.829  0.3240 -0.0791  0.5229
  226MPD1    C1 3429   4.572   0.857   9.701  0.0402 -0.2152 -0.5307
  226MPD1    C2 3430   4.455   0.868   9.629 -0.0063  0.6078 -0.2194
  226MPD1    C3 3431   4.363   0.966   9.670 -0.6812  0.3750 -0.0855
  226MPD1    C4 3432   4.378   1.031   9.791 -0.4679 -0.0008  0.0316
  226MPD1    C5 3433   4.486   1.005   9.873 -0.0860  0.1256 -0.6021
  226MPD1     H 3434   4.444   0.808   9.539 -3.0683  0.0103  0.5571
  226MPD1    H1 3435   4.296   1.087   9.833 -1.7515 -1.1506 -0.9259
  226MPD1    H2 3436   4.665   0.899   9.896 -1.1327 -0.4990  2.2088
  226MPD1    H3 3437   4.487   1.061   9.966 -0.6982 -1.3236  0.2834
  226MPD1     N 3438   4.252   0.989   9.585 -0.0266  0.0335  0.0635
  226MPD1    H5 3439   4.247   0.928   9.504  0.7678 -2.6661  2.0415
  226MPD1    N1 3440   4.670   0.762   9.665 -0.3174  0.6657  0.2390
  226MPD1    H6 3441   0.034   0.782   9.703  1.5131 -1.3953 -3.0296
  226MPD1    H7 3442   4.692   0.757   9.565 -1.2761 -0.8516  0.1028
  227MPD1     C 3443   3.378   1.521   9.164 -0.2508  0.6260 -0.3540
  227MPD1    C1 3444   3.386   1.400   9.110 -0.3020  0.0202  0.5924
  227MPD1    C2 3445   3.480   1.311   9.154  0.0049 -0.2771 -0.1296
  227MPD1    C3 3446   3.567   1.345   9.253  0.4146 -0.3297 -0.1400
  227MPD1    C4 3447   3.562   1.475   9.304 -0.2764  0.2312  0.2073
  227MPD1    C5 3448   3.466   1.563   9.263  0.0537  0.9412 -0.0142
  227MPD1     H 3449   3.492   1.218   9.101  2.7934 -0.2087  0.3949
  227MPD1    H1 3450   3.631   1.500   9.384 -1.4864  2.6113  0.5097
  227MPD1    H2 3451   3.315   1.600   9.124  0.8111  3.3253  3.2997
  227MPD1    H3 3452   3.469   1.667   9.293  1.0008  1.0010 -0.3147
  227MPD1     N 3453   3.662   1.252   9.300 -0.2928  0.6665  0.1890
  227MPD1    H5 3454   3.664   1.163   9.251  1.4397  1.1570 -0.6110
  227MPD1    N1 3455   3.315   1.374   8.986 -0.6822  0.5437  0.0689
  227MPD1    H6 3456   3.218   1.407   8.988 -0.8229  0.1144  0.1771
  227MPD1    H7 3457   3.308   1.273   8.975 -1.1245  0.4906  0.8605
  228MPD1     C 3458   2.699   4.332  12.920 -0.6950  0.1197 -0.4151
  228MPD1    C1 3459   2.597   4.392  12.857 -0.2954 -0.1459  0.1286
  228MPD1    C2 3460   2.470   4.356  12.895  0.0475 -0.3441 -0.4644
  228MPD1    C3 3461   2.448   4.244  12.977  0.8284 -0.3189  0.7126
  228MPD1    C4 3462   2.548   4.184  13.037 -0.6591 -0.0171 -0.1228
  228MPD1    C5 3463   2.677   4.226  13.011 -0.2090 -0.1536 -0.1303
  228MPD1     H 3464   2.386   4.411  12.854  0.7530  1.8245  1.0155
  228MPD1    H1 3465   2.526   4.103  13.105 -1.0808 -0.5933 -0.9377
  228MPD1    H2 3466   2.795   4.382  12.911  0.3758 -1.6744  1.1465
  228MPD1    H3 3467   2.764   4.189  13.064 -1.7247 -1.7590  1.2236
  228MPD1     N 3468   2.310   4.205  12.995  0.3263  0.3553  0.0824
  228MPD1    H5 3469   2.243   4.250  12.934  1.2153 -1.3034 -2.1146
  228MPD1    N1 3470   2.610   4.511  12.782  0.9461  0.8289 -0.4284
  228MPD1    H6 3471   2.701   4.508  12.735  0.0890  1.4691 -2.1400
  228MPD1    H7 3472   2.532   4.525  12.718 -0.5595 -1.5880  0.8561
  229MPD1     C 3473   2.342   3.310  14.136  0.0796 -0.0202  0.5321
  229MPD1    C1 3474   2.447   3.226  14.131  0.4406 -0.9399 -0.3172
  229MPD1    C2 3475   2.433   3.097  14.185 -0.3347 -0.2024 -0.2395
  229MPD1    C3 3476   2.309   3.046  14.237 -0.2128  0.9184  0.0682
  229MPD1    C4 3477   2.200   3.139  14.238  0.1893 -0.1952  0.3209
  229MPD1    C5 3478   2.222   3.269  14.186  0.0581  0.0453  0.4751
  229MPD1     H 3479   2.522   3.036  14.189  0.9165  1.6837  0.3954
  229MPD1    H1 3480   2.097   3.124  14.268 -0.0869  0.5197 -0.2820
  229MPD1    H2 3481   2.354   3.413  14.104 -0.6533  0.3398  1.3946
  229MPD1    H3 3482   2.135   3.333  14.190 -1.7678 -2.3282 -1.0313
  229MPD1     N 3483   2.296   2.922  14.302 -0.1035  0.0622  0.1942
  229MPD1    H5 3484   2.203   2.906  14.339 -0.3239  1.8222  0.4352
  229MPD1    N1 3485   2.571   3.278  14.095  0.4756 -0.6867  0.1126
  229MPD1    H6 3486   2.565   3.351  14.024  1.3368 -1.1227 -0.4094
  229MPD1    H7 3487   2.638   3.209  14.060  0.0609 -0.9753 -0.1042
  230MPD1     C 3488   1.733   2.709  14.915  0.5257 -0.4591 -0.4243
  230MPD1    C1 3489   1.743   2.786  14.802  0.4528  0.9645  0.0311
  230MPD1    C2 3490   1.860   2.781  14.725  0.2515 -0.4074 -0.5797
  230MPD1    C3 3491   1.959   2.693  14.756  0.7072  0.6295  0.3082
  230MPD1    C4 3492   1.934   2.604  14.856  0.0328  0.3342  0.2407
  230MPD1    C5 3493   1.829   2.614  14.935  0.1248 -0.4608 -0.0855
  230MPD1     H 3494   1.873   2.855  14.648  2.8009 -0.4239 -0.1608
  230MPD1    H1 3495   1.997   2.520  14.880  1.8890  1.4274 -0.7887
  230MPD1    H2 3496   1.648   2.714  14.983  0.5393  0.7039 -0.4891
  230MPD1    H3 3497   1.818   2.537  15.011 -0.8963 -0.7244 -0.5027
  230MPD1     N 3498   2.074   2.693  14.676 -0.6624  0.5962  0.1237
  230MPD1    H5 3499   2.072   2.753  14.593 -0.7618  0.2756 -0.1057
  230MPD1    N1 3500   1.663   2.897  14.786  0.2566 -0.3523  0.4070
  230MPD1    H6 3501   1.640   2.914  14.689  0.8144 -0.5175  0.2451
  230MPD1    H7 3502   1.578   2.888  14.841  0.0282 -1.0988 -0.0713
  231MPD1     C 3503   0.159   4.583  15.397  0.3505  0.5191  0.6929
  231MPD1    C1 3504   0.255   4.498  15.345  0.1648 -0.1475  0.1384
  231MPD1    C2 3505   0.364   4.554  15.283  0.4051  0.4654 -0.2515
  231MPD1    C3 3506   0.392   4.687  15.294 -0.5678 -0.1391 -0.2865
  231MPD1    C4 3507   0.298   0.043  15.355  0.2308 -0.1120 -0.2294
  231MPD1    C5 3508   0.190   4.715  15.406 -0.0103 -0.4281  0.0561
  231MPD1     H 3509   0.428   4.495  15.218  0.9196 -1.4619  2.0044
  231MPD1    H1 3510   0.315   0.150  15.362 -0.2185 -0.0034 -0.8232
  231MPD1    H2 3511   0.068   4.548  15.445 -0.0038 -0.2212 -0.5347
  231MPD1    H3 3512   0.114   0.061  15.432  0.4564  0.4450 -1.0258
  231MPD1     N 3513   0.503   0.012  15.224  0.4816 -0.1656 -0.1118
  231MPD1    H5 3514   0.546   4.679  15.154  1.6359  0.5194  0.0106
  231MPD1    N1 3515   0.230   4.359  15.342  0.2159 -0.0917 -0.2718
  231MPD1    H6 3516   0.320   4.312  15.344  0.0233 -0.5670 -3.6568
  231MPD1    H7 3517   0.170   4.326  15.418  0.6219 -1.4344 -0.5315
  232MPD1     C 3518   2.399   1.656  16.993 -0.8732  0.0368  0.0092
  232MPD1    C1 3519   2.362   1.613  17.123  0.1312  0.6585  0.0205
  232MPD1    C2 3520   2.248   1.658  17.183 -0.0170 -0.3725 -0.0042
  232MPD1    C3 3521   2.162   1.743  17.112 -0.5681 -0.1041  0.1053
  232MPD1    C4 3522   2.193   1.769  16.976  0.1147  0.2742 -0.6315
  232MPD1    C5 3523   2.304   1.731  16.918 -1.2299  0.2952  0.1777
  232MPD1     H 3524   2.228   1.629  17.285 -0.9228  0.7424  0.1430
  232MPD1    H1 3525   2.120   1.822  16.917 -2.3503 -3.5303 -0.9605
  232MPD1    H2 3526   2.495   1.631  16.949 -0.3261 -0.7185  1.6463
  232MPD1    H3 3527   2.330   1.760  16.817 -1.5010  2.5906  0.7816
  232MPD1     N 3528   2.053   1.795  17.184  0.4531 -0.0656  0.3488
  232MPD1    H5 3529   2.047   1.742  17.270  0.1824 -0.6536 -0.0318
  232MPD1    N1 3530   2.455   1.554  17.207 -0.4342  0.1310 -0.3011
  232MPD1    H6 3531   2.420   1.500  17.285  1.0297 -0.4630 -0.0526
  232MPD1    H7 3532   2.533   1.504  17.165  0.1488  0.1507  0.7830
  233MPD1     C 3533   2.485   1.543   0.905 -0.1280  0.1053  0.3733
  233MPD1    C1 3534   2.618   1.548   0.890 -0.0257 -0.2793 -1.0073
  233MPD1    C2 3535   2.691   1.437   0.940  0.0035 -0.3639  0.3241
  233MPD1    C3 3536   2.617   1.333   1.001 -0.4141 -0.7855 -0.5512
  233MPD1    C4 3537   2.478   1.327   0.987 -0.5595  0.6295 -0.8746
  233MPD1    C5 3538   2.415   1.436   0.934  0.0657  0.1390  0.2214
  233MPD1     H 3539   2.798   1.447   0.936  0.0175 -0.3589  0.6678
  233MPD1    H1 3540   2.421   1.244   1.027 -1.0439  0.7144 -1.3891
  233MPD1    H2 3541   2.424   1.626   0.870 -2.0976 -1.2394  0.6280
  233MPD1    H3 3542   2.307   1.446   0.929  0.3593  3.3924  0.3723
  233MPD1     N 3543   2.677   1.219   1.068 -0.0562  0.0031 -0.2083
  233MPD1    H5 3544   2.609   1.145   1.087 -0.5347  1.1642  2.5681
  233MPD1    N1 3545   2.685   1.673   0.863 -0.0598  0.6233  0.5731
  233MPD1    H6 3546   2.645   1.735   0.793  0.0126  0.2122  0.1697
  233MPD1    H7 3547   2.785   1.659   0.856 -0.2764 -0.3972 -0.4752
  234MPD1     C 3548   0.744   3.857  10.005  0.4815 -0.1765  0.6196
  234MPD1    C1 3549   0.693   3.973  10.064  0.3125  0.2829 -0.1960
  234MPD1    C2 3550   0.570   4.022  10.030 -0.5006 -0.2883 -0.0201
  234MPD1    C3 3551   0.496   3.976   9.923  0.9921 -0.3633  0.8796
  234MPD1    C4 3552   0.559   3.877   9.850  0.3698 -0.1789  0.0797
  234MPD1    C5 3553   0.674   3.807   9.894  0.6070 -0.6806 -0.0273
  234MPD1     H 3554   0.529   4.114  10.070  1.5569  0.3078  0.6675
  234MPD1    H1 3555   0.513   3.833   9.763  3.0009  0.8447 -1.8165
  234MPD1    H2 3556   0.825   3.797  10.045  2.3211  1.1880 -1.0675
  234MPD1    H3 3557   0.695   3.716   9.839  1.8269 -1.5604  1.8968
  234MPD1     N 3558   0.375   4.035   9.890 -0.3382  0.3242  0.4695
  234MPD1    H5 3559   0.325   4.095   9.956  0.3708  2.1322 -0.6377
  234MPD1    N1 3560   0.762   4.018  10.183 -0.1293 -0.3119 -0.1822
  234MPD1    H6 3561   0.861   4.017  10.158 -0.3159  2.7820 -1.0079
  234MPD1    H7 3562   0.734   4.110  10.215 -1.6780 -2.3293  4.3279
  235MPD1     C 3563   1.862   1.515  10.287 -0.1456  0.6903 -0.3018
  235MPD1    C1 3564   1.859   1.556  10.153 -0.0376 -0.6381  0.4844
  235MPD1    C2 3565   1.955   1.644  10.115 -0.2195  0.2942  0.0678
  235MPD1    C3 3566   2.045   1.703  10.196 -0.1314  0.0753 -0.4267
  235MPD1    C4 3567   2.040   1.672  10.332 -0.1956 -0.1326  0.4500
  235MPD1    C5 3568   1.960   1.567  10.373 -0.7307  0.4107  0.5070
  235MPD1     H 3569   1.959   1.677  10.012 -2.2836 -0.2815 -0.1813
  235MPD1    H1 3570   2.116   1.702  10.404 -1.5869 -0.5403  2.0827
  235MPD1    H2 3571   1.789   1.438  10.313 -0.7378  0.2571 -3.2455
  235MPD1    H3 3572   1.964   1.533  10.476 -1.6557 -1.2833 -0.0045
  235MPD1     N 3573   2.123   1.804  10.144  0.3343  0.2718 -0.8137
  235MPD1    H5 3574   2.121   1.817  10.044  0.2691 -1.9354 -1.1161
  235MPD1    N1 3575   1.763   1.510  10.063 -0.5452 -0.2071  0.2223
  235MPD1    H6 3576   1.730   1.415  10.079 -0.4722 -0.0828  1.0904
  235MPD1    H7 3577   1.799   1.514   9.968 -1.1968 -1.3598 -0.0670
  236MPD1     C 3578   1.235   2.950  10.250  0.5387 -0.0070  0.0552
  236MPD1    C1 3579   1.238   2.823  10.205 -0.6845  0.7144  0.5291
  236MPD1    C2 3580   1.318   2.729  10.269  0.1808 -0.1649  0.5602
  236MPD1    C3 3581   1.400   2.773  10.373  0.2542  0.4297 -0.4335
  236MPD1    C4 3582   1.400   2.905  10.406 -0.1608 -0.6995 -0.3658
  236MPD1    C5 3583   1.305   2.985  10.363 -0.4189  0.3706 -0.1161
  236MPD1     H 3584   1.314   2.628  10.231 -0.0296 -0.3429  1.0544
  236MPD1    H1 3585   1.474   2.934  10.479  0.4288 -1.1965 -0.7654
  236MPD1    H2 3586   1.166   3.025  10.214 -0.1424 -1.1066 -0.9394
  236MPD1    H3 3587   1.303   3.088  10.398 -2.1739  0.9796 -2.0459
  236MPD1     N 3588   1.503   2.695  10.436 -0.3036  0.2001  0.1274
  236MPD1    H5 3589   1.564   2.745  10.500 -2.6103  2.7109  0.3731
  236MPD1    N1 3590   1.146   2.786  10.106  0.0232 -0.3121 -0.2580
  236MPD1    H6 3591   1.143   2.854  10.031 -0.6214 -0.2063 -0.1344
  236MPD1    H7 3592   1.184   2.704  10.060  2.4530 -0.3364  1.7641
  237MPD1     C 3593   1.280   1.454  15.756  0.5541  0.6540 -0.4648
  237MPD1    C1 3594   1.279   1.350  15.668 -0.2195 -0.2613 -0.6767
  237MPD1    C2 3595   1.156   1.313  15.607 -0.6804 -0.7405  0.3518
  237MPD1    C3 3596   1.044   1.391  15.617 -0.4453  0.1871 -0.4117
  237MPD1    C4 3597   1.050   1.505  15.687  0.1020 -0.7359 -0.1905
  237MPD1    C5 3598   1.165   1.527  15.752 -0.2985 -0.4221  0.7086
  237MPD1     H 3599   1.150   1.228  15.540 -0.5272  0.5389 -1.2733
  237MPD1    H1 3600   0.971   1.579  15.685  0.8179 -0.0119 -1.5128
  237MPD1    H2 3601   1.369   1.484  15.810  0.7006 -1.2676  0.3711
  237MPD1    H3 3602   1.166   1.618  15.811 -0.7180 -0.1083  0.2254
  237MPD1     N 3603   0.918   1.345  15.569  0.4616  0.2939 -0.2570
  237MPD1    H5 3604   0.840   1.404  15.597 -1.0988 -1.2536 -1.3397
  237MPD1    N1 3605   1.390   1.273  15.663 -0.1830 -0.0003 -0.5015
  237MPD1    H6 3606   1.472   1.333  15.663 -0.1240 -0.0802 -0.3946
  237MPD1    H7 3607   1.384   1.223  15.575  1.0561 -1.8918  0.4582
  238MPD1     C 3608   1.968   0.741  15.757  0.8063  0.5694  0.9778
  238MPD1    C1 3609   2.081   0.734  15.671 -0.5353  0.2977  0.1573
  238MPD1    C2 3610   2.074   0.670  15.555 -0.7966  0.4659  0.3268
  238MPD1    C3 3611   1.950   0.619  15.509  0.2654 -0.7660 -0.1433
  238MPD1    C4 3612   1.833   0.660  15.573  0.4106 -0.6035  0.7303
  238MPD1    C5 3613   1.843   0.716  15.703  0.2683  0.2757  0.2304
  238MPD1     H 3614   2.168   0.644  15.508 -1.1864  1.0535 -0.7961
  238MPD1    H1 3615   1.736   0.638  15.528 -1.3039  2.0794  3.0671
  238MPD1    H2 3616   1.971   0.768  15.862  1.6847  0.1976  1.0455
  238MPD1    H3 3617   1.759   0.736  15.769  0.1147  0.7869 -0.1215
  238MPD1     N 3618   1.942   0.523  15.406  0.4145 -0.5548  0.1804
  238MPD1    H5 3619   1.848   0.489  15.387 -0.5858 -0.0174  4.1127
  238MPD1    N1 3620   2.206   0.767  15.727  0.2733 -0.6584 -0.4703
  238MPD1    H6 3621   2.206   0.837  15.801  2.6039 -0.0594 -1.0424
  238MPD1    H7 3622   2.272   0.792  15.653  0.1796  1.6382  0.2323
  239MPD1     C 3623   2.724   0.741  15.350  0.1794 -0.9657 -0.1817
  239MPD1    C1 3624   2.663   0.871  15.353  0.1883  0.8136 -0.4300
  239MPD1    C2 3625   2.622   0.928  15.239 -0.1351  0.0326  0.0813
  239MPD1    C3 3626   2.640   0.858  15.117  0.4345 -0.4692 -0.5844
  239MPD1    C4 3627   2.718   0.741  15.115  0.1450 -0.3654  0.1313
  239MPD1    C5 3628   2.767   0.687  15.232  0.0758  0.1794 -0.4817
  239MPD1     H 3629   2.575   1.026  15.244 -3.2320 -1.4882  0.6785
  239MPD1    H1 3630   2.748   0.698  15.020 -0.9089  2.3887 -1.4453
  239MPD1    H2 3631   2.757   0.696  15.444  1.0169  0.1391  0.0619
  239MPD1    H3 3632   2.819   0.592  15.234 -2.1782 -1.0829 -1.3780
  239MPD1     N 3633   2.599   0.917  14.994 -0.2171 -0.1340  0.1348
  239MPD1    H5 3634   2.629   0.866  14.912 -0.2355  1.9754 -1.2083
  239MPD1    N1 3635   2.637   0.923  15.475  0.1926  0.5634 -0.6110
  239MPD1    H6 3636   2.634   1.024  15.474  0.7673  0.5912  0.8952
  239MPD1    H7 3637   2.711   0.895  15.539 -0.3256  2.5829  0.8750
  240MPD1     C 3638   2.000   1.210  14.036  0.1025 -0.0478  0.2907
  240MPD1    C1 3639   2.020   1.224  14.176  0.5040  0.2352  0.0537
  240MPD1    C2 3640   2.010   1.109  14.258  0.1731 -0.1703  0.0408
  240MPD1    C3 3641   1.997   0.984  14.197 -0.0476 -0.1620 -0.3653
  240MPD1    C4 3642   1.982   0.971  14.062 -0.1706  0.2344 -0.3343
  240MPD1    C5 3643   1.976   1.084  13.992  0.0952  0.0025 -0.0584
  240MPD1     H 3644   2.006   1.115  14.366 -2.8701 -1.5433 -0.0017
  240MPD1    H1 3645   1.958   0.876  14.016  1.2894 -1.1560  1.7674
  240MPD1    H2 3646   2.010   1.290  13.963 -0.5352  0.0455  0.3090
  240MPD1    H3 3647   1.943   1.072  13.890 -1.1108 -1.5993  0.5048
  240MPD1     N 3648   2.004   0.872  14.286  0.4198  0.1081  0.1615
  240MPD1    H5 3649   1.999   0.884  14.387  3.7607 -1.6652  0.5236
  240MPD1    N1 3650   2.005   1.355  14.224  0.1750  0.0811  0.4190
  240MPD1    H6 3651   2.051   1.367  14.314  0.3136  1.1390  0.2107
  240MPD1    H7 3652   2.049   1.420  14.159  0.9665  0.8368  1.7108
  241MPD1     C 3653   1.755   0.732  15.199  0.1538  0.4474 -0.0809
  241MPD1    C1 3654   1.852   0.814  15.140 -1.1481 -0.1182 -0.1575
  241MPD1    C2 3655   1.884   0.779  15.007  0.1387 -0.2123  0.3857
  241MPD1    C3 3656   1.842   0.661  14.951  0.4670 -0.3350  0.2937
  241MPD1    C4 3657   1.758   0.578  15.022 -0.1860 -0.2989  0.4510
  241MPD1    C5 3658   1.707   0.619  15.144 -0.2650  0.1757 -0.4682
  241MPD1     H 3659   1.953   0.844  14.954  0.6311 -0.6474  0.4888
  241MPD1    H1 3660   1.724   0.484  14.980  0.6201 -0.1022 -0.6427
  241MPD1    H2 3661   1.726   0.765  15.299 -1.0001 -0.0740 -0.2414
  241MPD1    H3 3662   1.631   0.565  15.199 -1.0201  1.7310  0.0002
  241MPD1     N 3663   1.889   0.619  14.819  0.1964  0.3968  0.6286
  241MPD1    H5 3664   1.842   0.539  14.779 -0.3027  0.5093  0.9840
  241MPD1    N1 3665   1.882   0.945  15.189 -0.2456  0.6305 -0.5059
  241MPD1    H6 3666   1.878   0.955  15.291 -2.1070  0.3127 -0.5342
  241MPD1    H7 3667   1.969   0.979  15.150  0.5768 -0.5457  0.2803
  242MPD1     C 3668   1.754   4.215  15.445  0.2176  1.4705 -0.2425
  242MPD1    C1 3669   1.653   4.167  15.526 -0.1403 -0.1437 -0.0677
  242MPD1    C2 3670   1.645   4.028  15.532 -0.0370 -0.2821 -0.1063
  242MPD1    C3 3671   1.708   3.947  15.442  0.4471  0.5390  0.2211
  242MPD1    C4 3672   1.807   4.001  15.364  0.2509 -0.0808  0.2338
  242MPD1    C5 3673   1.828   4.134  15.366 -0.3574 -0.3075 -0.4692
  242MPD1     H 3674   1.576   3.984  15.604  1.0038 -0.2457  0.9231
  242MPD1    H1 3675   1.859   3.944  15.287 -0.2360  2.6774 -2.1225
  242MPD1    H2 3676   1.774   4.321  15.440  0.1711  1.3998 -1.7160
  242MPD1    H3 3677   1.901   4.178  15.298 -1.2650 -0.6537 -1.6651
  242MPD1     N 3678   1.686   3.807  15.434 -0.0590  0.2282 -0.6564
  242MPD1    H5 3679   1.756   3.748  15.391 -0.5683  0.3419 -1.6455
  242MPD1    N1 3680   1.591   4.252  15.617 -0.0652  0.2423  0.6461
  242MPD1    H6 3681   1.569   4.338  15.567 -0.0153 -0.4635 -0.6035
  242MPD1    H7 3682   1.501   4.215  15.644  0.4702 -1.2928  0.2970
  243MPD1     C 3683   2.556   2.144  17.561 -0.0268 -0.1609  0.2908
  243MPD1    C1 3684   2.638   2.055  17.607 -0.2577  0.0509  0.0015
  243MPD1    C2 3685   2.747   2.011  17.536  0.7719 -0.5039 -0.3357
  243MPD1    C3 3686   2.769   2.060  17.408 -0.5935 -0.3477 -0.0769
  243MPD1    C4 3687   2.686   2.159  17.363 -0.2740  1.0599  0.2284
  243MPD1    C5 3688   2.575   2.198  17.431  0.0581 -0.8973 -0.3920
  243MPD1     H 3689   2.823   1.949  17.581  1.8933  0.9107 -0.2788
  243MPD1    H1 3690   2.693   2.193  17.260  0.9078  0.4362  0.1056
  243MPD1    H2 3691   2.473   2.177  17.622 -1.1243 -0.1768 -1.1896
  243MPD1    H3 3692   2.497   2.262  17.392  0.4116 -0.7967 -0.9451
  243MPD1     N 3693   2.884   2.009  17.340 -0.4030  0.1948 -0.5374
  243MPD1    H5 3694   2.948   1.948  17.390 -0.1004  1.2491  0.3423
  243MPD1    N1 3695   2.639   2.026   0.037 -0.1676  0.1774  0.2089
  243MPD1    H6 3696   2.653   1.926   0.055 -2.9557 -0.2026  0.3645
  243MPD1    H7 3697   2.553   2.049   0.086 -1.6642 -1.0528 -1.7940
  244MPD1     C 3698   3.228   1.294  17.531 -0.7099 -0.1630  0.0663
  244MPD1    C1 3699   3.163   1.402  17.595 -0.5326 -0.7217 -1.1321
  244MPD1    C2 3700   3.159   1.533  17.535 -0.1499 -0.8582 -0.6036
  244MPD1    C3 3701   3.221   1.555  17.417  0.1366 -0.3436  0.2119
  244MPD1    C4 3702   3.287   1.450  17.353 -0.0280  0.1886  0.1843
  244MPD1    C5 3703   3.279   1.323  17.402  0.1068  0.3911 -0.0446
  244MPD1     H 3704   3.120   1.618  17.590 -0.1449 -2.1321  1.3670
  244MPD1    H1 3705   3.336   1.468  17.257  0.5962 -0.2230  0.4274
  244MPD1    H2 3706   3.239   1.201  17.585  0.5172  0.9186  1.6862
  244MPD1    H3 3707   3.332   1.240  17.355 -2.0063 -0.9904  0.0212
  244MPD1     N 3708   3.220   1.685  17.362  0.4860  0.1447 -0.6609
  244MPD1    H5 3709   3.169   1.750  17.421  2.1081  1.9195 -1.2169
  244MPD1    N1 3710   3.114   1.381   0.019 -0.1343  0.2480 -0.0536
  244MPD1    H6 3711   3.079   1.287   0.038  2.4208 -0.7048 -0.0892
  244MPD1    H7 3712   3.025   1.429   0.032 -0.2124 -0.6424  2.5607
  245MPD1     C 3713   4.652   2.576  13.373  0.0023 -0.3492  0.4184
  245MPD1    C1 3714   4.631   2.633  13.496  0.3924  0.1378  0.0369
  245MPD1    C2 3715   4.708   2.754  13.528 -0.0638 -0.8720  0.6158
  245MPD1    C3 3716   0.071   2.806  13.435  0.6608  0.1782 -0.1931
  245MPD1    C4 3717   0.083   2.742  13.311 -0.7032  0.7520 -0.2533
  245MPD1    C5 3718   0.013   2.627  13.282 -0.0948 -0.1311  0.1854
  245MPD1     H 3719   4.697   2.789  13.630  0.1751 -4.1474  1.7464
  245MPD1    H1 3720   0.144   2.791  13.236  1.0745 -2.3285 -0.8352
  245MPD1    H2 3721   4.594   2.489  13.345 -1.0744 -0.5598  3.3040
  245MPD1    H3 3722   0.029   2.589  13.182  1.2621  0.0636  0.3311
  245MPD1     N 3723   0.143   2.925  13.470 -0.6394 -0.5632 -0.1770
  245MPD1    H5 3724   0.140   2.956  13.566  0.6781  2.6870 -1.1809
  245MPD1    N1 3725   4.533   2.584  13.582 -0.1066  0.3222 -0.1432
  245MPD1    H6 3726   4.510   2.486  13.566  2.0798 -0.2902  0.5428
  245MPD1    H7 3727   4.553   2.603  13.680  1.6482 -1.4435 -0.1692
  246MPD1     C 3728   1.171   0.980  10.172  0.3958  0.0035 -0.2206
  246MPD1    C1 3729   1.161   0.965  10.031 -0.0884 -0.1266 -0.1463
  246MPD1    C2 3730   1.209   1.069   9.947 -0.1461 -0.0762 -0.2000
  246MPD1    C3 3731   1.277   1.173  10.004  0.2199  0.1357 -0.2623
  246MPD1    C4 3732   1.277   1.187  10.141  0.7662  0.3294 -0.5102
  246MPD1    C5 3733   1.223   1.091  10.223 -0.2896  0.2159  0.2567
  246MPD1     H 3734   1.205   1.059   9.839 -0.4814  1.8604 -0.3698
  246MPD1    H1 3735   1.332   1.263  10.195  2.3141 -2.0342  1.2273
  246MPD1    H2 3736   1.138   0.901  10.239 -1.5595  2.1340  1.3353
  246MPD1    H3 3737   1.237   1.102  10.330  1.6837 -1.2817  0.1559
  246MPD1     N 3738   1.335   1.265   9.919  0.8093  0.0177 -0.4121
  246MPD1    H5 3739   1.323   1.259   9.818 -0.7642  2.4621 -0.3760
  246MPD1    N1 3740   1.087   0.856   9.987  0.1343 -0.4252  0.3328
  246MPD1    H6 3741   1.119   0.821   9.897 -1.7022  1.5158 -1.0706
  246MPD1    H7 3742   1.095   0.781  10.056  0.6788 -1.9057 -1.3292
  247MPD1     C 3743   4.330   3.733  16.139 -0.0348 -0.6484 -0.1491
  247MPD1    C1 3744   4.258   3.713  16.256 -0.1421  0.6965 -0.2842
  247MPD1    C2 3745   4.285   3.599  16.328 -0.7793 -0.3394  0.6306
  247MPD1    C3 3746   4.379   3.507  16.285 -0.0551 -0.6076 -0.1833
  247MPD1    C4 3747   4.444   3.528  16.164  0.0698  0.5982 -0.1447
  247MPD1    C5 3748   4.411   3.636  16.089  0.0720  0.2835  0.2324
  247MPD1     H 3749   4.244   3.583  16.427  0.0957 -0.4623  0.9741
  247MPD1    H1 3750   4.501   3.455  16.108 -1.4539 -0.4772 -0.2888
  247MPD1    H2 3751   4.312   3.821  16.079  0.7662  0.6922  1.5903
  247MPD1    H3 3752   4.448   3.647  15.988 -1.0367 -0.2757 -0.2241
  247MPD1     N 3753   4.406   3.380  16.335  0.2926 -0.2489 -0.3990
  247MPD1    H5 3754   4.452   3.312  16.276  2.3203  0.4021  0.3901
  247MPD1    N1 3755   4.186   3.811  16.314 -0.2144 -0.0451 -0.0930
  247MPD1    H6 3756   4.109   3.773  16.367 -1.0724  2.0840  0.1668
  247MPD1    H7 3757   4.134   3.863  16.244  0.5924  1.1938  0.2300
  248MPD1     C 3758   1.108   1.417   0.278  0.4273  0.2927  0.0905
  248MPD1    C1 3759   1.023   1.528   0.269  0.4293 -0.2621  0.3368
  248MPD1    C2 3760   0.931   1.540   0.372 -0.5074  0.1541 -0.1284
  248MPD1    C3 3761   0.918   1.452   0.481  0.7401 -0.0397 -0.0255
  248MPD1    C4 3762   1.012   1.356   0.491  0.0753  0.5246  0.1165
  248MPD1    C5 3763   1.099   1.335   0.392  0.4372  0.3014  0.6011
  248MPD1     H 3764   0.852   1.612   0.358 -0.7387  0.1771  1.2476
  248MPD1    H1 3765   1.012   1.297   0.582  0.8043  1.2306  0.5771
  248MPD1    H2 3766   1.174   1.388   0.197 -1.1838  2.4022 -1.9712
  248MPD1    H3 3767   1.165   1.250   0.387  0.5477  0.4466 -0.4346
  248MPD1     N 3768   0.813   1.484   0.571  0.0402 -0.0375  0.3248
  248MPD1    H5 3769   0.773   1.575   0.551 -1.0790 -0.4856  0.5598
  248MPD1    N1 3770   1.010   1.599   0.154 -0.6532 -0.9552 -0.0057
  248MPD1    H6 3771   0.935   1.667   0.163 -1.4575 -2.2178  2.8032
  248MPD1    H7 3772   0.996   1.538   0.074 -2.5750 -1.8155  0.9793
  249MPD1     C 3773   1.757   0.798  10.564 -0.4045  0.5437 -0.4931
  249MPD1    C1 3774   1.692   0.780  10.443  0.2035 -0.1534 -0.1601
  249MPD1    C2 3775   1.769   0.799  10.325 -0.1041  0.1594  0.2629
  249MPD1    C3 3776   1.901   0.842  10.331 -0.8404  0.0094  0.3495
  249MPD1    C4 3777   1.954   0.873  10.458 -0.1874  0.3950 -0.5907
  249MPD1    C5 3778   1.882   0.855  10.574  0.3446 -0.9667 -0.5519
  249MPD1     H 3779   1.730   0.776  10.227  2.4408  0.3014 -0.7876
  249MPD1    H1 3780   2.057   0.905  10.466 -0.6960  1.6700  0.8736
  249MPD1    H2 3781   1.706   0.778  10.658  0.2253 -2.7641 -0.8589
  249MPD1    H3 3782   1.923   0.874  10.672  2.3217 -0.5572 -1.4690
  249MPD1     N 3783   1.972   0.856  10.209  0.4889  0.5393 -0.3118
  249MPD1    H5 3784   1.931   0.816  10.126  1.3990 -0.5287 -0.2569
  249MPD1    N1 3785   1.566   0.722  10.447  0.2703 -0.6352 -0.0109
  249MPD1    H6 3786   1.520   0.739  10.358  0.1588  3.2082  0.7744
  249MPD1    H7 3787   1.510   0.752  10.527 -0.7432 -1.6030 -0.3568
  250MPD2     C 3788   3.774   1.247  12.971  0.3598  0.0463 -0.1229
  250MPD2    C1 3789   3.677   1.290  13.061 -0.3319 -0.7608 -0.0116
  250MPD2    C2 3790   3.562   1.225  13.067 -0.0009 -0.5873 -0.1144
  250MPD2    C3 3791   3.536   1.107  12.995 -0.3588 -0.1506  0.1063
  250MPD2    C4 3792   3.620   1.080  12.885 -0.3090  0.0896  0.1243
  250MPD2    C5 3793   3.732   1.155  12.882  0.4946  0.1874  0.0731
  250MPD2     H 3794   3.489   1.260  13.140  0.3474  1.9435 -0.9705
  250MPD2    H1 3795   3.614   0.994  12.820 -2.6090 -0.4375  1.0354
  250MPD2    H2 3796   3.872   1.289  12.954  0.1940  1.3686  2.2000
  250MPD2    H3 3797   3.797   1.135  12.797  0.7660 -0.2650  0.3931
  250MPD2     N 3798   3.419   1.039  13.002 -0.1492  0.4878  0.1948
  250MPD2    H5 3799   3.397   0.970  12.931  0.3182  0.8192 -0.2684
  250MPD2    N1 3800   3.705   1.410  13.138 -0.4775  0.6938 -0.3189
  250MPD2    H7 3801   3.801   1.444  13.137 -0.7150  1.3691 -1.1579
  251TMC3    C1 3802   3.685   1.581  13.290 -0.2815 -0.3140  0.4637
  251TMC3    C2 3803   3.605   1.685  13.332 -0.3170  0.6322 -0.1819
  251TMC3    C3 3804   3.671   1.785  13.390  0.0143  0.1846  0.7623
  251TMC3    C4 3805   3.824   1.574  13.308 -0.0075 -0.3991 -0.2795
  251TMC3    C5 3806   3.883   1.688  13.358 -0.1394  0.5574 -0.7295
  251TMC3    C6 3807   3.806   1.800  13.387 -0.2127  0.4292 -0.0449
  251TMC3     C 3808   3.620   1.482  13.211 -0.4772 -0.1431  0.1212
  251TMC3     O 3809   3.502   1.480  13.202  0.0259 -0.1297  0.0782
  251TMC3     H 3810   3.497   1.687  13.323 -0.3707  1.1544  0.4831
  251TMC3    H1 3811   3.885   1.487  13.288 -0.6374 -0.8340 -0.3012
  251TMC3    H2 3812   3.856   1.891  13.418 -1.6050  1.4865 -0.8813
  251TMC3    C7 3813   4.029   1.695  13.351 -0.1334 -0.1949  0.9192
  251TMC3    C8 3814   3.585   1.898  13.429 -0.0119 -0.4115 -0.5888
  251TMC3    O1 3815   4.093   1.592  13.360 -0.1479 -0.1116  0.1785
  251TMC3    O2 3816   3.479   1.866  13.479  0.5164  0.1207  0.0731
  252TMC3    C1 3817   3.504   1.854  10.112 -0.1206 -0.3196 -0.3724
  252TMC3    C2 3818   3.604   1.816  10.025 -0.2538 -0.0043 -0.3580
  252TMC3    C3 3819   3.595   1.690   9.982  0.7384  0.5169 -0.2831
  252TMC3    C4 3820   3.405   1.772  10.158 -0.1011 -0.2233 -0.2963
  252TMC3    C5 3821   3.400   1.647  10.107  0.4607  0.1246 -0.1952
  252TMC3    C6 3822   3.491   1.603  10.018 -0.0984 -0.4144  0.0635
  252TMC3     C 3823   3.551   1.968  10.190  0.2155 -0.2965 -1.0054
  252TMC3     O 3824   3.522   1.966  10.311 -0.1713 -0.3768  0.1881
  252TMC3     H 3825   3.676   1.891   9.993  0.8001 -0.9623 -0.1992
  252TMC3    H1 3826   3.337   1.805  10.236  0.9198 -1.2052  1.0216
  252TMC3    H2 3827   3.487   1.503   9.978  2.0991 -0.1567 -0.7991
  252TMC3    C7 3828   3.308   1.557  10.170  0.1872 -0.1111 -1.0922
  252TMC3    C8 3829   3.709   1.646   9.905 -0.7364  0.4129  0.3601
  252TMC3    O1 3830   3.272   1.581  10.285  0.2672  0.4712 -0.4037
  252TMC3    O2 3831   3.690   1.553   9.831 -0.1541  0.1469 -0.1525
  253MPD2     C 3832   0.195   1.555  15.490  0.8155 -0.4771 -0.2482
  253MPD2    C1 3833   0.116   1.632  15.565  0.5722 -0.6602 -0.1868
  253MPD2    C2 3834   0.159   1.684  15.683  0.1305  0.6367  0.0678
  253MPD2    C3 3835   0.278   1.645  15.731 -0.0836 -0.5767  0.7187
  253MPD2    C4 3836   0.362   1.557  15.662 -0.4109  0.5057  0.7055
  253MPD2    C5 3837   0.320   1.525  15.537 -0.0743  0.2309  0.1667
  253MPD2     H 3838   0.103   1.760  15.736 -0.0660  0.0001  0.7720
  253MPD2    H1 3839   0.462   1.536  15.698  0.1626  1.2779 -0.4465
  253MPD2    H2 3840   0.160   1.510  15.397 -0.2027 -1.5086  0.6380
  253MPD2    H3 3841   0.387   1.470  15.472  1.4160  2.2849 -0.0318
  253MPD2     N 3842   0.326   1.680  15.856  0.0730 -0.1652  0.1962
  253MPD2    H5 3843   0.385   1.611  15.900  0.0730 -1.2913 -1.5544
  253MPD2    N1 3844   4.710   1.668  15.537  0.9654 -0.0800  0.2942
  253MPD2    H7 3845   4.659   1.713  15.612  0.1240  0.0931 -0.3767
  254TMC3    C1 3846   0.303   1.762  16.081  0.4683  0.1494  0.1161
  254TMC3    C2 3847   0.281   1.875  16.161  0.2593 -0.4449 -0.6181
  254TMC3    C3 3848   0.270   1.867  16.294 -0.0646 -0.4130  0.0671
  254TMC3    C4 3849   0.318   1.640  16.142 -1.0752 -0.6267 -0.1972
  254TMC3    C5 3850   0.304   1.641  16.276 -0.4080  0.5155  0.3979
  254TMC3    C6 3851   0.289   1.748  16.360  0.0771 -0.1675  0.2772
  254TMC3     C 3852   0.286   1.781  15.935  0.4359 -0.3697  0.4403
  254TMC3     O 3853   0.203   1.869  15.908 -0.4452  0.4001  0.1883
  254TMC3     H 3854   0.287   1.972  16.113 -2.9811 -0.4200 -0.9877
  254TMC3    H1 3855   0.319   1.542  16.095  2.2884 -0.0466 -1.3123
  254TMC3    H2 3856   0.265   1.736  16.465  0.3220  1.0722  0.4745
  254TMC3    C7 3857   0.262   1.523  16.354 -0.3202  0.4307 -0.1168
  254TMC3    C8 3858   0.153   1.930  16.348  0.2272 -0.1216  0.7151
  254TMC3    O1 3859   0.325   1.503  16.460  0.1721 -0.4481 -0.1102
  254TMC3    O2 3860   0.129   1.911  16.470 -0.3105  0.5184 -0.0909
  255MPD2     C 3861   4.280   3.147  10.453 -0.4064  0.4207 -0.6290
  255MPD2    C1 3862   4.282   3.277  10.394  0.5322  0.3156  0.5087
  255MPD2    C2 3863   4.325   3.302  10.266  0.2706 -0.5810 -0.5906
  255MPD2    C3 3864   4.368   3.191  10.191 -0.6421  0.1361  0.4843
  255MPD2    C4 3865   4.370   3.068  10.246 -0.4853  0.2221  0.0183
  255MPD2    C5 3866   4.333   3.052  10.377 -0.3876  0.6467 -0.2793
  255MPD2     H 3867   4.327   3.401  10.220  0.1519 -0.7945 -1.0582
  255MPD2    H1 3868   4.408   2.985  10.187  1.7904 -0.5131  2.5195
  255MPD2    H2 3869   4.239   3.134  10.552 -1.7496 -2.0448 -1.5047
  255MPD2    H3 3870   4.336   2.949  10.412  2.5521  0.4167 -1.1754
  255MPD2     N 3871   4.406   3.211  10.058  0.3465  0.1861  0.0748
  255MPD2    H5 3872   4.420   3.309  10.036  0.8395 -0.2144 -1.4002
  255MPD2    N1 3873   4.214   3.382  10.457  0.0299  0.2091 -0.1417
  255MPD2    H7 3874   4.149   3.358  10.531 -0.8815  1.9866 -0.3554
  256TMC3    C1 3875   4.133   3.607  10.479 -0.2581  0.8198  0.1808
  256TMC3    C2 3876   4.169   3.741  10.496 -0.1747  0.3313 -0.0755
  256TMC3    C3 3877   4.063   3.829  10.498  0.3357  0.2664 -0.3405
  256TMC3    C4 3878   4.005   3.568  10.464 -0.8774  0.4040 -0.3847
  256TMC3    C5 3879   3.902   3.659  10.469 -0.4519 -0.3356  0.5692
  256TMC3    C6 3880   3.930   3.793  10.480 -0.4958  0.8326  1.0461
  256TMC3     C 3881   4.233   3.513  10.429  0.3525 -0.3583 -0.3016
  256TMC3     O 3882   4.333   3.572  10.387 -0.1109  0.6843 -0.3114
  256TMC3     H 3883   4.272   3.773  10.489 -0.0652  0.0105  0.0306
  256TMC3    H1 3884   3.980   3.463  10.453  0.6926  0.2130 -2.0503
  256TMC3    H2 3885   3.851   3.867  10.470 -1.7123 -0.8060 -1.5477
  256TMC3    C7 3886   3.765   3.617  10.433 -0.0053 -0.7331  0.1269
  256TMC3    C8 3887   4.109   3.965  10.475  0.7198 -0.0532  0.2118
  256TMC3    O1 3888   3.689   3.703  10.389 -0.3808  0.2748 -0.2913
  256TMC3    O2 3889   4.223   3.999  10.497  0.3499 -0.2032  0.1386
  257MPD2     C 3890   2.358   1.523  13.506 -0.4480 -0.0041  0.0277
  257MPD2    C1 3891   2.318   1.410  13.432 -0.2843 -0.3475 -0.4785
  257MPD2    C2 3892   2.300   1.293  13.500  0.2994 -0.2096  0.0241
  257MPD2    C3 3893   2.327   1.277  13.632  0.0697 -0.2049 -0.0703
  257MPD2    C4 3894   2.364   1.391  13.703  0.2500  0.1589 -0.3270
  257MPD2    C5 3895   2.386   1.510  13.638  0.5530 -0.2604  0.2322
  257MPD2     H 3896   2.264   1.208  13.444  1.6056 -0.5972 -0.2281
  257MPD2    H1 3897   2.387   1.400  13.809  0.8696 -1.2293 -0.3351
  257MPD2    H2 3898   2.393   1.611  13.453 -0.5449  0.1978  0.2982
  257MPD2    H3 3899   2.420   1.591  13.702 -2.1566  0.0023  1.3306
  257MPD2     N 3900   2.294   1.158  13.705 -0.1383  0.1562  0.6158
  257MPD2    H5 3901   2.247   1.092  13.645  1.8909 -0.9163  0.2108
  257MPD2    N1 3902   2.320   1.418  13.291  0.0571  0.0914 -0.1116
  257MPD2    H7 3903   2.334   1.513  13.260  0.8615 -0.5582 -1.7203
  258TMC3    C1 3904   2.291   1.002  13.882  0.8181  0.6719  0.4276
  258TMC3    C2 3905   2.198   0.935  13.801 -0.2469 -0.2936 -0.3563
  258TMC3    C3 3906   2.181   0.800  13.823 -0.2653 -0.3281 -0.0136
  258TMC3    C4 3907   2.372   0.939  13.972  0.3534 -0.6039 -0.1124
  258TMC3    C5 3908   2.352   0.807  13.990  0.0475 -0.1230 -0.3940
  258TMC3    C6 3909   2.261   0.739  13.918 -0.8914  0.1940 -0.0867
  258TMC3     C 3910   2.321   1.143  13.841  0.3065  0.6706  0.4191
  258TMC3     O 3911   2.391   1.210  13.914 -0.1250  0.2702 -0.3507
  258TMC3     H 3912   2.126   0.985  13.737 -0.3802  1.3965  1.1254
  258TMC3    H1 3913   2.448   0.995  14.026  0.0163 -0.8321  0.5941
  258TMC3    H2 3914   2.258   0.632  13.929  2.6706  0.4220  2.7439
  258TMC3    C7 3915   2.405   0.737  14.107  0.3112 -0.0327  0.3134
  258TMC3    C8 3916   2.063   0.736  13.775 -0.1648 -0.5606 -0.5074
  258TMC3    O1 3917   2.431   0.618  14.095 -0.5883  0.1839 -0.1611
  258TMC3    O2 3918   2.025   0.768  13.664  0.4718 -0.2228 -0.1023
  259MPD2     C 3919   1.175   2.787   0.999  0.4232  0.7052 -0.6243
  259MPD2    C1 3920   1.118   2.671   0.958  1.2622 -0.4373  0.2543
  259MPD2    C2 3921   1.161   2.613   0.843 -0.7569 -0.4824 -0.3030
  259MPD2    C3 3922   1.249   2.683   0.758 -0.1703 -0.1289  0.1350
  259MPD2    C4 3923   1.287   2.809   0.793  0.5699  0.1336 -0.2998
  259MPD2    C5 3924   1.252   2.855   0.916  0.6103  0.5546 -0.5498
  259MPD2     H 3925   1.130   2.514   0.813  1.0513 -0.3837 -2.5372
  259MPD2    H1 3926   1.336   2.877   0.725 -0.7357  0.3037 -1.0788
  259MPD2    H2 3927   1.163   2.822   1.101  0.0588 -2.4026  0.4249
  259MPD2    H3 3928   1.275   2.956   0.947  0.0383 -0.0926  2.0068
  259MPD2     N 3929   1.283   2.620   0.634 -0.9947 -0.9330 -0.2916
  259MPD2    H5 3930   1.226   2.543   0.600 -2.1215  0.2943 -1.2082
  259MPD2    N1 3931   1.010   2.623   1.038  0.4992 -0.0248  0.0068
  259MPD2    H7 3932   0.994   2.684   1.119 -0.9398 -0.7276  0.2414
  260TMC3    C1 3933   1.392   2.604   0.426  0.3139 -0.2110  0.3034
  260TMC3    C2 3934   1.511   2.630   0.360 -0.2645 -0.7276 -0.2052
  260TMC3    C3 3935   1.514   2.614   0.222 -0.8069 -0.6155 -0.5931
  260TMC3    C4 3936   1.283   2.555   0.361  0.4043  0.4250 -0.3142
  260TMC3    C5 3937   1.296   2.526   0.228  0.1069 -0.0043  0.1305
  260TMC3    C6 3938   1.407   2.560   0.157  0.0075  0.8214 -0.1502
  260TMC3     C 3939   1.386   2.664   0.554  0.6310 -0.0069 -0.2652
  260TMC3     O 3940   1.474   2.741   0.584  0.4998  0.3660 -0.2700
  260TMC3     H 3941   1.600   2.670   0.406  0.7808 -2.6044 -0.5765
  260TMC3    H1 3942   1.188   2.546   0.413 -0.0806 -0.1134 -1.2747
  260TMC3    H2 3943   1.390   2.532   0.054 -2.0985  0.2483  0.3351
  260TMC3    C7 3944   1.251   2.399   0.181 -0.4411 -0.1958  0.4052
  260TMC3    C8 3945   1.643   2.635   0.151  0.5715 -0.5686 -0.6146
  260TMC3    O1 3946   1.277   2.362   0.069 -0.8305  0.0028  0.0195
  260TMC3    O2 3947   1.729   2.699   0.209 -0.0788 -0.5600 -0.2456
  261MPD2     C 3948   2.835   1.004  12.564  0.2366  0.2530  0.3741
  261MPD2    C1 3949   2.920   1.080  12.640 -0.5410 -0.0786  0.4768
  261MPD2    C2 3950   2.920   1.213  12.612  0.6075 -0.4264 -0.1670
  261MPD2    C3 3951   2.843   1.272  12.516 -0.0878  0.3304 -0.4779
  261MPD2    C4 3952   2.760   1.189  12.437 -0.6399 -0.2284 -0.3031
  261MPD2    C5 3953   2.757   1.056  12.465 -0.8955  0.8268  0.1790
  261MPD2     H 3954   2.989   1.275  12.668 -1.4495  1.1309  0.6653
  261MPD2    H1 3955   2.694   1.235  12.364 -0.4151 -0.7427 -0.8271
  261MPD2    H2 3956   2.817   0.902  12.598 -1.3030  0.3613 -0.1035
  261MPD2    H3 3957   2.692   0.987  12.412  1.9289 -2.1622  0.6355
  261MPD2     N 3958   2.864   1.409  12.486  0.5542 -0.4999 -0.1536
  261MPD2    H5 3959   2.953   1.447  12.517 -0.2589  0.8460  0.4921
  261MPD2    N1 3960   2.992   1.035  12.755 -0.0308  0.2039 -0.2085
  261MPD2    H7 3961   3.053   1.099  12.806 -0.8749 -0.1700  1.2645
  262TMC3    C1 3962   2.871   1.589  12.330  0.7175 -1.2169  0.0315
  262TMC3    C2 3963   2.804   1.699  12.279  0.4138 -0.1942  0.0454
  262TMC3    C3 3964   2.878   1.794  12.219  0.3852  0.1751 -0.3937
  262TMC3    C4 3965   2.998   1.561  12.304  0.0394 -0.0739 -0.1745
  262TMC3    C5 3966   3.073   1.651  12.231 -0.1093 -0.1117 -0.6913
  262TMC3    C6 3967   3.012   1.773  12.199  0.0373  0.4778 -0.5227
  262TMC3     C 3968   2.797   1.483  12.392 -0.7162 -0.1515 -1.0278
  262TMC3     O 3969   2.693   1.455  12.330  0.7348 -0.1567 -0.4093
  262TMC3     H 3970   2.697   1.710  12.295  0.4320  1.6095 -1.1257
  262TMC3    H1 3971   3.046   1.469  12.336  3.5481  1.8850  0.1835
  262TMC3    H2 3972   3.066   1.854  12.149  0.7535 -0.6718 -1.6082
  262TMC3    C7 3973   3.178   1.591  12.154 -0.1265  0.4909 -0.3532
  262TMC3    C8 3974   2.825   1.927  12.206 -0.0973 -0.8289  0.6226
  262TMC3    O1 3975   3.250   1.511  12.210  0.2848  0.0539  0.4316
  262TMC3    O2 3976   2.908   2.013  12.219  0.6459  0.2109  0.2055
  263MPD2     C 3977   3.844   0.240  11.220  0.0871  0.1642 -1.0728
  263MPD2    C1 3978   3.902   0.355  11.253 -0.1171  0.2709  0.1011
  263MPD2    C2 3979   3.947   0.447  11.155 -0.2655  0.4109  0.5727
  263MPD2    C3 3980   3.929   0.413  11.025 -0.1401 -0.3350  0.3348
  263MPD2    C4 3981   3.873   0.289  10.987  0.2035 -0.1801  0.3585
  263MPD2    C5 3982   3.831   0.205  11.089 -0.4652 -0.1825 -0.2129
  263MPD2     H 3983   4.007   0.533  11.182  0.0227  0.1933  0.6371
  263MPD2    H1 3984   3.853   0.258  10.886 -2.3805  1.5127  0.3399
  263MPD2    H2 3985   3.798   0.163  11.282  0.7068  1.7488  1.3611
  263MPD2    H3 3986   3.782   0.109  11.071 -1.7218  0.2309  1.0689
  263MPD2     N 3987   4.006   0.484  10.922  0.3763  0.3932 -0.2182
  263MPD2    H5 3988   4.058   0.568  10.945  0.9160 -0.5118  1.8114
  263MPD2    N1 3989   3.950   0.369  11.388  0.3447  0.2053  0.6657
  263MPD2    H7 3990   3.963   0.282  11.439 -1.6534 -0.6127 -0.2248
  264TMC3    C1 3991   4.122   0.533  10.724  0.3956  0.3442 -0.5703
  264TMC3    C2 3992   4.157   0.654  10.776  0.1570 -0.1744  0.3158
  264TMC3    C3 3993   4.261   0.715  10.709  0.4571 -0.2655 -0.3277
  264TMC3    C4 3994   4.178   0.471  10.618 -0.7477  0.1536  0.1156
  264TMC3    C5 3995   4.283   0.535  10.556 -0.0155  0.0759 -0.2921
  264TMC3    C6 3996   4.324   0.658  10.600 -0.6185 -0.0297  0.6283
  264TMC3     C 3997   4.024   0.448  10.789  0.3155 -0.3589  0.2449
  264TMC3     O 3998   3.997   0.344  10.733  0.3040 -0.6234  0.3086
  264TMC3     H 3999   4.091   0.695  10.853 -1.7242 -2.2073 -0.2150
  264TMC3    H1 4000   4.146   0.374  10.582  1.6892 -0.6107  0.0033
  264TMC3    H2 4001   4.407   0.705  10.549  0.3480 -1.3539  0.9987
  264TMC3    C7 4002   4.365   0.453  10.473 -0.5197  0.3217  0.2275
  264TMC3    C8 4003   4.323   0.841  10.752 -0.1301  0.4437  0.1749
  264TMC3    O1 4004   4.367   0.335  10.488 -0.2558 -0.1322 -0.8171
  264TMC3    O2 4005   4.420   0.869  10.686  0.2342  0.1779 -0.2693
  265MPD2     C 4006   0.959   0.866  15.759 -0.2196 -0.0332  0.3954
  265MPD2    C1 4007   1.058   0.971  15.746 -0.0781  0.5398 -0.0130
  265MPD2    C2 4008   1.162   0.961  15.651  0.6950  0.3476  0.6047
  265MPD2    C3 4009   1.160   0.858  15.560  0.0897 -0.4777  0.4951
  265MPD2    C4 4010   1.065   0.750  15.576  0.5815  0.1922 -0.0401
  265MPD2    C5 4011   0.981   0.760  15.680 -0.5016 -0.6613  0.2142
  265MPD2     H 4012   1.231   1.044  15.649  1.0758 -0.0046 -1.0403
  265MPD2    H1 4013   1.070   0.656  15.522 -0.1483  1.0061 -1.5140
  265MPD2    H2 4014   0.877   0.871  15.830  0.8916 -0.3463  1.7017
  265MPD2    H3 4015   0.908   0.682  15.699 -1.5863  0.2192 -0.3366
  265MPD2     N 4016   1.232   0.864  15.437  0.2231 -0.0918  0.0217
  265MPD2    H5 4017   1.230   0.777  15.386  0.2250 -0.7313  1.1239
  265MPD2    N1 4018   1.046   1.088  15.822  0.2335  0.0222 -0.2221
  265MPD2    H7 4019   1.127   1.149  15.824  0.0232  0.3413 -1.4587
  266TMC3    C1 4020   0.951   1.251  15.969 -0.1870 -0.0176  0.1862
  266TMC3    C2 4021   1.070   1.276  16.030  0.5526  0.1294  0.0312
  266TMC3    C3 4022   1.090   1.406  16.072 -0.5009  0.3763  0.2166
  266TMC3    C4 4023   0.862   1.353  15.945  0.6281  0.0318  0.3912
  266TMC3    C5 4024   0.887   1.482  15.985  0.1000  0.5870  0.1671
  266TMC3    C6 4025   0.999   1.504  16.056  0.1379  0.2634  0.6096
  266TMC3     C 4026   0.940   1.125  15.900  0.3630  0.3405 -0.1281
  266TMC3     O 4027   0.825   1.091  15.882  0.4761 -0.0573  0.1190
  266TMC3     H 4028   1.136   1.193  16.055  1.9979  1.3386  0.1883
  266TMC3    H1 4029   0.774   1.333  15.886 -0.7348 -0.3444  2.5451
  266TMC3    H2 4030   1.020   1.608  16.079 -0.0487 -0.1234  2.4629
  266TMC3    C7 4031   0.794   1.582  15.943  0.5233  0.2884 -0.4226
  266TMC3    C8 4032   1.227   1.444  16.105 -0.8506  0.7291 -0.0291
  266TMC3    O1 4033   0.722   1.558  15.850 -0.5189  0.3188  0.3747
  266TMC3    O2 4034   1.308   1.350  16.097  0.4955  0.6533 -0.2109
  267MPD2     C 4035   3.891   2.825  17.625 -0.9219  0.0143  0.2196
  267MPD2    C1 4036   3.893   2.688  17.667  0.2681  0.0839 -0.0773
  267MPD2    C2 4037   3.868   2.597  17.563  0.7536  0.1067  0.1902
  267MPD2    C3 4038   3.860   2.640  17.428 -0.3962  0.0017 -0.3033
  267MPD2    C4 4039   3.863   2.773  17.392 -0.7679  0.0233  0.0930
  267MPD2    C5 4040   3.888   2.862  17.492  0.9985  0.2523 -0.0529
  267MPD2     H 4041   3.870   2.492  17.590  0.8114 -0.4107 -1.8218
  267MPD2    H1 4042   3.840   2.814  17.294  0.2302 -0.6444 -0.4241
  267MPD2    H2 4043   3.890   2.903  17.700  0.5180  1.6261 -1.4528
  267MPD2    H3 4044   3.891   2.969  17.474  1.2634  0.2773  0.1443
  267MPD2     N 4045   3.812   2.550  17.331 -0.5237 -0.3560  0.2194
  267MPD2    H5 4046   3.780   2.593  17.244 -1.8382 -0.4861  0.6306
  267MPD2    N1 4047   3.920   2.657   0.095  0.0960  0.8888  0.3233
  267MPD2    H7 4048   3.939   2.739   0.151  1.7064 -0.7797  2.1957
  268TMC3    C1 4049   3.970   2.522   0.288 -0.3137  0.8922  0.4173
  268TMC3    C2 4050   3.940   2.628   0.372 -0.3084  0.1106  0.1484
  268TMC3    C3 4051   3.982   2.628   0.502  0.1077 -0.3440  0.2463
  268TMC3    C4 4052   4.030   2.405   0.331 -0.4772 -0.0161  0.0400
  268TMC3    C5 4053   4.070   2.408   0.465  0.6607 -0.4132 -0.0566
  268TMC3    C6 4054   4.040   2.511   0.550 -0.1526 -0.3999 -0.4400
  268TMC3     C 4055   3.944   2.528   0.142 -0.0786  0.5471 -1.0721
  268TMC3     O 4056   3.934   2.422   0.080  0.2568  0.2992  0.0563
  268TMC3     H 4057   3.883   2.710   0.329 -0.6410  0.1587  0.6861
  268TMC3    H1 4058   4.053   2.326   0.260 -2.2065  0.7466 -1.3798
  268TMC3    H2 4059   4.062   2.496   0.656 -2.5624  1.3774  0.2987
  268TMC3    C7 4060   4.094   2.270   0.520 -0.8500  0.3468 -0.4410
  268TMC3    C8 4061   3.973   2.745   0.594  0.2242  0.4871  1.2831
  268TMC3    O1 4062   4.175   2.257   0.609 -0.8288 -0.0063  0.2326
  268TMC3    O2 4063   4.012   2.731   0.708  0.5298  0.1014  0.6597
  269MPD2     C 4064   3.816   1.598  15.850  0.8346 -0.5429 -0.4524
  269MPD2    C1 4065   3.679   1.615  15.836  0.2859  0.6570 -0.1587
  269MPD2    C2 4066   3.630   1.719  15.767  0.6412  0.0153 -0.6598
  269MPD2    C3 4067   3.718   1.818  15.710  0.3613 -0.5406 -0.8876
  269MPD2    C4 4068   3.856   1.798  15.715 -0.0148 -0.7647  0.1114
  269MPD2    C5 4069   3.902   1.688  15.783  0.0032 -0.3940 -0.2761
  269MPD2     H 4070   3.523   1.736  15.773  0.9866  2.1530 -0.6058
  269MPD2    H1 4071   3.923   1.872  15.673 -0.1939 -0.7032 -0.0693
  269MPD2    H2 4072   3.852   1.514  15.907  0.6065 -0.6944 -0.5309
  269MPD2    H3 4073   4.008   1.671  15.799 -0.7060 -2.8509  1.7467
  269MPD2     N 4074   3.661   1.942  15.661  0.2252  0.4014 -0.4030
  269MPD2    H5 4075   3.564   1.964  15.681  0.6801  1.2430  0.8737
  269MPD2    N1 4076   3.602   1.514  15.889  0.9738  1.0661 -0.2944
  269MPD2    H7 4077   3.656   1.438  15.927  1.9380  1.0813 -1.6544
  270TMC3    C1 4078   3.414   1.367  15.917  0.2167  0.5272  0.4863
  270TMC3    C2 4079   3.341   1.310  15.819  0.8042  0.4285 -0.2558
  270TMC3    C3 4080   3.313   1.170  15.821 -0.0218 -0.5215  0.6067
  270TMC3    C4 4081   3.482   1.291  16.004  0.0496  0.6255 -0.3628
  270TMC3    C5 4082   3.468   1.155  15.996 -0.4239 -0.2359 -0.1453
  270TMC3    C6 4083   3.387   1.091  15.906 -0.2726 -0.0198 -0.2547
  270TMC3     C 4084   3.467   1.500  15.891 -0.4949 -0.1812 -1.4735
  270TMC3     O 4085   3.385   1.569  15.833  0.1407  0.0488 -0.4507
  270TMC3     H 4086   3.288   1.376  15.751 -4.4335 -2.9672  0.5417
  270TMC3    H1 4087   3.559   1.339  16.063 -0.1689 -0.8025  1.0984
  270TMC3    H2 4088   3.381   0.982  15.904  0.3362 -0.0683  0.8263
  270TMC3    C7 4089   3.591   1.090  16.034 -0.3999 -0.5733  0.0996
  270TMC3    C8 4090   3.226   1.108  15.730 -0.6157  0.0162  0.2225
  270TMC3    O1 4091   3.692   1.154  16.011  0.2453  1.1054 -0.5140
  270TMC3    O2 4092   3.190   0.997  15.769  0.2683 -0.3367  0.1439
  271MPD2     C 4093   2.763   1.685  14.006  0.3762 -0.0294  0.4425
  271MPD2    C1 4094   2.686   1.596  14.090 -0.2202 -0.5954 -0.3280
  271MPD2    C2 4095   2.553   1.605  14.070 -0.7323 -0.3335  0.6684
  271MPD2    C3 4096   2.496   1.694  13.977 -0.0229  0.7182  0.6361
  271MPD2    C4 4097   2.569   1.774  13.896 -0.6254  0.3790  0.1939
  271MPD2    C5 4098   2.704   1.772  13.916 -0.1592  0.2377  0.0420
  271MPD2     H 4099   2.495   1.537  14.132 -1.8302  0.8966  1.0037
  271MPD2    H1 4100   2.528   1.842  13.821  2.1428  1.4456 -0.3601
  271MPD2    H2 4101   2.871   1.685  14.016  0.5089 -1.1645 -0.8717
  271MPD2    H3 4102   2.769   1.816  13.843  0.6887  0.9914  1.2580
  271MPD2     N 4103   2.362   1.721  13.963 -0.1998 -0.5102 -0.0123
  271MPD2    H5 4104   2.336   1.800  13.906 -1.5965  0.1888  1.6072
  271MPD2    N1 4105   2.739   1.493  14.172 -0.2058  0.4998  0.5623
  271MPD2    H7 4106   2.673   1.437  14.224  0.5029  0.8854  1.9158
  272TMC3    C1 4107   2.892   1.356  14.276  0.3802 -0.6370 -0.0328
  272TMC3    C2 4108   3.003   1.271  14.261  0.1464 -0.0392  0.5929
  272TMC3    C3 4109   3.045   1.191  14.360  0.3593 -0.0883 -0.0835
  272TMC3    C4 4110   2.844   1.373  14.405 -0.3137 -0.5389  0.6845
  272TMC3    C5 4111   2.899   1.290  14.503  0.0332 -0.1662 -0.7429
  272TMC3    C6 4112   2.994   1.192  14.487 -0.6415  0.1554  0.1787
  272TMC3     C 4113   2.873   1.455  14.178  0.2093  0.1238  0.4703
  272TMC3     O 4114   2.968   1.500  14.119  0.1250  0.1205 -0.3494
  272TMC3     H 4115   3.050   1.266  14.163  1.1059  0.6606  1.0136
  272TMC3    H1 4116   2.768   1.445  14.434 -0.7155 -0.9610  0.6703
  272TMC3    H2 4117   3.023   1.132  14.572 -2.1577 -1.4303 -0.4259
  272TMC3    C7 4118   2.848   1.308  14.633  0.2390 -0.0073 -0.0480
  272TMC3    C8 4119   3.179   1.148  14.333 -0.0342  0.6615 -0.3047
  272TMC3    O1 4120   2.725   1.311  14.642  0.1517  0.2109 -0.5953
  272TMC3    O2 4121   3.242   1.212  14.247  0.1195 -0.5451  0.0689
  273MPD2     C 4122   4.628   3.831  11.897  0.5414 -0.0318 -0.0111
  273MPD2    C1 4123   4.712   3.934  11.875 -0.0787 -0.0861 -0.3624
  273MPD2    C2 4124   4.712   4.000  11.753  0.0217 -0.5871 -0.2509
  273MPD2    C3 4125   4.638   3.956  11.645  0.1970 -0.2148  0.0797
  273MPD2    C4 4126   4.558   3.836  11.665  0.0958  0.2553 -0.0478
  273MPD2    C5 4127   4.555   3.780  11.789  0.2877  0.2500 -0.6807
  273MPD2     H 4128   0.044   4.090  11.744  0.7781 -1.1118 -0.4829
  273MPD2    H1 4129   4.489   3.790  11.596 -0.4149 -0.2006  0.7743
  273MPD2    H2 4130   4.630   3.775  11.990  2.9136  0.7214  0.3854
  273MPD2    H3 4131   4.496   3.693  11.818  1.9223 -0.6873 -0.1949
  273MPD2     N 4132   4.625   4.024  11.522 -0.0198  0.5663 -0.0152
  273MPD2    H5 4133   4.600   3.973  11.439  4.1166 -0.6254 -0.5058
  273MPD2    N1 4134   0.085   3.976  11.966  0.4114 -0.3655 -0.5947
  273MPD2    H7 4135   0.080   3.937  12.059 -0.2625 -0.3172 -0.6080
  274TMC3    C1 4136   4.671   4.209  11.373  0.0027 -0.1157  0.5735
  274TMC3    C2 4137   4.564   4.177  11.295 -0.0626 -0.3335  0.4818
  274TMC3    C3 4138   4.522   4.266  11.202  0.1143  0.2380  0.1620
  274TMC3    C4 4139   4.726   4.330  11.359  0.7963  0.4555  0.3796
  274TMC3    C5 4140   4.667   4.426  11.274  0.3551  0.4793 -0.9337
  274TMC3    C6 4141   4.563   4.395  11.195  0.0711 -1.0978  0.6065
  274TMC3     C 4142   4.676   4.150  11.504 -0.2130  0.3584  0.3520
  274TMC3     O 4143   4.718   4.223  11.592 -0.3033 -0.1301  0.3887
  274TMC3     H 4144   4.510   4.084  11.308 -0.5256  0.1252  1.8595
  274TMC3    H1 4145   0.089   4.354  11.412 -0.2397  2.8404  1.0732
  274TMC3    H2 4146   4.509   4.483  11.160 -0.3425 -0.2680  3.3137
  274TMC3    C7 4147   4.621   4.535  11.360  0.2005 -0.1936  0.1614
  274TMC3    C8 4148   4.390   4.231  11.143  0.6874 -0.7975  0.1707
  274TMC3    O1 4149   4.499   4.531  11.377  0.4200  0.5340  1.3022
  274TMC3    O2 4150   4.317   4.147  11.189  0.1551  0.0166 -0.1212
  275MPD2     C 4151   4.255   2.541  14.545  0.4940 -0.2760  0.3155
  275MPD2    C1 4152   4.196   2.493  14.660 -0.0406 -0.0933  0.8750
  275MPD2    C2 4153   4.081   2.416  14.646 -0.2414  0.2332  0.2546
  275MPD2    C3 4154   4.032   2.377  14.524 -0.0703  0.1772 -0.3179
  275MPD2    C4 4155   4.092   2.419  14.407 -0.1073 -0.2053 -0.6780
  275MPD2    C5 4156   4.198   2.509  14.420 -0.1881  0.1369  0.1479
  275MPD2     H 4157   4.041   2.386  14.742  1.4502 -1.0115  0.5826
  275MPD2    H1 4158   4.055   2.391  14.309  0.5217  0.1030 -1.0003
  275MPD2    H2 4159   4.345   2.600  14.535  1.0317 -1.1971 -0.3240
  275MPD2    H3 4160   4.246   2.554  14.335 -0.0402  1.4192  0.9184
  275MPD2     N 4161   3.911   2.304  14.514  0.1696  0.0727 -0.0877
  275MPD2    H5 4162   3.878   2.286  14.420 -0.8293  2.3375 -0.1645
  275MPD2    N1 4163   4.235   2.515  14.788  1.0733 -0.0124  0.2018
  275MPD2    H7 4164   4.182   2.470  14.863  0.2817  0.5469 -0.0188
  276TMC3    C1 4165   4.329   2.613  14.972 -0.5220 -0.1068  0.3706
  276TMC3    C2 4166   4.240   2.543  15.051  0.2678  0.4959 -0.2487
  276TMC3    C3 4167   4.245   2.561  15.180 -0.3159 -1.0040  0.0583
  276TMC3    C4 4168   4.423   2.696  15.034  0.0005  0.1503  0.9182
  276TMC3    C5 4169   4.422   2.708  15.172  0.5695 -0.4596  0.0262
  276TMC3    C6 4170   4.330   2.646  15.251 -0.4593 -0.1748 -0.0544
  276TMC3     C 4171   4.337   2.599  14.829 -0.6953 -0.0054 -0.1615
  276TMC3     O 4172   4.410   2.677  14.771  0.5840 -0.1229 -0.6008
  276TMC3     H 4173   4.172   2.469  15.010 -0.3567  0.1504  1.4211
  276TMC3    H1 4174   4.482   2.768  14.979  0.3228 -2.4957 -2.2075
  276TMC3    H2 4175   4.328   2.659  15.358 -1.2728  3.7273 -0.5421
  276TMC3    C7 4176   4.550   2.720  15.232  0.2388  0.4534 -0.1042
  276TMC3    C8 4177   4.217   2.441  15.243  0.0125 -0.0581 -0.5399
  276TMC3    O1 4178   4.556   2.784  15.336 -0.5290 -0.4900 -0.0218
  276TMC3    O2 4179   4.263   2.345  15.186  0.5815  0.0498  0.1658
  277MPD2     C 4180   1.603   1.133  13.640  0.1709  0.3086 -0.2945
  277MPD2    C1 4181   1.467   1.155  13.623  0.1365  0.0494 -0.2835
  277MPD2    C2 4182   1.395   1.204  13.730 -0.0292  0.1841  1.0055
  277MPD2    C3 4183   1.454   1.231  13.853 -0.3702 -0.1981 -0.2496
  277MPD2    C4 4184   1.590   1.215  13.869 -0.3845 -0.4755 -0.1149
  277MPD2    C5 4185   1.661   1.167  13.760 -0.9659  0.3879 -0.5091
  277MPD2     H 4186   1.287   1.210  13.722  0.0994  1.5846  0.4142
  277MPD2    H1 4187   1.650   1.260  13.946 -0.7211 -1.5249  0.7611
  277MPD2    H2 4188   1.663   1.086  13.563  0.8665  1.1837 -0.2715
  277MPD2    H3 4189   1.769   1.155  13.768 -1.2430 -1.2306  0.7979
  277MPD2     N 4190   1.367   1.276  13.956 -0.5448  0.4624 -0.1773
  277MPD2    H5 4191   1.272   1.286  13.921 -0.1124  0.3632 -1.3701
  277MPD2    N1 4192   1.405   1.104  13.507  0.6584 -0.3566  0.1805
  277MPD2    H7 4193   1.466   1.081  13.428 -0.1191  0.0358 -0.5288
  278TMC3    C1 4194   1.292   1.306  14.170  0.0805  0.3367 -0.3157
  278TMC3    C2 4195   1.268   1.215  14.270  0.2276 -0.6989 -0.4773
  278TMC3    C3 4196   1.142   1.158  14.276  0.2619 -0.4025  0.3272
  278TMC3    C4 4197   1.182   1.364  14.105 -0.5188  0.1334  0.1812
  278TMC3    C5 4198   1.058   1.316  14.127  0.2311  0.3156  0.8190
  278TMC3    C6 4199   1.039   1.206  14.202 -0.2171 -1.2179 -0.5096
  278TMC3     C 4200   1.398   1.266  14.086 -0.5998 -0.4125 -0.8146
  278TMC3     O 4201   1.503   1.246  14.148  0.4469 -0.3836 -0.3585
  278TMC3     H 4202   1.350   1.175  14.329 -1.0311  0.7318  2.2295
  278TMC3    H1 4203   1.192   1.459  14.054 -1.6870 -0.4592 -1.1590
  278TMC3    H2 4204   0.947   1.150  14.206 -2.0561  1.9155  1.0562
  278TMC3    C7 4205   0.981   1.333  14.003 -0.1534  0.0183 -0.1539
  278TMC3    C8 4206   1.148   1.016  14.316 -0.0499  0.0666  0.2719
  278TMC3    O1 4207   1.042   1.357  13.897 -0.0741 -0.1680 -0.3578
  278TMC3    O2 4208   1.215   0.996  14.417 -0.0825 -0.3212 -0.1361
  279MPD2     C 4209   0.595   0.634   0.797  0.4017  0.0877  0.3937
  279MPD2    C1 4210   0.537   0.740   0.733 -0.3569  0.1478 -0.1493
  279MPD2    C2 4211   0.562   0.764   0.602 -0.0438 -0.7193 -0.4719
  279MPD2    C3 4212   0.644   0.683   0.530  0.1432 -0.0692  0.1077
  279MPD2    C4 4213   0.709   0.583   0.597  0.3742 -0.9063 -0.9401
  279MPD2    C5 4214   0.678   0.559   0.728 -0.2526 -0.3952 -0.2204
  279MPD2     H 4215   0.517   0.852   0.556 -0.5656  0.5725  2.5132
  279MPD2    H1 4216   0.789   0.522   0.556  0.1856 -2.6396  1.2617
  279MPD2    H2 4217   0.572   0.605   0.899  0.0642 -1.9985 -0.2622
  279MPD2    H3 4218   0.720   0.466   0.764  0.7407  0.2446  0.2434
  279MPD2     N 4219   0.661   0.713   0.393  0.0035 -0.0551 -0.1933
  279MPD2    H5 4220   0.734   0.669   0.338  1.2845  0.7877  0.8514
  279MPD2    N1 4221   0.449   0.830   0.799  0.1192 -0.2181  0.0515
  279MPD2    H7 4222   0.415   0.914   0.753  0.8229  0.3389  0.5562
  280TMC3    C1 4223   0.288   0.910   0.946 -0.1833 -0.1209  0.7860
  280TMC3    C2 4224   0.166   0.847   0.955  0.6977 -0.1397 -0.2823
  280TMC3    C3 4225   0.063   0.893   0.884 -0.6770 -0.7605 -0.3245
  280TMC3    C4 4226   0.297   1.023   0.877 -0.1023  0.5587 -0.0244
  280TMC3    C5 4227   0.192   1.077   0.816  0.5533  0.2495 -0.7426
  280TMC3    C6 4228   0.071   1.010   0.810  0.2939  0.7741 -0.1151
  280TMC3     C 4229   0.387   0.809   0.927 -0.4724 -0.1261  0.3770
  280TMC3     O 4230   0.386   0.705   0.992  0.5345 -0.5554  0.1091
  280TMC3     H 4231   0.163   0.746   0.994 -1.1827 -0.0946 -0.3413
  280TMC3    H1 4232   0.398   1.061   0.871 -0.0419  0.8388  2.8676
  280TMC3    H2 4233   4.722   1.057   0.749  0.4301 -0.3765 -1.1571
  280TMC3    C7 4234   0.207   1.197   0.744  0.3128  0.1965  0.6223
  280TMC3    C8 4235   4.683   0.804   0.864 -0.1332 -0.4174  0.3923
  280TMC3    O1 4236   0.108   1.260   0.709 -0.4841 -0.4414  0.3411
  280TMC3    O2 4237   4.614   0.836   0.767  0.1480 -0.9514 -0.4046
  281TMC3    C1 4238   4.261   1.526  13.622 -0.6058 -0.8970 -0.3900
  281TMC3    C2 4239   4.370   1.600  13.574  0.2760  0.2902 -0.0207
  281TMC3    C3 4240   4.450   1.539  13.478  0.5892  0.0635 -0.3980
  281TMC3    C4 4241   4.237   1.398  13.582 -0.9234  0.6524 -0.5048
  281TMC3    C5 4242   4.321   1.351  13.482  0.4745 -0.4116 -0.2020
  281TMC3    C6 4243   4.419   1.420  13.421  0.1950 -0.1501 -0.1603
  281TMC3     C 4244   4.159   1.586  13.704 -1.0935 -0.4782  0.1356
  281TMC3     O 4245   4.104   1.523  13.792  0.2760 -0.1326  0.0191
  281TMC3     H 4246   4.394   1.696  13.619  0.7021  0.3587 -0.3947
  281TMC3    H1 4247   4.141   1.357  13.613 -1.5643  1.9460 -0.7827
  281TMC3    H2 4248   4.473   1.376  13.338 -1.2782  0.0492 -1.2281
  281TMC3    C7 4249   4.273   1.242  13.403  0.9305 -0.4938  0.2360
  281TMC3    C8 4250   4.565   1.604  13.420  0.1733 -0.2966 -0.5655
  281TMC3    O1 4251   4.329   1.215  13.297 -0.1572 -0.1883  0.0543
  281TMC3    O2 4252   4.666   1.536  13.421  0.2470  0.1798 -0.2258
  282MPD2     C 4253   1.375   3.106  15.428 -0.1308  0.3295  0.2252
  282MPD2    C1 4254   1.252   3.158  15.472 -0.1624  0.4397 -0.3768
  282MPD2    C2 4255   1.154   3.182  15.374 -0.0364  0.4315 -0.2592
  282MPD2    C3 4256   1.166   3.134  15.244 -0.4952 -0.0871 -0.2472
  282MPD2    C4 4257   1.295   3.086  15.207  0.5724 -0.0362  0.4361
  282MPD2    C5 4258   1.389   3.073  15.298 -0.3819  0.2007  0.3753
  282MPD2     H 4259   1.054   3.218  15.398  0.4124  1.6598 -0.2482
  282MPD2    H1 4260   1.315   3.057  15.104 -0.1976 -1.7970  0.7816
  282MPD2    H2 4261   1.462   3.077  15.487  1.2941  0.4890 -1.7981
  282MPD2    H3 4262   1.485   3.031  15.268  0.2885  0.5449  1.9889
  282MPD2     N 4263   1.057   3.138  15.159  0.0923 -0.6426 -0.1639
  282MPD2    H5 4264   0.983   3.201  15.187  1.7968  1.8939 -1.3867
  282MPD2    N1 4265   1.220   3.182  15.605  0.0597  0.2209  0.0678
  282MPD2    H7 4266   1.127   3.216  15.631  0.2194 -0.1525  1.1543
  283TMC3    C1 4267   1.255   3.217  15.832  0.5680 -0.2579  0.5756
  283TMC3    C2 4268   1.282   3.342  15.874  0.1001 -0.0822  0.6743
  283TMC3    C3 4269   1.226   3.380  15.991  0.2414  0.4868  0.2576
  283TMC3    C4 4270   1.171   3.130  15.891 -0.8601  0.0076  0.8222
  283TMC3    C5 4271   1.109   3.173  16.004 -0.0104 -0.3148  0.1976
  283TMC3    C6 4272   1.139   3.297  16.057 -0.1543  0.1549 -0.0572
  283TMC3     C 4273   1.313   3.180  15.706 -0.0607  0.5436 -0.8656
  283TMC3     O 4274   1.433   3.161  15.707  0.0241 -0.4506  0.1281
  283TMC3     H 4275   1.365   3.400  15.833 -1.6012  0.4331 -2.0686
  283TMC3    H1 4276   1.142   3.038  15.841 -1.2603  0.0003  1.0735
  283TMC3    H2 4277   1.087   3.329  16.147  0.9813 -3.0032  1.7340
  283TMC3    C7 4278   1.004   3.092  16.054 -0.6844  0.6643 -0.6221
  283TMC3    C8 4279   1.207   3.524  16.011 -0.0305 -0.0947  0.0909
  283TMC3    O1 4280   0.911   3.148  16.106  0.0563 -0.0101  0.3557
  283TMC3    O2 4281   1.152   3.552  16.117  0.3257 -0.5890 -0.4471
  284MPD2     C 4282   4.606   2.026  11.826 -0.4941 -0.4343 -0.8452
  284MPD2    C1 4283   4.542   2.017  11.703  0.3942  0.0947  0.7274
  284MPD2    C2 4284   4.421   1.950  11.699 -0.3991  0.1841  0.2509
  284MPD2    C3 4285   4.367   1.893  11.815  0.2434 -0.7865  0.1559
  284MPD2    C4 4286   4.436   1.899  11.934 -0.0462 -0.1667  0.5981
  284MPD2    C5 4287   4.551   1.973  11.940 -0.0986 -0.2589  0.2159
  284MPD2     H 4288   4.370   1.941  11.604  1.0877  0.6799 -0.5987
  284MPD2    H1 4289   4.396   1.849  12.022 -1.8629  0.0004 -0.1332
  284MPD2    H2 4290   4.707   2.064  11.838 -1.0075 -0.4998  3.6761
  284MPD2    H3 4291   4.620   1.974  12.024  0.6273 -1.7973 -0.3613
  284MPD2     N 4292   4.249   1.819  11.820 -0.3309 -0.2846  0.8381
  284MPD2    H5 4293   4.223   1.795  11.916 -1.6999  0.5669  0.6760
  284MPD2    N1 4294   4.599   2.081  11.591  0.4807  0.4254 -0.4565
  284MPD2    H7 4295   4.559   2.063  11.499 -1.7977  2.0003  0.2367
  285TMC3    C1 4296   0.044   2.175  11.456  0.0834 -0.3293  0.0237
  285TMC3    C2 4297   4.690   2.160  11.350 -0.9516 -0.3036 -0.4513
  285TMC3    C3 4298   0.016   2.195  11.227 -0.8561 -0.1907  0.1923
  285TMC3    C4 4299   0.176   2.219  11.441 -0.9915 -0.3610  0.0130
  285TMC3    C5 4300   0.225   2.258  11.321 -0.5532  0.0361 -0.1946
  285TMC3    C6 4301   0.138   2.252  11.215  0.4497 -0.1748  0.7192
  285TMC3     C 4302   4.719   2.148  11.588  0.2164 -0.2022 -0.4388
  285TMC3     O 4303   0.063   2.181  11.681 -0.2855  0.2905 -0.1116
  285TMC3     H 4304   4.583   2.142  11.351 -1.0137  0.4319  2.8725
  285TMC3    H1 4305   0.244   2.205  11.524 -1.0317  1.7746  0.4085
  285TMC3    H2 4306   0.171   2.259  11.111  0.4613 -0.9899  0.6712
  285TMC3    C7 4307   0.367   2.294  11.308  0.2259  0.1415  0.3208
  285TMC3    C8 4308   4.690   2.128  11.115 -0.5303 -0.0634  0.0537
  285TMC3    O1 4309   0.419   2.345  11.407  0.2034 -0.3719  0.1777
  285TMC3    O2 4310   4.631   2.026  11.143  0.7071  0.9531  0.1477
  286MPD2     C 4311   4.168   0.245   2.267  0.6096  0.8362 -0.7173
  286MPD2    C1 4312   4.150   0.273   2.130  0.9778 -0.1759 -0.4926
  286MPD2    C2 4313   4.220   0.206   2.036 -0.7909  0.4637  0.3114
  286MPD2    C3 4314   4.318   0.113   2.066 -1.2225 -0.1904 -0.4241
  286MPD2    C4 4315   4.348   0.084   2.199  0.0106  0.2003 -0.2797
  286MPD2    C5 4316   4.263   0.143   2.297  0.1251  0.4943  0.2829
  286MPD2     H 4317   4.193   0.226   1.932 -0.8782 -0.0320  0.2417
  286MPD2    H1 4318   4.422   0.013   2.233  0.7249  0.8175 -0.5297
  286MPD2    H2 4319   4.103   0.286   2.343 -2.1807  0.6579 -2.9864
  286MPD2    H3 4320   4.279   0.122   2.402 -1.1444  0.7014  0.5152
  286MPD2     N 4321   4.396   0.057   1.970  0.3851 -0.0926  0.4495
  286MPD2    H5 4322   4.487   0.018   1.991  1.5050  0.7147 -2.9058
  286MPD2    N1 4323   4.054   0.368   2.081 -0.1060  0.6589  0.0455
  286MPD2    H7 4324   4.069   0.384   1.982 -0.6696 -1.2930 -0.3594
  287TMC3    C1 4325   4.450   4.707   1.748 -0.1447 -0.0624 -0.2399
  287TMC3    C2 4326   4.395   4.673   1.624  0.2908 -0.0319 -0.3578
  287TMC3    C3 4327   4.486   4.664   1.523  0.4894 -0.4846  0.6125
  287TMC3    C4 4328   4.579   0.010   1.765  0.5418 -0.3771 -0.2778
  287TMC3    C5 4329   4.657   4.697   1.667 -0.7753 -0.0976 -0.9263
  287TMC3    C6 4330   4.617   4.658   1.547  0.5629 -0.3361  0.4475
  287TMC3     C 4331   4.354   0.048   1.835  0.0533  0.3262  0.2264
  287TMC3     O 4332   4.246   0.068   1.785  0.0497  0.1693 -0.6599
  287TMC3     H 4333   4.288   4.660   1.612  0.3253  1.5360 -2.3293
  287TMC3    H1 4334   4.628   0.042   1.856 -2.5015  1.7558  0.6075
  287TMC3    H2 4335   4.687   4.648   1.465 -0.3006 -3.0696  0.0593
  287TMC3    C7 4336   0.080   4.715   1.681  0.3099  0.3142  0.1228
  287TMC3    C8 4337   4.438   4.663   1.383  0.3188  0.1101  0.6741
  287TMC3    O1 4338   0.116   0.031   1.788  0.0235 -0.2046 -0.0079
  287TMC3    O2 4339   4.332   4.610   1.357 -0.0744 -0.6739 -0.3939
  288TMC3    C1 4340   1.495   0.988  14.613 -0.0446 -0.8635 -0.3880
  288TMC3    C2 4341   1.398   0.952  14.699  0.1836  0.9008 -0.1139
  288TMC3    C3 4342   1.336   1.050  14.771 -0.9710 -0.0585  0.0798
  288TMC3    C4 4343   1.523   1.130  14.588 -0.2404 -0.1963  0.3819
  288TMC3    C5 4344   1.444   1.216  14.658  0.1470  0.2908 -0.4520
  288TMC3    C6 4345   1.356   1.184  14.756  0.2406 -0.2785 -0.2928
  288TMC3     C 4346   1.531   0.883  14.524 -0.2081  0.3193  0.3061
  288TMC3     O 4347   1.503   0.764  14.543 -0.5999  0.0909  0.0510
  288TMC3     H 4348   1.374   0.847  14.715 -0.8004  1.1639  0.1319
  288TMC3    H1 4349   1.613   1.155  14.533 -0.9474 -0.3613 -0.8617
  288TMC3    H2 4350   1.309   1.268  14.806  0.9674  0.5353 -0.9787
  288TMC3    C7 4351   1.460   1.355  14.614  0.4138  0.1103 -0.5625
  288TMC3    C8 4352   1.235   1.034  14.875 -0.9091 -0.1095 -1.2002
  288TMC3    O1 4353   1.392   1.438  14.670 -0.1284  0.1439 -0.0651
  288TMC3    O2 4354   1.243   1.117  14.961  0.3599  0.9054 -0.0073
  289MPD2     C 4355   1.669   0.108  14.637 -0.6038 -0.0507  0.5798
  289MPD2    C1 4356   1.657   0.201  14.542  1.2754  0.7981  0.1272
  289MPD2    C2 4357   1.532   0.207  14.478  0.8193 -0.1113  0.4914
  289MPD2    C3 4358   1.430   0.120  14.506  0.8042  0.5298  0.5031
  289MPD2    C4 4359   1.452   0.014  14.598 -0.6205  0.7314 -0.5444
  289MPD2    C5 4360   1.571   0.018  14.668  0.1185 -0.0515  0.5910
  289MPD2     H 4361   1.519   0.293  14.413  0.7728 -1.2614 -1.0054
  289MPD2    H1 4362   1.385   4.660  14.622 -1.4417  0.1373 -4.9779
  289MPD2    H2 4363   1.764   0.096  14.689 -0.9652 -2.5471  0.6655
  289MPD2    H3 4364   1.585   4.667  14.741  0.3718  0.0171  0.6147
  289MPD2     N 4365   1.299   0.131  14.458 -0.4641  0.4849  0.2253
  289MPD2    H5 4366   1.237   0.090  14.527 -0.4532  0.1253  0.0238
  289MPD2    N1 4367   1.760   0.295  14.517 -0.0350  0.2757 -0.2347
  289MPD2    H7 4368   1.847   0.286  14.568 -0.3267 -1.9129 -0.0943
  290TMC3    C1 4369   1.115   0.188  14.344 -0.7826  0.5447 -0.2646
  290TMC3    C2 4370   1.027   0.296  14.324  0.4750  0.0582 -0.1543
  290TMC3    C3 4371   0.907   0.266  14.272 -0.3346  0.1047 -0.5770
  290TMC3    C4 4372   1.081   0.061  14.325  0.7232 -0.7031 -0.1151
  290TMC3    C5 4373   0.960   0.032  14.271  0.1029  1.0265 -0.7322
  290TMC3    C6 4374   0.872   0.134  14.247 -0.0622 -0.9597 -0.8398
  290TMC3     C 4375   1.254   0.209  14.357 -0.7287 -0.6489  0.3343
  290TMC3     O 4376   1.314   0.279  14.278 -0.3595 -0.7022 -0.0342
  290TMC3     H 4377   1.054   0.400  14.337 -2.4013  0.8532 -0.4518
  290TMC3    H1 4378   1.165   4.721  14.331 -0.1798 -1.7823  0.4438
  290TMC3    H2 4379   0.790   0.114  14.179 -0.5760  1.0415 -0.8052
  290TMC3    C7 4380   0.984   4.672  14.162  0.0356  0.3209 -0.7270
  290TMC3    C8 4381   0.801   0.369  14.251 -0.1008 -0.4776 -0.5585
  290TMC3    O1 4382   0.950   4.711  14.049  0.2983  0.5001 -0.4161
  290TMC3    O2 4383   0.703   0.331  14.196 -0.0654  0.1602  0.0196
  291MPD2     C 4384   0.368   4.523   0.480  0.0152 -0.9726 -0.1530
  291MPD2    C1 4385   0.376   4.391   0.435 -0.1404 -0.0158 -0.0544
  291MPD2    C2 4386   0.498   4.328   0.411 -0.1600  0.7991  0.7108
  291MPD2    C3 4387   0.618   4.396   0.444  0.1321 -0.2620  0.2767
  291MPD2    C4 4388   0.606   4.527   0.490  0.2809 -0.2535  0.2322
  291MPD2    C5 4389   0.487   4.584   0.513  0.4576 -1.2444  0.2455
  291MPD2     H 4390   0.489   4.238   0.351  1.5292  0.1427  1.4469
  291MPD2    H1 4391   0.694   4.583   0.520 -2.4625  4.3787 -0.4090
  291MPD2    H2 4392   0.274   4.575   0.494 -0.3051 -1.0441 -2.0427
  291MPD2    H3 4393   0.492   4.688   0.545 -1.0740 -1.7090  1.9995
  291MPD2     N 4394   0.748   4.345   0.423  0.0010  0.5720  0.1960
  291MPD2    H5 4395   0.817   4.412   0.455 -0.6412  0.8980  0.8934
  291MPD2    N1 4396   0.257   4.315   0.414  0.3299  0.0780 -0.2044
  291MPD2    H7 4397   0.270   4.234   0.353 -2.0696  1.8800 -3.1433
  292TMC3    C1 4398   0.037   4.255   0.428  0.7060  0.1726  0.0182
  292TMC3    C2 4399   4.644   4.261   0.494 -0.7277 -0.4783  0.2203
  292TMC3    C3 4400   4.550   4.168   0.467 -0.4796  1.0672  0.0310
  292TMC3    C4 4401   0.048   4.177   0.314  0.4718  0.0295  0.1160
  292TMC3    C5 4402   4.673   4.089   0.283 -0.2920  0.4152  0.2946
  292TMC3    C6 4403   4.560   4.086   0.359  0.2515 -0.4856  0.3946
  292TMC3     C 4404   0.131   4.359   0.455  0.0563  0.5370 -0.1429
  292TMC3     O 4405   0.086   4.449   0.529  0.0397  0.4898 -0.1108
  292TMC3     H 4406   4.621   4.329   0.575  0.7859  0.6845 -0.3373
  292TMC3    H1 4407   0.134   4.169   0.248  2.4934  2.1024  2.5300
  292TMC3    H2 4408   4.492   4.004   0.339 -0.6675  0.6409 -1.0810
  292TMC3    C7 4409   4.689   3.998   0.175  0.0923  0.4273 -0.3633
  292TMC3    C8 4410   4.472   4.122   0.583 -0.2993 -0.0537 -0.8031
  292TMC3    O1 4411   0.071   3.980   0.123 -0.3159 -0.7168 -0.1481
  292TMC3    O2 4412   4.437   4.212   0.662 -0.3744 -0.5899  0.4091
  293MPD2     C 4413   2.576   1.096  12.840 -0.6410 -0.0633  0.0224
  293MPD2    C1 4414   2.494   1.023  12.923  0.5241 -0.3606 -0.3286
  293MPD2    C2 4415   2.529   1.026  13.055 -0.1621 -0.0008 -0.5316
  293MPD2    C3 4416   2.623   1.116  13.109 -0.1764  0.1787  0.6787
  293MPD2    C4 4417   2.702   1.198  13.023 -0.1262  0.2648  0.2973
  293MPD2    C5 4418   2.676   1.180  12.885  0.1453 -0.3422  0.2156
  293MPD2     H 4419   2.467   0.969  13.124  0.6354  1.6586  1.5575
  293MPD2    H1 4420   2.779   1.268  13.052 -2.7277  3.0862  0.3663
  293MPD2    H2 4421   2.563   1.092  12.732 -0.2872 -2.7757  0.0726
  293MPD2    H3 4422   2.731   1.245  12.818 -0.7012  0.6737  0.5087
  293MPD2     N 4423   2.629   1.129  13.251 -0.0142  0.3570 -0.2421
  293MPD2    H5 4424   2.562   1.074  13.304 -1.4635  2.0944 -0.2725
  293MPD2    N1 4425   2.383   0.946  12.872  0.2315  0.7361  0.8094
  293MPD2    H7 4426   2.392   0.940  12.771  1.6191 -1.7165  1.0907
  294TMC3    C1 4427   2.199   0.799  12.866 -0.0494  0.3808 -0.4412
  294TMC3    C2 4428   2.145   0.683  12.923 -0.4707  0.4721 -0.5231
  294TMC3    C3 4429   2.075   0.596  12.845 -0.1018 -0.5867  1.0576
  294TMC3    C4 4430   2.175   0.827  12.734 -0.8513  0.0549 -0.1499
  294TMC3    C5 4431   2.092   0.746  12.662  0.8377 -0.2365 -0.1267
  294TMC3    C6 4432   2.039   0.628  12.717 -0.5418  0.2727 -0.5217
  294TMC3     C 4433   2.285   0.884  12.942 -0.1829 -0.4020 -0.2302
  294TMC3     O 4434   2.262   0.885  13.062  0.2196  0.3862  0.9750
  294TMC3     H 4435   2.172   0.660  13.026 -1.9317  0.7467 -0.0705
  294TMC3    H1 4436   2.204   0.922  12.691  0.9490 -1.0225 -1.3487
  294TMC3    H2 4437   1.975   0.567  12.654  1.7994 -1.7799 -0.9424
  294TMC3    C7 4438   2.019   0.801  12.547 -0.7265 -0.4259 -0.1608
  294TMC3    C8 4439   2.089   0.460  12.884  0.5055  0.2926 -0.1225
  294TMC3    O1 4440   1.905   0.768  12.540  0.5992 -0.2975 -0.1388
  294TMC3    O2 4441   2.094   0.443  13.004  0.0819  0.0802 -0.4897
  295MPD2     C 4442   2.809   4.137  17.667  0.0109 -0.3069  1.0124
  295MPD2    C1 4443   2.871   4.244   0.024  0.0771  0.4603 -0.5965
  295MPD2    C2 4444   2.799   4.316   0.120 -0.6725 -0.4174  0.4140
  295MPD2    C3 4445   2.666   4.293   0.142 -0.3735 -0.0971 -1.1664
  295MPD2    C4 4446   2.606   4.186   0.086 -0.7031  0.5647  0.0642
  295MPD2    C5 4447   2.677   4.111  17.702 -0.5989  0.3273  0.2099
  295MPD2     H 4448   2.839   4.404   0.169 -1.0799  0.6202 -1.0942
  295MPD2    H1 4449   2.503   4.153   0.088 -1.0514  1.6714  0.1963
  295MPD2    H2 4450   2.862   4.075  17.595 -0.0522  0.0056  0.7021
  295MPD2    H3 4451   2.633   4.029  17.646  1.6110  0.6141 -1.9439
  295MPD2     N 4452   2.592   4.370   0.233 -0.3804 -0.8105  0.0460
  295MPD2    H5 4453   2.498   4.335   0.248 -0.8087  0.0738 -0.5303
  295MPD2    N1 4454   3.005   4.285  17.709 -0.2751 -0.8033 -0.2750
  295MPD2    H7 4455   3.021   4.384   0.016  1.1043 -0.7282 -2.0205
  296TMC3    C1 4456   2.522   4.545   0.365 -0.6112 -0.0569 -0.5924
  296TMC3    C2 4457   2.524   4.684   0.378  0.4360  0.1976 -0.6850
  296TMC3    C3 4458   2.461   0.012   0.485 -0.8281 -0.4920  0.0018
  296TMC3    C4 4459   2.468   4.467   0.458  0.4367 -0.3774  1.0748
  296TMC3    C5 4460   2.386   4.526   0.548 -0.7018  0.2430  0.2958
  296TMC3    C6 4461   2.378   4.664   0.563 -0.0165 -0.3970 -0.4323
  296TMC3     C 4462   2.617   4.496   0.274 -1.3282  0.3763 -0.0358
  296TMC3     O 4463   2.690   4.581   0.219  0.7326 -0.5120  0.1629
  296TMC3     H 4464   2.581   0.017   0.309  0.9633  0.8043  0.2780
  296TMC3    H1 4465   2.471   4.358   0.454 -1.9510 -0.3831 -0.3702
  296TMC3    H2 4466   2.311   4.714   0.632 -0.9684  0.4850 -2.0081
  296TMC3    C7 4467   2.289   4.429   0.614 -1.0100  0.6244 -0.4131
  296TMC3    C8 4468   2.462   0.164   0.513  0.3157  0.4036  0.4345
  296TMC3    O1 4469   2.331   4.317   0.625 -0.1921 -0.6155  0.6402
  296TMC3    O2 4470   2.505   0.235   0.425  0.0579  0.0667 -0.2330
  297MPD2     C 4471   0.333   1.874  17.013 -0.1181 -0.5079 -0.4505
  297MPD2    C1 4472   0.245   1.960  16.960 -0.3053 -0.2823  0.1497
  297MPD2    C2 4473   0.295   2.067  16.882 -0.2616 -0.2025 -0.7660
  297MPD2    C3 4474   0.434   2.085  16.866  0.3723  0.2286 -0.5179
  297MPD2    C4 4475   0.515   1.998  16.930  0.3032 -0.4482  0.4270
  297MPD2    C5 4476   0.466   1.888  16.996 -0.0288  0.1723 -0.6550
  297MPD2     H 4477   0.233   2.138  16.828 -0.7757  0.7343  1.0640
  297MPD2    H1 4478   0.622   2.011  16.931  0.2512 -0.0073  0.4088
  297MPD2    H2 4479   0.299   1.791  17.074  2.8574 -0.9360  0.6155
  297MPD2    H3 4480   0.541   1.826  17.045 -0.8889  0.6199  1.2552
  297MPD2     N 4481   0.477   2.193  16.784  0.0193 -0.5958 -0.0002
  297MPD2    H5 4482   0.407   2.241  16.729 -0.0701  0.2502  0.8523
  297MPD2    N1 4483   0.111   1.930  16.976 -0.1720  0.4865 -0.4608
  297MPD2    H7 4484   0.082   1.862  17.045 -1.6570 -0.1149 -1.6983
  298TMC3    C1 4485   4.601   1.944  16.963  0.1722 -0.1134 -0.2147
  298TMC3    C2 4486   4.507   1.899  16.868  0.0248  0.1333  0.1563
  298TMC3    C3 4487   4.394   1.862  16.928  0.3941 -0.2117 -0.1885
  298TMC3    C4 4488   4.580   1.973  17.093  0.1596 -0.2145  0.6502
  298TMC3    C5 4489   4.453   1.953  17.140  0.3593 -0.5660  0.1543
  298TMC3    C6 4490   4.364   1.887  17.060 -0.1706 -0.1292  0.1385
  298TMC3     C 4491   0.005   1.982  16.905  0.2303  0.0258  0.1313
  298TMC3     O 4492   0.015   2.035  16.795  0.3476 -0.5623  0.1625
  298TMC3     H 4493   4.544   1.880  16.767 -1.0138 -0.7580 -0.0497
  298TMC3    H1 4494   4.651   2.023  17.158 -0.7528 -0.9038  2.1624
  298TMC3    H2 4495   4.265   1.865  17.098 -1.2863  1.5892 -1.7387
  298TMC3    C7 4496   4.396   2.069  17.205  0.8008 -0.3597  0.0500
  298TMC3    C8 4497   4.285   1.870  16.836  0.1927  0.2999  0.0050
  298TMC3    O1 4498   4.469   2.145  17.269  0.4494  0.3034 -0.9906
  298TMC3    O2 4499   4.204   1.782  16.835  0.0964 -0.6428  0.3159
  299MPD2     C 4500   1.225   1.693  10.105 -0.2318 -0.0827  0.3057
  299MPD2    C1 4501   1.129   1.592  10.133  0.7076 -0.8744 -0.2500
  299MPD2    C2 4502   1.018   1.587  10.051  0.7497 -0.3791 -0.1677
  299MPD2    C3 4503   0.999   1.680   9.954 -0.9133 -0.7475  0.9093
  299MPD2    C4 4504   1.098   1.771   9.916 -0.2906  0.3333  0.0370
  299MPD2    C5 4505   1.213   1.772   9.996  0.2257 -0.8780  0.0280
  299MPD2     H 4506   0.934   1.523  10.077  1.2117 -0.9059  0.0231
  299MPD2    H1 4507   1.093   1.846   9.838 -1.1334  0.7037  0.4541
  299MPD2    H2 4508   1.315   1.702  10.166 -2.2722  0.1279  3.2633
  299MPD2    H3 4509   1.299   1.835   9.974 -0.3416  0.1655  0.7988
  299MPD2     N 4510   0.875   1.689   9.886 -0.2672 -0.4725 -0.6050
  299MPD2    H5 4511   0.863   1.769   9.824 -0.8389 -0.0262  0.0870
  299MPD2    N1 4512   1.146   1.515  10.253 -0.4853  0.5177  0.2801
  299MPD2    H7 4513   1.234   1.537  10.298  0.9176 -0.4167 -2.0091
  300TMC3    C1 4514   0.653   1.666   9.822  0.7401  0.2877  0.3449
  300TMC3    C2 4515   0.618   1.783   9.882 -0.4478  0.4916  0.1525
  300TMC3    C3 4516   0.483   1.825   9.883  0.3300  0.4721 -0.1011
  300TMC3    C4 4517   0.554   1.589   9.762 -0.0022  0.4704 -0.1374
  300TMC3    C5 4518   0.429   1.644   9.737  0.3454 -0.9644  0.4771
  300TMC3    C6 4519   0.393   1.762   9.797  0.7238  0.3257  0.7284
  300TMC3     C 4520   0.773   1.603   9.880 -0.3975 -0.1743 -0.6070
  300TMC3     O 4521   0.776   1.484   9.893 -0.0408  0.2364 -0.3538
  300TMC3     H 4522   0.700   1.831   9.935 -1.2794  1.0947  0.8867
  300TMC3    H1 4523   0.584   1.493   9.721 -3.4861 -1.2897  1.4646
  300TMC3    H2 4524   0.287   1.784   9.800  0.9170  1.4123 -0.7981
  300TMC3    C7 4525   0.333   1.539   9.742 -0.2115 -0.5351  0.0215
  300TMC3    C8 4526   0.423   1.828  10.013  0.5144  0.9137  0.2656
  300TMC3    O1 4527   0.335   1.461   9.648  0.0498  0.6169 -0.3890
  300TMC3    O2 4528   0.308   1.783  10.025  0.1566 -0.4525 -0.0073
  301MPD2     C 4529   1.902   2.586   1.671  1.2270  0.0560 -0.2236
  301MPD2    C1 4530   1.895   2.664   1.558  0.7524 -0.0636  0.4245
  301MPD2    C2 4531   1.973   2.633   1.451 -0.0590 -0.4173 -0.5140
  301MPD2    C3 4532   2.043   2.513   1.441  0.0262  0.4274  0.2942
  301MPD2    C4 4533   2.047   2.430   1.550  0.0226 -0.0934 -0.0150
  301MPD2    C5 4534   1.975   2.464   1.661  0.3973  0.5687  0.2642
  301MPD2     H 4535   1.969   2.699   1.365 -0.8709  2.1062  1.4536
  301MPD2    H1 4536   2.092   2.331   1.551 -0.3980 -0.3011 -1.6332
  301MPD2    H2 4537   1.842   2.598   1.760  1.0811  0.2270 -0.3446
  301MPD2    H3 4538   1.964   2.400   1.748 -0.1921  0.0346 -0.2103
  301MPD2     N 4539   2.125   2.473   1.332 -0.1784 -1.0105 -0.2461
  301MPD2    H5 4540   2.188   2.395   1.343  2.0110  0.4406 -2.5973
  301MPD2    N1 4541   1.818   2.786   1.557  0.0881  0.1177  0.2035
  301MPD2    H7 4542   1.818   2.835   1.468  1.4921  0.6630  0.5033
  302TMC3    C1 4543   2.175   2.436   1.104 -0.6763  0.0516  0.4262
  302TMC3    C2 4544   2.301   2.389   1.134  0.0461  0.3630 -0.3162
  302TMC3    C3 4545   2.375   2.343   1.027  0.2348  0.2335  0.0144
  302TMC3    C4 4546   2.121   2.427   0.985  0.4135 -0.3980 -0.2099
  302TMC3    C5 4547   2.193   2.374   0.881 -0.3684 -0.1939  0.6594
  302TMC3    C6 4548   2.327   2.339   0.896 -0.2639 -0.5655 -0.5850
  302TMC3     C 4549   2.106   2.514   1.206  0.3802  0.2914  0.0979
  302TMC3     O 4550   2.026   2.600   1.164 -0.1065  0.1469 -0.1614
  302TMC3     H 4551   2.347   2.391   1.233  0.5419  0.7886 -0.5548
  302TMC3    H1 4552   2.022   2.467   0.966  1.0300  1.0945 -0.2893
  302TMC3    H2 4553   2.391   2.310   0.813 -0.2431 -1.1893 -0.3508
  302TMC3    C7 4554   2.144   2.399   0.749 -0.2956  0.2474 -0.1245
  302TMC3    C8 4555   2.478   2.251   1.066  0.1547  0.3785  0.2057
  302TMC3    O1 4556   2.224   2.438   0.664 -0.4627  0.4826  0.3992
  302TMC3    O2 4557   2.453   2.180   1.162 -0.0290 -0.1703 -0.1232
  303MPD2     C 4558   3.036   1.256  10.761  0.0505  0.3514  0.0919
  303MPD2    C1 4559   3.004   1.162  10.668  0.0643  0.6434 -0.6945
  303MPD2    C2 4560   2.873   1.120  10.652  0.2702  0.6839  0.3268
  303MPD2    C3 4561   2.777   1.176  10.734 -0.9374  0.1872 -0.3733
  303MPD2    C4 4562   2.811   1.272  10.827 -0.8008 -0.3310  0.9400
  303MPD2    C5 4563   2.941   1.319  10.834  0.9011 -0.4282  0.3392
  303MPD2     H 4564   2.844   1.038  10.588 -1.6049  2.9532 -1.7081
  303MPD2    H1 4565   2.742   1.328  10.888 -0.1226  0.0306  1.3697
  303MPD2    H2 4566   3.136   1.298  10.768 -0.5855  1.8227  0.3198
  303MPD2    H3 4567   2.966   1.413  10.882  1.8315 -0.6969  0.3728
  303MPD2     N 4568   2.638   1.133  10.725 -0.2841  0.4366 -1.2078
  303MPD2    H5 4569   2.570   1.175  10.788 -1.6588  0.8182 -2.9485
  303MPD2    N1 4570   3.111   1.096  10.597 -0.2577  0.0347 -0.1020
  303MPD2    H7 4571   3.199   1.143  10.613 -0.4721  1.0050 -1.8903
  304TMC3    C1 4572   3.245   0.934  10.496  0.4943 -0.4009  0.2480
  304TMC3    C2 4573   3.343   0.957  10.590  0.1479 -0.3804 -0.0229
  304TMC3    C3 4574   3.441   0.861  10.610 -0.0325 -0.2511  0.2098
  304TMC3    C4 4575   3.246   0.823  10.417  0.6220 -0.8042  0.2348
  304TMC3    C5 4576   3.356   0.743  10.423  0.2789  0.3296  0.8569
  304TMC3    C6 4577   3.451   0.761  10.521 -0.7591 -0.7841  1.5422
  304TMC3     C 4578   3.109   0.983  10.519 -0.2540  0.0565 -0.2500
  304TMC3     O 4579   3.017   0.900  10.497 -0.4875  0.1441  0.1584
  304TMC3     H 4580   3.330   1.031  10.668 -1.7317 -0.3612 -0.3427
  304TMC3    H1 4581   3.158   0.810  10.354  0.5094  1.7545 -0.1492
  304TMC3    H2 4582   3.533   0.693  10.538  1.8900  1.8663 -0.7040
  304TMC3    C7 4583   3.308   0.603  10.423  0.3888  0.4126 -0.7200
  304TMC3    C8 4584   3.461   0.814  10.746 -0.2259 -0.9040  0.1217
  304TMC3    O1 4585   3.310   0.543  10.318  0.2618  0.1853  0.3421
  304TMC3    O2 4586   3.429   0.694  10.752 -0.0158  0.2746 -0.3776
  305MPD2     C 4587   1.154   3.348  14.087  0.9496  0.5672 -0.0248
  305MPD2    C1 4588   1.079   3.236  14.104 -0.3945 -0.6433 -0.1332
  305MPD2    C2 4589   1.025   3.183  13.987 -0.6592 -0.2053 -0.1686
  305MPD2    C3 4590   1.036   3.246  13.862  0.9512 -0.3308 -0.9271
  305MPD2    C4 4591   1.108   3.360  13.849  1.1865  0.1778  0.2455
  305MPD2    C5 4592   1.177   3.408  13.958  0.9946 -0.1377  0.2924
  305MPD2     H 4593   0.967   3.092  14.003 -2.5408  1.1757  0.8088
  305MPD2    H1 4594   1.125   3.410  13.755 -2.5302 -0.1857 -0.6199
  305MPD2    H2 4595   1.211   3.385  14.171 -0.0336 -1.3492  1.4827
  305MPD2    H3 4596   1.233   3.501  13.958 -0.5931  0.8194 -0.4595
  305MPD2     N 4597   0.983   3.196  13.746 -0.4867  0.7665 -0.5524
  305MPD2    H5 4598   0.994   3.257  13.666  0.1239  1.7283  0.2705
  305MPD2    N1 4599   1.075   3.178  14.235 -0.0969 -0.3854  0.0579
  305MPD2    H7 4600   1.135   3.221  14.304  0.0346  2.0563 -1.5752
  306TMC3    C1 4601   1.032   3.037  14.415  0.1320  0.4783  0.0994
  306TMC3    C2 4602   1.097   2.923  14.450 -0.3944  0.3996  0.0636
  306TMC3    C3 4603   1.148   2.937  14.574  0.1976 -0.3526 -0.1127
  306TMC3    C4 4604   1.031   3.157  14.485  0.2999 -0.1629 -0.4708
  306TMC3    C5 4605   1.089   3.158  14.605 -0.1627 -0.5000 -0.1627
  306TMC3    C6 4606   1.150   3.046  14.656 -0.4285 -0.4193 -1.0176
  306TMC3     C 4607   1.013   3.057  14.273  0.3179 -1.0516  0.1066
  306TMC3     O 4608   0.948   2.973  14.210 -0.7629 -0.0262  0.0391
  306TMC3     H 4609   1.098   2.839  14.380 -1.0117  0.4525 -0.0154
  306TMC3    H1 4610   0.988   3.251  14.453 -0.3449 -0.1299  0.4834
  306TMC3    H2 4611   1.189   3.036  14.757  1.7852  0.8588 -1.7516
  306TMC3    C7 4612   1.042   3.267  14.693 -0.5047  0.5188  0.0196
  306TMC3    C8 4613   1.220   2.815  14.629 -0.3019  0.3573  0.3629
  306TMC3    O1 4614   0.931   3.311  14.670 -0.3264  0.2159  0.0603
  306TMC3    O2 4615   1.332   2.829  14.680  0.1762  0.3717  0.3762
  307MPD2     C 4616   3.616   0.598   0.346 -0.2708  0.3159 -0.4811
  307MPD2    C1 4617   3.573   0.733   0.347  0.5636 -0.1796  0.3218
  307MPD2    C2 4618   3.473   0.786   0.426  0.5078 -0.0352  0.1681
  307MPD2    C3 4619   3.426   0.694   0.523 -0.4019 -0.1045 -0.7831
  307MPD2    C4 4620   3.474   0.567   0.525 -0.2739  0.7458 -0.3000
  307MPD2    C5 4621   3.569   0.519   0.438  0.5236 -1.0000 -0.1415
  307MPD2     H 4622   3.445   0.890   0.418 -2.3447 -0.7531  0.7553
  307MPD2    H1 4623   3.445   0.491   0.598 -0.1034 -0.1088 -1.1196
  307MPD2    H2 4624   3.711   0.566   0.305  0.7984 -0.6144  2.7044
  307MPD2    H3 4625   3.616   0.423   0.458 -0.6621 -1.4932  0.3226
  307MPD2     N 4626   3.326   0.743   0.614 -0.7355  0.0703 -0.1367
  307MPD2    H5 4627   3.286   0.833   0.593 -1.1860 -0.0494  0.2166
  307MPD2    N1 4628   3.621   0.829   0.259  0.3818  0.2583  0.5295
  307MPD2    H7 4629   3.601   0.927   0.272  1.4597  0.3663  1.4166
  308TMC3    C1 4630   2.981   0.848   0.852  0.9316 -0.4292  0.0929
  308TMC3    C2 4631   3.035   0.953   0.909 -0.2501  0.3772  0.4089
  308TMC3    C3 4632   3.171   0.968   0.902 -0.2081  0.1109  0.3442
  308TMC3    C4 4633   3.056   0.747   0.801  0.3979 -0.1241 -0.0271
  308TMC3    C5 4634   3.191   0.772   0.791 -0.3250  0.5153  0.0427
  308TMC3    C6 4635   3.252   0.880   0.836  0.4518  0.5412 -0.3072
  308TMC3     C 4636   2.839   0.860   0.818 -0.2148 -0.8175 -0.1733
  308TMC3     O 4637   2.783   0.758   0.781 -0.9226  0.4433 -0.1848
  308TMC3     H 4638   2.975   1.035   0.945  0.2395 -0.1012  2.2933
  308TMC3    H1 4639   3.015   0.654   0.763 -0.2184  0.5359 -0.9845
  308TMC3    H2 4640   3.360   0.893   0.832  0.3170  1.9395  0.7278
  308TMC3    C7 4641   3.270   0.671   0.718 -0.4373 -0.2806 -0.4049
  308TMC3    C8 4642   3.212   1.109   0.916 -0.6633 -0.6084  0.1184
  308TMC3    O1 4643   3.259   0.553   0.741 -0.3039  0.1680  0.4112
  308TMC3    O2 4644   3.130   1.195   0.891 -0.1049 -0.0334  0.2904
  309MPD2     C 4645   2.983   1.593  17.128 -0.2878 -0.3056 -0.0240
  309MPD2    C1 4646   2.956   1.682  17.021  0.1317 -0.5981 -0.2509
  309MPD2    C2 4647   2.846   1.760  17.024 -0.1570  0.6072  0.0473
  309MPD2    C3 4648   2.754   1.754  17.123 -0.2961  0.2647  0.2808
  309MPD2    C4 4649   2.787   1.677  17.231  0.7921  0.4225 -0.1524
  309MPD2    C5 4650   2.892   1.595  17.234 -0.3561  0.2627  0.2933
  309MPD2     H 4651   2.825   1.817  16.935 -0.2059 -2.6537 -2.0194
  309MPD2    H1 4652   2.721   1.672  17.317  1.0469  2.8656  0.1986
  309MPD2    H2 4653   3.068   1.525  17.137  0.4091  0.4564 -0.8610
  309MPD2    H3 4654   2.912   1.546  17.329  0.4696  0.9664  0.4691
  309MPD2     N 4655   2.638   1.839  17.121 -0.1104  0.1900  0.2987
  309MPD2    H5 4656   2.577   1.821  17.201 -0.4249  0.1549  0.0494
  309MPD2    N1 4657   3.044   1.702  16.915  0.4774 -0.1048 -0.8365
  309MPD2    H7 4658   3.017   1.762  16.838 -0.4973 -2.4195 -2.2663
  310TMC3    C1 4659   3.223   1.662  16.761 -0.4347 -0.8045 -0.4228
  310TMC3    C2 4660   3.186   1.774  16.691 -0.4747  0.4435 -0.1057
  310TMC3    C3 4661   3.252   1.803  16.572 -0.0471  0.2924 -0.0318
  310TMC3    C4 4662   3.316   1.572  16.713  0.5232 -0.4269 -0.2467
  310TMC3    C5 4663   3.389   1.603  16.602 -0.3323  0.5364  0.4655
  310TMC3    C6 4664   3.350   1.715  16.530  0.5779 -0.1390 -0.0634
  310TMC3     C 4665   3.150   1.621  16.885  0.5810  0.4665  0.3749
  310TMC3     O 4666   3.195   1.520  16.946  0.2006 -0.6675  0.0908
  310TMC3     H 4667   3.119   1.845  16.738  1.2480  1.4941  0.7564
  310TMC3    H1 4668   3.349   1.485  16.768  2.2443  0.6154  0.3907
  310TMC3    H2 4669   3.388   1.719  16.429 -0.0833  1.6975 -0.2319
  310TMC3    C7 4670   3.483   1.501  16.558 -0.7356 -0.3784 -0.5064
  310TMC3    C8 4671   3.158   1.857  16.480  0.1123 -0.1175  0.1989
  310TMC3    O1 4672   3.477   1.390  16.607  0.2839  0.8734 -0.3795
  310TMC3    O2 4673   3.045   1.856  16.518  0.3180  0.7527  0.2829
  311MPD2     C 4674   0.477   2.766  12.880 -0.2538 -0.8051 -0.0307
  311MPD2    C1 4675   0.431   2.889  12.849  0.6050  0.1830 -0.3022
  311MPD2    C2 4676   0.302   2.927  12.884 -0.2011 -0.6413  0.0296
  311MPD2    C3 4677   0.220   2.830  12.937  0.1324 -0.2114  0.2350
  311MPD2    C4 4678   0.265   2.701  12.961  0.1417  0.1429  0.0240
  311MPD2    C5 4679   0.396   2.678  12.945  0.7621 -0.6548  0.0427
  311MPD2     H 4680   0.266   3.028  12.869  1.0969 -0.0589  0.8334
  311MPD2    H1 4681   0.209   2.631  13.022 -0.8179  0.7586 -0.1465
  311MPD2    H2 4682   0.576   2.734  12.848 -0.0574 -3.2015  2.9411
  311MPD2    H3 4683   0.441   2.587  12.983 -1.5164 -2.0852 -0.6886
  311MPD2     N 4684   0.084   2.863  12.962  0.3152  0.2332  0.4292
  311MPD2    H5 4685   0.056   2.960  12.965 -0.3156  0.1004 -1.2074
  311MPD2    N1 4686   0.503   2.990  12.780  0.1306  0.0329  0.4137
  311MPD2    H7 4687   0.455   3.076  12.758  1.6734  0.8004  0.0218
  312TMC3    C1 4688   4.591   2.819  13.029 -0.1927  0.4150  0.5971
  312TMC3    C2 4689   4.468   2.772  12.981  0.3643 -0.0908 -0.5611
  312TMC3    C3 4690   4.353   2.831  13.019 -0.2606  1.1142  0.2106
  312TMC3    C4 4691   4.588   2.930  13.107 -0.1597  0.6381  0.6527
  312TMC3    C5 4692   4.472   2.982  13.145  0.2829 -0.5134  0.1598
  312TMC3    C6 4693   4.349   2.942  13.102  0.0179 -0.2376  0.3424
  312TMC3     C 4694   4.710   2.768  12.980 -0.1225  0.2338 -0.3431
  312TMC3     O 4695   4.705   2.652  12.946 -0.1606 -0.0935 -0.3305
  312TMC3     H 4696   4.478   2.690  12.912 -3.6662  0.0341 -1.2950
  312TMC3    H1 4697   4.678   2.971  13.151  0.1540  0.8181 -0.1561
  312TMC3    H2 4698   4.260   2.985  13.148 -0.8090 -0.9849 -0.5710
  312TMC3    C7 4699   4.484   3.108  13.223  0.4412 -0.0162  0.2954
  312TMC3    C8 4700   4.241   2.775  12.963 -0.8172  0.7042 -0.2493
  312TMC3    O1 4701   4.398   3.194  13.202 -0.0551 -0.5880  0.6374
  312TMC3    O2 4702   4.248   2.663  12.917 -0.0413 -0.1706  0.1533
  313MPD2     C 4703   4.316   1.797  11.016 -0.5793 -0.7292 -1.1335
  313MPD2    C1 4704   4.325   1.881  10.911  0.6004 -0.8065 -0.5058
  313MPD2    C2 4705   4.329   1.824  10.785 -0.5860 -0.3773  0.0431
  313MPD2    C3 4706   4.316   1.688  10.767  0.2491 -0.1343  0.2494
  313MPD2    C4 4707   4.321   1.610  10.874  0.4538  0.1110 -0.2840
  313MPD2    C5 4708   4.325   1.661  11.000  0.1453 -0.3954 -0.3606
  313MPD2     H 4709   4.325   1.881  10.693  1.8334 -0.1646  0.0681
  313MPD2    H1 4710   4.323   1.503  10.858 -0.8726  0.0587 -0.0909
  313MPD2    H2 4711   4.323   1.820  11.122  1.4248 -1.3439 -1.1372
  313MPD2    H3 4712   4.331   1.595  11.087  1.2249 -0.3554 -0.4002
  313MPD2     N 4713   4.312   1.631  10.631 -0.0302  0.1620  0.0599
  313MPD2    H5 4714   4.327   1.692  10.550 -0.6858 -1.6337 -1.4135
  313MPD2    N1 4715   4.323   2.017  10.924  0.9725 -0.2638  0.1501
  313MPD2    H7 4716   4.329   2.067  10.835  3.1651 -1.2706 -0.2466
  314TMC3    C1 4717   4.339   2.232  11.032  0.2555 -0.5711 -0.1464
  314TMC3    C2 4718   4.379   2.297  11.147 -0.1358 -0.8919  0.3732
  314TMC3    C3 4719   4.384   2.432  11.140 -0.1111 -0.4364  0.6262
  314TMC3    C4 4720   4.299   2.298  10.920  0.4620  0.4570  0.5483
  314TMC3    C5 4721   4.290   2.435  10.923  0.5406  0.0889 -0.7715
  314TMC3    C6 4722   4.331   2.507  11.036  0.3253 -0.0091  0.5924
  314TMC3     C 4723   4.320   2.089  11.046  0.1316 -0.0393 -0.4313
  314TMC3     O 4724   4.300   2.049  11.158  0.2937 -1.0903 -0.3658
  314TMC3     H 4725   4.425   2.232  11.221  0.7987  0.0499  0.6243
  314TMC3    H1 4726   4.255   2.246  10.835  0.0342  1.4129  0.1878
  314TMC3    H2 4727   4.351   2.613  11.024  2.9690 -0.3825  1.6525
  314TMC3    C7 4728   4.300   2.511  10.802 -0.5857  0.1065  0.3160
  314TMC3    C8 4729   4.501   2.500  11.190 -0.3265 -0.9762  0.2740
  314TMC3    O1 4730   4.272   2.633  10.810  0.3685  0.1829 -0.5683
  314TMC3    O2 4731   4.536   2.608  11.148 -0.1519  0.4878 -0.5384
  315MPD2     C 4732   4.146   1.601   0.407  0.2907  0.7787  0.8147
  315MPD2    C1 4733   4.258   1.553   0.473  0.1693  0.7150  0.5602
  315MPD2    C2 4734   4.383   1.624   0.481 -0.0919  0.0816 -0.1264
  315MPD2    C3 4735   4.395   1.744   0.416  0.3068  0.6775 -1.0290
  315MPD2    C4 4736   4.287   1.793   0.347  0.3360  0.5386  0.2231
  315MPD2    C5 4737   4.173   1.717   0.335 -0.9667 -0.4464  0.1734
  315MPD2     H 4738   4.465   1.574   0.531  0.6160  3.1602  1.7286
  315MPD2    H1 4739   4.289   1.895   0.309  1.4203  0.1988 -0.6589
  315MPD2    H2 4740   4.045   1.564   0.400  0.6860  0.0690 -1.1655
  315MPD2    H3 4741   4.081   1.763   0.302 -0.6663  0.6901  0.9497
  315MPD2     N 4742   4.523   1.803   0.426 -0.0917  0.1308  0.1635
  315MPD2    H5 4743   4.597   1.749   0.469  1.1468 -1.2247 -3.7090
  315MPD2    N1 4744   4.248   1.434   0.545  0.1700 -0.3493 -0.4559
  315MPD2    H7 4745   4.338   1.404   0.579  0.3140 -1.0458 -1.4413
  316TMC3    C1 4746   4.707   1.951   0.366  0.1322  0.4174 -0.3681
  316TMC3    C2 4747   0.069   1.860   0.408 -0.5156  0.4514  0.5682
  316TMC3    C3 4748   0.205   1.880   0.399 -0.7191  0.5649 -0.3737
  316TMC3    C4 4749   0.025   2.075   0.334 -0.4417 -0.0687  0.1505
  316TMC3    C5 4750   0.160   2.096   0.320 -0.7425 -0.1519 -0.7500
  316TMC3    C6 4751   0.251   2.006   0.358  0.6020  0.4967 -0.5957
  316TMC3     C 4752   4.563   1.924   0.368  0.1660 -0.5049 -0.2161
  316TMC3     O 4753   4.494   2.010   0.315 -0.0190  0.4699 -0.6563
  316TMC3     H 4754   0.035   1.761   0.436  2.2263 -0.3747  0.9500
  316TMC3    H1 4755   4.678   2.145   0.299  0.2703  0.4951 -0.2447
  316TMC3    H2 4756   0.358   2.022   0.350  1.0564 -1.5060  1.6604
  316TMC3    C7 4757   0.203   2.231   0.292  0.3166 -0.2930  0.9044
  316TMC3    C8 4758   0.311   1.776   0.414 -1.1901 -0.0305  0.0535
  316TMC3    O1 4759   0.324   2.260   0.296  0.5528  0.0405  0.1988
  316TMC3    O2 4760   0.421   1.798   0.371 -0.6509 -0.4703  0.0692
  317MPD2     C 4761   1.344   0.097  12.768 -0.5221 -1.0683 -0.3427
  317MPD2    C1 4762   1.404   4.698  12.753 -0.0266 -0.1796  0.3122
  317MPD2    C2 4763   1.478   4.651  12.858  0.5222  0.4167 -0.0267
  317MPD2    C3 4764   1.470   4.718  12.981 -0.0594 -0.3382 -0.1996
  317MPD2    C4 4765   1.405   0.108  13.000 -0.9718 -0.3868  0.5497
  317MPD2    C5 4766   1.348   0.165  12.891 -0.1255  0.8919  0.0495
  317MPD2     H 4767   1.528   4.554  12.854  0.3227  0.2652  1.1020
  317MPD2    H1 4768   1.401   0.163  13.093  0.0213  1.7234 -0.6535
  317MPD2    H2 4769   1.304   0.150  12.682 -0.2496 -0.1031  0.1200
  317MPD2    H3 4770   1.289   0.257  12.894  1.2965  1.7075  2.6740
  317MPD2     N 4771   1.537   4.658  13.089 -0.5633 -0.2063 -0.3479
  317MPD2    H5 4772   1.571   4.563  13.083  2.0661  0.5572  2.2692
  317MPD2    N1 4773   1.389   4.611  12.643  0.2439 -0.3371 -0.3760
  317MPD2    H7 4774   1.446   4.528  12.640  1.3401  0.4818 -2.0326
  318TMC3    C1 4775   1.622   4.630  13.308  0.5304  0.1881  0.6159
  318TMC3    C2 4776   1.584   4.500  13.301  0.0422 -0.5213 -1.0015
  318TMC3    C3 4777   1.641   4.406  13.375 -0.2136 -0.4283  0.5081
  318TMC3    C4 4778   1.723   4.673  13.394  0.1166 -0.0212 -0.4866
  318TMC3    C5 4779   1.779   4.569  13.468 -0.2786 -0.2227 -0.2206
  318TMC3    C6 4780   1.747   4.435  13.459  0.3404  0.3187  0.4262
  318TMC3     C 4781   1.568   4.722  13.208  0.1020  0.5306 -0.7096
  318TMC3     O 4782   1.584   0.115  13.229  0.0275 -0.4878 -0.3375
  318TMC3     H 4783   1.514   4.474  13.222 -0.9035 -0.7705 -0.0672
  318TMC3    H1 4784   1.753   0.049  13.403  1.0721 -0.6061  3.2972
  318TMC3    H2 4785   1.777   4.356  13.527 -3.2005  0.0985  1.7311
  318TMC3    C7 4786   1.894   4.607  13.558  0.5812 -0.0493 -0.8662
  318TMC3    C8 4787   1.581   4.269  13.382  0.2114 -0.0739 -0.5341
  318TMC3    O1 4788   1.896   4.727  13.571 -0.0832 -0.5927  0.9889
  318TMC3    O2 4789   1.644   4.168  13.408 -0.2292  0.1764  0.8904
  319MPD2     C 4790   2.486   1.007  16.560  0.1975  0.0440  0.1281
  319MPD2    C1 4791   2.357   0.988  16.607 -0.0184 -0.9938 -0.2305
  319MPD2    C2 4792   2.257   0.958  16.527  0.8049 -0.1072 -0.4727
  319MPD2    C3 4793   2.270   0.973  16.390  0.2943  0.4103  0.3765
  319MPD2    C4 4794   2.391   1.010  16.336  0.4069  0.5536 -0.2355
  319MPD2    C5 4795   2.502   1.018  16.425  0.0710 -0.2052 -0.0865
  319MPD2     H 4796   2.163   0.942  16.578  0.0430  3.9755 -0.5883
  319MPD2    H1 4797   2.403   1.018  16.228 -1.2889  2.4254 -0.2943
  319MPD2    H2 4798   2.577   1.025  16.615 -0.0561  0.3252  0.4511
  319MPD2    H3 4799   2.599   1.040  16.382 -1.8049  0.6288 -3.8342
  319MPD2     N 4800   2.162   0.987  16.296 -0.0779 -0.0788 -0.1589
  319MPD2    H5 4801   2.180   1.025  16.203  0.6243  1.0404  0.4258
  319MPD2    N1 4802   2.329   1.001  16.746 -0.0394  0.2162  0.1352
  319MPD2    H7 4803   2.234   0.979  16.773  0.1893  1.4059  1.9018
  320TMC3    C1 4804   1.929   0.979  16.244 -0.4480 -0.2007 -0.3309
  320TMC3    C2 4805   1.923   1.098  16.170 -0.5938  0.0401  0.1691
  320TMC3    C3 4806   1.808   1.133  16.099 -0.1198  0.3330 -0.1147
  320TMC3    C4 4807   1.815   0.904  16.249  0.4662  0.2079  0.5013
  320TMC3    C5 4808   1.705   0.928  16.171 -0.2729 -0.2210 -0.3067
  320TMC3    C6 4809   1.697   1.043  16.106 -0.0184  0.3804  0.0794
  320TMC3     C 4810   2.037   0.943  16.335 -0.5265  0.2518 -0.1621
  320TMC3     O 4811   2.002   0.867  16.426 -0.3156  0.0432  0.2471
  320TMC3     H 4812   2.002   1.171  16.172 -1.1350  0.6168  0.5201
  320TMC3    H1 4813   1.812   0.815  16.311  2.2419  0.1747  0.5625
  320TMC3    H2 4814   1.602   1.066  16.060 -0.3097 -2.0453 -0.5437
  320TMC3    C7 4815   1.582   0.855  16.202 -0.0698  0.1928 -0.4570
  320TMC3    C8 4816   1.793   1.269  16.050 -0.0045 -0.2778 -0.2899
  320TMC3    O1 4817   1.479   0.917  16.186 -0.4790 -0.0677  0.5768
  320TMC3    O2 4818   1.844   1.361  16.113  0.0115  0.3079 -0.1935
  321TMC3    C1 4819   2.343   1.039  16.981  0.0644  0.0224  0.0935
  321TMC3    C2 4820   2.239   0.953  17.007 -0.6357 -0.2698 -0.6637
  321TMC3    C3 4821   2.194   0.952  17.132 -0.5466 -0.4897 -0.5044
  321TMC3    C4 4822   2.405   1.121  17.071  0.4574  0.5653  0.4531
  321TMC3    C5 4823   2.343   1.128  17.193  0.1446 -0.3280 -0.1977
  321TMC3    C6 4824   2.243   1.039  17.226 -0.0003 -0.9430 -0.2709
  321TMC3     C 4825   2.417   1.026  16.853 -0.4717 -0.0941 -0.1238
  321TMC3     O 4826   2.535   1.060  16.846  0.2750  0.9095  0.1321
  321TMC3     H 4827   2.217   0.870  16.940  2.2398 -0.2772 -1.6027
  321TMC3    H1 4828   2.495   1.174  17.042 -0.5890  1.6554 -0.7564
  321TMC3    H2 4829   2.200   1.023  17.324  1.3813 -1.7980  0.1938
  321TMC3    C7 4830   2.441   1.120  17.295 -0.0800  0.3265 -0.2164
  321TMC3    C8 4831   2.182   0.824  17.187  0.6337  0.1995 -0.2303
  321TMC3    O1 4832   2.422   1.037  17.379  0.0778  0.0798  0.4185
  321TMC3    O2 4833   2.116   0.740  17.126 -0.5251 -0.2559  0.3627
  322MPD2     C 4834   0.605   2.172  13.411  0.1283 -0.2233  0.2919
  322MPD2    C1 4835   0.744   2.177  13.411 -0.4526 -0.5631  0.4849
  322MPD2    C2 4836   0.816   2.069  13.374 -0.5784 -0.2848  0.6220
  322MPD2    C3 4837   0.758   1.939  13.367 -0.2132  0.6579 -0.1562
  322MPD2    C4 4838   0.617   1.925  13.381  0.1214 -0.1041 -0.3869
  322MPD2    C5 4839   0.548   2.048  13.396  0.4646  0.0258  0.4507
  322MPD2     H 4840   0.923   2.076  13.359 -0.5955  0.5987  0.8977
  322MPD2    H1 4841   0.561   1.832  13.374 -0.4379  0.2212 -0.2778
  322MPD2    H2 4842   0.535   2.251  13.435  1.2354  1.0802 -0.8125
  322MPD2    H3 4843   0.439   2.041  13.398  0.5192 -0.0132  3.1000
  322MPD2     N 4844   0.841   1.824  13.356 -0.1934  0.1996  0.1517
  322MPD2    H5 4845   0.941   1.838  13.368 -0.8065  2.0025  2.9269
  322MPD2    N1 4846   0.792   2.296  13.452  0.0839 -0.1869  0.2110
  322MPD2    H7 4847   0.736   2.357  13.510  0.5681  0.3837  0.0781
  323TMC3    C1 4848   0.939   2.478  13.480  0.3272 -0.7719 -0.2395
  323TMC3    C2 4849   1.031   2.553  13.406 -0.6738  0.3377  0.9447
  323TMC3    C3 4850   1.099   2.644  13.474  0.4284  0.8995 -0.0192
  323TMC3    C4 4851   0.922   2.493  13.614  0.3812 -0.2747  0.4664
  323TMC3    C5 4852   0.989   2.594  13.680 -0.2286 -0.5369  0.5705
  323TMC3    C6 4853   1.077   2.672  13.612 -0.4927  0.8781 -0.1272
  323TMC3     C 4854   0.919   2.346  13.426 -0.0935 -0.1057 -0.6133
  323TMC3     O 4855   0.995   2.304  13.334 -0.0504 -0.6421  0.1140
  323TMC3     H 4856   1.048   2.540  13.300  0.7655  0.9683  1.1023
  323TMC3    H1 4857   0.874   2.415  13.672  2.0933 -1.1048  0.7400
  323TMC3    H2 4858   1.141   2.739  13.669  1.0687  0.0155 -0.8490
  323TMC3    C7 4859   0.994   2.580  13.827 -0.2528  0.0433  0.3593
  323TMC3    C8 4860   1.231   2.694  13.418 -0.0048  0.3211 -0.1961
  323TMC3    O1 4861   0.971   2.473  13.884  0.3101  0.3764  0.4042
  323TMC3    O2 4862   1.267   2.795  13.474  0.4620 -0.0133  0.0435
  324MPD2     C 4863   2.960   3.658  13.886  0.2876 -0.9194 -0.3507
  324MPD2    C1 4864   2.908   3.731  13.991  0.0917  0.5892  0.4047
  324MPD2    C2 4865   2.794   3.806  13.972 -0.4967 -0.9307  0.9760
  324MPD2    C3 4866   2.734   3.810  13.851  0.4263  0.7228  0.4019
  324MPD2    C4 4867   2.780   3.734  13.748 -0.4320 -0.9685  0.1217
  324MPD2    C5 4868   2.896   3.659  13.766  0.4556 -0.1101  0.0048
  324MPD2     H 4869   2.746   3.853  14.057  0.9928  1.1071  0.6833
  324MPD2    H1 4870   2.736   3.737  13.648 -0.8384  1.7286  0.3827
  324MPD2    H2 4871   3.055   3.606  13.891  0.9224  0.2291 -0.4475
  324MPD2    H3 4872   2.936   3.606  13.681  1.6378  0.9719 -0.1010
  324MPD2     N 4873   2.617   3.890  13.825  0.7234 -0.0900  0.5265
  324MPD2    H5 4874   2.575   3.876  13.733 -0.0303  3.7035  0.2967
  324MPD2    N1 4875   2.965   3.721  14.122 -0.1067  0.3701 -0.6044
  324MPD2    H7 4876   2.918   3.779  14.191 -1.1701 -0.4748 -0.6184
  325TMC3    C1 4877   2.459   4.060  13.854 -0.2003 -0.3418 -0.0757
  325TMC3    C2 4878   2.369   3.989  13.776 -0.1317 -0.2770  0.2329
  325TMC3    C3 4879   2.239   4.041  13.780  0.4023  0.3650  0.5057
  325TMC3    C4 4880   2.424   4.176  13.919 -0.0669 -0.1593 -0.3635
  325TMC3    C5 4881   2.298   4.222  13.908  0.6782 -0.2638  1.1253
  325TMC3    C6 4882   2.199   4.158  13.836  0.4165  0.0754  0.5630
  325TMC3     C 4883   2.572   3.993  13.898  0.1003 -0.6633 -0.0209
  325TMC3     O 4884   2.615   4.036  14.004 -0.2964 -0.1089  0.1212
  325TMC3     H 4885   2.390   3.890  13.735 -2.4566  0.4045 -2.5908
  325TMC3    H1 4886   2.492   4.230  13.984 -1.2794  1.8864 -0.8002
  325TMC3    H2 4887   2.100   4.202  13.836  1.2479  1.9609  1.7262
  325TMC3    C7 4888   2.249   4.314  14.014 -0.2588  0.0332 -0.0279
  325TMC3    C8 4889   2.146   3.953  13.713 -0.1178  0.5182 -0.0080
  325TMC3    O1 4890   2.134   4.297  14.054 -0.2015  0.6050  0.4316
  325TMC3    O2 4891   2.192   3.902  13.612  0.0090  0.2577 -0.3925
  326MPD2     C 4892   4.049   4.292  11.403  0.3045  0.2666 -0.7127
  326MPD2    C1 4893   3.980   4.359  11.302 -0.1221  0.5531 -0.3025
  326MPD2    C2 4894   4.024   4.486  11.271  0.4761  0.5010 -0.1432
  326MPD2    C3 4895   4.139   4.541  11.332  0.1886 -0.3374 -0.0475
  326MPD2    C4 4896   4.206   4.463  11.425 -0.2445  0.3781  0.7099
  326MPD2    C5 4897   4.152   4.343  11.470  0.0165 -1.0807  0.3229
  326MPD2     H 4898   3.971   4.542  11.195 -1.7068  0.8630  1.6549
  326MPD2    H1 4899   4.297   4.500  11.471  0.2883  3.3277 -2.6984
  326MPD2    H2 4900   4.026   4.192  11.437 -1.5795  0.9123 -0.0922
  326MPD2    H3 4901   4.209   4.280  11.537 -0.7529 -1.5130  0.5706
  326MPD2     N 4902   4.212   4.660  11.293 -0.1222 -0.1407  0.3991
  326MPD2    H5 4903   4.295   4.682  11.347  0.2913 -0.3884 -0.1380
  326MPD2    N1 4904   3.869   4.306  11.232 -0.9397 -0.0992  0.2294
  326MPD2    H7 4905   3.838   4.360  11.152 -1.1180  1.0256  1.0570
  327TMC3    C1 4906   3.738   4.145  11.135 -0.2576 -0.2307 -0.3749
  327TMC3    C2 4907   3.660   4.256  11.099  0.7391 -0.0102 -0.6931
  327TMC3    C3 4908   3.611   4.257  10.977 -0.7817 -0.0462  0.3706
  327TMC3    C4 4909   3.778   4.047  11.051 -0.7019  0.4302 -1.0214
  327TMC3    C5 4910   3.741   4.065  10.920 -0.6122  0.1345 -0.3895
  327TMC3    C6 4911   3.652   4.166  10.879  0.2702  0.3864  0.3008
  327TMC3     C 4912   3.837   4.169  11.230 -0.2519  0.0679  0.3615
  327TMC3     O 4913   3.896   4.075  11.280 -0.1617 -0.0785 -0.1826
  327TMC3     H 4914   3.627   4.317  11.182  1.2759 -0.5615 -0.0764
  327TMC3    H1 4915   3.841   3.965  11.083 -1.0370  0.9017  0.8823
  327TMC3    H2 4916   3.648   4.188  10.773 -0.1834 -1.9452 -0.1495
  327TMC3    C7 4917   3.855   4.066  10.827 -0.7273  1.2016 -0.1323
  327TMC3    C8 4918   3.554   4.381  10.924  0.2729 -0.2133 -0.0315
  327TMC3    O1 4919   3.837   4.069  10.707 -0.3368  0.1749  0.4725
  327TMC3    O2 4920   3.554   4.400  10.803 -0.5177 -0.0026  0.5516
  328MPD2     C 4921   1.466   4.122  17.362  1.3973  0.3476  0.4886
  328MPD2    C1 4922   1.378   4.095  17.259 -0.0217  0.1847 -0.0011
  328MPD2    C2 4923   1.346   4.187  17.167 -0.4513 -0.2693 -0.0522
  328MPD2    C3 4924   1.415   4.306  17.161  0.0452 -0.2994 -0.0498
  328MPD2    C4 4925   1.508   4.327  17.259  0.1659  0.3840 -0.3115
  328MPD2    C5 4926   1.540   4.236  17.355  0.2739  0.9089  0.3619
  328MPD2     H 4927   1.269   4.166  17.094 -0.3157  2.8868 -1.1194
  328MPD2    H1 4928   1.565   4.419  17.251 -0.3411  0.6399 -0.9699
  328MPD2    H2 4929   1.484   4.042  17.432  0.8394  0.3895  0.6783
  328MPD2    H3 4930   1.619   4.269  17.422  0.5010  2.2545 -0.5696
  328MPD2     N 4931   1.388   4.417  17.070  0.7500  0.5012  0.2055
  328MPD2    H5 4932   1.437   4.503  17.091  1.1475  0.0009  1.3123
  328MPD2    N1 4933   1.313   3.967  17.265 -0.5704 -0.8550  0.0209
  328MPD2    H7 4934   1.330   3.912  17.348  1.2668 -0.1108  0.1385
  329TMC3    C1 4935   1.188   3.775  17.175  0.3034 -0.9511 -0.8235
  329TMC3    C2 4936   1.173   3.719  17.301 -0.5149  0.0851  0.2972
  329TMC3    C3 4937   1.190   3.578  17.308 -0.0852  0.6790 -0.4312
  329TMC3    C4 4938   1.207   3.689  17.062  0.4374  0.1853  0.4644
  329TMC3    C5 4939   1.208   3.560  17.083 -0.8549  0.2780  0.6824
  329TMC3    C6 4940   1.211   3.494  17.202 -0.4028 -0.2711  0.4919
  329TMC3     C 4941   1.259   3.899  17.151  0.8170  0.3829 -0.3110
  329TMC3     O 4942   1.262   3.936  17.034  0.0032  0.2237 -0.1808
  329TMC3     H 4943   1.171   3.781  17.389 -0.2016 -2.6932  2.2506
  329TMC3    H1 4944   1.247   3.719  16.966 -2.2456 -0.8121 -0.9431
  329TMC3    H2 4945   1.203   3.387  17.215 -0.7595 -0.1304  1.3813
  329TMC3    C7 4946   1.222   3.473  16.968 -0.2944 -0.3387 -0.0109
  329TMC3    C8 4947   1.195   3.508  17.435 -0.1925  0.1284  0.2198
  329TMC3    O1 4948   1.302   3.381  16.978 -0.4395  0.0925  0.2413
  329TMC3    O2 4949   1.136   3.403  17.439  0.5861  1.1406 -0.2908
  330TMC3    C1 4950   0.231   3.756  10.111  0.2686 -0.3551 -0.1004
  330TMC3    C2 4951   0.308   3.702  10.009  0.1768 -0.4147 -0.1100
  330TMC3    C3 4952   0.378   3.590  10.020 -0.0983 -0.1597 -0.7059
  330TMC3    C4 4953   0.236   3.704  10.236  0.7306 -0.2804  0.6311
  330TMC3    C5 4954   0.314   3.587  10.242  0.3368  0.2778 -0.0978
  330TMC3    C6 4955   0.377   3.522  10.141  0.5267  0.2618  0.2146
  330TMC3     C 4956   0.114   3.836  10.076 -0.2556 -0.4331  0.1362
  330TMC3     O 4957   0.054   3.885  10.172  0.2911 -0.6798  0.0472
  330TMC3     H 4958   0.330   3.754   9.916  0.0944 -0.1998 -0.0091
  330TMC3    H1 4959   0.194   3.756  10.321  2.0895 -0.1232  1.2049
  330TMC3    H2 4960   0.430   3.429  10.156 -0.4468 -0.1471  1.1300
  330TMC3    C7 4961   0.301   3.510  10.366 -0.2022 -0.6505 -1.1400
  330TMC3    C8 4962   0.390   3.522   9.892 -0.9982  0.4168  0.5362
  330TMC3    O1 4963   0.326   3.392  10.359 -0.0160  0.3927  0.1701
  330TMC3    O2 4964   0.405   3.579   9.784 -0.6627  0.1221  0.1068
  331MPD2     C 4965   2.004   2.450  13.019  0.2088 -0.5762 -1.1672
  331MPD2    C1 4966   2.124   2.502  13.001  0.0016  0.8484  0.1677
  331MPD2    C2 4967   2.242   2.428  12.983  0.2701 -0.3380 -0.0961
  331MPD2    C3 4968   2.237   2.292  12.989  0.6071  0.1378  0.1042
  331MPD2    C4 4969   2.120   2.236  13.024 -0.4177 -0.2327 -0.5259
  331MPD2    C5 4970   2.006   2.311  13.035  0.5979 -0.1789  0.0050
  331MPD2     H 4971   2.337   2.479  12.973  0.7272 -0.7037  2.4613
  331MPD2    H1 4972   2.110   2.132  13.055  2.4112 -0.1498  0.6942
  331MPD2    H2 4973   1.911   2.503  13.031  0.5547 -0.6952  1.9554
  331MPD2    H3 4974   1.916   2.255  13.059  1.2039 -0.5909  1.3658
  331MPD2     N 4975   2.358   2.213  12.963 -0.2228 -0.0223 -0.4723
  331MPD2    H5 4976   2.442   2.263  12.937  0.7778 -1.6512 -0.3333
  331MPD2    N1 4977   2.128   2.647  12.988 -0.2885  0.0776 -0.2063
  331MPD2    H7 4978   2.032   2.680  12.988 -0.8747 -1.6359 -1.3619
  332TMC3    C1 4979   2.476   2.027  12.910  0.3955 -0.5311  0.0136
  332TMC3    C2 4980   2.528   2.110  12.815  0.2237  0.4451  0.6618
  332TMC3    C3 4981   2.664   2.117  12.797 -0.5900 -0.0148 -0.2552
  332TMC3    C4 4982   2.554   1.956  12.990  0.5144 -0.0409  0.5167
  332TMC3    C5 4983   2.690   1.971  12.977 -0.8837 -0.2865  0.8490
  332TMC3    C6 4984   2.749   2.048  12.877 -0.5169 -0.2598 -0.6115
  332TMC3     C 4985   2.363   2.076  12.970 -0.2565  0.0140  0.1442
  332TMC3     O 4986   2.280   1.990  13.002  0.4069  0.2583 -0.3241
  332TMC3     H 4987   2.459   2.170  12.756  2.8312 -0.0866 -2.9601
  332TMC3    H1 4988   2.512   1.894  13.068 -0.7883  0.6094  0.3269
  332TMC3    H2 4989   2.855   2.039  12.856 -0.4508  0.2121 -0.4729
  332TMC3    C7 4990   2.779   1.878  13.047  0.3607  0.0165 -0.5071
  332TMC3    C8 4991   2.724   2.216  12.714 -0.5262 -0.6961  0.1086
  332TMC3    O1 4992   2.733   1.776  13.095  0.8689 -0.2300 -0.3646
  332TMC3    O2 4993   2.845   2.222  12.736  0.1145 -0.0293  0.5230
  333MPD2     C 4994   2.579   3.068  11.098 -0.8806 -0.0082 -0.3161
  333MPD2    C1 4995   2.657   2.966  11.141 -0.0385 -0.1896  0.3714
  333MPD2    C2 4996   2.596   2.854  11.194  0.1825 -0.5990  0.6024
  333MPD2    C3 4997   2.465   2.860  11.235 -0.0911  0.2957 -0.0971
  333MPD2    C4 4998   2.379   2.963  11.192 -0.1091  0.8673 -0.4623
  333MPD2    C5 4999   2.443   3.070  11.124  0.3693 -0.1932  0.2133
  333MPD2     H 5000   2.654   2.764  11.213 -0.2746 -0.9235  0.4622
  333MPD2    H1 5001   2.272   2.975  11.199 -0.1215 -0.0199  0.8898
  333MPD2    H2 5002   2.618   3.161  11.060  1.0270 -1.2586 -1.4468
  333MPD2    H3 5003   2.382   3.145  11.076  2.3255  0.6826 -0.9099
  333MPD2     N 5004   2.409   2.753  11.315  0.1850  0.5331  0.3843
  333MPD2    H5 5005   2.478   2.679  11.328 -1.1813 -1.0473 -1.3930
  333MPD2    N1 5006   2.798   2.975  11.117 -0.5880 -0.2065 -0.0029
  333MPD2    H7 5007   2.826   3.063  11.076  0.4779  0.6802  2.6302
  334TMC3    C1 5008   3.023   2.911  11.102 -0.9924  0.1959 -0.2463
  334TMC3    C2 5009   3.113   2.838  11.169  0.4209 -0.2521  1.0908
  334TMC3    C3 5010   3.245   2.835  11.118  0.0102  0.1440  0.2808
  334TMC3    C4 5011   3.051   2.974  10.984  0.1277 -0.1404  0.5283
  334TMC3    C5 5012   3.183   2.981  10.951 -0.1082  0.0772  0.2010
  334TMC3    C6 5013   3.276   2.895  11.003  0.1358  0.6029 -0.1901
  334TMC3     C 5014   2.889   2.875  11.146  0.4716 -0.1704 -0.4230
  334TMC3     O 5015   2.878   2.763  11.193 -0.8081 -0.0077 -0.2492
  334TMC3     H 5016   3.092   2.798  11.267 -2.3075  1.9241  1.3561
  334TMC3    H1 5017   2.987   3.041  10.929 -0.7083  0.4971  2.2978
  334TMC3    H2 5018   3.374   2.889  10.956  0.4164 -2.2998  0.7666
  334TMC3    C7 5019   3.230   3.056  10.837  0.0349 -0.6525  0.9493
  334TMC3    C8 5020   3.351   2.762  11.185 -0.1593  0.3500  0.2697
  334TMC3    O1 5021   3.350   3.073  10.837 -0.4622 -0.0783 -0.2032
  334TMC3    O2 5022   3.319   2.660  11.245 -0.8093  0.7302  0.1646
  335TMC3    C1 5023   2.606   3.982  17.229  0.0698 -1.1439 -0.2336
  335TMC3    C2 5024   2.487   4.009  17.291 -0.0968 -0.0027 -0.8472
  335TMC3    C3 5025   2.463   4.128  17.359  0.1416 -0.0540 -0.0716
  335TMC3    C4 5026   2.706   4.065  17.256 -0.2244  0.3562  0.0943
  335TMC3    C5 5027   2.688   4.183  17.325  0.9479  0.0385 -0.1214
  335TMC3    C6 5028   2.570   4.217  17.379  0.2261 -0.5275  0.0443
  335TMC3     C 5029   2.647   3.846  17.236 -0.0370 -0.7815  0.5197
  335TMC3     O 5030   2.580   3.781  17.315  0.6694 -0.4140 -0.3027
  335TMC3     H 5031   2.416   3.930  17.269 -1.5308  0.9532  0.3095
  335TMC3    H1 5032   2.806   4.055  17.215 -0.2830  3.6694 -0.8862
  335TMC3    H2 5033   2.566   4.318  17.418 -0.5422  0.0581 -1.5265
  335TMC3    C7 5034   2.799   4.289  17.320  0.7821  0.8891 -0.1014
  335TMC3    C8 5035   2.357   4.215  17.309 -0.0989  0.4525 -0.0166
  335TMC3    O1 5036   2.873   4.276  17.223  0.2328 -0.0849 -0.0395
  335TMC3    O2 5037   2.391   4.323  17.264 -0.0937 -0.5416  0.4656
  336MPD2     C 5038   2.190   2.247  16.285  0.1298  0.5618  0.7394
  336MPD2    C1 5039   2.101   2.213  16.182 -1.0644  0.4195 -0.0099
  336MPD2    C2 5040   2.098   2.083  16.127  0.7434 -0.2718  0.3930
  336MPD2    C3 5041   2.179   1.991  16.188  0.3191  0.7365 -0.2676
  336MPD2    C4 5042   2.248   2.024  16.307  1.2753 -0.2484 -0.3641
  336MPD2    C5 5043   2.253   2.150  16.357  0.4606  0.4231 -0.2475
  336MPD2     H 5044   2.032   2.055  16.046  0.5764  3.1435 -0.6816
  336MPD2    H1 5045   2.285   1.942  16.368  0.5089 -0.1791  0.1980
  336MPD2    H2 5046   2.178   2.342  16.335  1.0508 -1.4004  4.6990
  336MPD2    H3 5047   2.292   2.176  16.455 -0.8484  1.6339 -0.0496
  336MPD2     N 5048   2.174   1.853  16.155  0.0326 -0.5165 -0.0162
  336MPD2    H5 5049   2.233   1.798  16.217 -0.5870  1.3422  2.2329
  336MPD2    N1 5050   2.022   2.309  16.117  0.2584 -0.1895  0.0827
  336MPD2    H7 5051   1.973   2.274  16.036  1.8939 -0.1427 -0.9382
  337TMC3    C1 5052   1.906   2.503  16.055  1.0354  0.5293 -0.4012
  337TMC3    C2 5053   1.787   2.439  16.029 -0.1555  0.0088  0.0571
  337TMC3    C3 5054   1.683   2.512  15.979 -0.9395  0.5369  0.0220
  337TMC3    C4 5055   1.915   2.635  16.042  0.2010  0.7590  0.5748
  337TMC3    C5 5056   1.808   2.709  15.994  0.4889 -0.2497 -0.0873
  337TMC3    C6 5057   1.689   2.649  15.967  0.2420 -0.1910 -0.0943
  337TMC3     C 5058   2.008   2.443  16.148 -0.5192 -0.3272  0.4548
  337TMC3     O 5059   2.047   2.511  16.237  0.3962 -0.3805 -0.2332
  337TMC3     H 5060   1.792   2.332  16.044  0.5230  0.0547  0.1576
  337TMC3    H1 5061   2.008   2.685  16.066 -0.0874  2.2999 -1.5040
  337TMC3    H2 5062   1.612   2.712  15.923  0.0490  0.6287  1.3905
  337TMC3    C7 5063   1.823   2.858  15.996 -0.1853  0.5965  0.0731
  337TMC3    C8 5064   1.568   2.439  15.943 -0.2037  0.3115  0.1962
  337TMC3    O1 5065   1.714   2.915  15.992  0.3176  0.8341 -0.2576
  337TMC3    O2 5066   1.572   2.326  15.982 -0.5261  0.1033 -0.5715
  338MPD2     C 5067   2.292   1.932   0.817  0.3241 -0.1645 -0.1845
  338MPD2    C1 5068   2.231   1.897   0.699 -0.3183 -0.0402 -0.5073
  338MPD2    C2 5069   2.100   1.922   0.681  0.5130 -0.5779 -0.4377
  338MPD2    C3 5070   2.024   1.963   0.787 -0.4262 -0.4812  0.2763
  338MPD2    C4 5071   2.085   1.994   0.905 -0.0284  0.5002  0.5369
  338MPD2    C5 5072   2.224   1.985   0.919 -0.4587  0.5610  0.2640
  338MPD2     H 5073   2.058   1.906   0.583  1.8802 -2.4228 -0.7254
  338MPD2    H1 5074   2.039   2.023   0.999  0.7992  0.4051  0.9704
  338MPD2    H2 5075   2.396   1.909   0.837  0.3724 -0.6798 -1.0126
  338MPD2    H3 5076   2.274   1.998   1.014 -0.6018  1.9621  0.1422
  338MPD2     N 5077   1.886   1.972   0.765 -0.3951 -0.2444  0.1746
  338MPD2    H5 5078   1.853   1.952   0.671 -1.6415 -0.6711  0.7038
  338MPD2    N1 5079   2.300   1.821   0.602  0.0440 -0.1033  0.2535
  338MPD2    H7 5080   2.246   1.806   0.518 -1.9778 -0.4001  1.5852
  339TMC3    C1 5081   1.659   1.991   0.782 -0.1076  0.0172 -0.1249
  339TMC3    C2 5082   1.549   1.950   0.855  0.2694  0.1001  0.2849
  339TMC3    C3 5083   1.439   1.901   0.787 -0.1483 -0.4173 -0.2192
  339TMC3    C4 5084   1.647   1.995   0.647 -0.0362  0.1503  0.2692
  339TMC3    C5 5085   1.537   1.949   0.582  0.4714  0.9052  0.2167
  339TMC3    C6 5086   1.430   1.906   0.648  0.3328  0.6267  0.5879
  339TMC3     C 5087   1.791   2.000   0.855 -0.4045  0.1089 -0.6706
  339TMC3     O 5088   1.793   1.998   0.974  0.2586  0.2641 -0.1322
  339TMC3     H 5089   1.561   1.937   0.961 -0.6982  0.4152  0.4312
  339TMC3    H1 5090   1.730   2.036   0.591 -1.0607 -0.0665 -1.3883
  339TMC3    H2 5091   1.337   1.878   0.599  0.2776 -1.1735  1.7039
  339TMC3    C7 5092   1.554   1.931   0.442  0.3357 -0.4191 -0.0450
  339TMC3    C8 5093   1.338   1.833   0.868 -0.1177 -0.6301  0.3648
  339TMC3    O1 5094   1.645   1.996   0.383 -0.4504 -0.4073 -0.4238
  339TMC3    O2 5095   1.226   1.880   0.877 -0.3044 -0.5287 -0.3824
  340MPD2     C 5096   3.448   3.257  10.272 -0.4284 -0.4964  0.0974
  340MPD2    C1 5097   3.473   3.383  10.234 -0.3690  0.2357  0.9742
  340MPD2    C2 5098   3.562   3.460  10.302  0.4060 -0.0659 -0.1442
  340MPD2    C3 5099   3.635   3.414  10.411 -0.1219 -0.9937 -0.4290
  340MPD2    C4 5100   3.605   3.283  10.449  0.6777  0.4002  0.0931
  340MPD2    C5 5101   3.510   3.204  10.383 -0.4836 -0.2667 -0.0455
  340MPD2     H 5102   3.560   3.560  10.262 -1.8477  0.9494  2.5179
  340MPD2    H1 5103   3.642   3.243  10.543 -2.6113  0.3828  1.3691
  340MPD2    H2 5104   3.387   3.191  10.211  0.4597 -0.6009 -0.6902
  340MPD2    H3 5105   3.473   3.111  10.424  2.6336 -1.0514  1.0253
  340MPD2     N 5106   3.736   3.491  10.469  0.8057 -0.0530  0.2985
  340MPD2    H5 5107   3.794   3.435  10.531 -1.2141 -1.3104  1.0508
  340MPD2    N1 5108   3.409   3.423  10.110  0.3912  0.7187 -0.2299
  340MPD2    H7 5109   3.346   3.362  10.060  0.7815 -0.0732  0.2293
  341TMC3    C1 5110   3.382   3.557   9.918 -0.2715  0.3480 -0.5043
  341TMC3    C2 5111   3.249   3.532   9.924 -0.0013 -0.1866 -0.0794
  341TMC3    C3 5112   3.172   3.572   9.820 -0.8817 -0.3920 -0.1107
  341TMC3    C4 5113   3.434   3.643   9.818 -0.0861  0.4459  0.2333
  341TMC3    C5 5114   3.358   3.657   9.706  0.2816 -0.0073 -0.1121
  341TMC3    C6 5115   3.228   3.618   9.702 -0.1427  0.5669 -0.7088
  341TMC3     C 5116   3.461   3.523  10.033 -0.7879  0.0306 -0.8107
  341TMC3     O 5117   3.575   3.574  10.044 -0.5193  0.8132 -0.0044
  341TMC3     H 5118   3.196   3.483  10.005  3.1463 -0.6917  1.6875
  341TMC3    H1 5119   3.542   3.652   9.809 -0.1574  1.7419  0.7033
  341TMC3    H2 5120   3.169   3.635   9.612  1.9786  1.2243 -1.9826
  341TMC3    C7 5121   3.431   3.680   9.582  0.4642 -0.0039 -0.1319
  341TMC3    C8 5122   3.034   3.521   9.809 -0.7636  0.2652 -0.1723
  341TMC3    O1 5123   3.550   3.656   9.581  0.2026 -0.0320  0.5430
  341TMC3    O2 5124   3.019   3.414   9.865 -0.5019  0.2483  0.0204
  342MPD2     C 5125   0.067   2.678  17.024 -0.6712 -0.4820 -0.2453
  342MPD2    C1 5126   0.148   2.674  17.133 -0.6147 -0.2460 -0.6211
  342MPD2    C2 5127   0.164   2.796  17.204  0.1595 -0.0085 -0.2396
  342MPD2    C3 5128   0.090   2.911  17.173 -0.1273  0.0635 -0.4388
  342MPD2    C4 5129   0.004   2.906  17.066 -0.9853  0.3610 -0.4110
  342MPD2    C5 5130   0.004   2.797  16.985 -0.4061 -0.1683 -0.9525
  342MPD2     H 5131   0.239   2.800  17.283 -0.0371 -2.1357  0.0399
  342MPD2    H1 5132   4.672   2.992  17.039  2.3138  1.5243 -3.9114
  342MPD2    H2 5133   0.066   2.590  16.961 -0.2790  0.0846 -1.0305
  342MPD2    H3 5134   4.672   2.815  16.896 -1.6634  2.3904  0.4111
  342MPD2     N 5135   0.113   3.024  17.260  0.9233  0.6524 -0.5215
  342MPD2    H5 5136   0.188   3.009  17.327 -0.1569  1.1038  0.8122
  342MPD2    N1 5137   0.236   2.561  17.163  0.1748 -0.1234  0.7690
  342MPD2    H7 5138   0.310   2.573  17.232 -0.6317  4.4380  0.8297
  343TMC3    C1 5139   0.301   2.337  17.171  0.1851 -0.2529  0.4668
  343TMC3    C2 5140   0.432   2.368  17.168  0.0031  0.1695 -0.2801
  343TMC3    C3 5141   0.525   2.269  17.195  0.2074  0.4706  0.1730
  343TMC3    C4 5142   0.257   2.210  17.203  0.6206  0.1556 -0.4997
  343TMC3    C5 5143   0.353   2.110  17.231  0.6923 -1.0450  0.2008
  343TMC3    C6 5144   0.487   2.142  17.230  0.3746  0.5156  0.4257
  343TMC3     C 5145   0.206   2.432  17.129  0.3593  0.7712  0.1099
  343TMC3     O 5146   0.107   2.397  17.068 -0.6051  0.2517  0.8735
  343TMC3     H 5147   0.475   2.467  17.154 -0.8985  0.9882  2.7855
  343TMC3    H1 5148   0.150   2.196  17.209  0.5347  1.1703  0.3178
  343TMC3    H2 5149   0.567   2.080  17.269  0.4798 -0.2588 -1.0032
  343TMC3    C7 5150   0.316   2.006  17.324 -0.3735  0.1531  0.2689
  343TMC3    C8 5151   0.667   2.306  17.188  0.5595  0.1249  0.2663
  343TMC3    O1 5152   0.214   1.947  17.297 -0.2832 -0.0709  0.8470
  343TMC3    O2 5153   0.702   2.414  17.230 -0.0289  0.2656 -0.2924
  344MPD2     C 5154   1.671   1.449  10.750 -0.4559  0.4895  0.8292
  344MPD2    C1 5155   1.597   1.510  10.648  0.0923 -0.4541 -0.2128
  344MPD2    C2 5156   1.640   1.632  10.595  0.3562 -0.6521  0.3280
  344MPD2    C3 5157   1.751   1.691  10.648  0.2471  0.4909 -0.2904
  344MPD2    C4 5158   1.816   1.641  10.758  0.0579  0.1091 -0.1950
  344MPD2    C5 5159   1.779   1.516  10.801  0.2668 -0.0550  0.1969
  344MPD2     H 5160   1.584   1.672  10.511 -0.5766 -1.9500  0.3380
  344MPD2    H1 5161   1.886   1.702  10.815  1.3621 -2.4416  0.9311
  344MPD2    H2 5162   1.647   1.357  10.803 -4.2896  0.1477 -1.5145
  344MPD2    H3 5163   1.836   1.471  10.882 -2.4488  0.0174  2.1650
  344MPD2     N 5164   1.805   1.814  10.598  0.1597 -0.2803 -0.0811
  344MPD2    H5 5165   1.881   1.850  10.656  0.2326 -1.3919  0.5032
  344MPD2    N1 5166   1.481   1.464  10.598 -0.2634  0.0384 -0.1422
  344MPD2    H7 5167   1.441   1.521  10.523  0.5790 -0.8669 -1.2858
  345TMC3    C1 5168   1.861   1.998  10.480 -0.3563 -0.8038  0.2173
  345TMC3    C2 5169   1.992   1.998  10.516  0.0256  0.4828  0.2413
  345TMC3    C3 5170   2.077   2.105  10.485 -0.2616 -0.2985  0.1752
  345TMC3    C4 5171   1.814   2.109  10.422 -0.7894  0.5775 -0.3034
  345TMC3    C5 5172   1.897   2.215  10.397  0.4258 -0.5327 -0.2146
  345TMC3    C6 5173   2.028   2.222  10.428  0.4384  0.1410 -0.1064
  345TMC3     C 5174   1.770   1.889  10.491  0.9373 -0.2342  0.5074
  345TMC3     O 5175   1.684   1.872  10.408  0.0551 -0.5523 -0.5323
  345TMC3     H 5176   2.039   1.901  10.532 -1.7054  0.0967  2.9308
  345TMC3    H1 5177   1.709   2.101  10.397 -0.7311  1.0805 -0.7042
  345TMC3    H2 5178   2.094   2.301  10.393 -0.5395  1.6051  1.3142
  345TMC3    C7 5179   1.847   2.325  10.322  0.2989  0.9455 -0.1185
  345TMC3    C8 5180   2.209   2.115  10.540  0.5647 -0.1483 -0.4050
  345TMC3    O1 5181   1.908   2.432  10.327  0.1027 -0.2409 -0.3305
  345TMC3    O2 5182   2.280   2.204  10.500 -0.3224 -0.2586  0.4795
  346MPD2     C 5183   1.435   3.938  14.438 -0.6856  0.4020  0.1446
  346MPD2    C1 5184   1.464   4.042  14.348 -0.4541 -0.0693 -0.3693
  346MPD2    C2 5185   1.530   4.157  14.395 -0.5260 -0.3796  0.4264
  346MPD2    C3 5186   1.563   4.168  14.529  0.7815 -0.0255  0.2284
  346MPD2    C4 5187   1.532   4.063  14.617  0.4531  0.3687 -0.8968
  346MPD2    C5 5188   1.477   3.951  14.569  0.3622  0.0378  0.5364
  346MPD2     H 5189   1.544   4.232  14.318  0.3934  0.1735  1.1330
  346MPD2    H1 5190   1.548   4.077  14.723 -2.0781 -2.3127 -0.1718
  346MPD2    H2 5191   1.401   3.842  14.401 -1.2262  0.9873 -0.8599
  346MPD2    H3 5192   1.445   3.873  14.637 -0.4870  0.2698  0.4050
  346MPD2     N 5193   1.634   4.278  14.575  0.1646  0.2709  0.6661
  346MPD2    H5 5194   1.650   4.354  14.510 -0.3771  0.3174  0.5893
  346MPD2    N1 5195   1.440   4.040  14.213  0.3908  0.3661  0.3181
  346MPD2    H7 5196   1.451   4.127  14.162  0.9930 -0.9631 -1.8048
  347TMC3    C1 5197   1.775   4.410  14.702 -0.1116 -0.2370 -0.2663
  347TMC3    C2 5198   1.849   4.433  14.587  0.1837  0.4639 -0.1139
  347TMC3    C3 5199   1.948   4.527  14.590 -0.1517  0.0572 -0.3510
  347TMC3    C4 5200   1.812   4.472  14.820 -0.0312  0.0476 -0.9501
  347TMC3    C5 5201   1.923   4.553  14.819 -0.4383  0.0959 -0.3005
  347TMC3    C6 5202   1.991   4.587  14.705 -0.4646  0.2220 -0.5204
  347TMC3     C 5203   1.674   4.300  14.704  0.0038 -0.0831  0.8780
  347TMC3     O 5204   1.627   4.259  14.814 -0.0366 -0.0803  0.5063
  347TMC3     H 5205   1.839   4.361  14.507  2.5910 -0.5721  0.5025
  347TMC3    H1 5206   1.750   4.447  14.906 -0.2057 -0.2868 -1.1766
  347TMC3    H2 5207   2.059   4.671  14.705 -0.6315  0.3668 -1.5313
  347TMC3    C7 5208   1.950   4.626  14.939  0.4552 -0.3110 -0.3243
  347TMC3    C8 5209   2.035   4.522  14.471  0.2780  0.5174  0.2830
  347TMC3    O1 5210   1.858   4.617  15.022  0.1887 -0.4625 -0.2474
  347TMC3    O2 5211   1.978   4.462  14.383  0.0565 -0.0371  0.3753
  348MPD2     C 5212   0.305   3.408  12.331  0.1599 -0.3254 -0.1050
  348MPD2    C1 5213   0.267   3.325  12.232  0.0499 -0.0629 -0.2663
  348MPD2    C2 5214   0.243   3.376  12.107  0.0473  0.1152  0.5782
  348MPD2    C3 5215   0.271   3.508  12.081 -0.4448  0.1537  0.5211
  348MPD2    C4 5216   0.323   3.587  12.179 -0.8973 -0.1760  0.2733
  348MPD2    C5 5217   0.336   3.542  12.305 -0.5381  0.1178  0.0285
  348MPD2     H 5218   0.214   3.315  12.022 -0.2381  0.5662  0.3482
  348MPD2    H1 5219   0.331   3.694  12.159  0.2114 -0.2963  0.0433
  348MPD2    H2 5220   0.307   3.369  12.432 -0.1285 -2.4058 -0.8869
  348MPD2    H3 5221   0.366   3.609  12.384  0.4063  0.6124 -0.7479
  348MPD2     N 5222   0.232   3.559  11.950 -0.0314  0.0930  0.0829
  348MPD2    H5 5223   0.180   3.492  11.895  3.0516 -1.6866 -0.6867
  348MPD2    N1 5224   0.272   3.184  12.242  0.4755  0.4968  0.0033
  348MPD2    H7 5225   0.254   3.130  12.158  0.3763  1.8403 -0.8235
  349TMC3    C1 5226   0.337   2.965  12.328  0.6653  0.0778 -0.5327
  349TMC3    C2 5227   0.354   2.888  12.441 -0.0709 -0.3680 -0.4067
  349TMC3    C3 5228   0.436   2.777  12.426 -0.8134  0.4427 -0.6009
  349TMC3    C4 5229   0.421   2.958  12.222  0.5351  0.2491 -0.5377
  349TMC3    C5 5230   0.517   2.861  12.222  0.1916  0.2047  0.4267
  349TMC3    C6 5231   0.519   2.765  12.317 -0.0194  0.2784  0.2084
  349TMC3     C 5232   0.303   3.110  12.356  0.1679 -0.3530 -0.3576
  349TMC3     O 5233   0.300   3.144  12.474 -0.3242 -0.2262  0.0063
  349TMC3     H 5234   0.287   2.893  12.526  0.2349 -1.1723 -0.1236
  349TMC3    H1 5235   0.406   3.021  12.134 -1.2386  1.2875  0.5123
  349TMC3    H2 5236   0.596   2.690  12.307 -1.9834 -1.7910  0.4033
  349TMC3    C7 5237   0.626   2.855  12.127 -0.2557 -0.0703  0.1832
  349TMC3    C8 5238   0.411   2.672  12.518  0.4609 -0.4564 -0.5400
  349TMC3    O1 5239   0.661   2.755  12.072  0.0631  0.0629  0.0075
  349TMC3    O2 5240   0.306   2.671  12.581 -0.6898  0.0906  0.0563
  350MPD2     C 5241   3.535   1.345  10.272 -0.3592  0.1227 -0.2477
  350MPD2    C1 5242   3.613   1.264  10.188  0.2236  0.4790  0.0011
  350MPD2    C2 5243   3.738   1.321  10.161 -0.3708 -0.0032  0.5149
  350MPD2    C3 5244   3.785   1.435  10.223 -0.1961 -0.3455 -0.4023
  350MPD2    C4 5245   3.708   1.511  10.310  0.4873  0.0065 -0.7121
  350MPD2    C5 5246   3.584   1.461  10.334  0.0545  0.1985  0.8901
  350MPD2     H 5247   3.810   1.270  10.097 -0.5082 -0.2229  0.5364
  350MPD2    H1 5248   3.737   1.599  10.364 -2.0876  0.9619 -0.8888
  350MPD2    H2 5249   3.434   1.323  10.304 -1.0184  1.2447 -1.5388
  350MPD2    H3 5250   3.512   1.512  10.396  1.1406  0.9755  1.5015
  350MPD2     N 5251   3.922   1.455  10.208 -0.9965 -0.1764  0.0929
  350MPD2    H5 5252   3.970   1.388  10.149  0.3618  1.2192 -0.3895
  350MPD2    N1 5253   3.571   1.138  10.136 -0.1804 -0.1124 -0.3980
  350MPD2    H7 5254   3.639   1.098  10.072  0.1215 -0.4819  0.1633
  351TMC3    C1 5255   3.436   0.959  10.087  0.0346  0.2116 -0.0473
  351TMC3    C2 5256   3.527   0.910   9.999 -0.0150 -0.0244  0.1391
  351TMC3    C3 5257   3.499   0.819   9.901  0.5638  0.1606 -0.1313
  351TMC3    C4 5258   3.313   0.909  10.088 -0.1164 -0.2648  0.2232
  351TMC3    C5 5259   3.287   0.818   9.989 -0.0316  0.2054 -0.0488
  351TMC3    C6 5260   3.371   0.772   9.892  0.8751  0.0359  0.1390
  351TMC3     C 5261   3.452   1.080  10.169 -0.4611  0.7458  0.2454
  351TMC3     O 5262   3.373   1.103  10.261 -0.1556 -0.5778  0.0908
  351TMC3     H 5263   3.627   0.946  10.021  0.1337  0.8553 -1.9174
  351TMC3    H1 5264   3.242   0.936  10.166  0.2474  1.3195  0.0102
  351TMC3    H2 5265   3.354   0.694   9.819  1.1326  1.9606 -1.9622
  351TMC3    C7 5266   3.158   0.765   9.998 -0.0427 -0.4946 -0.5290
  351TMC3    C8 5267   3.605   0.741   9.835  0.8523 -0.0467 -0.4295
  351TMC3    O1 5268   3.083   0.788  10.094 -0.0488 -0.4180  0.4162
  351TMC3    O2 5269   3.566   0.643   9.769 -0.2080  0.3418  0.2865
  352MPD2     C 5270   1.999   3.489   1.078 -0.0672 -0.1874  0.1623
  352MPD2    C1 5271   1.863   3.517   1.094  0.4325  0.6296  0.3336
  352MPD2    C2 5272   1.793   3.433   1.184  0.1114  0.4970  0.2542
  352MPD2    C3 5273   1.855   3.326   1.245  0.0859 -0.4344 -0.7331
  352MPD2    C4 5274   1.990   3.303   1.210  0.0121 -0.0923 -0.3019
  352MPD2    C5 5275   2.062   3.394   1.144  0.0637 -0.5371  0.5662
  352MPD2     H 5276   1.687   3.452   1.191 -0.1496 -0.5666 -0.7973
  352MPD2    H1 5277   2.046   3.216   1.244  1.3598  0.9342  0.1172
  352MPD2    H2 5278   2.062   3.554   1.017  0.5107 -0.4694  0.4536
  352MPD2    H3 5279   2.166   3.377   1.121  0.4252  1.4002  0.8095
  352MPD2     N 5280   1.795   3.229   1.327 -0.1823 -0.1376 -0.2505
  352MPD2    H5 5281   1.858   3.173   1.383  0.8338 -0.2048 -1.4496
  352MPD2    N1 5282   1.813   3.620   1.014 -0.3561  0.4619  0.2125
  352MPD2    H7 5283   1.876   3.641   0.938 -1.6975  2.3824 -0.3647
  353TMC3    C1 5284   1.609   3.117   1.457  0.0194 -1.0304 -0.8241
  353TMC3    C2 5285   1.697   3.025   1.522 -0.5608  0.3418  0.8673
  353TMC3    C3 5286   1.644   2.929   1.612  0.3857 -0.4776 -0.2553
  353TMC3    C4 5287   1.473   3.102   1.473 -0.6373 -0.1041 -0.0576
  353TMC3    C5 5288   1.425   2.995   1.551  1.3007 -0.2366 -0.8495
  353TMC3    C6 5289   1.508   2.912   1.626  0.3839 -0.5973  0.7409
  353TMC3     C 5290   1.656   3.228   1.367 -0.0503  0.3668 -0.1020
  353TMC3     O 5291   1.563   3.302   1.337 -0.6640  0.2579  0.1378
  353TMC3     H 5292   1.804   3.036   1.512 -0.6390 -0.7518 -1.2366
  353TMC3    H1 5293   1.403   3.163   1.417 -1.0363 -1.2338 -0.7765
  353TMC3    H2 5294   1.478   2.826   1.685  2.1606 -0.3603  1.9880
  353TMC3    C7 5295   1.317   2.930   1.480 -0.5285 -0.3768  0.1321
  353TMC3    C8 5296   1.737   2.829   1.656  0.4441  0.1675  0.0830
  353TMC3    O1 5297   1.299   2.967   1.364  0.2047 -0.8239  0.7321
  353TMC3    O2 5298   1.695   2.772   1.754  0.2799  0.0756  0.1974
  354TMC3    C1 5299   3.844   0.076  13.763 -0.0246  0.6920 -0.8532
  354TMC3    C2 5300   3.947   0.167  13.733 -0.2126  0.3340  0.4831
  354TMC3    C3 5301   3.979   0.197  13.602 -0.2484 -0.4100 -0.1762
  354TMC3    C4 5302   3.773   0.014  13.660 -0.1480  0.6011  0.6438
  354TMC3    C5 5303   3.817   0.030  13.532  0.9344 -0.2343 -0.7562
  354TMC3    C6 5304   3.909   0.129  13.499  0.2085  0.2348  0.2525
  354TMC3     C 5305   3.849   0.004  13.887  0.1085 -0.7920  0.4433
  354TMC3     O 5306   3.826   4.613  13.881 -0.1291  0.2478 -0.0219
  354TMC3     H 5307   3.998   0.223  13.811  0.0670  2.5241 -1.2662
  354TMC3    H1 5308   3.703   4.665  13.691  1.8403 -1.4843 -0.0754
  354TMC3    H2 5309   3.967   0.125  13.407 -0.6699 -0.3973 -0.2662
  354TMC3    C7 5310   3.745   4.670  13.436 -0.3225  0.1188  0.2673
  354TMC3    C8 5311   4.071   0.304  13.571 -0.2286 -0.0864  0.1315
  354TMC3    O1 5312   3.654   4.598  13.472  0.6172 -0.3789 -0.3008
  354TMC3    O2 5313   4.124   0.372  13.662  0.1277 -0.2964  0.7165
  355MPD2     C 5314   4.180   0.783  12.117  0.5545  0.3237 -0.1544
  355MPD2    C1 5315   4.210   0.839  11.990 -0.0328  0.0626  0.7047
  355MPD2    C2 5316   4.341   0.869  11.964  0.3010 -0.5459  0.4926
  355MPD2    C3 5317   4.437   0.866  12.064  0.3710  0.2089 -0.4920
  355MPD2    C4 5318   4.411   0.815  12.189 -0.1265  0.4863  0.8181
  355MPD2    C5 5319   4.285   0.768  12.209  0.3189  0.6521 -0.4423
  355MPD2     H 5320   4.370   0.891  11.862  2.3412  0.5129  1.2915
  355MPD2    H1 5321   4.483   0.821  12.271  1.0684 -1.0135 -0.1191
  355MPD2    H2 5322   4.077   0.754  12.132  2.1619 -4.7898  0.8906
  355MPD2    H3 5323   4.260   0.725  12.305  1.3677  0.0135 -0.4503
  355MPD2     N 5324   4.572   0.921  12.044 -0.3947 -0.0116  0.2364
  355MPD2    H5 5325   4.637   0.924  12.122 -1.3911 -1.5575  1.1204
  355MPD2    N1 5326   4.102   0.859  11.908 -0.2688  0.0801  0.3838
  355MPD2    H7 5327   4.014   0.823  11.944 -1.0894 -1.0211 -2.7189
  356TMC3    C1 5328   4.719   1.062  11.929  0.7738  0.3982 -0.1163
  356TMC3    C2 5329   0.035   1.112  11.812  0.0224  0.0168 -0.0844
  356TMC3    C3 5330   0.109   1.229  11.811  0.5355  0.3104 -0.4524
  356TMC3    C4 5331   0.022   1.125  12.045 -0.8209  0.8930  0.6554
  356TMC3    C5 5332   0.095   1.242  12.038  0.2349  0.5722  0.1817
  356TMC3    C6 5333   0.142   1.299  11.920  0.0670 -0.0465  0.0275
  356TMC3     C 5334   4.612   0.966  11.923  0.2339 -0.2619  1.0216
  356TMC3     O 5335   4.576   0.933  11.811 -0.1634 -0.5836  0.3073
  356TMC3     H 5336   4.723   1.071  11.720  0.1946  1.1138 -0.6354
  356TMC3    H1 5337   4.696   1.094  12.134 -1.4359 -0.2818 -0.1155
  356TMC3    H2 5338   0.185   1.398  11.917 -2.8268  1.1905 -0.7368
  356TMC3    C7 5339   0.167   1.274  12.158 -0.5371  0.3786 -0.3983
  356TMC3    C8 5340   0.140   1.285  11.679  0.1818  0.0115 -0.4345
  356TMC3    O1 5341   0.152   1.194  12.249 -0.0073  0.4181  0.2322
  356TMC3    O2 5342   0.065   1.267  11.583  0.0057  0.6938  0.1789
  357MPD2     C 5343   3.613   0.975   1.166 -0.0439  0.3142  0.4237
  357MPD2    C1 5344   3.514   0.886   1.122  0.0690 -0.0467 -0.3593
  357MPD2    C2 5345   3.382   0.898   1.168  0.5309  0.3103 -0.4285
  357MPD2    C3 5346   3.347   1.004   1.249  0.5184  0.2479  0.3625
  357MPD2    C4 5347   3.448   1.096   1.285  0.5669  0.3367  0.2095
  357MPD2    C5 5348   3.580   1.084   1.246 -0.0018  0.1651 -0.2476
  357MPD2     H 5349   3.303   0.826   1.150 -0.6295  1.5994 -0.4763
  357MPD2    H1 5350   3.435   1.180   1.352  0.7421  2.0202 -1.8350
  357MPD2    H2 5351   3.712   0.968   1.124  0.0113 -0.6678  0.7172
  357MPD2    H3 5352   3.658   1.156   1.269  0.0398 -0.5213  1.7925
  357MPD2     N 5353   3.221   1.026   1.307 -0.0624  0.0316  0.4757
  357MPD2    H5 5354   3.206   1.109   1.363 -0.0003  1.0897 -1.0773
  357MPD2    N1 5355   3.557   0.781   1.036  0.4110  0.1140 -0.3072
  357MPD2    H7 5356   3.652   0.784   1.000  0.5090  0.4663 -0.0195
  358TMC3    C1 5357   3.555   0.585   0.922 -0.4816  0.2561  0.5139
  358TMC3    C2 5358   3.642   0.630   0.832 -0.0328 -0.0393  0.0658
  358TMC3    C3 5359   3.727   0.538   0.778 -0.5326  0.4871  0.6923
  358TMC3    C4 5360   3.541   0.454   0.957 -0.3092  0.2654  0.0591
  358TMC3    C5 5361   3.638   0.368   0.907  0.5695  0.0659  0.3240
  358TMC3    C6 5362   3.722   0.406   0.813  0.5197  0.0708  0.1962
  358TMC3     C 5363   3.478   0.675   1.002  0.6208 -0.2698 -0.3069
  358TMC3     O 5364   3.368   0.643   1.044 -0.0071 -0.0769 -0.4134
  358TMC3     H 5365   3.626   0.733   0.801  1.0273  0.3463  0.8271
  358TMC3    H1 5366   3.485   0.434   1.047  0.0473 -0.6484  0.0784
  358TMC3    H2 5367   3.801   0.336   0.791  0.8759  0.4723  0.1977
  358TMC3    C7 5368   3.678   0.258   1.006  0.0736  0.5409 -0.1227
  358TMC3    C8 5369   3.834   0.578   0.694  0.4778  0.0448  0.1389
  358TMC3    O1 5370   3.604   0.229   1.098  0.3147  0.1472 -0.2221
  358TMC3    O2 5371   3.898   0.483   0.656 -0.0456 -0.5299 -0.0998
  359MPD2     C 5372   4.716   4.432  12.551  0.0494 -0.1482  0.4839
  359MPD2    C1 5373   4.682   4.385  12.430 -0.0712  0.0316 -0.4630
  359MPD2    C2 5374   4.548   4.398  12.387  0.9264 -0.0443  0.1113
  359MPD2    C3 5375   4.452   4.450  12.468 -0.1492 -0.4106 -0.1783
  359MPD2    C4 5376   4.483   4.496  12.595  0.2913 -0.2037  0.1488
  359MPD2    C5 5377   4.617   4.489  12.635 -0.4644  1.6791  0.2292
  359MPD2     H 5378   4.512   4.375  12.288  0.6427  0.9248 -0.0082
  359MPD2    H1 5379   4.411   4.535  12.666 -1.9780 -4.5937  0.2327
  359MPD2    H2 5380   0.085   4.413  12.596  0.7621 -1.9036 -1.8030
  359MPD2    H3 5381   4.646   4.497  12.740 -0.4417 -0.7877  0.4065
  359MPD2     N 5382   4.319   4.441  12.424 -1.1065  0.7047  0.3028
  359MPD2    H5 5383   4.302   4.410  12.329 -1.9123 -3.4589  1.8180
  359MPD2    N1 5384   0.039   4.332  12.333 -0.3860 -0.3668 -0.5853
  359MPD2    H7 5385   4.723   4.299  12.248 -1.8440 -1.4479  0.5855
  360TMC3    C1 5386   0.241   4.257  12.230  0.5894  0.1449  0.2690
  360TMC3    C2 5387   0.366   4.293  12.215 -0.4841 -0.0896 -0.3254
  360TMC3    C3 5388   0.437   4.251  12.113  0.2820  0.0028  0.2782
  360TMC3    C4 5389   0.186   4.165  12.151 -0.6467  1.0648  1.1058
  360TMC3    C5 5390   0.265   4.102  12.054  0.1177  0.6272  0.5478
  360TMC3    C6 5391   0.387   4.155  12.028 -0.0689 -0.1564 -0.4118
  360TMC3     C 5392   0.176   4.309  12.353 -0.1513  0.0322  0.4071
  360TMC3     O 5393   0.242   4.346  12.448  0.2445  0.5000 -0.1899
  360TMC3     H 5394   0.395   4.381  12.272  0.4099  0.4069 -1.5621
  360TMC3    H1 5395   0.081   4.140  12.160 -0.0937 -1.0023  1.7397
  360TMC3    H2 5396   0.442   4.109  11.946 -0.2159 -0.7747 -0.1608
  360TMC3    C7 5397   0.204   4.050  11.943  0.3569 -0.0323  0.5291
  360TMC3    C8 5398   0.559   4.321  12.085 -0.0512  0.3017 -0.3014
  360TMC3    O1 5399   0.256   4.073  11.839 -0.4491 -0.0540 -0.1979
  360TMC3    O2 5400   0.606   4.404  12.166  0.3780 -0.3616 -0.1020
  361MPD2     C 5401   1.068   3.121  16.473 -0.2303 -0.2028 -0.2413
  361MPD2    C1 5402   1.052   3.138  16.608 -0.8553 -0.2802  0.5934
  361MPD2    C2 5403   1.132   3.072  16.702 -0.5129 -0.0627 -0.8457
  361MPD2    C3 5404   1.235   2.992  16.653  0.1149 -0.3126 -0.5974
  361MPD2    C4 5405   1.242   2.966  16.517  0.0312 -0.7152 -0.4019
  361MPD2    C5 5406   1.164   3.029  16.434  0.1236  0.5240  0.4442
  361MPD2     H 5407   1.116   3.099  16.806  3.4578  2.8505 -0.9829
  361MPD2    H1 5408   1.315   2.892  16.486  4.6532  2.6668  2.2827
  361MPD2    H2 5409   1.008   3.169  16.397 -0.5813  0.0092  0.1665
  361MPD2    H3 5410   1.168   2.997  16.330  0.8589 -2.0972  1.2813
  361MPD2     N 5411   1.323   2.922  16.732 -0.1961 -0.2804  0.5986
  361MPD2    H5 5412   1.387   2.860  16.683  1.9013  1.7234  0.7983
  361MPD2    N1 5413   0.951   3.228  16.640  0.0795 -0.4799  0.2075
  361MPD2    H7 5414   0.905   3.281  16.567  0.2296 -0.9624 -0.2405
  362TMC3    C1 5415   0.784   3.342  16.758 -0.9274 -0.1720 -0.3597
  362TMC3    C2 5416   0.683   3.329  16.849 -0.2802  0.4440 -0.0126
  362TMC3    C3 5417   0.580   3.417  16.838 -0.8209  0.1743  0.1686
  362TMC3    C4 5418   0.793   3.438  16.656 -0.6065  0.0328 -0.0028
  362TMC3    C5 5419   0.680   3.526  16.656  0.0939 -0.0009  0.2064
  362TMC3    C6 5420   0.577   3.517  16.742  0.1140 -0.2724 -0.2603
  362TMC3     C 5421   0.894   3.244  16.762  0.7239  0.8058  0.5385
  362TMC3     O 5422   0.926   3.199  16.870 -0.0126  0.9061  0.1952
  362TMC3     H 5423   0.691   3.265  16.936 -2.8595 -0.4251 -0.4308
  362TMC3    H1 5424   0.882   3.446  16.595 -0.7008 -2.1335 -0.4171
  362TMC3    H2 5425   0.487   3.578  16.736 -1.0658 -1.9876  0.2918
  362TMC3    C7 5426   0.666   3.610  16.544 -0.5468  0.8694  0.1465
  362TMC3    C8 5427   0.458   3.378  16.904  0.1725  0.0845  0.8547
  362TMC3    O1 5428   0.767   3.679  16.524  0.4242 -0.1464 -0.4771
  362TMC3    O2 5429   0.429   3.257  16.924 -0.0693 -0.3537  0.2222
  363TMC3    C1 5430   4.446   0.047   9.162 -0.6327 -0.2850 -0.4252
  363TMC3    C2 5431   4.554   0.028   9.243 -0.1183  0.4568 -0.1161
  363TMC3    C3 5432   4.546   0.076   9.373  0.4632  0.0021 -0.0564
  363TMC3    C4 5433   4.326   0.098   9.196  0.7748  0.1969 -0.7642
  363TMC3    C5 5434   4.327   0.149   9.325  0.6429  0.4862 -0.1936
  363TMC3    C6 5435   4.432   0.138   9.412  0.9816  0.2436 -0.2190
  363TMC3     C 5436   4.468   0.016   9.023  0.0592  0.3726  0.1981
  363TMC3     O 5437   4.403   0.079   8.945 -0.3190  0.3914  0.5147
  363TMC3     H 5438   4.650   0.003   9.198  0.5771  0.2522  1.4436
  363TMC3    H1 5439   4.245   0.095   9.125 -0.7205 -0.1686  0.9520
  363TMC3    H2 5440   4.434   0.198   9.502  1.6109  1.3695 -0.9670
  363TMC3    C7 5441   4.235   0.263   9.344 -0.4055  0.1147 -0.4206
  363TMC3    C8 5442   4.656   0.073   9.465  0.1784  0.0576 -0.0370
  363TMC3    O1 5443   4.248   0.326   9.451  0.1764 -0.4760 -0.5051
  363TMC3    O2 5444   4.674   0.160   9.550  0.5509 -0.2070 -0.3454
  364MPD2     C 5445   3.526   0.152  11.001  0.5656 -0.0663 -0.6827
  364MPD2    C1 5446   3.537   0.081  10.880 -0.5450 -0.5525 -0.3249
  364MPD2    C2 5447   3.534   4.668  10.887  0.0858 -0.4069  0.5518
  364MPD2    C3 5448   3.517   4.609  11.013  0.0551  0.1299 -0.4823
  364MPD2    C4 5449   3.487   4.678  11.123 -0.1537  0.7698  0.1015
  364MPD2    C5 5450   3.497   0.087  11.119  0.5090 -0.1335  0.1898
  364MPD2     H 5451   3.528   4.610  10.796  0.0086 -1.3401  1.1489
  364MPD2    H1 5452   3.476   4.636  11.222 -0.8653  0.2878 -0.1824
  364MPD2    H2 5453   3.543   0.260  10.998 -1.2485  0.2618  1.1512
  364MPD2    H3 5454   3.496   0.143  11.212  1.6952 -1.9743  1.3209
  364MPD2     N 5455   3.520   4.467  11.027 -0.6216  0.0160 -0.1038
  364MPD2    H5 5456   3.506   4.431  11.121  0.4632  3.4339  1.3383
  364MPD2    N1 5457   3.559   0.156  10.766  0.0041  0.2497  0.1205
  364MPD2    H7 5458   3.588   0.254  10.766  0.5277  0.0970 -1.0189
  365TMC3    C1 5459   3.613   0.200  10.538 -0.0355  0.5137 -0.1863
  365TMC3    C2 5460   3.562   0.176  10.416 -0.1787  0.1750  0.2543
  365TMC3    C3 5461   3.579   0.278  10.324  0.1350  1.1104 -0.9262
  365TMC3    C4 5462   3.677   0.315  10.582  0.6883  0.3978  0.3096
  365TMC3    C5 5463   3.669   0.415  10.485 -0.7069 -0.5423  0.4544
  365TMC3    C6 5464   3.628   0.399  10.353 -0.3180 -0.1060  0.4094
  365TMC3     C 5465   3.574   0.098  10.637 -0.2332 -0.2343  0.1484
  365TMC3     O 5466   3.544   4.715  10.598 -1.0273  0.1365 -0.1027
  365TMC3     H 5467   3.516   0.083  10.384  0.9085  0.4832 -2.1679
  365TMC3    H1 5468   3.736   0.318  10.673  2.9858 -0.9358 -1.1115
  365TMC3    H2 5469   3.638   0.474  10.275 -1.0142  0.1770  0.5966
  365TMC3    C7 5470   3.733   0.538  10.510 -0.6282  0.2115 -0.4434
  365TMC3    C8 5471   3.567   0.247  10.187  0.3506  0.0843  0.6699
  365TMC3    O1 5472   3.770   0.610  10.415 -0.4057  0.0655 -0.3358
  365TMC3    O2 5473   3.532   0.340  10.117 -0.6828 -0.1679 -0.4426
  366MPD2     C 5474   1.337   1.690  15.428  0.8807  0.5368 -0.2411
  366MPD2    C1 5475   1.457   1.756  15.430  0.3309 -0.2885  0.3038
  366MPD2    C2 5476   1.569   1.699  15.368 -0.3140  0.1579  0.4841
  366MPD2    C3 5477   1.554   1.571  15.318 -0.0482  1.1815 -1.0980
  366MPD2    C4 5478   1.435   1.503  15.324 -0.4046  0.6009  0.3234
  366MPD2    C5 5479   1.321   1.567  15.371 -0.0918  0.1813  0.0008
  366MPD2     H 5480   1.664   1.750  15.370 -0.3527  0.2435  0.2001
  366MPD2    H1 5481   1.418   1.401  15.290  2.0485  0.5015 -0.5912
  366MPD2    H2 5482   1.251   1.733  15.479  0.4651 -1.3750  0.6670
  366MPD2    H3 5483   1.225   1.517  15.369  0.0381 -0.0537 -0.4099
  366MPD2     N 5484   1.665   1.514  15.257 -0.0305  0.2709  0.0606
  366MPD2    H5 5485   1.718   1.588  15.213 -0.4868  1.4676  1.5669
  366MPD2    N1 5486   1.477   1.877  15.491  0.1693  0.1981 -0.2572
  366MPD2    H7 5487   1.571   1.913  15.481  0.5653 -0.8252 -0.1490
  367TMC3    C1 5488   1.438   2.084  15.584  0.8593  0.3007 -1.0886
  367TMC3    C2 5489   1.565   2.083  15.629 -0.7342 -1.0588 -0.1819
  367TMC3    C3 5490   1.625   2.200  15.656 -0.1129 -0.1664  0.6186
  367TMC3    C4 5491   1.381   2.204  15.546  0.6143  0.0630  0.2506
  367TMC3    C5 5492   1.456   2.316  15.562  0.0104  0.3036  0.2526
  367TMC3    C6 5493   1.582   2.320  15.618 -0.6188  0.5943 -0.2422
  367TMC3     C 5494   1.375   1.966  15.532  0.0034  0.7048  0.8768
  367TMC3     O 5495   1.259   1.969  15.490  0.1804 -0.0640 -0.0901
  367TMC3     H 5496   1.597   1.990  15.675 -3.3054 -1.4009  0.9499
  367TMC3    H1 5497   1.277   2.208  15.516  0.3155  1.3302  1.4486
  367TMC3    H2 5498   1.640   2.412  15.621 -1.1942  0.9330  0.5195
  367TMC3    C7 5499   1.402   2.442  15.518  0.2917  0.1041  0.4374
  367TMC3    C8 5500   1.769   2.190  15.692  0.3938  0.0847 -0.2861
  367TMC3    O1 5501   1.441   2.547  15.564 -0.2258  0.8348 -0.1813
  367TMC3    O2 5502   1.813   2.081  15.728 -0.6084  0.0989 -0.0529
  368MPD2     C 5503   2.818   3.411  13.022  0.4505  0.2050  0.6112
  368MPD2    C1 5504   2.767   3.532  12.993 -0.6325  0.0251 -0.7989
  368MPD2    C2 5505   2.836   3.627  12.927  0.7426  0.3721 -0.1706
  368MPD2    C3 5506   2.973   3.604  12.907  0.4191  0.1244  0.8000
  368MPD2    C4 5507   3.031   3.484  12.946  0.7938 -0.1255 -0.6144
  368MPD2    C5 5508   2.951   3.389  13.000 -0.1131  0.1095  0.0025
  368MPD2     H 5509   2.786   3.716  12.892  0.1621  0.0453 -0.1734
  368MPD2    H1 5510   3.133   3.457  12.921  0.5872 -2.5424  1.0667
  368MPD2    H2 5511   2.756   3.332  13.064 -2.3953  1.2779 -1.5378
  368MPD2    H3 5512   2.995   3.291  13.009  0.7717  0.5275  0.2556
  368MPD2     N 5513   3.052   3.702  12.838  0.4711  0.3043 -0.3457
  368MPD2    H5 5514   3.151   3.680  12.846 -0.2071 -2.4468  0.3603
  368MPD2    N1 5515   2.627   3.556  13.025 -0.3662 -0.0261 -0.3132
  368MPD2    H7 5516   2.573   3.480  13.068  1.2816 -1.6484 -1.1093
  369TMC3    C1 5517   2.426   3.668  13.041 -0.0910  0.2754 -0.5118
  369TMC3    C2 5518   2.366   3.791  13.005 -0.3283 -0.0202  0.4041
  369TMC3    C3 5519   2.271   3.800  12.909 -0.2170  0.4236 -0.2893
  369TMC3    C4 5520   2.378   3.552  12.986 -0.2042  0.1533 -0.9742
  369TMC3    C5 5521   2.259   3.562  12.916  0.4260 -0.6214 -0.1729
  369TMC3    C6 5522   2.212   3.687  12.878 -0.7602 -0.7109 -0.1498
  369TMC3     C 5523   2.567   3.680  13.035  0.3143 -0.4727 -0.3200
  369TMC3     O 5524   2.610   3.798  13.023 -0.4677  0.0330 -0.1547
  369TMC3     H 5525   2.404   3.889  13.030 -2.0918  0.6673  0.3722
  369TMC3    H1 5526   2.415   3.454  13.012 -3.5176 -1.3616 -1.9768
  369TMC3    H2 5527   2.130   3.699  12.808 -0.1245  2.2760 -0.3728
  369TMC3    C7 5528   2.170   3.461  12.961  0.8946 -0.2119  0.5658
  369TMC3    C8 5529   2.302   3.887  12.798 -0.1761 -0.1346  0.2699
  369TMC3    O1 5530   2.206   3.390  13.050 -0.1756 -0.1391  0.4692
  369TMC3    O2 5531   2.213   3.913  12.720  0.0848  0.3016  1.1358
  370TMC3    C1 5532   2.254   4.168  16.170  0.3585  0.1570  0.2136
  370TMC3    C2 5533   2.159   4.095  16.241  0.0424 -0.2732 -0.3713
  370TMC3    C3 5534   2.123   3.972  16.184 -0.2232  0.2934 -0.6263
  370TMC3    C4 5535   2.310   4.119  16.053  0.3444 -0.1758  0.2093
  370TMC3    C5 5536   2.276   3.996  16.012  0.6971  0.8724 -0.3791
  370TMC3    C6 5537   2.192   3.917  16.079 -0.0594 -0.4160  0.0969
  370TMC3     C 5538   2.343   4.253  16.256 -0.0787 -0.0058  0.8499
  370TMC3     O 5539   2.319   4.249  16.380 -0.0570 -0.4039 -0.2710
  370TMC3     H 5540   2.111   4.142  16.326 -0.9944 -1.3657 -0.3491
  370TMC3    H1 5541   2.390   4.176  16.006  1.7413 -0.3300  2.3589
  370TMC3    H2 5542   2.176   3.817  16.040  2.1075  0.3322 -2.6988
  370TMC3    C7 5543   2.355   3.940  15.901 -0.1489 -0.4891 -0.5543
  370TMC3    C8 5544   2.046   3.870  16.255 -0.2967 -1.1337  0.2543
  370TMC3    O1 5545   2.373   4.017  15.809 -0.3522 -0.7304  0.1008
  370TMC3    O2 5546   2.058   3.754  16.220 -0.3114 -0.7213  0.2329
  371TMC3    C1 5547   3.661   2.171  15.618 -0.0652 -0.2923 -0.0839
  371TMC3    C2 5548   3.530   2.177  15.659  0.3859 -0.1997 -1.1599
  371TMC3    C3 5549   3.470   2.299  15.654  0.9405  0.2289 -0.2314
  371TMC3    C4 5550   3.728   2.282  15.571 -0.0297  0.8087 -0.6484
  371TMC3    C5 5551   3.663   2.403  15.560 -0.1570 -0.2364 -0.5862
  371TMC3    C6 5552   3.530   2.408  15.599 -0.3902  0.4885  0.0476
  371TMC3     C 5553   3.736   2.048  15.613  0.5203 -0.1344 -0.2390
  371TMC3     O 5554   3.841   2.040  15.559  0.5672 -0.9716  0.3961
  371TMC3     H 5555   3.473   2.101  15.712  0.8327  0.1057 -0.2435
  371TMC3    H1 5556   3.828   2.259  15.536  0.1806 -1.2284  1.3215
  371TMC3    H2 5557   3.477   2.502  15.587 -0.1315  0.7667  1.0351
  371TMC3    C7 5558   3.693   2.503  15.457 -0.0810  0.0415  0.1850
  371TMC3    C8 5559   3.325   2.308  15.677 -0.3202  0.2920 -0.7323
  371TMC3    O1 5560   3.642   2.614  15.470  0.4802  0.2005 -0.4323
  371TMC3    O2 5561   3.260   2.208  15.655  0.3419  0.7152  0.8930
  372MPD2     C 5562   3.299   3.637  13.242 -0.7760  0.0671 -0.4265
  372MPD2    C1 5563   3.382   3.593  13.343 -0.4859 -0.5581  0.2825
  372MPD2    C2 5564   3.338   3.506  13.439 -0.4955 -0.3384 -0.1737
  372MPD2    C3 5565   3.205   3.466  13.437  0.8148 -0.3221 -0.2914
  372MPD2    C4 5566   3.118   3.509  13.333 -0.6266 -0.5128  0.1842
  372MPD2    C5 5567   3.173   3.588  13.239  0.5027 -0.0401 -0.1324
  372MPD2     H 5568   3.405   3.484  13.521  0.4379  1.3635 -0.4701
  372MPD2    H1 5569   3.015   3.475  13.324 -0.1717 -1.3557 -1.9428
  372MPD2    H2 5570   3.332   3.702  13.161  1.2991 -0.0498  0.3073
  372MPD2    H3 5571   3.106   3.619  13.160 -1.2667 -1.5017  0.8007
  372MPD2     N 5572   3.175   3.368  13.535  0.5927  0.1041 -0.6748
  372MPD2    H5 5573   3.246   3.327  13.594  0.9037  0.2661 -0.9408
  372MPD2    N1 5574   3.515   3.625  13.340 -0.3705 -0.0008 -0.2851
  372MPD2    H7 5575   3.561   3.614  13.430  0.3347 -0.6500 -0.7283
  373TMC3    C1 5576   3.052   3.211  13.662 -0.2089  0.3247  0.3355
  373TMC3    C2 5577   2.949   3.206  13.748 -1.0399 -0.0487  0.2310
  373TMC3    C3 5578   2.946   3.100  13.828 -0.1545  0.3761 -0.1407
  373TMC3    C4 5579   3.140   3.109  13.637 -0.0184 -0.2320  0.1210
  373TMC3    C5 5580   3.134   2.999  13.720 -0.1355  0.5907 -0.8140
  373TMC3    C6 5581   3.028   2.985  13.808  0.1289  0.4136  0.7412
  373TMC3     C 5582   3.049   3.325  13.568 -0.1080  0.1369 -0.1191
  373TMC3     O 5583   2.948   3.390  13.561  0.4968 -0.0441 -0.7287
  373TMC3     H 5584   2.881   3.288  13.768 -2.5433 -0.7734 -1.8635
  373TMC3    H1 5585   3.222   3.119  13.567  1.4023  0.1813  1.8317
  373TMC3    H2 5586   2.997   2.899  13.866 -1.6358 -0.4214 -1.4491
  373TMC3    C7 5587   3.247   2.904  13.732 -0.7982  0.0421  0.0877
  373TMC3    C8 5588   2.835   3.096  13.918 -0.1917  0.1766  0.1931
  373TMC3    O1 5589   3.346   2.934  13.668 -0.3809 -0.1125  0.5375
  373TMC3    O2 5590   2.739   3.160  13.887  0.2104  0.6416 -0.5315
  374TMC3    C1 5591   4.665   2.734   9.996  1.4194  0.2543 -0.3650
  374TMC3    C2 5592   0.024   2.834   9.976  0.6997 -0.6974  0.0025
  374TMC3    C3 5593   0.038   2.884   9.848 -0.4691 -0.4099  0.6725
  374TMC3    C4 5594   4.599   2.676   9.892 -0.6460  0.0634  0.6058
  374TMC3    C5 5595   4.625   2.719   9.765  0.0371 -0.1237 -0.3660
  374TMC3    C6 5596   4.721   2.818   9.740 -0.4320 -0.6792 -0.1587
  374TMC3     C 5597   4.694   2.649  10.112  0.2465  0.0408 -0.0425
  374TMC3     O 5598   4.688   2.524  10.090  0.5981 -0.4078 -0.2948
  374TMC3     H 5599   0.097   2.863  10.050 -1.5796  1.8112  1.3095
  374TMC3    H1 5600   4.514   2.613   9.917 -0.3549 -0.1927  0.9582
  374TMC3    H2 5601   0.026   2.847   9.641  0.1486  1.8968  0.7858
  374TMC3    C7 5602   4.544   2.675   9.654 -0.1820  0.2955  0.1277
  374TMC3    C8 5603   0.067   3.029   9.825 -0.0181 -0.0971  0.2646
  374TMC3    O1 5604   4.596   2.684   9.542 -0.6606  0.0438 -0.3625
  374TMC3    O2 5605   0.055   3.073   9.713 -0.1778  0.6542 -0.1677
  375MPD2     C 5606   4.037   4.537  17.216  0.1369  0.0963  0.9617
  375MPD2    C1 5607   3.957   4.500  17.115 -0.0622  0.6195  0.7292
  375MPD2    C2 5608   3.989   4.403  17.020 -0.5728 -0.0015  0.7278
  375MPD2    C3 5609   4.118   4.353  17.026 -1.0969  0.5219  0.2276
  375MPD2    C4 5610   4.196   4.387  17.135  0.0946 -0.1733 -0.2622
  375MPD2    C5 5611   4.158   4.477  17.228 -0.6096  0.4966  0.0055
  375MPD2     H 5612   3.919   4.372  16.943 -1.3376  0.3763  1.2742
  375MPD2    H1 5613   4.292   4.341  17.156  0.5553  1.5549  1.3704
  375MPD2    H2 5614   4.029   4.621  17.285  2.1447  1.4279 -0.4433
  375MPD2    H3 5615   4.220   4.509  17.312  2.6469 -0.6071 -1.9762
  375MPD2     N 5616   4.182   4.274  16.926 -0.1311  0.1886  0.2623
  375MPD2    H5 5617   4.279   4.251  16.944 -0.5000 -2.2838 -0.8837
  375MPD2    N1 5618   3.821   4.542  17.102 -0.0044 -0.3214 -0.0809
  375MPD2    H7 5619   3.774   4.518  17.015 -2.3338  0.0426  1.0551
  376TMC3    C1 5620   4.204   4.189  16.699 -0.2811  0.2474  0.1539
  376TMC3    C2 5621   4.336   4.169  16.712 -0.3290 -1.0685 -0.0686
  376TMC3    C3 5622   4.401   4.138  16.596 -0.0222 -0.4671 -0.0249
  376TMC3    C4 5623   4.135   4.172  16.578  0.3677  0.8093  0.3766
  376TMC3    C5 5624   4.209   4.144  16.471  0.3596  0.1695  0.1417
  376TMC3    C6 5625   4.342   4.128  16.478 -0.3728  0.7160  0.0513
  376TMC3     C 5626   4.121   4.238  16.805 -0.4400 -0.2088  0.5127
  376TMC3     O 5627   4.004   4.216  16.790 -0.1142 -0.0114  0.0944
  376TMC3     H 5628   4.385   4.200  16.803  0.0389 -1.8394 -0.0011
  376TMC3    H1 5629   4.032   4.206  16.565  0.8505  1.9669 -0.4472
  376TMC3    H2 5630   4.392   4.116  16.383  0.8507 -0.9034  0.8925
  376TMC3    C7 5631   4.154   4.149  16.335  0.2279  0.3356 -0.0662
  376TMC3    C8 5632   4.548   4.147  16.587  0.1503  0.7322 -0.5754
  376TMC3    O1 5633   4.216   4.215  16.253  0.0786 -0.1263 -0.8890
  376TMC3    O2 5634   4.599   4.172  16.481 -0.0935 -0.3236  0.2134
  377MPD2     C 5635   1.745   3.764  12.331  0.7676  0.2899 -0.0846
  377MPD2    C1 5636   1.818   3.758  12.445 -0.8714  0.6936  0.2237
  377MPD2    C2 5637   1.763   3.778  12.568  0.4283 -0.2089  0.2345
  377MPD2    C3 5638   1.629   3.806  12.570 -0.5487  0.0024  0.0058
  377MPD2    C4 5639   1.552   3.818  12.459 -0.3175  0.6643  0.1581
  377MPD2    C5 5640   1.612   3.800  12.333  0.0882  0.4540  0.0791
  377MPD2     H 5641   1.826   3.779  12.656  0.5943 -0.5309  0.1194
  377MPD2    H1 5642   1.446   3.843  12.458 -0.8576 -1.6104 -0.4937
  377MPD2    H2 5643   1.795   3.739  12.238  0.6291  1.6142 -0.5242
  377MPD2    H3 5644   1.549   3.810  12.245  1.5937 -1.0531 -1.1775
  377MPD2     N 5645   1.560   3.827  12.691 -0.4562 -0.3046  0.2265
  377MPD2    H5 5646   1.467   3.864  12.677  0.8028  1.5401 -3.5806
  377MPD2    N1 5647   1.953   3.714  12.426  0.5840  0.0188 -0.8225
  377MPD2    H7 5648   1.989   3.717  12.331 -1.6890 -1.0055 -1.7058
  378TMC3    C1 5649   2.343   3.809  12.372  0.0985  0.4584 -0.3831
  378TMC3    C2 5650   2.213   3.792  12.397 -0.9852 -0.2218  0.2685
  378TMC3    C3 5651   2.174   3.692  12.485 -0.1635  0.5302  0.1215
  378TMC3    C4 5652   2.440   3.742  12.440  0.4900 -0.1827 -0.0198
  378TMC3    C5 5653   2.400   3.648  12.532 -0.4699 -0.4863  0.0489
  378TMC3    C6 5654   2.267   3.622  12.552  0.3366 -0.3145 -0.0510
  378TMC3     C 5655   2.362   3.821  12.230  0.1033  0.2336 -1.0885
  378TMC3     O 5656   2.262   3.816  12.160  0.2813 -0.5515  0.3284
  378TMC3     H 5657   2.135   3.853  12.352 -1.6131 -0.8653  0.4794
  378TMC3    H1 5658   2.544   3.756  12.410  0.7947 -0.2155  1.0141
  378TMC3    H2 5659   2.228   3.546  12.619 -1.8563  0.9178  0.0594
  378TMC3    C7 5660   2.499   3.575  12.606 -0.1824 -0.3166  0.8738
  378TMC3    C8 5661   2.036   3.674  12.524  0.2757 -0.0432  1.0738
  378TMC3    O1 5662   2.460   3.472  12.665  0.2102 -0.1081  0.1330
  378TMC3    O2 5663   2.011   3.629  12.639  0.4440  0.1976  0.4943
  379MPD2     C 5664   3.010   2.113  16.062 -0.0251 -0.3566  0.5460
  379MPD2    C1 5665   2.931   2.058  16.154  0.0306 -0.5177 -0.3570
  379MPD2    C2 5666   2.994   1.989  16.257 -0.0552  0.1209 -0.1223
  379MPD2    C3 5667   3.133   1.969  16.258 -0.0865  0.2484 -0.3272
  379MPD2    C4 5668   3.203   2.039  16.162  0.0212 -0.5861 -0.6812
  379MPD2    C5 5669   3.147   2.106  16.064 -0.4117 -0.3492 -0.1214
  379MPD2     H 5670   2.941   1.951  16.343 -0.2532  0.9877  0.1395
  379MPD2    H1 5671   3.311   2.038  16.170 -0.1824  0.7201  1.8591
  379MPD2    H2 5672   2.960   2.170  15.984 -0.2596  1.1779  1.8055
  379MPD2    H3 5673   3.207   2.160  15.991 -1.4722  0.7542 -0.1700
  379MPD2     N 5674   3.203   1.893  16.354  0.2625  0.0503 -0.0806
  379MPD2    H5 5675   3.304   1.892  16.356  0.2728  1.0344 -0.5616
  379MPD2    N1 5676   2.792   2.066  16.137  0.1577 -0.0352 -0.2462
  379MPD2    H7 5677   2.763   2.120  16.056 -0.0479  0.8691  0.4402
  380TMC3    C1 5678   2.579   1.992  16.143 -0.2754  0.2162  0.6713
  380TMC3    C2 5679   2.601   1.888  16.056  0.9200  0.2897  0.2401
  380TMC3    C3 5680   2.539   1.887  15.940  0.0132 -0.4965  0.2222
  380TMC3    C4 5681   2.508   2.098  16.110  0.8047 -0.0813  0.3708
  380TMC3    C5 5682   2.424   2.080  16.004 -0.2439  0.1883  0.0700
  380TMC3    C6 5683   2.433   1.969  15.924 -0.0599  0.5125 -0.3351
  380TMC3     C 5684   2.699   2.012  16.221  0.1143  0.0885  0.2118
  380TMC3     O 5685   2.712   1.953  16.329 -0.2282  1.0004 -0.1891
  380TMC3     H 5686   2.665   1.807  16.091 -2.2645 -1.1376  2.8289
  380TMC3    H1 5687   2.497   2.184  16.175 -3.1639 -1.6212  1.7600
  380TMC3    H2 5688   2.379   1.957  15.830 -0.6763  2.3256 -0.2102
  380TMC3    C7 5689   2.366   2.198  15.955  0.1642 -0.3390 -0.2142
  380TMC3    C8 5690   2.627   1.889  15.825 -0.0649  0.0681 -0.4311
  380TMC3    O1 5691   2.400   2.304  16.008 -0.0447 -0.1012  0.3727
  380TMC3    O2 5692   2.595   1.949  15.719  0.2049  0.3058  1.0059
  381TMC3    C1 5693   2.177   3.143  16.289  0.6325 -0.6424 -0.0717
  381TMC3    C2 5694   2.244   3.237  16.213 -0.6645 -0.3977 -0.2129
  381TMC3    C3 5695   2.202   3.367  16.212 -0.0923  0.2892  0.2151
  381TMC3    C4 5696   2.070   3.180  16.367 -0.0662  0.0640  0.2109
  381TMC3    C5 5697   2.017   3.303  16.344  0.5404  0.0147  0.4661
  381TMC3    C6 5698   2.089   3.402  16.285  0.3138 -0.4279  0.4773
  381TMC3     C 5699   2.208   3.004  16.275 -0.0510 -0.3102 -0.2057
  381TMC3     O 5700   2.168   2.930  16.361  0.5394 -0.0897 -0.0269
  381TMC3     H 5701   2.330   3.219  16.149 -2.1447 -0.5828 -2.1304
  381TMC3    H1 5702   2.008   3.106  16.416  1.4365 -1.3319 -0.0150
  381TMC3    H2 5703   2.050   3.503  16.278  0.2221 -0.3007  3.0267
  381TMC3    C7 5704   1.904   3.345  16.421 -0.4328  0.8168 -0.5623
  381TMC3    C8 5705   2.312   3.460  16.208 -0.1065 -0.3649 -0.5536
  381TMC3    O1 5706   1.892   3.302  16.532  0.1373 -0.2609  0.0568
  381TMC3    O2 5707   2.399   3.438  16.119 -0.2112  0.0582 -0.6227
  382MPD2     C 5708   1.556   0.882  17.706  0.8817 -0.3466  0.7127
  382MPD2    C1 5709   1.618   0.865  17.589  0.1515  0.0039 -0.0021
  382MPD2    C2 5710   1.590   0.761  17.506 -0.1098  0.5230 -0.7173
  382MPD2    C3 5711   1.494   0.664  17.542 -0.1369 -0.3938  0.3351
  382MPD2    C4 5712   1.436   0.681  17.664 -0.2355  0.3361  0.0210
  382MPD2    C5 5713   1.463   0.791   0.037  0.4374  0.4895 -0.4599
  382MPD2     H 5714   1.629   0.753  17.405  2.0830  1.9194  0.0188
  382MPD2    H1 5715   1.373   0.601  17.701 -0.7517  1.2654  1.1664
  382MPD2    H2 5716   1.576   0.967   0.059 -2.8688  0.7744  0.3877
  382MPD2    H3 5717   1.404   0.790   0.127 -1.3111 -1.2471 -1.6187
  382MPD2     N 5718   1.460   0.547  17.464  0.5701  0.1498  0.5150
  382MPD2    H5 5719   1.379   0.494  17.495  2.4250 -2.1260  1.5043
  382MPD2    N1 5720   1.724   0.949  17.545 -0.2387  0.0161  0.0005
  382MPD2    H7 5721   1.759   0.931  17.451  0.2290  1.3790 -0.0871
  383TMC3    C1 5722   1.502   0.352  17.327 -0.4356  0.1997  0.3926
  383TMC3    C2 5723   1.365   0.324  17.327  0.0767 -0.4902 -0.1167
  383TMC3    C3 5724   1.330   0.193  17.295 -0.2256 -0.1879  0.1732
  383TMC3    C4 5725   1.595   0.259  17.302  0.5683  0.1525 -0.1307
  383TMC3    C5 5726   1.554   0.130  17.291  0.2208 -0.0804  0.3902
  383TMC3    C6 5727   1.424   0.098  17.274  0.3121  0.8253 -0.1812
  383TMC3     C 5728   1.546   0.484  17.385 -0.2642  0.1529 -0.7785
  383TMC3     O 5729   1.653   0.523  17.347 -0.1462 -0.0781 -0.2466
  383TMC3     H 5730   1.291   0.400  17.345  0.6218  0.5072 -2.1821
  383TMC3    H1 5731   1.697   0.277  17.334  1.5921 -0.3000 -3.1731
  383TMC3    H2 5732   1.404   4.726  17.236 -0.2582 -0.3512  3.1944
  383TMC3    C7 5733   1.653   0.020  17.287  0.0577 -0.0177 -0.1764
  383TMC3    C8 5734   1.191   0.162  17.276 -0.0364 -0.9450  1.0974
  383TMC3    O1 5735   1.633   4.639  17.233 -0.4867 -0.4714 -0.0295
  383TMC3    O2 5736   1.128   0.240  17.208  0.0507 -0.3367  0.2234
  384MPD2     C 5737   3.217   2.056  12.330 -0.0576 -0.0529  0.1543
  384MPD2    C1 5738   3.327   2.015  12.409 -0.2865 -0.6041  0.0614
  384MPD2    C2 5739   3.443   1.978  12.346 -0.5150 -0.2111 -0.1474
  384MPD2    C3 5740   3.450   1.968  12.207 -0.3752  0.5890 -0.0438
  384MPD2    C4 5741   3.337   1.996  12.135 -0.7254  0.2496  1.2034
  384MPD2    C5 5742   3.225   2.040  12.193  0.3897  0.3568  0.0477
  384MPD2     H 5743   3.523   1.934  12.405  0.3943  1.5191 -0.0966
  384MPD2    H1 5744   3.336   1.987  12.027  2.3716  2.4025  0.9979
  384MPD2    H2 5745   3.122   2.077  12.378 -1.0355 -0.4061 -1.6269
  384MPD2    H3 5746   3.136   2.050  12.132 -0.2028 -4.2581  0.1419
  384MPD2     N 5747   3.571   1.912  12.147 -0.0721 -0.0125  0.2010
  384MPD2    H5 5748   3.565   1.894  12.048  2.2377  1.1068 -0.1230
  384MPD2    N1 5749   3.315   2.013  12.548 -0.6250 -0.1720 -0.9570
  384MPD2    H7 5750   3.226   2.044  12.585 -0.2761 -1.2373  0.7625
  385TMC3    C1 5751   3.756   1.757  12.124  0.3491  0.0528 -0.2928
  385TMC3    C2 5752   3.686   1.702  12.022 -0.0684 -0.4836 -0.4216
  385TMC3    C3 5753   3.696   1.569  12.007  0.0932  0.5842  0.0765
  385TMC3    C4 5754   3.840   1.682  12.199 -0.1548  0.0628 -0.5257
  385TMC3    C5 5755   3.815   1.550  12.202  0.0922  0.2145  0.0026
  385TMC3    C6 5756   3.747   1.482  12.104 -0.1863 -0.0075  0.7728
  385TMC3     C 5757   3.680   1.857  12.205 -0.4426 -0.0736  0.9764
  385TMC3     O 5758   3.727   1.878  12.318 -0.3024 -0.1349 -0.2691
  385TMC3     H 5759   3.634   1.765  11.951 -2.3171 -2.0730 -0.1582
  385TMC3    H1 5760   3.882   1.729  12.288  0.4078 -2.4830  0.5548
  385TMC3    H2 5761   3.757   1.377  12.083  1.3398  0.7231 -2.1423
  385TMC3    C7 5762   3.766   1.510  12.327 -0.2514  0.3752 -0.0147
  385TMC3    C8 5763   3.672   1.507  11.881 -0.8030  0.3945 -0.2199
  385TMC3    O1 5764   3.790   1.576  12.430 -0.2225  0.1991  0.2262
  385TMC3    O2 5765   3.708   1.392  11.871  0.3960 -0.4117 -0.1111
  386TMC3    C1 5766   3.299   3.855  11.786 -0.0605  0.1100 -0.0138
  386TMC3    C2 5767   3.348   3.820  11.662  0.4442  0.3229 -0.2079
  386TMC3    C3 5768   3.275   3.848  11.555 -0.0938  0.3418 -0.6540
  386TMC3    C4 5769   3.173   3.912  11.793 -1.0817 -0.6112  0.0161
  386TMC3    C5 5770   3.110   3.949  11.678  0.6026 -0.0435 -0.7136
  386TMC3    C6 5771   3.153   3.908  11.556 -0.0572 -0.1205 -0.6600
  386TMC3     C 5772   3.368   3.815  11.913 -0.5242 -0.6579  0.5025
  386TMC3     O 5773   3.313   3.855  12.011 -0.7495 -0.0083  0.7336
  386TMC3     H 5774   3.454   3.797  11.658  0.8547  2.5891 -2.4344
  386TMC3    H1 5775   3.140   3.962  11.883 -0.8623 -2.0914  0.9223
  386TMC3    H2 5776   3.093   3.929  11.468 -0.2009  0.8655 -0.3323
  386TMC3    C7 5777   3.000   4.045  11.688  0.4538  0.5220  0.5977
  386TMC3    C8 5778   3.339   3.827  11.422  0.5554  0.1948  0.0660
  386TMC3    O1 5779   2.956   4.060  11.801  0.4971 -0.1735  0.2006
  386TMC3    O2 5780   3.270   3.878  11.335 -0.2276 -0.2293  0.2682
  387MPD2     C 5781   1.888   3.665   9.672 -0.0545 -0.2501 -0.3870
  387MPD2    C1 5782   1.860   3.664   9.809 -0.5939 -0.0986 -0.8348
  387MPD2    C2 5783   1.787   3.565   9.864  1.1459 -0.5714 -0.8531
  387MPD2    C3 5784   1.734   3.458   9.794  0.2410 -0.0544  0.6314
  387MPD2    C4 5785   1.772   3.448   9.657 -0.0243  0.4739  0.5356
  387MPD2    C5 5786   1.846   3.549   9.599 -0.5255 -0.1921 -0.6435
  387MPD2     H 5787   1.780   3.566   9.972 -2.4800  1.6708 -1.1275
  387MPD2    H1 5788   1.750   3.364   9.592  2.4118  0.0752  0.2101
  387MPD2    H2 5789   1.945   3.743   9.624 -0.6690 -0.3270 -1.2420
  387MPD2    H3 5790   1.863   3.542   9.492  1.9783 -0.2917 -0.2478
  387MPD2     N 5791   1.677   3.355   9.868 -0.2145 -0.0025  0.0215
  387MPD2    H5 5792   1.640   3.375   9.960 -0.3181 -1.2952  0.2487
  387MPD2    N1 5793   1.908   3.765   9.899 -0.2669  0.4104 -0.4467
  387MPD2    H7 5794   1.882   3.752   9.996 -1.4249 -1.2611 -0.9747
  388TMC3    C1 5795   2.058   3.907  10.001  0.0182 -0.4385 -0.2481
  388TMC3    C2 5796   2.105   4.033  10.016 -0.1851 -0.2167 -0.6484
  388TMC3    C3 5797   2.126   4.070  10.150 -0.3735  0.0506 -0.4610
  388TMC3    C4 5798   2.053   3.811  10.097 -0.0090  0.6204 -0.5185
  388TMC3    C5 5799   2.068   3.852  10.224 -0.5981 -0.2649 -0.2640
  388TMC3    C6 5800   2.111   3.976  10.249 -0.2990  0.3694 -0.4122
  388TMC3     C 5801   2.005   3.856   9.868  0.4716  0.0516 -1.3139
  388TMC3     O 5802   2.061   3.884   9.759 -0.3379 -0.0170 -0.5810
  388TMC3     H 5803   2.099   4.112   9.941 -0.8605  0.1269 -0.2321
  388TMC3    H1 5804   2.059   3.704  10.080 -0.6404  0.2108  1.7272
  388TMC3    H2 5805   2.150   3.993  10.349  0.1503 -0.7393 -0.3975
  388TMC3    C7 5806   2.070   3.752  10.333  0.4678  0.1417  0.3185
  388TMC3    C8 5807   2.211   4.185  10.167  0.4115 -0.4479 -0.3379
  388TMC3    O1 5808   2.162   3.755  10.415  0.2940 -0.4067 -0.2860
  388TMC3    O2 5809   2.243   4.248  10.065 -0.5545 -0.5453 -0.2505
  389MPD2     C 5810   0.950   1.911  11.324 -0.0656 -0.1033 -0.6412
  389MPD2    C1 5811   0.876   1.833  11.239  0.2414 -0.1395  0.3183
  389MPD2    C2 5812   0.735   1.828  11.269  0.0725 -0.3774  0.0913
  389MPD2    C3 5813   0.675   1.894  11.372  0.1398 -0.9387  0.2668
  389MPD2    C4 5814   0.753   1.969  11.460  0.3453  0.0042  0.1983
  389MPD2    C5 5815   0.885   1.979  11.432  0.1467 -0.2068 -0.3055
  389MPD2     H 5816   0.672   1.779  11.197  1.8284 -0.9011 -1.0853
  389MPD2    H1 5817   0.708   2.002  11.552  1.1017  1.1187  0.1683
  389MPD2    H2 5818   1.057   1.929  11.317  0.2197 -1.2712  0.8901
  389MPD2    H3 5819   0.946   2.034  11.502 -1.1810 -1.2861  1.6729
  389MPD2     N 5820   0.539   1.889  11.393  0.3465  0.0353  0.0243
  389MPD2    H5 5821   0.502   1.948  11.468 -0.8240 -0.3746 -0.2259
  389MPD2    N1 5822   0.937   1.757  11.134 -0.2601  0.3196 -0.1559
  389MPD2    H7 5823   1.035   1.776  11.119 -0.1711  1.2162  1.5443
  390TMC3    C1 5824   0.307   1.853  11.349  0.1918 -0.0174 -0.2662
  390TMC3    C2 5825   0.277   1.865  11.480 -0.2357  0.1458  0.8174
  390TMC3    C3 5826   0.152   1.858  11.517 -0.3208  0.1935  0.1289
  390TMC3    C4 5827   0.213   1.815  11.262 -0.4683 -0.8517  0.4473
  390TMC3    C5 5828   0.086   1.797  11.302  0.4966  0.7326  0.6897
  390TMC3    C6 5829   0.054   1.831  11.427  0.3551  0.0369 -0.1568
  390TMC3     C 5830   0.447   1.840  11.306 -0.1412  0.0295  0.0114
  390TMC3     O 5831   0.462   1.796  11.194  1.1776  0.4881 -0.0163
  390TMC3     H 5832   0.356   1.876  11.554 -0.8378  1.9916  1.1670
  390TMC3    H1 5833   0.239   1.771  11.167  0.6119 -0.8558  0.7422
  390TMC3    H2 5834   4.678   1.826  11.462  0.0219  0.3135 -1.0960
  390TMC3    C7 5835   0.017   1.684  11.244  0.5626  0.1614 -0.3848
  390TMC3    C8 5836   0.134   1.808  11.655  0.2966 -0.0803 -0.0074
  390TMC3    O1 5837   0.083   1.597  11.196 -0.0322 -0.0842  0.2196
  390TMC3    O2 5838   0.208   1.847  11.744 -0.7391  0.0242  0.4648
  391MPD2     C 5839   4.701   3.302  11.273  0.6208 -0.1481 -0.5094
  391MPD2    C1 5840   4.703   3.443  11.262 -0.2903 -0.4160 -0.1095
  391MPD2    C2 5841   4.682   3.492  11.137  0.0062  0.0834  0.1338
  391MPD2    C3 5842   4.632   3.416  11.026 -0.0681  0.1221 -0.1324
  391MPD2    C4 5843   4.607   3.282  11.050 -0.7063 -0.3226  0.0752
  391MPD2    C5 5844   4.646   3.230  11.170  0.5125  0.5963 -0.1959
  391MPD2     H 5845   4.695   3.599  11.123  2.1597 -0.3149 -0.9047
  391MPD2    H1 5846   4.563   3.221  10.972  1.1467 -1.6170  0.0201
  391MPD2    H2 5847   0.003   3.252  11.364  0.7049 -0.2361 -0.5852
  391MPD2    H3 5848   4.642   3.122  11.181 -1.5150  0.5561 -1.4378
  391MPD2     N 5849   4.619   3.476  10.908  0.6586 -0.3799 -0.5820
  391MPD2    H5 5850   4.671   3.563  10.900  0.5744 -0.1281  1.6764
  391MPD2    N1 5851   0.027   3.531  11.362  0.1835 -0.3358 -0.4479
  391MPD2    H7 5852   0.050   3.625  11.333 -0.9944  0.4936  1.3136
  392TMC3    C1 5853   4.580   3.498  10.674 -0.6186 -0.6315  0.2570
  392TMC3    C2 5854   4.585   3.429  10.556  0.5912  0.6731  0.1336
  392TMC3    C3 5855   4.633   3.486  10.446  1.0377  0.0296 -0.2796
  392TMC3    C4 5856   4.625   3.630  10.683 -0.2200  0.1299 -0.5406
  392TMC3    C5 5857   4.661   3.692  10.566 -0.5011  0.0740 -0.2724
  392TMC3    C6 5858   4.667   3.622  10.454 -0.7421  0.3108  0.0807
  392TMC3     C 5859   4.564   3.415  10.795  0.1520  0.3325 -0.2457
  392TMC3     O 5860   4.485   3.324  10.781  0.0787  0.6465 -0.2269
  392TMC3     H 5861   4.548   3.328  10.568 -2.7744  1.7385 -1.2905
  392TMC3    H1 5862   4.634   3.689  10.773 -1.4355 -0.6192  0.0733
  392TMC3    H2 5863   0.006   3.659  10.376  0.6243 -1.2764  0.4712
  392TMC3    C7 5864   4.719   3.824  10.579  0.3383 -0.4038  0.6600
  392TMC3    C8 5865   4.675   3.402  10.336 -0.4946  0.2748  0.0777
  392TMC3    O1 5866   0.017   3.859  10.692  0.4643 -0.1024 -0.2021
  392TMC3    O2 5867   4.705   3.289  10.370 -0.9318 -0.1903  0.1834
  393TMC3    C1 5868   3.956   1.789  10.760  0.0173  0.5387 -0.3679
  393TMC3    C2 5869   3.881   1.837  10.861  1.0492  0.4935 -0.0577
  393TMC3    C3 5870   3.802   1.745  10.928  0.4192  0.5959 -0.0854
  393TMC3    C4 5871   3.938   1.662  10.708 -0.3556  0.4065 -0.3131
  393TMC3    C5 5872   3.856   1.576  10.778  0.3942 -0.1124  0.3311
  393TMC3    C6 5873   3.793   1.614  10.892 -0.5287  0.0077  0.2021
  393TMC3     C 5874   4.016   1.883  10.667 -0.2185  0.0952 -1.0670
  393TMC3     O 5875   4.062   1.835  10.565 -0.1952 -0.0980 -0.5868
  393TMC3     H 5876   3.872   1.942  10.886  0.4424  0.6582 -0.9705
  393TMC3    H1 5877   3.998   1.640  10.620 -0.2107 -0.7517  0.0865
  393TMC3    H2 5878   3.716   1.550  10.934  1.7948 -3.7548 -1.3100
  393TMC3    C7 5879   3.794   1.459  10.700 -0.2765 -0.1170 -0.1956
  393TMC3    C8 5880   3.697   1.789  11.022  0.1328 -0.2586  0.3070
  393TMC3    O1 5881   3.684   1.410  10.723  0.2696  0.2997  0.3245
  393TMC3    O2 5882   3.591   1.725  11.021 -0.0643 -0.1751  0.0661
  394TMC3    C1 5883   0.929   1.616  10.938 -0.4096 -0.0921 -0.5635
  394TMC3    C2 5884   0.854   1.547  10.843  0.4793  0.7392  0.3538
  394TMC3    C3 5885   0.867   1.584  10.711 -0.4853 -0.5313 -0.7444
  394TMC3    C4 5886   1.034   1.691  10.898 -0.2099 -0.0271 -0.8257
  394TMC3    C5 5887   1.057   1.704  10.759  0.0907  0.0094 -0.4554
  394TMC3    C6 5888   0.980   1.645  10.662 -0.0458 -0.5462 -0.7384
  394TMC3     C 5889   0.870   1.660  11.065 -0.0967 -0.2284 -0.6436
  394TMC3     O 5890   0.778   1.592  11.099  0.3848  0.5453  0.0498
  394TMC3     H 5891   0.767   1.493  10.882  0.4655  1.4016  1.2401
  394TMC3    H1 5892   1.110   1.721  10.968 -0.8106  1.5225 -0.8543
  394TMC3    H2 5893   0.988   1.686  10.562  2.2211  2.3086  0.6008
  394TMC3    C7 5894   1.176   1.773  10.707  0.2829  0.2979  0.0100
  394TMC3    C8 5895   0.741   1.586  10.636 -0.1547 -0.5473  0.0056
  394TMC3    O1 5896   1.162   1.828  10.603  0.2959  0.0217 -0.1631
  394TMC3    O2 5897   0.650   1.531  10.692 -0.2495  0.6841 -0.0756
  395TMC3    C1 5898   0.103   4.158  14.470  0.3994  0.5585 -0.1288
  395TMC3    C2 5899   4.700   4.196  14.482  0.5926  0.6848  0.3074
  395TMC3    C3 5900   4.676   4.315  14.539 -0.0580  0.1537 -0.2237
  395TMC3    C4 5901   0.213   4.239  14.509 -0.2518 -0.2261 -0.1297
  395TMC3    C5 5902   0.179   4.366  14.558  0.5551 -0.8046 -0.5822
  395TMC3    C6 5903   0.049   4.407  14.566 -0.4431 -0.5328  0.0232
  395TMC3     C 5904   0.109   4.021  14.507 -0.2089 -0.0022  0.3129
  395TMC3     O 5905   0.069   3.938  14.426  0.4383  0.0526 -0.2714
  395TMC3     H 5906   4.625   4.118  14.473 -1.1536  2.4531 -0.5205
  395TMC3    H1 5907   0.311   4.210  14.472 -0.7350  0.4672 -1.9879
  395TMC3    H2 5908   0.018   4.504  14.603  1.1313 -0.3940  1.0169
  395TMC3    C7 5909   0.285   4.459  14.598  0.4736  0.7392  0.0226
  395TMC3    C8 5910   4.568   4.327  14.633 -0.5736 -0.3646 -0.2152
  395TMC3    O1 5911   0.255   4.547  14.680  0.4130 -0.7704  0.0270
  395TMC3    O2 5912   4.583   4.405  14.724  0.0630  0.0089 -0.3996
  396MPD2     C 5913   4.533   0.362  17.235 -0.3304  0.0740  0.4271
  396MPD2    C1 5914   4.664   0.384  17.287 -0.3441 -0.7904  0.8247
  396MPD2    C2 5915   0.005   0.492  17.238  0.2882  0.3810 -0.1099
  396MPD2    C3 5916   4.681   0.561  17.126  0.3692  0.1412 -0.8407
  396MPD2    C4 5917   4.554   0.536  17.081 -0.5830 -0.4731 -0.2274
  396MPD2    C5 5918   4.479   0.436  17.133  0.0584  0.0333  0.7070
  396MPD2     H 5919   0.103   0.507  17.281  0.0977 -0.2746  0.5493
  396MPD2    H1 5920   4.503   0.586  16.999 -1.8430 -0.3029  0.6597
  396MPD2    H2 5921   4.475   0.282  17.279  1.3233 -0.9177  0.8139
  396MPD2    H3 5922   4.379   0.415  17.098  0.3653  0.2749 -0.3127
  396MPD2     N 5923   0.023   0.668  17.072  0.3943  0.2476  0.3906
  396MPD2    H5 5924   0.113   0.691  17.114  1.0500  1.0654 -1.4638
  396MPD2    N1 5925   4.721   0.287  17.367 -0.0033 -0.7604 -0.7052
  396MPD2    H7 5926   4.666   0.203  17.384  1.1280 -1.2346  0.6259
  397TMC3    C1 5927   0.137   0.183  17.518  0.1382  0.3790 -0.7677
  397TMC3    C2 5928   0.248   0.122  17.470  0.0103 -0.3800 -0.1884
  397TMC3    C3 5929   0.241   4.720  17.418  0.0667  0.1168  1.0535
  397TMC3    C4 5930   0.027   0.108  17.547  0.7622 -0.4950  0.3401
  397TMC3    C5 5931   0.024   4.699  17.517  0.2103 -0.5755  0.5478
  397TMC3    C6 5932   0.127   4.643  17.448 -0.0833 -0.1607 -0.5444
  397TMC3     C 5933   0.110   0.302  17.443  0.2354 -0.0264  0.5494
  397TMC3     O 5934   0.195   0.387  17.430 -0.2293  0.1917 -0.3412
  397TMC3     H 5935   0.337   0.180  17.448 -0.1346  0.3871  1.2491
  397TMC3    H1 5936   4.665   0.161  17.575  1.4124  1.8688 -2.0928
  397TMC3    H2 5937   0.126   4.537  17.423  0.8472 -0.4569  0.6548
  397TMC3    C7 5938   4.622   4.629  17.530  0.6516  0.1787  0.5489
  397TMC3    C8 5939   0.366   4.641  17.399  0.1418 -0.0711 -0.2362
  397TMC3    O1 5940   4.600   4.546  17.445 -0.4576 -0.3435 -0.2107
  397TMC3    O2 5941   0.365   4.522  17.429 -0.1019 -0.0417  0.4045
  398MPD2     C 5942   2.769   1.425   0.077  0.1166 -0.1835  0.1063
  398MPD2    C1 5943   2.817   1.364   0.192  0.1475  0.1102 -0.3510
  398MPD2    C2 5944   2.891   1.445   0.279  0.3305 -0.1123  0.2278
  398MPD2    C3 5945   2.912   1.580   0.253  0.1249 -0.7264  0.1131
  398MPD2    C4 5946   2.864   1.635   0.135  0.3721 -0.1114  0.0854
  398MPD2    C5 5947   2.791   1.556   0.048  0.1560 -0.3396 -1.2120
  398MPD2     H 5948   2.940   1.417   0.372 -2.3735  2.3394  2.3878
  398MPD2    H1 5949   2.883   1.738   0.107 -1.0067  0.8386  2.5691
  398MPD2    H2 5950   2.713   1.369   0.003  1.3231 -0.6165 -0.4791
  398MPD2    H3 5951   2.771   1.589  17.657  0.8061  0.6189 -1.0300
  398MPD2     N 5952   2.989   1.648   0.351  0.0801 -0.2452  0.0213
  398MPD2    H5 5953   3.044   1.587   0.410 -1.1745  0.2715  1.7257
  398MPD2    N1 5954   2.796   1.231   0.215  0.2655  0.1323 -0.8652
  398MPD2    H7 5955   2.854   1.173   0.275  0.0016  1.3033  0.5006
  399TMC3    C1 5956   2.660   1.034   0.236 -0.5692 -0.1720  0.0521
  399TMC3    C2 5957   2.756   0.968   0.305 -0.2425  0.1649 -0.3771
  399TMC3    C3 5958   2.726   0.849   0.369 -0.1312  0.3197  0.3587
  399TMC3    C4 5959   2.534   0.988   0.228 -0.7625  0.3672  0.5816
  399TMC3    C5 5960   2.506   0.873   0.292 -0.4019 -0.5513 -0.1777
  399TMC3    C6 5961   2.597   0.805   0.364  0.7720 -0.0987  0.0844
  399TMC3     C 5962   2.686   1.161   0.169  0.2856 -0.3031  0.2483
  399TMC3     O 5963   2.603   1.194   0.088  0.1172  0.3367  0.0213
  399TMC3     H 5964   2.858   1.004   0.306 -0.3770  0.4176  2.6928
  399TMC3    H1 5965   2.454   1.044   0.180 -2.5398 -2.0132  0.7786
  399TMC3    H2 5966   2.568   0.704   0.391 -2.8487  1.3577  1.7006
  399TMC3    C7 5967   2.374   0.819   0.283 -0.4273  0.3836 -0.8478
  399TMC3    C8 5968   2.841   0.755   0.394 -0.9692  0.4759  0.4503
  399TMC3    O1 5969   2.334   0.750   0.375 -0.0548  0.5574 -0.0928
  399TMC3    O2 5970   2.953   0.805   0.394 -0.2724  0.2336  0.6368
  400TMC3    C1 5971   1.260   4.558  16.933  0.1894  0.4583 -0.3496
  400TMC3    C2 5972   1.136   4.574  16.884 -0.3123  0.3898 -0.1737
  400TMC3    C3 5973   1.099   4.696  16.847 -0.1621 -0.5163 -0.1187
  400TMC3    C4 5974   1.350   4.664  16.948 -0.4634 -0.7834  0.7819
  400TMC3    C5 5975   1.313   0.054  16.898  0.8456  0.1556 -0.2512
  400TMC3    C6 5976   1.186   0.075  16.847 -0.7977  0.2300 -0.2883
  400TMC3     C 5977   1.283   4.423  16.987 -0.6221 -0.4736 -0.6377
  400TMC3     O 5978   1.223   4.331  16.930 -0.3494  0.2103 -0.3074
  400TMC3     H 5979   1.062   4.495  16.878 -1.3895  1.4282 -0.5524
  400TMC3    H1 5980   1.441   4.645  17.002  1.0131 -0.9493 -1.7363
  400TMC3    H2 5981   1.158   0.169  16.801  1.7251  1.3250  0.4227
  400TMC3    C7 5982   1.413   0.158  16.913 -0.0244 -0.0905 -0.3087
  400TMC3    C8 5983   0.985   4.711  16.761 -0.4692  0.1737  0.4587
  400TMC3    O1 5984   1.533   0.124  16.913 -0.1395  0.3161 -0.0211
  400TMC3    O2 5985   0.941   0.098  16.750  0.1698  0.0295  0.5749
  401MPD2     C 5986   4.248   2.799   0.258  0.5611  0.0721  0.1592
  401MPD2    C1 5987   4.305   2.816   0.380 -0.3129  1.1475 -0.3677
  401MPD2    C2 5988   4.371   2.712   0.438 -0.0277 -0.2881  0.2633
  401MPD2    C3 5989   4.365   2.584   0.385  0.2376  0.3962  0.2438
  401MPD2    C4 5990   4.301   2.572   0.262  0.0878 -0.3095  0.1037
  401MPD2    C5 5991   4.255   2.680   0.192  0.8860  0.8204 -0.7218
  401MPD2     H 5992   4.436   2.727   0.523  0.4112  0.8262 -0.2651
  401MPD2    H1 5993   4.292   2.475   0.215  0.4301 -0.4514  0.3312
  401MPD2    H2 5994   4.214   2.871   0.184 -0.7634  0.3990  1.1008
  401MPD2    H3 5995   4.222   2.661   0.090 -1.9489  0.3169  0.2950
  401MPD2     N 5996   4.439   2.475   0.442  0.6533 -0.1977  0.2340
  401MPD2    H5 5997   4.481   2.497   0.531  1.0082  1.1758 -0.2663
  401MPD2    N1 5998   4.310   2.938   0.451  0.0980 -0.1481 -0.0189
  401MPD2    H7 5999   4.365   2.952   0.535  0.6376 -0.8221 -0.2600
  402TMC3    C1 6000   4.518   2.269   0.503  0.3315  0.3872  0.0732
  402TMC3    C2 6001   4.460   2.166   0.576 -0.9298  0.5565 -0.3154
  402TMC3    C3 6002   4.525   2.136   0.693  0.7733  0.9577  0.2051
  402TMC3    C4 6003   4.623   2.345   0.546 -0.3210 -0.5855 -1.0033
  402TMC3    C5 6004   4.690   2.304   0.660 -0.3678  0.9311  0.4524
  402TMC3    C6 6005   4.635   2.202   0.736 -0.2323 -0.0011  0.0207
  402TMC3     C 6006   4.439   2.344   0.408  0.3405 -0.3760  0.2338
  402TMC3     O 6007   4.391   2.290   0.307  0.4167 -0.2875  0.0087
  402TMC3     H 6008   4.383   2.103   0.533 -1.1591  1.2074 -0.8593
  402TMC3    H1 6009   4.670   2.420   0.484 -0.3397  0.4958  0.2708
  402TMC3    H2 6010   4.683   2.188   0.832  0.9712  2.0351 -0.2798
  402TMC3    C7 6011   0.106   2.299   0.646 -0.0105 -0.2182 -0.7223
  402TMC3    C8 6012   4.518   2.000   0.743 -0.1077 -0.0254  0.2648
  402TMC3    O1 6013   0.148   2.385   0.568 -0.5090 -0.2573  0.6599
  402TMC3    O2 6014   4.629   1.953   0.769 -0.2145 -0.5036 -0.1310
  403MPD2     C 6015   2.861   1.807  13.452  0.3330  0.2872  0.3225
  403MPD2    C1 6016   2.868   1.719  13.559  0.1423  0.5632  0.1460
  403MPD2    C2 6017   2.961   1.740  13.667  0.3882  0.4175  0.2912
  403MPD2    C3 6018   3.053   1.843  13.660  0.3930  0.5860  0.5787
  403MPD2    C4 6019   3.052   1.918  13.544  0.5655 -1.0434  0.4794
  403MPD2    C5 6020   2.957   1.900  13.441  0.0079  0.6495 -0.1766
  403MPD2     H 6021   2.962   1.671  13.750 -0.2046 -0.1277 -0.1459
  403MPD2    H1 6022   3.121   2.001  13.532  1.3034 -1.4623  1.7976
  403MPD2    H2 6023   2.793   1.779  13.371  2.0462 -0.5178 -0.8422
  403MPD2    H3 6024   2.954   1.962  13.352 -2.4128 -0.0812 -0.5945
  403MPD2     N 6025   3.139   1.859  13.765  0.6998  0.2570 -0.7400
  403MPD2    H5 6026   3.137   1.794  13.843  1.9904  0.9083 -0.1655
  403MPD2    N1 6027   2.786   1.605  13.559  0.6876  0.3252 -0.0538
  403MPD2    H7 6028   2.724   1.585  13.481 -1.2404 -1.0039  1.8213
  404TMC3    C1 6029   2.694   1.401  13.623 -0.4493 -0.3068  0.1877
  404TMC3    C2 6030   2.689   1.304  13.716 -0.4686  0.1219  0.6717
  404TMC3    C3 6031   2.669   1.176  13.673 -0.5217 -0.3589  0.9642
  404TMC3    C4 6032   2.662   1.378  13.487 -0.2836  0.4807  0.4423
  404TMC3    C5 6033   2.655   1.251  13.449  0.9101 -0.5133 -0.6516
  404TMC3    C6 6034   2.651   1.146  13.539 -1.0179 -0.3707 -0.4076
  404TMC3     C 6035   2.787   1.507  13.654  0.5359 -0.2912 -0.3035
  404TMC3     O 6036   2.866   1.474  13.741  0.5491 -0.0858  0.1640
  404TMC3     H 6037   2.711   1.336  13.817  1.2252  2.3292 -0.3947
  404TMC3    H1 6038   2.682   1.449  13.409 -3.0778 -0.1128 -0.8218
  404TMC3    H2 6039   2.656   1.042  13.509 -1.0346  0.2205 -2.4850
  404TMC3    C7 6040   2.692   1.233  13.312 -0.1156  0.3933  0.5865
  404TMC3    C8 6041   2.691   1.070  13.768 -1.0537  0.2322  0.4441
  404TMC3    O1 6042   2.796   1.284  13.269 -0.6767  0.4017  0.5470
  404TMC3    O2 6043   2.741   0.962  13.734 -0.4407 -0.5463  0.2310
  405MPD2     C 6044   3.061   2.339  14.596 -0.9456  0.4985 -0.0096
  405MPD2    C1 6045   3.022   2.214  14.549 -0.7825 -0.0294  0.5531
  405MPD2    C2 6046   2.941   2.216  14.437 -0.3537 -0.3135 -0.0744
  405MPD2    C3 6047   2.888   2.334  14.382  0.3153  0.2704  0.1483
  405MPD2    C4 6048   2.926   2.452  14.438 -0.1903 -0.2226  0.1126
  405MPD2    C5 6049   3.010   2.457  14.548  0.3800 -0.1104 -0.2409
  405MPD2     H 6050   2.910   2.120  14.397  1.7814 -0.8396 -0.4745
  405MPD2    H1 6051   2.890   2.547  14.401  0.9563 -0.0650 -0.5940
  405MPD2    H2 6052   3.131   2.356  14.677 -0.0948  1.1241 -0.8757
  405MPD2    H3 6053   3.031   2.553  14.593 -1.8317 -0.5580  1.7254
  405MPD2     N 6054   2.804   2.325  14.270  0.5196 -0.1803 -0.4918
  405MPD2    H5 6055   2.771   2.231  14.250 -0.1330 -0.5224  2.0998
  405MPD2    N1 6056   3.068   2.102  14.617 -0.6234  0.1368  0.4840
  405MPD2    H7 6057   3.118   2.122  14.703 -1.5138 -2.1352  1.5283
  406TMC3    C1 6058   2.438   2.407  14.074 -0.3721 -0.1397 -0.7281
  406TMC3    C2 6059   2.414   2.277  14.057  0.8174 -0.3459  0.4639
  406TMC3    C3 6060   2.522   2.196  14.049  0.2845  0.2658 -0.1565
  406TMC3    C4 6061   2.559   2.470  14.085  0.0871  0.3946  0.7800
  406TMC3    C5 6062   2.667   2.384  14.083  0.2297  0.1127  0.4233
  406TMC3    C6 6063   2.654   2.246  14.064 -0.3788  0.3450  0.5839
  406TMC3     C 6064   2.315   2.489  14.106  0.3733  0.3185 -0.1034
  406TMC3     O 6065   2.307   2.603  14.055  0.2986 -0.7782 -0.1948
  406TMC3     H 6066   2.310   2.249  14.046 -0.0815  3.0159  0.3800
  406TMC3    H1 6067   2.567   2.577  14.103  1.7815  0.8284 -2.4804
  406TMC3    H2 6068   2.739   2.184  14.039 -0.0105  0.4325  1.5989
  406TMC3    C7 6069   2.756   2.430  14.194  0.0854 -0.0284  0.2227
  406TMC3    C8 6070   2.490   2.066  14.110 -0.1575  0.4122 -0.0238
  406TMC3    O1 6071   2.781   2.551  14.200 -0.3641 -0.3814 -0.3546
  406TMC3    O2 6072   2.377   2.019  14.087 -0.5168 -0.0965  0.1907
  407MPD2     C 6073   1.347   2.814   9.361 -0.4342  0.1239  0.3327
  407MPD2    C1 6074   1.365   2.799   9.493 -0.4897 -0.0346 -0.3752
  407MPD2    C2 6075   1.295   2.885   9.579 -0.8698 -0.2985 -0.1843
  407MPD2    C3 6076   1.194   2.969   9.544  0.5613 -0.1488  0.0353
  407MPD2    C4 6077   1.172   2.976   9.407 -0.2060 -0.8778 -0.1710
  407MPD2    C5 6078   1.247   2.899   9.326 -0.1474  0.1623 -0.7939
  407MPD2     H 6079   1.311   2.876   9.686  1.2631  0.6181 -0.4409
  407MPD2    H1 6080   1.099   3.038   9.355  0.2546 -0.2239 -0.0462
  407MPD2    H2 6081   1.410   2.766   9.287  0.4066 -2.3181  2.6338
  407MPD2    H3 6082   1.219   2.901   9.221 -1.6440  1.7851 -0.3643
  407MPD2     N 6083   1.128   3.058   9.635  0.2308  0.6691 -0.5285
  407MPD2    H5 6084   1.070   3.130   9.592 -1.5644 -0.4566  0.0006
  407MPD2    N1 6085   1.467   2.718   9.544  0.3958 -0.8947 -0.5830
  407MPD2    H7 6086   1.486   2.730   9.643 -0.9769 -2.7700 -0.0942
  408TMC3    C1 6087   1.657   2.603   9.558  0.2177 -0.2157  0.8734
  408TMC3    C2 6088   1.713   2.695   9.637 -0.2898 -0.7058  0.0678
  408TMC3    C3 6089   1.804   2.645   9.725 -0.0380 -0.1385 -0.1818
  408TMC3    C4 6090   1.699   2.475   9.546 -0.0228 -0.7130  0.1408
  408TMC3    C5 6091   1.779   2.426   9.646 -0.1594 -0.1126 -0.0843
  408TMC3    C6 6092   1.835   2.510   9.740 -0.5329  0.3119  0.1337
  408TMC3     C 6093   1.553   2.639   9.471  0.4040 -0.0108  0.1301
  408TMC3     O 6094   1.535   2.580   9.371 -0.4739  0.3721  0.0881
  408TMC3     H 6095   1.681   2.798   9.629  0.0751 -0.5352  0.7761
  408TMC3    H1 6096   1.653   2.412   9.471 -1.6785 -1.0650  1.4680
  408TMC3    H2 6097   1.905   2.472   9.814 -0.3565  0.2151 -0.0830
  408TMC3    C7 6098   1.749   2.296   9.691 -0.4846 -0.0069  0.0856
  408TMC3    C8 6099   1.871   2.733   9.819 -0.3959  0.6037  0.5068
  408TMC3    O1 6100   1.670   2.238   9.620 -0.3977 -0.4564  0.4014
  408TMC3    O2 6101   1.897   2.671   9.920 -0.2950  0.0022  0.0399
  409MPD2     C 6102   4.541   4.420  16.912  0.4515 -0.2522 -0.6317
  409MPD2    C1 6103   4.648   4.413  16.993 -0.1963 -1.1318  0.4170
  409MPD2    C2 6104   0.032   4.490  16.973  0.2718  0.0266  1.1302
  409MPD2    C3 6105   0.053   4.575  16.861  0.7213  0.0595 -0.4785
  409MPD2    C4 6106   4.675   4.579  16.773  0.3219  0.3190 -0.5141
  409MPD2    C5 6107   4.558   4.514  16.806 -0.1064 -0.1526  0.3268
  409MPD2     H 6108   0.111   4.493  17.047  2.3376  2.0252 -1.1785
  409MPD2    H1 6109   4.674   4.651  16.692 -1.7676  2.0066  0.9787
  409MPD2    H2 6110   4.448   4.369  16.931  0.0923  0.2444 -1.0729
  409MPD2    H3 6111   4.477   4.521  16.733  1.2196  1.2643 -1.0022
  409MPD2     N 6112   0.180   4.636  16.827 -0.2866 -0.4263 -0.0413
  409MPD2    H5 6113   0.194   4.672  16.733  1.2868  0.8274  0.6723
  409MPD2    N1 6114   4.659   4.316  17.105  0.1126 -0.0244  0.3014
  409MPD2    H7 6115   0.023   4.316  17.149  0.2170 -1.1690  0.0744
  410TMC3    C1 6116   0.408   4.698  16.848 -0.5450 -0.3642 -0.7273
  410TMC3    C2 6117   0.521   4.692  16.926  0.4965 -0.4151 -0.5945
  410TMC3    C3 6118   0.608   0.065  16.915  0.2111  0.1442 -0.1809
  410TMC3    C4 6119   0.384   0.073  16.761  0.5112  0.1921  0.6634
  410TMC3    C5 6120   0.485   0.163  16.748  0.1527  0.8090 -0.2340
  410TMC3    C6 6121   0.594   0.169  16.825 -0.3810  0.0523 -0.5291
  410TMC3     C 6122   0.293   4.623  16.903 -0.1121 -0.0001  0.0915
  410TMC3     O 6123   0.310   4.576  17.015 -0.1921 -0.0073  0.2573
  410TMC3     H 6124   0.529   4.611  16.997  0.4679  0.4721  0.4224
  410TMC3    H1 6125   0.302   0.076  16.690  2.4361  1.1075 -1.5081
  410TMC3    H2 6126   0.655   0.258  16.835 -2.4412  1.7984 -3.5250
  410TMC3    C7 6127   0.498   0.222  16.617 -0.0493 -0.1090  0.6518
  410TMC3    C8 6128   0.737   0.061  16.985  0.6842 -0.4902  0.1826
  410TMC3    O1 6129   0.487   0.148  16.514  0.1698 -0.1753 -0.6848
  410TMC3    O2 6130   0.797   0.169  16.991  0.4726 -0.6540 -0.3856
  411MPD2     C 6131   0.810   0.617  14.707  0.1005  0.2058  0.2828
  411MPD2    C1 6132   0.672   0.614  14.688 -0.2668 -0.5147 -0.0982
  411MPD2    C2 6133   0.616   0.505  14.636  0.1313  0.1842 -0.0744
  411MPD2    C3 6134   0.689   0.399  14.596 -0.6400 -0.5687  0.3665
  411MPD2    C4 6135   0.829   0.402  14.613 -0.3373  0.0283 -0.0171
  411MPD2    C5 6136   0.888   0.512  14.670  0.2626 -0.0291 -0.0506
  411MPD2     H 6137   0.515   0.520  14.599 -0.5472  0.1402  1.7661
  411MPD2    H1 6138   0.889   0.313  14.601  0.4750  0.3338  1.7320
  411MPD2    H2 6139   0.864   0.706  14.736 -0.0942  0.7454 -0.9838
  411MPD2    H3 6140   0.995   0.517  14.687  0.0266  0.2499  1.3460
  411MPD2     N 6141   0.623   0.287  14.543  0.3180 -0.4181  0.0934
  411MPD2    H5 6142   0.682   0.207  14.522  0.2559 -0.4697  0.1152
  411MPD2    N1 6143   0.591   0.724  14.723 -0.0279  0.8246 -0.0053
  411MPD2    H7 6144   0.495   0.711  14.690  0.7861  0.2993 -2.2032
  412TMC3    C1 6145   0.448   0.150  14.464 -0.3387  0.4072  0.9428
  412TMC3    C2 6146   0.324   0.101  14.488  0.0651 -0.0687  0.6154
  412TMC3    C3 6147   0.279   0.000  14.405  0.0574  0.0325 -0.2670
  412TMC3    C4 6148   0.525   0.093  14.362 -0.4498  0.9909 -0.4079
  412TMC3    C5 6149   0.472   4.726  14.281 -0.0641  0.1549  0.4707
  412TMC3    C6 6150   0.351   4.666  14.303  0.3128  0.0499 -0.2871
  412TMC3     C 6151   0.485   0.275  14.532 -0.0397 -0.3123  0.5956
  412TMC3     O 6152   0.389   0.335  14.578 -0.3291  0.2774  0.1783
  412TMC3     H 6153   0.258   0.145  14.562 -0.5730  1.2162 -0.7315
  412TMC3    H1 6154   0.612   0.150  14.331  1.0041  0.5742  2.8376
  412TMC3    H2 6155   0.310   4.587  14.240  0.8159 -0.4280 -0.0123
  412TMC3    C7 6156   0.483   0.024  14.135 -0.3151 -0.8408  0.4522
  412TMC3    C8 6157   0.147   0.029  14.354  0.1096 -0.3577  0.1280
  412TMC3    O1 6158   0.593   0.041  14.084  0.1740 -0.0737 -0.0274
  412TMC3    O2 6159   0.133   0.017  14.234 -0.0602 -0.3843  0.2168
  413MPD2     C 6160   2.168   3.394  15.561  0.1528 -0.4008 -0.4196
  413MPD2    C1 6161   2.079   3.353  15.459 -0.4452  0.2831  0.0150
  413MPD2    C2 6162   2.136   3.269  15.359  0.1529 -0.2671 -0.3576
  413MPD2    C3 6163   2.263   3.224  15.359  0.0684  0.1365 -0.2768
  413MPD2    C4 6164   2.337   3.251  15.474 -0.0081  0.3643 -0.0234
  413MPD2    C5 6165   2.296   3.337  15.572 -0.2900  0.6219  0.3535
  413MPD2     H 6166   2.076   3.236  15.274  1.0001 -0.0218 -1.0410
  413MPD2    H1 6167   2.436   3.208  15.490 -0.4268  0.3083  2.3338
  413MPD2    H2 6168   2.149   3.466  15.639  0.3241  1.2475 -1.8858
  413MPD2    H3 6169   2.368   3.356  15.650  0.6237  1.8593 -0.7850
  413MPD2     N 6170   2.313   3.131  15.267  0.4882 -0.2360 -0.3458
  413MPD2    H5 6171   2.412   3.109  15.275  0.3784 -1.2324 -1.6778
  413MPD2    N1 6172   1.943   3.389  15.473 -0.4298 -0.6151  0.7052
  413MPD2    H7 6173   1.923   3.454  15.548  0.1931  1.3242 -0.8025
  414TMC3    C1 6174   2.320   3.017  15.057 -0.3149  0.0881 -0.0794
  414TMC3    C2 6175   2.426   2.945  15.105 -0.0206  0.2678 -0.0701
  414TMC3    C3 6176   2.504   2.878  15.018  0.0531  0.6498  0.1413
  414TMC3    C4 6177   2.296   3.031  14.931 -0.1630 -0.0121 -0.0441
  414TMC3    C5 6178   2.396   2.988  14.844  0.1148 -0.0311  0.2968
  414TMC3    C6 6179   2.491   2.893  14.880 -0.6689 -0.0641  0.1294
  414TMC3     C 6180   2.248   3.103  15.146  0.8172  0.1829  0.5233
  414TMC3     O 6181   2.140   3.133  15.097 -0.1064  0.3511 -0.0985
  414TMC3     H 6182   2.436   2.931  15.212 -0.8005  1.9681  0.2313
  414TMC3    H1 6183   2.241   3.115  14.891  1.4915  0.8130 -0.5922
  414TMC3    H2 6184   2.554   2.845  14.806 -0.8528  0.0161 -0.0796
  414TMC3    C7 6185   2.363   2.997  14.706 -0.4000  0.4156  0.1392
  414TMC3    C8 6186   2.617   2.806  15.073 -0.0666 -0.0223 -0.0459
  414TMC3    O1 6187   2.242   2.986  14.678 -0.0407 -0.3436  0.1950
  414TMC3    O2 6188   2.654   2.709  15.004 -0.0566  0.0928 -0.4010
  415TMC3    C1 6189   2.451   1.001  10.670  0.2601  0.0760  0.0663
  415TMC3    C2 6190   2.376   0.954  10.565 -0.3951  0.1447  0.3144
  415TMC3    C3 6191   2.284   0.850  10.581 -0.7585 -0.0700  0.0987
  415TMC3    C4 6192   2.426   0.953  10.797 -0.3016  0.2697  0.1256
  415TMC3    C5 6193   2.333   0.854  10.815  0.1083  0.2579  0.2384
  415TMC3    C6 6194   2.264   0.794  10.713 -0.9957  0.4690  0.4182
  415TMC3     C 6195   2.589   1.041  10.639  0.0931 -0.3097 -0.1871
  415TMC3     O 6196   2.640   0.983  10.541  0.6464  0.4796 -0.0566
  415TMC3     H 6197   2.386   1.006  10.470 -2.6563  1.5649  0.8618
  415TMC3    H1 6198   2.487   0.984  10.881 -2.1589  1.1236  1.1395
  415TMC3    H2 6199   2.197   0.710  10.726 -0.5332 -0.2017 -1.6023
  415TMC3    C7 6200   2.336   0.776  10.931 -0.6525 -0.0161 -0.4729
  415TMC3    C8 6201   2.299   0.746  10.477 -0.4629 -0.3135  0.6318
  415TMC3    O1 6202   2.234   0.709  10.948  0.1838 -0.1192 -0.2318
  415TMC3    O2 6203   2.237   0.641  10.483  0.2531  0.1770  0.4129
  416MPD2     C 6204   4.668   0.142  11.740  0.5760  0.1954  0.3892
  416MPD2    C1 6205   4.561   0.118  11.652  0.2916 -0.2225 -0.2294
  416MPD2    C2 6206   4.581   0.014  11.560  0.2653 -0.3981 -0.1493
  416MPD2    C3 6207   4.699   4.675  11.544  0.7592 -0.0260 -0.2988
  416MPD2    C4 6208   0.076   4.714  11.624 -0.2361 -0.0378 -0.5647
  416MPD2    C5 6209   0.060   0.083  11.720  0.2035  0.2943 -0.2681
  416MPD2     H 6210   4.494   4.707  11.505  0.2896 -0.7115  0.0095
  416MPD2    H1 6211   0.173   4.664  11.629 -1.0053 -1.4248  0.4401
  416MPD2    H2 6212   4.661   0.225  11.810  2.6208  0.1989  0.5960
  416MPD2    H3 6213   0.147   0.104  11.781  1.2604  3.1844 -2.7810
  416MPD2     N 6214   4.719   4.575  11.447 -0.0954 -0.3865 -0.2167
  416MPD2    H5 6215   0.085   4.537  11.434  0.8510  1.9003 -0.0228
  416MPD2    N1 6216   4.437   0.187  11.670 -0.0852  0.0927 -0.5094
  416MPD2    H7 6217   4.445   0.259  11.741 -0.0176  0.9498 -1.3767
  417TMC3    C1 6218   4.217   0.263  11.637  0.5453  0.4016 -0.0526
  417TMC3    C2 6219   4.230   0.321  11.758 -0.4496 -0.0966  0.6618
  417TMC3    C3 6220   4.169   0.437  11.780  0.2807 -0.2047 -0.5243
  417TMC3    C4 6221   4.150   0.325  11.537 -0.4383 -0.1214 -0.4065
  417TMC3    C5 6222   4.075   0.434  11.572  0.0258  0.3326 -0.2720
  417TMC3    C6 6223   4.088   0.501  11.695  0.0105  0.0762  0.7544
  417TMC3     C 6224   4.320   0.171  11.597 -0.2765  0.1959  0.2450
  417TMC3     O 6225   4.298   0.107  11.496  0.2630  0.1190 -0.0442
  417TMC3     H 6226   4.273   0.262  11.838 -0.3749 -1.4737 -0.4050
  417TMC3    H1 6227   4.168   0.295  11.434  1.5924  3.0899 -0.9939
  417TMC3    H2 6228   4.031   0.589  11.724 -1.5818 -0.4893 -0.6300
  417TMC3    C7 6229   3.994   0.481  11.457  0.2821 -0.2079 -0.5172
  417TMC3    C8 6230   4.147   0.472  11.920  0.3259 -0.0463 -0.0015
  417TMC3    O1 6231   3.966   0.600  11.461  1.1614 -0.6327 -0.1322
  417TMC3    O2 6232   4.029   0.474  11.947 -0.5258 -0.2597 -0.0083
  418TMC3    C1 6233   3.366   1.829   0.442  0.4040  0.2368 -0.1919
  418TMC3    C2 6234   3.252   1.857   0.371 -0.0846  0.2103  1.0030
  418TMC3    C3 6235   3.134   1.813   0.425  0.3618  0.0450 -0.6241
  418TMC3    C4 6236   3.372   1.751   0.555 -1.0716  0.0076  0.1181
  418TMC3    C5 6237   3.253   1.724   0.613  0.4337  0.2045 -0.2874
  418TMC3    C6 6238   3.133   1.746   0.544 -0.5151 -0.5664 -0.5889
  418TMC3     C 6239   3.486   1.838   0.361  0.3470  0.8691  0.5271
  418TMC3     O 6240   3.504   1.949   0.305 -0.6201  0.4193  0.1120
  418TMC3     H 6241   3.244   1.916   0.280 -1.0775 -0.6944  0.5027
  418TMC3    H1 6242   3.467   1.703   0.575 -0.4137  0.7229 -1.2963
  418TMC3    H2 6243   3.045   1.698   0.585 -1.7118  0.2771 -2.1839
  418TMC3    C7 6244   3.252   1.606   0.704  0.4654 -0.2602  0.6704
  418TMC3    C8 6245   3.022   1.781   0.345  0.0236 -0.0748 -0.2044
  418TMC3    O1 6246   3.156   1.529   0.693 -0.3047  0.1937 -0.3257
  418TMC3    O2 6247   2.972   1.866   0.277  0.1393  0.7082 -0.0398
  419MPD2     C 6248   1.877   4.454  12.536 -0.3563  0.4508  0.4846
  419MPD2    C1 6249   1.893   4.583  12.484  0.3857 -0.7980 -0.3853
  419MPD2    C2 6250   1.871   4.695  12.562  0.8798  0.1183 -0.4864
  419MPD2    C3 6251   1.822   4.679  12.684  0.8715 -0.5580  0.3509
  419MPD2    C4 6252   1.791   4.554  12.734 -0.0654 -0.2910  0.2376
  419MPD2    C5 6253   1.829   4.444  12.663  0.5686 -0.5579 -0.2306
  419MPD2     H 6254   1.892   0.064  12.518  0.3949  0.3025 -0.3120
  419MPD2    H1 6255   1.759   4.537  12.836  1.9479 -2.2370  0.5552
  419MPD2    H2 6256   1.898   4.370  12.471 -0.7494  0.5345  0.2521
  419MPD2    H3 6257   1.800   4.347  12.703 -2.4292  0.8851  1.1016
  419MPD2     N 6258   1.805   0.065  12.762  0.4263 -0.1574 -0.0967
  419MPD2    H5 6259   1.823   0.152  12.712 -2.2059 -0.5883 -1.7740
  419MPD2    N1 6260   1.971   4.602  12.372  0.5324  0.3070  0.4296
  419MPD2    H7 6261   2.016   4.693  12.376 -1.9584  1.5361  0.5718
  420TMC3    C1 6262   1.812   0.213  12.948 -0.5209 -0.2989  0.5788
  420TMC3    C2 6263   1.712   0.293  12.899  0.5676  0.5905 -0.0476
  420TMC3    C3 6264   1.667   0.391  12.983 -0.1146  0.1585 -0.5719
  420TMC3    C4 6265   1.865   0.219  13.076  0.1115 -0.2174 -0.4544
  420TMC3    C5 6266   1.812   0.323  13.151  0.3079 -0.1804 -0.2683
  420TMC3    C6 6267   1.707   0.401  13.118  0.6962 -0.4489  0.6171
  420TMC3     C 6268   1.806   0.074  12.899 -0.9334 -0.5306 -0.7734
  420TMC3     O 6269   1.836   4.719  12.986  0.1631  0.1477  0.1818
  420TMC3     H 6270   1.663   0.292  12.803  1.4208 -0.5934 -0.4672
  420TMC3    H1 6271   1.935   0.152  13.124  0.3556  0.4629  0.1498
  420TMC3    H2 6272   1.675   0.478  13.187 -0.1285 -0.0693 -0.1814
  420TMC3    C7 6273   1.853   0.331  13.291  0.0300 -0.4181 -0.3907
  420TMC3    C8 6274   1.543   0.458  12.955 -0.5869  1.1273  0.1038
  420TMC3    O1 6275   1.765   0.340  13.376  0.7572 -0.1893 -0.3139
  420TMC3    O2 6276   1.510   0.476  12.836  0.0715 -0.3769  0.2173
  421TMC3    C1 6277   3.330   1.936  13.875  0.3604 -0.0298  0.3206
  421TMC3    C2 6278   3.393   2.041  13.940 -0.5330 -0.1859  0.6569
  421TMC3    C3 6279   3.487   2.013  14.037  0.1007 -0.2207 -0.3468
  421TMC3    C4 6280   3.380   1.811  13.886 -0.8752 -0.0018  0.0619
  421TMC3    C5 6281   3.482   1.786  13.975  1.0561  0.1165  0.2833
  421TMC3    C6 6282   3.532   1.886  14.058 -0.3515  0.5209  0.0587
  421TMC3     C 6283   3.224   1.965  13.781  0.6326 -0.0905  0.1516
  421TMC3     O 6284   3.229   2.079  13.738  0.3135  0.1400  0.1232
  421TMC3     H 6285   3.370   2.143  13.912 -2.8737 -0.7898  0.3945
  421TMC3    H1 6286   3.332   1.730  13.833 -0.7105  2.5174 -3.9840
  421TMC3    H2 6287   3.613   1.874  14.128 -0.6516  0.1634  0.3414
  421TMC3    C7 6288   3.582   1.679  13.940  0.0206  0.9547  0.4270
  421TMC3    C8 6289   3.551   2.111  14.117 -0.1784  0.1977  0.6247
  421TMC3    O1 6290   3.668   1.666  14.029  0.3269 -0.3473 -0.5975
  421TMC3    O2 6291   3.672   2.127  14.104  0.4823 -0.3440 -0.0226
  422TMC3    C1 6292   0.824   3.151  12.483 -0.3311 -0.3300 -0.2319
  422TMC3    C2 6293   0.825   3.273  12.540 -0.8519 -0.3067  0.1427
  422TMC3    C3 6294   0.737   3.305  12.634  0.0475  0.2985  0.0311
  422TMC3    C4 6295   0.733   3.056  12.528  0.8726  0.2471 -0.0436
  422TMC3    C5 6296   0.665   3.088  12.650 -0.2535 -0.2579  1.1628
  422TMC3    C6 6297   0.650   3.217  12.700 -0.5628 -0.7114  0.0313
  422TMC3     C 6298   0.912   3.138  12.367  0.0776  0.2887  0.4755
  422TMC3     O 6299   0.946   3.240  12.314 -0.2341  0.1557  0.6905
  422TMC3     H 6300   0.889   3.351  12.499  0.6751 -1.7650 -0.2557
  422TMC3    H1 6301   0.727   2.955  12.489  0.1021 -0.6392  2.3121
  422TMC3    H2 6302   0.604   3.229  12.798 -0.5982 -0.9129  0.0398
  422TMC3    C7 6303   0.630   2.973  12.732 -0.4530 -1.2172  0.5964
  422TMC3    C8 6304   0.712   3.442  12.667  0.2337  0.1052  0.4200
  422TMC3    O1 6305   0.703   2.878  12.739  0.0872  0.3693  0.1226
  422TMC3    O2 6306   0.789   3.526  12.628 -0.3102 -0.4355  0.1112
  423MPD2     C 6307   1.919   4.190   0.411 -0.7400 -0.0722  0.3141
  423MPD2    C1 6308   1.893   4.060   0.441  0.2624  0.5329  0.2945
  423MPD2    C2 6309   1.901   3.969   0.336  0.0226 -0.4472  0.0102
  423MPD2    C3 6310   1.943   4.005   0.210  0.6828 -0.0704 -0.3122
  423MPD2    C4 6311   1.981   4.137   0.187  0.6765 -0.0701 -0.5678
  423MPD2    C5 6312   1.963   4.230   0.287  0.6616  0.2508 -0.2962
  423MPD2     H 6313   1.874   3.867   0.360  0.6190 -0.5120  0.4069
  423MPD2    H1 6314   2.009   4.168   0.087 -1.8793 -0.5487 -1.4253
  423MPD2    H2 6315   1.903   4.264   0.489  0.8569  1.0785 -0.4491
  423MPD2    H3 6316   1.986   4.333   0.262 -0.6907  0.1609 -1.9377
  423MPD2     N 6317   1.952   3.910   0.101 -0.0171  0.3104  0.0729
  423MPD2    H5 6318   1.970   3.948   0.008  0.3105  0.6241  0.2701
  423MPD2    N1 6319   1.834   4.029   0.569 -0.1159  0.3160 -0.8191
  423MPD2    H7 6320   1.827   4.106   0.634  1.4038  0.3115 -0.6491
  424TMC3    C1 6321   1.758   3.914   0.755 -0.6500 -0.2046 -0.1238
  424TMC3    C2 6322   1.772   3.803   0.834  1.0685 -0.0487  0.1529
  424TMC3    C3 6323   1.679   3.796   0.939  0.2274 -0.0549 -0.2680
  424TMC3    C4 6324   1.672   4.018   0.787 -0.4438  0.2120 -0.2286
  424TMC3    C5 6325   1.584   4.009   0.888  0.5095 -0.7906  0.0509
  424TMC3    C6 6326   1.584   3.893   0.966 -0.3408 -0.5196  0.2484
  424TMC3     C 6327   1.814   3.904   0.619  0.1945 -0.3952 -0.3763
  424TMC3     O 6328   1.829   3.791   0.582  0.0883  0.4055  0.1168
  424TMC3     H 6329   1.832   3.718   0.802  0.0595 -0.7196  0.0311
  424TMC3    H1 6330   1.675   4.104   0.721  1.1801  2.6078  2.9436
  424TMC3    H2 6331   1.529   3.885   1.060 -1.0953  0.0377 -0.1504
  424TMC3    C7 6332   1.516   4.131   0.928  0.2285 -0.0903 -0.0771
  424TMC3    C8 6333   1.698   3.689   1.042 -0.0280  0.2569  0.2669
  424TMC3    O1 6334   1.517   4.225   0.848 -0.7160  0.5473 -0.0059
  424TMC3    O2 6335   1.628   3.686   1.142 -0.4980  0.2721  0.1226
  425MPD2     C 6336   0.854   3.361  17.152  0.2692  0.1611  0.2985
  425MPD2    C1 6337   0.814   3.259  17.233 -0.4098  0.2631  0.5869
  425MPD2    C2 6338   0.684   3.260  17.287 -0.0600 -0.1410  0.1650
  425MPD2    C3 6339   0.602   3.368  17.258 -0.1577 -0.5585  0.2022
  425MPD2    C4 6340   0.644   3.476  17.184  0.5053 -0.1155 -0.8204
  425MPD2    C5 6341   0.771   3.470  17.127 -0.2673  0.1782 -0.5935
  425MPD2     H 6342   0.643   3.188  17.356  1.7421 -1.5759 -0.2669
  425MPD2    H1 6343   0.594   3.568  17.155  0.5240 -0.1107 -0.8372
  425MPD2    H2 6344   0.953   3.365  17.110 -0.0435 -0.4975 -0.4944
  425MPD2    H3 6345   0.798   3.560  17.074  0.6053 -0.4196 -1.1605
  425MPD2     N 6346   0.476   3.355  17.316 -0.0834 -0.4164  1.6225
  425MPD2    H5 6347   0.455   3.270  17.367 -0.6135 -0.8181  0.7209
  425MPD2    N1 6348   0.912   3.166  17.265 -0.1041  0.5392 -0.5374
  425MPD2    H7 6349   1.001   3.173  17.216  0.3298  1.5337  0.4187
  426TMC3    C1 6350   1.003   2.977  17.354 -0.8222  0.3161  0.2816
  426TMC3    C2 6351   1.044   2.924  17.237 -1.4343 -0.4281  0.3329
  426TMC3    C3 6352   1.136   2.829  17.247 -0.8760  0.5651  0.1411
  426TMC3    C4 6353   1.042   2.941  17.479 -0.4218  0.0782 -0.6292
  426TMC3    C5 6354   1.148   2.854  17.479  0.1292 -0.4878  0.4117
  426TMC3    C6 6355   1.196   2.796  17.364 -0.4358  0.3447 -0.2366
  426TMC3     C 6356   0.885   3.055  17.347  0.0122 -0.4973 -0.5315
  426TMC3     O 6357   0.808   3.038  17.444 -0.3951 -0.0002  0.3274
  426TMC3     H 6358   1.005   2.952  17.140 -0.1203  0.5540  0.0956
  426TMC3    H1 6359   1.018   2.996  17.569  4.1690  2.0254 -0.6218
  426TMC3    H2 6360   1.278   2.726  17.363 -0.5845  0.1566  0.4992
  426TMC3    C7 6361   1.241   2.868  17.585  0.1421  0.4942  0.0580
  426TMC3    C8 6362   1.153   2.735  17.145 -0.5765 -0.2654 -0.1532
  426TMC3    O1 6363   1.356   2.839  17.558 -0.0588 -0.6806  0.1234
  426TMC3    O2 6364   1.253   2.671  17.144 -0.0922  0.0767  0.3267
  427MPD2     C 6365   4.304   0.829  14.958 -0.2139  0.9925 -0.2893
  427MPD2    C1 6366   4.259   0.718  15.026 -0.1770  0.6482  0.5171
  427MPD2    C2 6367   4.127   0.706  15.061 -0.8595  0.3033 -0.1708
  427MPD2    C3 6368   4.031   0.794  15.007 -0.2829 -0.0906 -0.3256
  427MPD2    C4 6369   4.085   0.900  14.933  0.4162 -0.3693 -0.1447
  427MPD2    C5 6370   4.213   0.918  14.910  0.2212  0.1171  0.4317
  427MPD2     H 6371   4.104   0.613  15.112 -0.2090 -0.3462 -1.0613
  427MPD2    H1 6372   4.014   0.967  14.887 -0.3737 -2.1718 -1.5639
  427MPD2    H2 6373   4.409   0.848  14.937 -0.0095  1.5979  1.2924
  427MPD2    H3 6374   4.248   0.999  14.847  0.1936 -1.1166 -1.1679
  427MPD2     N 6375   3.892   0.777  15.017  0.9586 -0.3622  0.8522
  427MPD2    H5 6376   3.838   0.825  14.946  0.7052 -0.9749  0.6286
  427MPD2    N1 6377   4.343   0.616  15.073 -0.0107  0.2753  0.0351
  427MPD2    H7 6378   4.292   0.543  15.121 -0.8051 -0.3232 -1.7306
  428TMC3    C1 6379   4.535   0.496  15.135 -0.5109 -0.0808 -0.2048
  428TMC3    C2 6380   4.458   0.384  15.160 -0.0281  0.3298  0.5857
  428TMC3    C3 6381   4.510   0.294  15.242  0.2664 -0.1322 -0.6081
  428TMC3    C4 6382   4.656   0.512  15.190 -0.3897 -0.4257  0.6350
  428TMC3    C5 6383   4.707   0.412  15.266  0.3045 -0.2999  0.8074
  428TMC3    C6 6384   4.632   0.305  15.303 -0.4177 -0.4973  0.0812
  428TMC3     C 6385   4.479   0.600  15.056  0.2677 -0.2815  0.2039
  428TMC3     O 6386   4.567   0.668  14.996 -0.2368  0.1521 -0.0914
  428TMC3     H 6387   4.372   0.366  15.096  0.9422  0.8732 -0.8683
  428TMC3    H1 6388   4.719   0.598  15.171 -0.2352 -0.5160  0.7411
  428TMC3    H2 6389   4.678   0.231  15.366  1.1311  0.2258 -0.1983
  428TMC3    C7 6390   0.116   0.418  15.314 -0.2361 -0.1655 -0.4026
  428TMC3    C8 6391   4.465   0.156  15.219  0.6888  0.0932  0.1473
  428TMC3    O1 6392   0.144   0.374  15.425  0.5479 -0.1965 -0.0184
  428TMC3    O2 6393   4.555   0.073  15.209  0.1385 -0.2359 -0.5201
  429MPD2     C 6394   0.505   0.506  17.576  0.0895 -0.6282 -0.0638
  429MPD2    C1 6395   0.626   0.443  17.606  0.5825 -0.4779 -0.5176
  429MPD2    C2 6396   0.739   0.521  17.588 -0.2379 -0.0693 -0.4468
  429MPD2    C3 6397   0.737   0.644  17.530  0.4904 -0.6553 -0.8798
  429MPD2    C4 6398   0.618   0.697  17.495  0.1174  1.2561  0.0100
  429MPD2    C5 6399   0.503   0.636  17.533 -0.1645 -0.3434 -0.2653
  429MPD2     H 6400   0.828   0.470  17.623 -0.6527  0.7244  1.7832
  429MPD2    H1 6401   0.606   0.795  17.450 -2.1429  1.5210  1.1991
  429MPD2    H2 6402   0.411   0.453  17.574  0.0812 -0.5922 -0.6883
  429MPD2    H3 6403   0.411   0.679  17.493  0.2169  0.2647 -0.4826
  429MPD2     N 6404   0.867   0.698  17.508  0.1300 -0.2133 -0.2614
  429MPD2    H5 6405   0.954   0.651  17.533 -0.9421 -0.9135  2.1375
  429MPD2    N1 6406   0.637   0.305  17.642 -0.4161 -0.2984 -0.5568
  429MPD2    H7 6407   0.731   0.265  17.646  0.0839  0.9671  0.3146
  430TMC3    C1 6408   1.026   0.858  17.443 -0.1318 -0.9588 -0.4839
  430TMC3    C2 6409   1.043   0.982  17.390 -0.8214  0.3635 -0.2232
  430TMC3    C3 6410   1.158   1.014  17.324 -0.0723 -0.3009  0.2623
  430TMC3    C4 6411   1.112   0.759  17.407 -0.3575  0.3060 -0.1507
  430TMC3    C5 6412   1.229   0.794  17.335 -0.0368 -0.1014 -0.0595
  430TMC3    C6 6413   1.268   0.926  17.306  0.3694  0.8810  0.3134
  430TMC3     C 6414   0.884   0.823  17.464 -0.3237  0.0127  0.3487
  430TMC3     O 6415   0.798   0.907  17.444  0.2656 -0.0347 -0.5483
  430TMC3     H 6416   0.973   1.062  17.410 -0.9246 -0.4082  2.5039
  430TMC3    H1 6417   1.097   0.654  17.428  1.4377  0.4022  1.6694
  430TMC3    H2 6418   1.360   0.947  17.252  1.0718 -2.0324  0.3637
  430TMC3    C7 6419   1.261   0.690  17.240  0.1341 -0.4765  1.3308
  430TMC3    C8 6420   1.160   1.134  17.247 -0.0555 -0.7652 -0.3692
  430TMC3    O1 6421   1.169   0.613  17.230 -0.2275  0.3414 -0.3199
  430TMC3    O2 6422   1.242   1.215  17.269 -0.2488  0.1377  0.2385
  431MPD2     C 6423   2.171   0.181  12.909  0.4590 -0.1082  0.1682
  431MPD2    C1 6424   2.170   0.249  12.786  0.6804  0.1926 -0.5176
  431MPD2    C2 6425   2.202   0.180  12.670 -0.6294 -0.1639  0.3492
  431MPD2    C3 6426   2.257   0.052  12.677 -0.5453  0.0909  0.8171
  431MPD2    C4 6427   2.267   4.713  12.797 -0.1124 -0.3245 -0.5899
  431MPD2    C5 6428   2.229   0.055  12.910  0.3918 -0.5298  0.0564
  431MPD2     H 6429   2.184   0.237  12.580  0.3954 -0.9215 -0.3362
  431MPD2    H1 6430   2.304   4.612  12.809  0.3734 -0.5749 -4.3669
  431MPD2    H2 6431   2.140   0.229  13.001  1.2152  3.1039 -1.2877
  431MPD2    H3 6432   2.244   0.007  13.006  0.2100 -1.3364 -0.3150
  431MPD2     N 6433   2.291   4.707  12.558 -0.2700 -0.0108  0.4006
  431MPD2    H5 6434   2.316   4.610  12.578 -1.9478  0.0394  2.8223
  431MPD2    N1 6435   2.126   0.385  12.776 -0.6126 -0.1137 -0.1745
  431MPD2    H7 6436   2.113   0.417  12.681  0.7964 -0.2240 -0.4038
  432TMC3    C1 6437   2.300   4.680  12.321  0.5444  0.2010  0.5292
  432TMC3    C2 6438   2.324   0.009  12.200 -0.5280 -0.2004 -0.3202
  432TMC3    C3 6439   2.245   4.701  12.093  0.1257  0.0035 -0.4892
  432TMC3    C4 6440   2.212   4.583  12.334 -0.9102 -0.0465  0.2682
  432TMC3    C5 6441   2.135   4.548  12.229 -0.4611 -0.4365 -0.1712
  432TMC3    C6 6442   2.142   4.611  12.107 -0.0348  0.5405  0.4435
  432TMC3     C 6443   2.311   0.037  12.434  0.9378  0.0133 -0.8944
  432TMC3     O 6444   2.343   0.153  12.410 -0.3131  0.5993  0.1064
  432TMC3     H 6445   2.411   0.073  12.188  1.2767 -2.6243 -0.2606
  432TMC3    H1 6446   2.204   4.526  12.426  0.3232 -0.5998  0.0302
  432TMC3    H2 6447   2.079   4.575  12.027 -0.7204  0.1213  1.1632
  432TMC3    C7 6448   2.008   4.508  12.279 -0.2975  0.3538 -0.6149
  432TMC3    C8 6449   2.247   0.045  11.968  0.3799  0.2369  0.5978
  432TMC3    O1 6450   1.979   4.391  12.268  0.2485 -0.4067  0.1816
  432TMC3    O2 6451   2.185   4.718  11.877  0.6595  0.2140 -0.4275
  433MPD2     C 6452   0.766   3.956  10.566  0.0383 -0.0426 -0.4070
  433MPD2    C1 6453   0.735   3.871  10.670  0.1686  0.4669  0.3091
  433MPD2    C2 6454   0.764   3.903  10.802  0.0815  0.0569  0.0239
  433MPD2    C3 6455   0.808   4.034  10.822  0.4207 -0.1074  0.2055
  433MPD2    C4 6456   0.824   4.121  10.709  0.6928 -0.0899 -0.5082
  433MPD2    C5 6457   0.816   4.077  10.584 -0.2878  0.4106  0.5425
  433MPD2     H 6458   0.741   3.853  10.895 -1.5695 -0.5121 -0.6971
  433MPD2    H1 6459   0.852   4.225  10.724 -1.8570  0.5091  0.0984
  433MPD2    H2 6460   0.743   3.931  10.463 -2.2966  0.4502 -0.0112
  433MPD2    H3 6461   0.813   4.151  10.505  2.1867 -0.5865 -0.4581
  433MPD2     N 6462   0.844   4.080  10.949 -0.3830  0.1388  0.3434
  433MPD2    H5 6463   0.852   4.011  11.023  4.3869  1.0732  0.7114
  433MPD2    N1 6464   0.691   3.742  10.629 -0.0862 -0.3802  0.2759
  433MPD2    H7 6465   0.701   3.726  10.530  1.3718 -0.9077  0.5212
  434TMC3    C1 6466   0.675   3.512  10.666  0.0234  0.7392  0.3101
  434TMC3    C2 6467   0.756   3.434  10.749 -0.9211 -0.4426  0.4535
  434TMC3    C3 6468   0.818   3.321  10.698  0.0874  0.4277  0.1473
  434TMC3    C4 6469   0.669   3.488  10.530 -0.4269  0.5675 -0.1683
  434TMC3    C5 6470   0.737   3.374  10.479  0.0563 -0.0560 -0.3432
  434TMC3    C6 6471   0.818   3.300  10.556 -0.3547 -0.2140  0.5005
  434TMC3     C 6472   0.646   3.641  10.713 -0.3537  0.4720 -0.3801
  434TMC3     O 6473   0.625   3.646  10.832  0.3744 -1.1917 -0.2466
  434TMC3     H 6474   0.757   3.467  10.852 -0.8469 -0.1056  0.3432
  434TMC3    H1 6475   0.614   3.558  10.468 -0.2612  0.3807 -0.5307
  434TMC3    H2 6476   0.892   3.242  10.502 -0.1534  1.1369 -0.6652
  434TMC3    C7 6477   0.736   3.347  10.336 -0.3417 -0.1122 -0.4989
  434TMC3    C8 6478   0.931   3.284  10.777 -0.0905 -0.0490  0.8847
  434TMC3    O1 6479   0.719   3.452  10.272  0.4697  0.1892  0.3388
  434TMC3    O2 6480   0.957   3.347  10.880  0.0044 -0.2505  0.4273
  435MPD2     C 6481   2.589   3.977  15.398 -0.7675 -0.9740 -0.2552
  435MPD2    C1 6482   2.546   4.019  15.527  0.5407  0.0883  0.0756
  435MPD2    C2 6483   2.631   3.981  15.632  0.9045 -0.5096 -0.0558
  435MPD2    C3 6484   2.750   3.902  15.607  0.7415  0.3236 -0.0106
  435MPD2    C4 6485   2.784   3.863  15.481 -0.1240 -0.4316 -0.1003
  435MPD2    C5 6486   2.699   3.898  15.380  0.3844  0.3339 -0.8043
  435MPD2     H 6487   2.588   3.994  15.730  1.6583  0.6000  0.1360
  435MPD2    H1 6488   2.866   3.794  15.464  1.9677  1.4504  2.4789
  435MPD2    H2 6489   2.527   3.995  15.311 -0.1920  0.3301 -0.3921
  435MPD2    H3 6490   2.731   3.865  15.282  1.0682 -0.0497 -0.4551
  435MPD2     N 6491   2.826   3.882  15.723  0.4503 -0.4323 -0.0977
  435MPD2    H5 6492   2.798   3.929  15.809  0.3699  0.7774 -0.7875
  435MPD2    N1 6493   2.418   4.060  15.557 -0.4682 -1.0763 -0.4703
  435MPD2    H7 6494   2.402   4.079  15.655 -2.2117 -0.9722 -0.7762
  436TMC3    C1 6495   2.152   4.241  15.747  0.2011 -0.0104 -0.8122
  436TMC3    C2 6496   2.230   4.233  15.637  0.1194 -0.0929 -0.2390
  436TMC3    C3 6497   2.203   4.137  15.536  0.1695  0.4708  0.0403
  436TMC3    C4 6498   2.044   4.163  15.762  0.3608 -0.8118 -0.6041
  436TMC3    C5 6499   2.028   4.062  15.671  0.4036  0.2763 -0.2223
  436TMC3    C6 6500   2.101   4.050  15.558 -0.2059  0.3951  0.9586
  436TMC3     C 6501   2.187   4.347  15.851 -0.5847  0.0402  0.2235
  436TMC3     O 6502   2.301   4.391  15.844 -0.2499 -0.6124  0.6219
  436TMC3     H 6503   2.326   4.284  15.634 -0.6329  1.4022  1.8839
  436TMC3    H1 6504   1.998   4.165  15.861  0.8889  1.9027 -0.4015
  436TMC3    H2 6505   2.094   3.965  15.491 -2.6899  0.1586  1.4860
  436TMC3    C7 6506   1.954   3.941  15.706  0.2042 -0.0197  0.3078
  436TMC3    C8 6507   2.314   4.074  15.468 -0.4031  0.5850  0.7094
  436TMC3    O1 6508   1.978   3.827  15.665  0.1687 -0.3581 -0.1708
  436TMC3    O2 6509   2.307   4.040  15.354  0.0551 -0.8244 -0.7707
  437TMC3    C1 6510   1.501   1.013  12.706  0.2639  0.1894 -0.1441
  437TMC3    C2 6511   1.392   1.089  12.741  0.0836  0.2934 -0.9284
  437TMC3    C3 6512   1.353   1.188  12.646 -0.1954  0.2928 -0.3177
  437TMC3    C4 6513   1.573   1.046  12.596  0.3880 -0.1183 -0.4222
  437TMC3    C5 6514   1.535   1.148  12.516  0.1574 -0.8490  0.3191
  437TMC3    C6 6515   1.427   1.217  12.536 -0.4689  0.0325 -0.3229
  437TMC3     C 6516   1.568   0.921  12.796  0.4158 -0.4055 -0.2697
  437TMC3     O 6517   1.688   0.920  12.781  0.3593 -0.5049 -0.2680
  437TMC3     H 6518   1.353   1.087  12.842 -0.0427 -0.5472 -0.9945
  437TMC3    H1 6519   1.666   0.993  12.581  0.8043  0.5563 -0.1859
  437TMC3    H2 6520   1.399   1.287  12.459 -0.1354  3.2669  2.4641
  437TMC3    C7 6521   1.639   1.201  12.434  0.4545 -0.3396 -0.3370
  437TMC3    C8 6522   1.279   1.296  12.707 -0.3517  0.1063  0.4304
  437TMC3    O1 6523   1.613   1.277  12.336  0.1210 -0.0478 -0.0387
  437TMC3    O2 6524   1.190   1.261  12.788  0.2058 -0.4782 -0.2294
  438MPD2     C 6525   3.788   1.754  16.780  0.2676  0.2105  0.2177
  438MPD2    C1 6526   3.870   1.658  16.846  0.1441 -0.8832  0.5825
  438MPD2    C2 6527   3.841   1.631  16.981 -0.2298 -0.4968  0.5169
  438MPD2    C3 6528   3.733   1.699  17.049 -0.4540  0.1856 -0.9105
  438MPD2    C4 6529   3.662   1.797  16.980  0.3888  0.0834  0.4109
  438MPD2    C5 6530   3.693   1.824  16.849  0.0120  0.4043 -0.2186
  438MPD2     H 6531   3.879   1.536  17.018  0.0999 -1.0158 -1.1309
  438MPD2    H1 6532   3.596   1.866  17.032  0.1328  0.8604 -0.9567
  438MPD2    H2 6533   3.797   1.775  16.674 -0.9968 -0.2251  0.0127
  438MPD2    H3 6534   3.637   1.897  16.790  0.8729 -1.3223 -3.1822
  438MPD2     N 6535   3.702   1.670  17.186 -0.7720  0.5509 -0.4111
  438MPD2    H5 6536   3.620   1.719  17.221  0.6598  0.7812  2.5904
  438MPD2    N1 6537   3.975   1.591  16.782 -0.5902  0.0071  0.2270
  438MPD2    H7 6538   4.037   1.529  16.833 -0.2682  0.8977  0.9111
  439TMC3    C1 6539   4.130   1.528  16.616 -0.9185  0.4188  0.3528
  439TMC3    C2 6540   4.210   1.593  16.524  0.0775  0.4440  0.1545
  439TMC3    C3 6541   4.344   1.609  16.546 -0.1302  0.8362  0.2634
  439TMC3    C4 6542   4.178   1.443  16.712 -0.1673  0.3553  0.1534
  439TMC3    C5 6543   4.314   1.471  16.733 -0.2696 -0.2203 -0.3753
  439TMC3    C6 6544   4.399   1.537  16.653  0.0540 -0.1390  0.2367
  439TMC3     C 6545   4.006   1.599  16.651 -0.4813 -0.1792 -0.1911
  439TMC3     O 6546   3.956   1.665  16.560 -0.7382 -0.3334  0.2040
  439TMC3     H 6547   4.161   1.670  16.465 -2.3328  0.8588  2.6907
  439TMC3    H1 6548   4.110   1.397  16.783  1.2183 -2.9304 -0.6683
  439TMC3    H2 6549   4.505   1.553  16.669 -0.0738  1.6159 -0.6043
  439TMC3    C7 6550   4.380   1.413  16.852 -0.2842  0.4598 -0.0812
  439TMC3    C8 6551   4.425   1.716  16.495  0.3571 -0.3967  0.2955
  439TMC3    O1 6552   4.455   1.486  16.910  0.1211  0.0735  0.5128
  439TMC3    O2 6553   4.525   1.740  16.561  0.0235  0.1876 -0.0175
  440MPD2     C 6554   2.618   2.144  14.628 -0.5282  0.2097 -0.0685
  440MPD2    C1 6555   2.664   2.265  14.673  0.4429 -0.5173 -0.1575
  440MPD2    C2 6556   2.754   2.258  14.780  1.2160 -0.9432  0.1293
  440MPD2    C3 6557   2.784   2.148  14.854  0.7866 -0.3964 -0.5474
  440MPD2    C4 6558   2.719   2.034  14.819  0.3724 -0.6541  0.5128
  440MPD2    C5 6559   2.639   2.030  14.707  0.2729  0.2833  0.8004
  440MPD2     H 6560   2.791   2.356  14.808  0.8786 -0.9544  0.6178
  440MPD2    H1 6561   2.718   1.947  14.885 -0.6388 -1.1089 -0.1126
  440MPD2    H2 6562   2.553   2.147  14.541 -0.5397 -1.3898 -0.0991
  440MPD2    H3 6563   2.585   1.940  14.679 -0.3452  1.5817 -2.2634
  440MPD2     N 6564   2.876   2.152  14.966  0.6527 -0.0209 -0.0729
  440MPD2    H5 6565   2.886   2.073  15.030  1.7121 -0.1465 -0.3897
  440MPD2    N1 6566   2.627   2.396  14.624 -0.2110 -0.3592  0.3733
  440MPD2    H7 6567   2.661   2.471  14.682  0.0328 -1.9447  2.2697
  441TMC3    C1 6568   3.048   2.228  15.118 -0.1034 -0.0564 -1.1149
  441TMC3    C2 6569   3.128   2.332  15.143  0.2631 -0.4250  0.4004
  441TMC3    C3 6570   3.161   2.363  15.267 -0.0558 -0.0808  0.6562
  441TMC3    C4 6571   2.997   2.152  15.222  0.7869  0.1632 -0.0112
  441TMC3    C5 6572   3.038   2.181  15.347  0.0873 -0.2322  0.0070
  441TMC3    C6 6573   3.111   2.295  15.374  0.0122 -0.3763  0.4193
  441TMC3     C 6574   2.957   2.257  15.007  0.6053  0.4336 -0.3359
  441TMC3     O 6575   2.963   2.367  14.960 -0.3493  0.6618 -0.0533
  441TMC3     H 6576   3.150   2.399  15.061 -0.7051 -0.4814  0.1018
  441TMC3    H1 6577   2.935   2.064  15.212  0.1218  0.7983 -1.4983
  441TMC3    H2 6578   3.130   2.320  15.478 -0.3317  0.0284  0.3850
  441TMC3    C7 6579   2.967   2.125  15.454  0.3478  0.2211  0.2121
  441TMC3    C8 6580   3.142   2.496  15.301 -0.4791 -0.1398  0.0648
  441TMC3    O1 6581   2.847   2.103  15.446  0.3891  0.4981 -0.7064
  441TMC3    O2 6582   3.224   2.539  15.388  0.0819 -0.7676 -0.3392
  442MPD2     C 6583   0.580   3.164  16.498  0.2163  0.2241  0.1584
  442MPD2    C1 6584   0.473   3.088  16.538 -0.0836 -0.2147  0.3099
  442MPD2    C2 6585   0.494   2.951  16.537  0.5446  0.0423  0.5818
  442MPD2    C3 6586   0.616   2.891  16.520  0.3677  0.2389  0.0364
  442MPD2    C4 6587   0.716   2.970  16.468  0.3493  0.3395  0.3573
  442MPD2    C5 6588   0.696   3.102  16.457 -0.9829 -0.2700 -0.0067
  442MPD2     H 6589   0.415   2.888  16.576  1.6921 -0.7538  1.6252
  442MPD2    H1 6590   0.806   2.922  16.431 -0.4895  0.8229 -2.2837
  442MPD2    H2 6591   0.580   3.271  16.508 -0.5244  0.4847 -2.5060
  442MPD2    H3 6592   0.775   3.166  16.419 -0.1974 -1.6494 -0.7076
  442MPD2     N 6593   0.639   2.751  16.527 -0.8357  0.2018  0.2500
  442MPD2    H5 6594   0.728   2.719  16.490 -0.5107 -0.4361  1.5988
  442MPD2    N1 6595   0.346   3.139  16.571  0.1321  0.4078  0.1482
  442MPD2    H7 6596   0.274   3.070  16.590 -0.1475  0.2958 -1.3177
  443TMC3    C1 6597   0.189   3.317  16.609  0.1917 -0.0578  0.1998
  443TMC3    C2 6598   0.148   3.440  16.563  0.0976  0.5061  0.0745
  443TMC3    C3 6599   0.017   3.466  16.556 -0.1622  0.1190 -0.2940
  443TMC3    C4 6600   0.094   3.227  16.658 -0.5713  0.3732 -0.3611
  443TMC3    C5 6601   4.692   3.268  16.661  0.0198  0.4320  0.6453
  443TMC3    C6 6602   4.652   3.388  16.618  0.0496 -0.0635 -0.2557
  443TMC3     C 6603   0.318   3.275  16.564 -0.2718 -0.1687 -0.2777
  443TMC3     O 6604   0.392   3.372  16.543 -0.1255  0.3217  0.2151
  443TMC3     H 6605   0.218   3.510  16.518  1.4450 -0.6615  0.3477
  443TMC3    H1 6606   0.122   3.128  16.694 -2.9783 -1.0455 -2.3310
  443TMC3    H2 6607   4.548   3.416  16.629 -0.2747 -1.9506  1.5467
  443TMC3    C7 6608   4.598   3.181  16.735 -0.9335  0.4014  0.7389
  443TMC3    C8 6609   4.694   3.580  16.478 -0.3623 -0.7587 -0.4342
  443TMC3    O1 6610   4.618   3.062  16.727 -0.1331 -0.0076  0.3248
  443TMC3    O2 6611   4.622   3.653  16.538  0.0775  0.6342 -1.3457
  444MPD2     C 6612   0.963   2.290  17.142 -0.3634  0.7004 -0.0087
  444MPD2    C1 6613   0.876   2.198  17.093  0.6818 -0.3592 -0.4484
  444MPD2    C2 6614   0.924   2.091  17.021 -0.5684 -0.3090 -0.0086
  444MPD2    C3 6615   1.058   2.066  17.005  0.5375 -0.1600 -0.0926
  444MPD2    C4 6616   1.143   2.167  17.041 -0.0551 -0.5344 -0.2659
  444MPD2    C5 6617   1.097   2.274  17.114  0.6066  0.0432 -0.0813
  444MPD2     H 6618   0.848   2.023  16.983 -1.2124  1.4882 -1.9318
  444MPD2    H1 6619   1.248   2.148  17.022  0.1380 -1.9897  2.3139
  444MPD2    H2 6620   0.935   2.378  17.198  2.9852  1.4640  0.4614
  444MPD2    H3 6621   1.166   2.353  17.142  1.0600 -0.6547  0.8088
  444MPD2     N 6622   1.101   1.946  16.946  0.1456  0.0574  0.1345
  444MPD2    H5 6623   1.026   1.881  16.924 -0.9323  0.9016  1.3433
  444MPD2    N1 6624   0.735   2.205  17.119  0.2085 -0.1817 -0.4345
  444MPD2    H7 6625   0.680   2.130  17.078  0.7374 -2.0744  2.3526
  445TMC3    C1 6626   1.240   1.782  16.845  0.0689 -0.7143 -0.1286
  445TMC3    C2 6627   1.130   1.726  16.785 -0.2600 -0.0775  0.5530
  445TMC3    C3 6628   1.156   1.614  16.712 -0.4393 -0.4930  0.1414
  445TMC3    C4 6629   1.363   1.723  16.841  0.3896 -0.3084  0.3670
  445TMC3    C5 6630   1.391   1.617  16.754  0.1166  0.0118  0.1985
  445TMC3    C6 6631   1.283   1.562  16.687 -0.1645  0.0077 -0.5992
  445TMC3     C 6632   1.223   1.914  16.903  0.2909 -0.0605 -0.3860
  445TMC3     O 6633   1.327   1.974  16.923 -0.0062 -0.7040 -0.2960
  445TMC3     H 6634   1.033   1.773  16.787  0.0889  0.6917 -0.2089
  445TMC3    H1 6635   1.452   1.765  16.887  1.6286 -3.2613  0.6741
  445TMC3    H2 6636   1.300   1.482  16.616 -0.6494  0.1415 -0.8667
  445TMC3    C7 6637   1.525   1.590  16.719 -0.7037 -0.2524 -0.8357
  445TMC3    C8 6638   1.055   1.585  16.606 -0.1699 -0.5301 -1.3483
  445TMC3    O1 6639   1.604   1.679  16.728  0.2276 -0.3378 -0.4720
  445TMC3    O2 6640   0.991   1.674  16.557 -0.0060  0.0790  0.7433
  446MPD2     C 6641   0.805   3.192  11.359  0.0997 -0.8165  0.1926
  446MPD2    C1 6642   0.758   3.199  11.230 -0.7559 -0.0634 -0.2260
  446MPD2    C2 6643   0.796   3.305  11.149 -0.0269 -0.3153  0.2354
  446MPD2    C3 6644   0.880   3.404  11.206  0.0605 -0.6697 -0.0421
  446MPD2    C4 6645   0.908   3.403  11.336 -0.3346 -0.0373  0.6666
  446MPD2    C5 6646   0.879   3.293  11.409 -0.7949 -0.6993  0.4502
  446MPD2     H 6647   0.764   3.307  11.046  3.2883  0.1988 -0.7942
  446MPD2    H1 6648   0.959   3.487  11.383 -2.6746  2.9858 -2.1601
  446MPD2    H2 6649   0.790   3.109  11.428  0.1454 -1.8378 -1.0269
  446MPD2    H3 6650   0.912   3.281  11.511 -0.4795 -1.5868  0.2388
  446MPD2     N 6651   0.925   3.504  11.120 -0.1046 -0.6469 -0.2392
  446MPD2    H5 6652   0.915   3.479  11.022  3.3737  0.8358 -0.9645
  446MPD2    N1 6653   0.666   3.108  11.177  0.4585 -0.6381 -0.1951
  446MPD2    H7 6654   0.629   3.129  11.085  1.3229 -1.1854 -0.6753
  447TMC3    C1 6655   1.027   3.704  11.029  0.3604  0.6603  0.0803
  447TMC3    C2 6656   0.996   3.663  10.901  0.0953 -0.2349 -0.5126
  447TMC3    C3 6657   1.073   3.706  10.797 -0.2922 -0.0837 -0.4216
  447TMC3    C4 6658   1.134   3.784  11.059  0.7051  1.3257  0.5526
  447TMC3    C5 6659   1.217   3.816  10.957 -0.2653 -0.0903 -0.8846
  447TMC3    C6 6660   1.184   3.783  10.825 -0.0676 -0.4605  0.1247
  447TMC3     C 6661   0.995   3.620  11.142  0.4956 -0.2065  0.4137
  447TMC3     O 6662   1.021   3.669  11.252  0.2899  0.0132 -0.4206
  447TMC3     H 6663   0.916   3.592  10.882 -0.2372  0.1823 -0.6798
  447TMC3    H1 6664   1.167   3.806  11.159  4.9910  1.0913 -0.8170
  447TMC3    H2 6665   1.262   3.808  10.754  0.6828 -0.7231  0.8465
  447TMC3    C7 6666   1.351   3.759  10.968  0.0311  0.0007 -0.5454
  447TMC3    C8 6667   1.094   3.620  10.684  0.2885 -0.8208 -0.4519
  447TMC3    O1 6668   1.366   3.655  10.906  0.3256 -0.5061 -0.2587
  447TMC3    O2 6669   0.999   3.603  10.610 -0.6337  0.4385 -0.5714
  448TMC3    C1 6670   3.973   3.748   0.356  0.0017 -0.1825 -0.0820
  448TMC3    C2 6671   4.040   3.679   0.255 -0.6123 -0.6950  0.0454
  448TMC3    C3 6672   4.005   3.545   0.230  0.3008 -0.0832 -0.1616
  448TMC3    C4 6673   3.897   3.673   0.445  0.0470 -0.2778 -0.0127
  448TMC3    C5 6674   3.865   3.542   0.419  0.1597 -0.1502 -0.5442
  448TMC3    C6 6675   3.908   3.480   0.303 -0.3367 -0.4035 -0.7151
  448TMC3     C 6676   4.009   3.891   0.385  0.2763  0.5907  0.1562
  448TMC3     O 6677   3.985   3.947   0.488  0.4610  0.5205  0.4921
  448TMC3     H 6678   4.112   3.726   0.188 -1.5792  1.7477  0.6993
  448TMC3    H1 6679   3.853   3.727   0.528  0.0073  0.0073 -0.2160
  448TMC3    H2 6680   3.878   3.381   0.271  0.5661  0.1674 -3.2855
  448TMC3    C7 6681   3.865   3.460   0.534  0.0486  0.8576 -0.4949
  448TMC3    C8 6682   4.084   3.466   0.146 -0.2262  0.2080  0.2655
  448TMC3    O1 6683   3.914   3.506   0.636 -0.4003 -0.0630 -0.0772
  448TMC3    O2 6684   4.014   3.379   0.089 -0.1247 -0.5844  0.2636
  449MPD2     C 6685   0.532   1.632  14.083  0.1000 -0.1361 -0.2163
  449MPD2    C1 6686   0.418   1.648  14.006 -0.3451 -0.0035 -0.1235
  449MPD2    C2 6687   0.298   1.621  14.066  0.4173 -0.8626 -0.2673
  449MPD2    C3 6688   0.288   1.603  14.197  0.9817 -0.5996  0.7158
  449MPD2    C4 6689   0.406   1.579  14.271  0.4398  0.4445 -0.5649
  449MPD2    C5 6690   0.523   1.585  14.215 -0.7882  0.2472 -0.3375
  449MPD2     H 6691   0.209   1.619  14.004  0.7702 -0.1167 -0.8011
  449MPD2    H1 6692   0.405   1.546  14.375  3.0421  0.0518 -0.6579
  449MPD2    H2 6693   0.634   1.634  14.048  0.7308 -0.2763  1.6387
  449MPD2    H3 6694   0.618   1.572  14.265 -0.0226  0.1636 -1.8267
  449MPD2     N 6695   0.156   1.602  14.251  0.0495  0.5069 -0.0331
  449MPD2    H5 6696   0.072   1.594  14.195 -1.0520  3.0024  1.2727
  449MPD2    N1 6697   0.412   1.687  13.870  0.3722  0.1404  0.2058
  449MPD2    H7 6698   0.319   1.695  13.830  0.3283  0.1099  0.3008
  450TMC3    C1 6699   0.474   1.719  13.653 -0.1835  0.3607 -0.6734
  450TMC3    C2 6700   0.482   1.613  13.564  0.0369 -0.1841 -0.7408
  450TMC3    C3 6701   0.367   1.581  13.491 -0.4035  0.4816 -0.0381
  450TMC3    C4 6702   0.368   1.802  13.651  0.0307  0.0118  0.5150
  450TMC3    C5 6703   0.257   1.763  13.583 -0.0941 -0.2304 -0.1148
  450TMC3    C6 6704   0.255   1.654  13.503 -0.1330  0.1873 -0.4877
  450TMC3     C 6705   0.522   1.680  13.781 -0.4794 -0.6649 -0.1402
  450TMC3     O 6706   0.634   1.624  13.789 -0.3533 -0.2387 -0.0588
  450TMC3     H 6707   0.571   1.551  13.568  0.9003  1.0289 -0.9517
  450TMC3    H1 6708   0.348   1.884  13.719 -0.0700  1.0338 -0.7570
  450TMC3    H2 6709   0.165   1.630  13.448  0.3216 -0.7956 -0.7991
  450TMC3    C7 6710   0.135   1.779  13.667  0.2396  0.4885 -0.4249
  450TMC3    C8 6711   0.367   1.451  13.427  0.4648 -0.2668  0.1165
  450TMC3    O1 6712   0.168   1.749  13.783 -0.2563  0.6644  0.0013
  450TMC3    O2 6713   0.271   1.376  13.438  0.0955  0.5632  0.0539
  451MPD2     C 6714   1.016   0.053   1.458  0.0884  0.9346  0.0716
  451MPD2    C1 6715   1.108   0.121   1.385 -0.6150 -0.0394 -0.0749
  451MPD2    C2 6716   1.215   0.051   1.341  0.0065  0.1763 -0.1795
  451MPD2    C3 6717   1.238   4.645   1.358  0.7323 -0.0604  0.3265
  451MPD2    C4 6718   1.138   4.576   1.418 -0.3934 -0.4259  0.1220
  451MPD2    C5 6719   1.026   4.641   1.465  0.9208 -0.1016 -0.0062
  451MPD2     H 6720   1.295   0.102   1.288  0.5094 -1.0725 -0.6204
  451MPD2    H1 6721   1.142   4.468   1.427  1.2657 -0.2544  1.2573
  451MPD2    H2 6722   0.928   0.106   1.493  0.4170 -0.4558  2.9376
  451MPD2    H3 6723   0.956   4.577   1.518  1.2476 -0.6283 -0.2117
  451MPD2     N 6724   1.352   4.589   1.304  0.1766  0.5920  0.8323
  451MPD2    H5 6725   1.414   4.644   1.245 -0.4580  0.7355  0.2919
  451MPD2    N1 6726   1.084   0.258   1.360  0.6652 -0.4166 -0.0999
  451MPD2    H7 6727   0.988   0.285   1.379  0.4647 -2.2726  1.5445
  452TMC3    C1 6728   1.525   4.425   1.286  0.0101  0.1247  0.2976
  452TMC3    C2 6729   1.610   4.347   1.358  0.0928 -0.9047 -0.1468
  452TMC3    C3 6730   1.732   4.329   1.303  0.6618  0.0980 -0.1857
  452TMC3    C4 6731   1.554   4.483   1.161 -0.6674  0.0572  0.1629
  452TMC3    C5 6732   1.681   4.465   1.120  0.2110 -1.2035  0.0085
  452TMC3    C6 6733   1.768   4.376   1.184 -0.3090  0.6338  0.0667
  452TMC3     C 6734   1.406   4.473   1.352 -0.6687 -0.0615 -0.2560
  452TMC3     O 6735   1.371   4.410   1.456 -0.3107  0.3054  0.4361
  452TMC3     H 6736   1.583   4.292   1.448 -0.8110  0.0770  0.1796
  452TMC3    H1 6737   1.486   4.553   1.113 -1.4882  0.1200  1.4285
  452TMC3    H2 6738   1.862   4.360   1.134 -0.0298  3.2582 -0.2555
  452TMC3    C7 6739   1.727   4.566   1.021 -0.1511  0.3684  0.9257
  452TMC3    C8 6740   1.808   4.225   1.373 -0.1754 -0.0909  0.1669
  452TMC3    O1 6741   1.644   4.642   0.973  0.1724  0.3103 -0.0925
  452TMC3    O2 6742   1.740   4.145   1.434 -0.0615 -0.0903 -0.3061
  453TMC3    C1 6743   3.020   2.699  12.039  0.3485 -0.5099 -0.3591
  453TMC3    C2 6744   2.913   2.610  12.056  0.1162  0.3221  0.4634
  453TMC3    C3 6745   2.810   2.614  11.970  0.4084  0.3426 -0.3747
  453TMC3    C4 6746   3.023   2.783  11.937 -0.2830 -0.0766  0.3453
  453TMC3    C5 6747   2.916   2.785  11.850  0.2962 -0.5080 -0.0798
  453TMC3    C6 6748   2.811   2.694  11.857  0.5062 -0.1930  0.6340
  453TMC3     C 6749   3.125   2.716  12.143  0.1225 -0.4347  0.1927
  453TMC3     O 6750   3.178   2.825  12.164  0.1153  0.3030 -0.0514
  453TMC3     H 6751   2.891   2.560  12.149 -2.7686 -0.6044 -0.7181
  453TMC3    H1 6752   3.104   2.856  11.932 -0.2780 -0.0444  0.9360
  453TMC3    H2 6753   2.738   2.690  11.777 -0.4436 -1.7091  1.5967
  453TMC3    C7 6754   2.944   2.868  11.737  0.4573 -0.1262  0.5380
  453TMC3    C8 6755   2.690   2.535  11.992  0.2266 -0.0094  0.1259
  453TMC3    O1 6756   3.055   2.925  11.734  0.1147  0.2687 -0.1555
  453TMC3    O2 6757   2.580   2.572  11.953  0.4546 -0.0973  0.3093
  454MPD2     C 6758   1.910   1.849  16.471 -0.3067  0.5300 -0.1698
  454MPD2    C1 6759   1.854   1.973  16.463  0.3708 -0.1727 -0.1556
  454MPD2    C2 6760   1.825   2.032  16.588 -0.1404  0.6234  0.0445
  454MPD2    C3 6761   1.850   1.973  16.711  0.2528  0.1650  0.1640
  454MPD2    C4 6762   1.905   1.850  16.712  0.0546 -1.1089 -0.3359
  454MPD2    C5 6763   1.934   1.789  16.595 -0.1626  0.5589  0.1080
  454MPD2     H 6764   1.792   2.135  16.580  1.6322  1.2072  0.2885
  454MPD2    H1 6765   1.920   1.797  16.805  1.6373  1.8097  1.0770
  454MPD2    H2 6766   1.935   1.789  16.384  0.3338  0.5891 -0.0276
  454MPD2    H3 6767   1.976   1.689  16.593  0.8050  0.9228  1.8927
  454MPD2     N 6768   1.809   2.027  16.841 -0.7187 -0.1186  0.7614
  454MPD2    H5 6769   1.864   1.995  16.920 -0.3679  0.4371  0.7469
  454MPD2    N1 6770   1.808   2.040  16.346 -0.8390  0.4844 -0.1797
  454MPD2    H7 6771   1.772   2.135  16.354 -0.9617  0.4965 -0.8234
  455TMC3    C1 6772   1.592   2.126  16.778  0.9789  0.2790 -0.3388
  455TMC3    C2 6773   1.527   2.248  16.787 -0.2553  0.0538  0.7000
  455TMC3    C3 6774   1.408   2.261  16.726 -0.3083  0.3610  0.2890
  455TMC3    C4 6775   1.537   2.021  16.712 -0.0405  0.4571 -0.3044
  455TMC3    C5 6776   1.421   2.045  16.646  0.2659  0.6104  0.2891
  455TMC3    C6 6777   1.351   2.161  16.650  0.4774 -0.8070 -0.8874
  455TMC3     C 6778   1.696   2.099  16.878 -0.1023  0.3633  0.7135
  455TMC3     O 6779   1.674   2.148  16.988 -0.8176  0.4963 -0.2238
  455TMC3     H 6780   1.571   2.321  16.854  1.3217 -0.5723  0.3302
  455TMC3    H1 6781   1.576   1.920  16.720  0.4020  0.6419 -0.0825
  455TMC3    H2 6782   1.268   2.169  16.581 -1.8654  0.5470  2.0980
  455TMC3    C7 6783   1.376   1.952  16.542  0.0802 -0.3192 -0.2815
  455TMC3    C8 6784   1.327   2.372  16.778  0.1364 -0.5166  0.3462
  455TMC3    O1 6785   1.260   1.951  16.508 -0.1055  0.2780  0.1156
  455TMC3    O2 6786   1.381   2.467  16.827 -0.3984  0.7164 -0.1997
  456MPD2     C 6787   4.107   2.240  17.050 -0.2194 -0.6104  0.2323
  456MPD2    C1 6788   4.200   2.216  17.155  0.0311  0.2730 -0.6529
  456MPD2    C2 6789   4.216   2.309  17.255  0.6443  0.4951  0.1355
  456MPD2    C3 6790   4.156   2.433  17.244  0.8866 -0.0230  0.1184
  456MPD2    C4 6791   4.066   2.459  17.144 -0.8084 -0.0662  0.3157
  456MPD2    C5 6792   4.035   2.354  17.055  0.4333  0.4060 -0.2045
  456MPD2     H 6793   4.271   2.285  17.345  1.8293  1.2037 -0.4083
  456MPD2    H1 6794   4.027   2.557  17.120 -1.7197 -0.6163 -0.4473
  456MPD2    H2 6795   4.092   2.181  16.960  0.0631 -0.1850 -0.0913
  456MPD2    H3 6796   3.971   2.369  16.969  0.6315 -2.3641 -0.8141
  456MPD2     N 6797   4.195   2.523  17.342 -0.7771 -0.2145 -0.3617
  456MPD2    H5 6798   4.231   2.480  17.426 -1.1483  0.7140  0.2770
  456MPD2    N1 6799   4.277   2.093  17.149 -0.3556  0.4150 -0.0731
  456MPD2    H7 6800   4.244   2.032  17.075  2.1266 -2.9123  1.5488
  457TMC3    C1 6801   4.253   2.714  17.453  0.5293 -0.5379 -0.3879
  457TMC3    C2 6802   4.236   2.848  17.482 -0.2111  0.0896  0.2194
  457TMC3    C3 6803   4.300   2.903  17.583 -0.4497  0.2382 -0.8093
  457TMC3    C4 6804   4.345   2.639  17.530 -0.6330  0.7137 -0.1818
  457TMC3    C5 6805   4.424   2.712  17.617  0.7380  0.2838  0.5799
  457TMC3    C6 6806   4.392   2.838  17.654  0.4972 -0.6230  0.5387
  457TMC3     C 6807   4.194   2.660  17.334 -0.8142 -0.9372  0.0305
  457TMC3     O 6808   4.145   2.733  17.250 -0.3920  0.2037  0.5010
  457TMC3     H 6809   4.185   2.917  17.415  0.0694 -0.9868 -1.1124
  457TMC3    H1 6810   4.370   2.539  17.497 -2.3956  0.2082  0.0317
  457TMC3    H2 6811   4.444   2.891   0.022  0.6672  0.3212 -0.2116
  457TMC3    C7 6812   4.497   2.627  17.704  0.7453  0.4160 -0.1765
  457TMC3    C8 6813   4.281   3.046  17.598 -0.4312  0.7163  0.4542
  457TMC3    O1 6814   4.464   2.513   0.003  0.4987 -0.0896  0.0113
  457TMC3    O2 6815   4.172   3.096  17.565 -0.3188 -0.3680  0.1310
  458MPD2     C 6816   2.142   1.280  12.371  0.1127  0.5540  0.1296
  458MPD2    C1 6817   2.120   1.248  12.509  0.4122 -0.1527  0.3215
  458MPD2    C2 6818   1.994   1.212  12.543  0.1251 -0.1144  0.4952
  458MPD2    C3 6819   1.887   1.216  12.454 -0.5421  0.3001  0.2653
  458MPD2    C4 6820   1.910   1.245  12.325  0.1634  0.2885 -0.4068
  458MPD2    C5 6821   2.036   1.286  12.284  0.3764  0.3958 -0.7542
  458MPD2     H 6822   1.969   1.190  12.646 -1.3386 -0.6705  0.0188
  458MPD2    H1 6823   1.831   1.250  12.251 -0.9011 -1.3471  0.6154
  458MPD2    H2 6824   2.240   1.299  12.329 -1.0984  0.6983 -2.6687
  458MPD2    H3 6825   2.051   1.304  12.178  0.6841 -1.8355 -1.0839
  458MPD2     N 6826   1.755   1.179  12.498  0.3194  0.4324 -0.4178
  458MPD2    H5 6827   1.753   1.137  12.590 -2.4129 -0.4756 -0.9071
  458MPD2    N1 6828   2.218   1.275  12.604 -0.4918 -0.1462 -0.2456
  458MPD2    H7 6829   2.310   1.308  12.576 -0.8608 -0.2312 -1.5427
  459TMC3    C1 6830   2.283   1.306  12.836  0.0482 -0.1256 -0.2973
  459TMC3    C2 6831   2.374   1.402  12.805 -0.1676  0.1951 -0.2142
  459TMC3    C3 6832   2.454   1.455  12.906  0.4444 -0.0308 -0.2813
  459TMC3    C4 6833   2.259   1.282  12.968 -0.0779 -0.0966  0.1508
  459TMC3    C5 6834   2.320   1.352  13.068 -0.1554  0.2630 -0.3847
  459TMC3    C6 6835   2.425   1.430  13.040 -0.7285 -0.5510 -0.1967
  459TMC3     C 6836   2.200   1.238  12.739 -0.5594  0.0029 -0.9865
  459TMC3     O 6837   2.126   1.156  12.786  0.5860 -0.2813 -0.0398
  459TMC3     H 6838   2.395   1.426  12.702  1.3604  2.3331  0.5871
  459TMC3    H1 6839   2.183   1.209  12.994 -1.0861  0.0107 -2.5288
  459TMC3    H2 6840   2.480   1.488  13.113 -0.1718 -0.2734 -0.8250
  459TMC3    C7 6841   2.279   1.326  13.203  0.6202 -0.7048  0.4589
  459TMC3    C8 6842   2.567   1.538  12.873  0.2003 -0.2660 -0.7061
  459TMC3    O1 6843   2.206   1.231  13.217 -0.7057 -0.1192 -0.3645
  459TMC3    O2 6844   2.675   1.519  12.919 -0.1190  0.2372 -0.1418
  460MPD2     C 6845   1.372   3.388  10.628  0.7367  0.4733  0.0487
  460MPD2    C1 6846   1.259   3.462  10.603 -0.6353 -0.5244 -0.1599
  460MPD2    C2 6847   1.200   3.457  10.478  0.1835 -0.1973  0.1599
  460MPD2    C3 6848   1.270   3.380  10.375 -1.2203 -0.0163  1.1828
  460MPD2    C4 6849   1.386   3.312  10.408 -0.5347  0.1174  0.1505
  460MPD2    C5 6850   1.434   3.311  10.532  0.7098  0.6747  0.9448
  460MPD2     H 6851   1.123   3.528  10.448 -0.3006 -0.0747  1.6631
  460MPD2    H1 6852   1.439   3.252  10.335 -0.3276  1.0248 -0.4482
  460MPD2    H2 6853   1.416   3.371  10.725  1.8714  0.1883 -0.5207
  460MPD2    H3 6854   1.515   3.247  10.566  0.8848 -0.4052 -1.5073
  460MPD2     N 6855   1.207   3.379  10.245  0.1969 -1.1408 -0.2698
  460MPD2    H5 6856   1.116   3.425  10.246  0.4255 -0.7147  1.6487
  460MPD2    N1 6857   1.217   3.558  10.696 -0.0771 -0.0389  0.4214
  460MPD2    H7 6858   1.281   3.578  10.772  0.4549  3.4084 -0.9538
  461TMC3    C1 6859   1.171   3.289  10.021 -0.1306  0.0804  0.3209
  461TMC3    C2 6860   1.176   3.162   9.964  0.6241  0.3321 -0.2917
  461TMC3    C3 6861   1.096   3.154   9.851 -0.4062 -0.1753  0.4295
  461TMC3    C4 6862   1.096   3.391   9.973 -0.4589 -0.0087  0.0847
  461TMC3    C5 6863   1.023   3.382   9.859  0.1480  0.3126  0.8230
  461TMC3    C6 6864   1.024   3.262   9.791 -0.2322 -0.3098 -0.4234
  461TMC3     C 6865   1.258   3.316  10.135  0.7294 -0.3890  0.6718
  461TMC3     O 6866   1.366   3.260  10.130  0.0637 -0.2712  0.5747
  461TMC3     H 6867   1.261   3.097   9.981  1.3579  1.6286  1.0084
  461TMC3    H1 6868   1.109   3.489  10.018 -0.0370 -0.2423  0.4689
  461TMC3    H2 6869   0.952   3.254   9.711 -1.7586  1.1920  0.7954
  461TMC3    C7 6870   0.963   3.498   9.797 -0.6292 -0.9673  0.4676
  461TMC3    C8 6871   1.129   3.034   9.769 -0.2956  0.0128  0.2512
  461TMC3    O1 6872   0.875   3.481   9.715 -0.3445  0.2203  0.0714
  461TMC3    O2 6873   1.161   2.931   9.829  0.3735 -0.3466  0.8780
  462TMC3    C1 6874   1.124   4.208   0.290  0.8029  0.0294  0.3389
  462TMC3    C2 6875   1.162   4.077   0.308 -0.1041  0.3647 -0.9250
  462TMC3    C3 6876   1.069   3.994   0.376 -0.0586  0.4249  0.0880
  462TMC3    C4 6877   1.003   4.261   0.329 -0.7447  0.8968  0.1799
  462TMC3    C5 6878   0.919   4.175   0.389  0.1870  0.4229 -0.2999
  462TMC3    C6 6879   0.952   4.045   0.422  0.7870  0.7874  0.6989
  462TMC3     C 6880   1.210   4.308   0.226  0.7615  0.3637  0.7509
  462TMC3     O 6881   1.173   4.429   0.238  0.2323  0.3594  0.0105
  462TMC3     H 6882   1.253   4.033   0.270  0.3916  1.8330 -1.4153
  462TMC3    H1 6883   0.980   4.363   0.299 -0.3232  1.0283  0.3026
  462TMC3    H2 6884   0.878   3.974   0.457  1.0813 -0.9996 -2.3104
  462TMC3    C7 6885   0.772   4.214   0.395 -0.3218  0.1691 -0.6407
  462TMC3    C8 6886   1.069   3.853   0.349 -0.5042  0.6113 -0.8198
  462TMC3    O1 6887   0.699   4.120   0.386  0.1913 -0.1367  0.0157
  462TMC3    O2 6888   0.991   3.782   0.413  0.2306 -0.5013 -0.5426
  463MPD2     C 6889   1.802   3.378   1.727 -0.0214  0.3363 -0.2724
  463MPD2    C1 6890   1.721   3.460   1.647  0.1674 -0.1181  0.1949
  463MPD2    C2 6891   1.779   3.544   1.563 -0.4951 -0.6828 -0.7393
  463MPD2    C3 6892   1.917   3.544   1.540 -0.1075  0.3579  0.4949
  463MPD2    C4 6893   1.995   3.461   1.614 -0.0904  0.0701  0.5703
  463MPD2    C5 6894   1.936   3.371   1.700  0.2070  0.9458  0.3294
  463MPD2     H 6895   1.712   3.604   1.502  0.7957 -0.2175 -1.6962
  463MPD2    H1 6896   2.103   3.457   1.600 -0.3395 -0.9592 -1.0217
  463MPD2    H2 6897   1.771   3.304   1.799  2.7460 -0.4045  0.1830
  463MPD2    H3 6898   1.991   3.304   1.765 -0.2989  0.9257  0.7359
  463MPD2     N 6899   1.979   3.626   1.447 -0.1080  0.6862  0.4202
  463MPD2    H5 6900   2.080   3.613   1.437 -0.5914 -1.7495 -1.1345
  463MPD2    N1 6901   1.584   3.453   1.646  0.2828 -0.7282 -0.0831
  463MPD2    H7 6902   1.530   3.518   1.590 -0.0080 -0.0051  1.0278
  464TMC3    C1 6903   1.366   3.376   1.701  0.4336 -0.5072  0.5532
  464TMC3    C2 6904   1.313   3.485   1.631 -0.4395  0.1972 -0.4064
  464TMC3    C3 6905   1.176   3.480   1.605  0.0130  0.0792  0.2583
  464TMC3    C4 6906   1.295   3.269   1.743 -0.5218 -0.2147 -0.1902
  464TMC3    C5 6907   1.166   3.260   1.708 -0.5009  0.5114 -0.3879
  464TMC3    C6 6908   1.103   3.363   1.641 -0.8656 -0.0593  0.1452
  464TMC3     C 6909   1.509   3.372   1.727  0.1109 -0.9711 -0.4746
  464TMC3     O 6910   1.530   3.298   1.824  0.3344  0.1233 -0.1266
  464TMC3     H 6911   1.366   3.570   1.590 -1.4619  0.8856 -0.3034
  464TMC3    H1 6912   1.339   3.182   1.791 -2.5088 -1.7151 -1.1201
  464TMC3    H2 6913   0.999   3.364   1.612 -1.0398 -2.6108  0.6860
  464TMC3    C7 6914   1.088   3.150   1.751  0.1185  0.2219  0.3144
  464TMC3    C8 6915   1.125   3.574   1.511 -0.9086 -0.2894  0.6441
  464TMC3    O1 6916   1.119   3.090   1.855 -0.1820  0.0420 -0.5007
  464TMC3    O2 6917   1.205   3.622   1.434 -0.1213 -0.2057 -0.4493
  465MPD2     C 6918   3.362   2.185  16.638 -0.0977  1.1994  0.0806
  465MPD2    C1 6919   3.241   2.161  16.694 -0.1789 -0.4285 -0.5756
  465MPD2    C2 6920   3.127   2.196  16.622 -0.0993 -0.1956 -0.3631
  465MPD2    C3 6921   3.132   2.255  16.501 -0.2795  0.6939 -0.0136
  465MPD2    C4 6922   3.250   2.280  16.446 -0.1740  0.2919 -0.0008
  465MPD2    C5 6923   3.363   2.242  16.516 -0.0511 -0.6888 -0.2033
  465MPD2     H 6924   3.029   2.164  16.657 -0.6843  2.0224  0.0258
  465MPD2    H1 6925   3.269   2.337  16.356 -1.9401 -0.1108 -0.6165
  465MPD2    H2 6926   3.460   2.167  16.681 -0.3518  0.5316  0.3782
  465MPD2    H3 6927   3.458   2.257  16.466  1.7702 -0.5952  3.2752
  465MPD2     N 6928   3.014   2.304  16.440 -0.1102 -0.1657  0.1046
  465MPD2    H5 6929   2.930   2.288  16.494  0.0667 -1.1556  0.0914
  465MPD2    N1 6930   3.221   2.109  16.821  0.7148  0.2452  0.1013
  465MPD2    H7 6931   3.124   2.092  16.846  0.1562  2.3441 -0.5904
  466TMC3    C1 6932   2.638   2.447  16.346 -0.0798  0.8517 -0.2889
  466TMC3    C2 6933   2.630   2.580  16.306 -0.6614 -0.1480 -0.5854
  466TMC3    C3 6934   2.751   2.639  16.274 -0.2317 -0.0753  0.1329
  466TMC3    C4 6935   2.759   2.374  16.340 -0.0950 -0.0738 -0.7432
  466TMC3    C5 6936   2.875   2.442  16.306  0.4153 -0.2682 -0.0854
  466TMC3    C6 6937   2.871   2.572  16.269 -0.4882  0.5132  0.2298
  466TMC3     C 6938   2.554   2.413  16.454 -0.3337  0.5870 -0.0474
  466TMC3     O 6939   2.589   2.330  16.532 -0.3736  0.1656  0.0026
  466TMC3     H 6940   2.533   2.629  16.306 -0.7116 -0.2507  1.4310
  466TMC3    H1 6941   2.776   2.273  16.374  2.5906  1.3925  2.3606
  466TMC3    H2 6942   2.963   2.623  16.241  0.0310  0.2085  1.3895
  466TMC3    C7 6943   3.005   2.387  16.332  0.4890  0.1657 -1.0403
  466TMC3    C8 6944   2.744   2.787  16.248 -0.4408  0.9545  0.1180
  466TMC3    O1 6945   3.092   2.456  16.282 -0.5897 -0.3464  0.2210
  466TMC3    O2 6946   2.827   2.831  16.166 -0.3587  0.4219  0.0224
  467TMC3    C1 6947   3.947   0.631  13.812 -0.6708  0.4038  0.6708
  467TMC3    C2 6948   3.912   0.621  13.679  0.1456 -0.4285 -0.7289
  467TMC3    C3 6949   3.781   0.647  13.638  0.6171  0.3681 -0.6960
  467TMC3    C4 6950   3.851   0.661  13.909  0.4493  0.3628  0.3034
  467TMC3    C5 6951   3.717   0.656  13.870 -0.1292 -0.5395  0.0449
  467TMC3    C6 6952   3.686   0.664  13.731 -0.1689 -0.2045  0.6706
  467TMC3     C 6953   4.084   0.681  13.838  0.4743 -0.4705  0.1225
  467TMC3     O 6954   4.099   0.754  13.935 -0.4281 -0.2544  0.3087
  467TMC3     H 6955   3.992   0.629  13.606  0.1157 -0.7857 -0.8000
  467TMC3    H1 6956   3.884   0.676  14.012  1.0482  0.8970  0.0360
  467TMC3    H2 6957   3.585   0.676  13.694  0.2201  1.5198  0.1812
  467TMC3    C7 6958   3.607   0.682  13.969  0.1878  0.9428  0.1908
  467TMC3    C8 6959   3.768   0.727  13.515 -0.3671  0.1176 -0.1264
  467TMC3    O1 6960   3.633   0.641  14.081  0.1793  0.5558  0.3645
  467TMC3    O2 6961   3.723   0.673  13.415  0.1396  0.3976 -0.5439
  468MPD2     C 6962   3.148   3.340  10.420  0.7258  0.1931 -1.0622
  468MPD2    C1 6963   3.228   3.354  10.530  0.5455  0.9063 -0.5487
  468MPD2    C2 6964   3.237   3.260  10.629  1.0646  0.5916  0.5262
  468MPD2    C3 6965   3.155   3.150  10.621 -0.7856  0.6307  0.0195
  468MPD2    C4 6966   3.071   3.126  10.511  0.0816 -0.2795 -0.6361
  468MPD2    C5 6967   3.069   3.219  10.408 -0.3116 -0.1230  0.2562
  468MPD2     H 6968   3.307   3.275  10.710  1.0398 -1.7059  0.9868
  468MPD2    H1 6969   3.020   3.031  10.499 -1.8471  0.5835  0.6974
  468MPD2    H2 6970   3.148   3.398  10.328  0.4292  2.7114  0.5162
  468MPD2    H3 6971   3.014   3.203  10.316  1.0940  0.9212 -0.7651
  468MPD2     N 6972   3.144   3.064  10.731  0.2099 -0.4125  0.3230
  468MPD2    H5 6973   3.058   3.010  10.736  0.4736 -1.1858 -3.4883
  468MPD2    N1 6974   3.310   3.466  10.546  0.1801  0.0975 -0.5039
  468MPD2    H7 6975   3.366   3.470  10.631  0.3891 -1.4809 -0.5721
  469TMC3    C1 6976   3.395   3.681  10.521 -0.1064 -0.3252  0.0462
  469TMC3    C2 6977   3.491   3.658  10.616  0.2092 -0.0111  0.4994
  469TMC3    C3 6978   3.513   3.754  10.706 -0.0618  0.0303 -0.7425
  469TMC3    C4 6979   3.313   3.800  10.529 -0.2573 -0.1456 -0.2329
  469TMC3    C5 6980   3.331   3.894  10.624  0.2456 -0.7137  0.1212
  469TMC3    C6 6981   3.441   3.875  10.712  0.6523  0.0744  0.3073
  469TMC3     C 6982   3.315   3.576  10.467 -0.2491 -0.0008  0.0300
  469TMC3     O 6983   3.246   3.596  10.372 -0.3901  0.2950  0.2842
  469TMC3     H 6984   3.553   3.569  10.619  1.2620  0.7818  2.5432
  469TMC3    H1 6985   3.236   3.807  10.453 -0.4046  2.9673  0.2208
  469TMC3    H2 6986   3.470   3.959  10.773 -1.9333  0.0330  1.5728
  469TMC3    C7 6987   3.279   4.024  10.605 -0.0820  0.6724  0.1050
  469TMC3    C8 6988   3.598   3.716  10.817 -0.0257 -0.7298 -0.0752
  469TMC3    O1 6989   3.248   4.060  10.492  0.1761 -0.1798 -0.0021
  469TMC3    O2 6990   3.699   3.650  10.791 -0.3305  0.3576 -0.0893
  470TMC3    C1 6991   4.658   4.246   0.958 -1.1910 -0.4303  0.6809
  470TMC3    C2 6992   0.007   4.350   1.006 -0.1907  0.5278 -0.0349
  470TMC3    C3 6993   4.681   4.417   1.111  0.4769 -0.1571 -0.1353
  470TMC3    C4 6994   4.531   4.213   0.999  0.3932 -0.1224  0.7851
  470TMC3    C5 6995   4.495   4.272   1.121  0.5369  0.4935  0.4998
  470TMC3    C6 6996   4.570   4.371   1.177  0.1826  0.1930 -0.0348
  470TMC3     C 6997   4.717   4.162   0.853 -0.8339  0.2619 -1.0967
  470TMC3     O 6998   0.090   4.200   0.798 -0.1598 -0.1741 -0.0531
  470TMC3     H 6999   0.103   4.378   0.964 -0.0681  0.6960  0.3582
  470TMC3    H1 7000   4.469   4.138   0.951 -0.2226  0.8974 -0.0193
  470TMC3    H2 7001   4.520   4.431   1.253  0.2624 -0.1992  0.3311
  470TMC3    C7 7002   4.364   4.248   1.172  0.2251 -0.3213 -0.6268
  470TMC3    C8 7003   0.037   4.516   1.178 -0.0854  0.4419 -0.4502
  470TMC3    O1 7004   4.274   4.211   1.097  0.4272 -0.1447 -0.1792
  470TMC3    O2 7005   0.013   4.532   1.299 -0.4273 -0.4101  0.1185
  471MPD2     C 7006   0.915   1.395  16.870 -0.0291  0.2227 -0.3584
  471MPD2    C1 7007   0.884   1.266  16.864 -0.4538  0.0275  0.6346
  471MPD2    C2 7008   0.934   1.175  16.959  0.0001  0.6958 -1.0816
  471MPD2    C3 7009   1.011   1.211  17.065  0.6457  0.4036  0.0577
  471MPD2    C4 7010   1.047   1.345  17.067 -0.2259  0.3303 -0.4220
  471MPD2    C5 7011   1.001   1.429  16.970  0.2792  0.7149  0.3428
  471MPD2     H 7012   0.909   1.070  16.945  2.7197 -0.1170  0.2214
  471MPD2    H1 7013   1.103   1.384  17.151  1.9165  0.4461 -1.8886
  471MPD2    H2 7014   0.869   1.474  16.812 -1.5142  1.4718  2.4872
  471MPD2    H3 7015   1.021   1.534  16.989  1.0168  0.9118 -1.5828
  471MPD2     N 7016   1.065   1.116  17.157 -0.1771  0.5202  0.0245
  471MPD2    H5 7017   1.015   1.029  17.152  0.6548  0.1178 -1.2826
  471MPD2    N1 7018   0.798   1.213  16.765 -0.3887  0.4107  0.5748
  471MPD2    H7 7019   0.793   1.112  16.764  0.9599  0.3569 -0.6032
  472TMC3    C1 7020   0.666   1.194  16.573 -0.1359 -0.6849  0.3925
  472TMC3    C2 7021   0.566   1.251  16.493  0.3644  0.5125  0.5444
  472TMC3    C3 7022   0.531   1.173  16.385  0.1012 -0.2739 -0.0657
  472TMC3    C4 7023   0.721   1.071  16.549  0.0023 -0.0929 -0.0661
  472TMC3    C5 7024   0.669   0.992  16.444 -0.0470 -0.0391 -0.1730
  472TMC3    C6 7025   0.585   1.050  16.353  0.0024 -0.0631  0.4696
  472TMC3     C 7026   0.717   1.280  16.679  0.0207 -0.0720 -0.3442
  472TMC3     O 7027   0.679   1.398  16.681 -0.1607  0.2444  0.2879
  472TMC3     H 7028   0.509   1.339  16.521 -0.2943  0.3590 -0.3262
  472TMC3    H1 7029   0.796   1.021  16.610  1.1048  2.8175  0.9727
  472TMC3    H2 7030   0.523   1.000  16.279 -0.9240  0.2428  1.0292
  472TMC3    C7 7031   0.658   0.856  16.478 -0.2473  0.6272 -0.3727
  472TMC3    C8 7032   0.392   1.160  16.349  0.3467 -0.1262  0.2378
  472TMC3    O1 7033   0.693   0.810  16.585  0.8172  0.2474 -0.1391
  472TMC3    O2 7034   0.359   1.199  16.238  0.7838 -0.4802 -0.0696
  473MPD2     C 7035   0.621   3.103  14.002  0.1571 -0.0318 -0.0249
  473MPD2    C1 7036   0.627   3.220  13.924 -0.2581 -0.7749 -0.3086
  473MPD2    C2 7037   0.679   3.332  13.982  0.0976  0.3578  0.3175
  473MPD2    C3 7038   0.722   3.327  14.119  0.5691 -0.3905 -0.1954
  473MPD2    C4 7039   0.715   3.206  14.192 -0.3448  0.1727 -0.0931
  473MPD2    C5 7040   0.671   3.092  14.126 -0.1181 -0.2044  0.2139
  473MPD2     H 7041   0.681   3.417  13.915  2.8118  1.1072  1.3260
  473MPD2    H1 7042   0.751   3.198  14.293  1.3200  1.2905 -0.6009
  473MPD2    H2 7043   0.567   3.016  13.966  1.5780 -0.7183 -0.4939
  473MPD2    H3 7044   0.654   3.004  14.186 -0.3471 -0.8455 -0.7877
  473MPD2     N 7045   0.777   3.443  14.186 -0.4569  0.1069  0.5085
  473MPD2    H5 7046   0.788   3.446  14.287  2.3154 -1.5733  0.2626
  473MPD2    N1 7047   0.560   3.230  13.801  0.0393  0.6741 -0.4180
  473MPD2    H7 7048   0.553   3.326  13.767  1.7240  1.4345  1.3755
  474TMC3    C1 7049   0.858   3.656  14.228 -0.3991 -0.3308 -0.0656
  474TMC3    C2 7050   0.864   3.790  14.190 -0.5156 -0.7493  0.2777
  474TMC3    C3 7051   0.970   3.861  14.236  0.4775 -1.1113 -0.0612
  474TMC3    C4 7052   0.951   3.597  14.312 -0.5377 -0.1773  0.1513
  474TMC3    C5 7053   1.039   3.682  14.374 -0.3113  0.1950 -0.6785
  474TMC3    C6 7054   1.057   3.808  14.331 -0.5963 -0.1027  0.3660
  474TMC3     C 7055   0.792   3.569  14.132 -0.7797 -0.2904  0.1255
  474TMC3     O 7056   0.777   3.603  14.014 -0.2694  0.1338  0.4038
  474TMC3     H 7057   0.813   3.830  14.103  0.3608  1.3201  0.6955
  474TMC3    H1 7058   0.949   3.492  14.337  0.4650 -0.5178 -1.2014
  474TMC3    H2 7059   1.153   3.855  14.346 -1.0204  0.8050  0.2397
  474TMC3    C7 7060   1.124   3.628  14.482  0.5567  0.6388  0.3506
  474TMC3    C8 7061   1.032   3.945  14.141  0.1338 -0.7680 -0.3002
  474TMC3    O1 7062   1.146   3.507  14.476 -0.5015 -0.0752 -0.5207
  474TMC3    O2 7063   1.058   3.907  14.026  0.1590 -0.3648 -0.3001
  475MPD2     C 7064   3.880   1.080  10.383 -0.7899  0.5383 -0.3211
  475MPD2    C1 7065   4.000   1.146  10.404 -0.8678  0.4258 -0.4710
  475MPD2    C2 7066   4.004   1.252  10.491 -0.0714 -0.1358 -0.1455
  475MPD2    C3 7067   3.887   1.297  10.549  0.3363  0.1048  0.1600
  475MPD2    C4 7068   3.764   1.246  10.505  0.9634 -0.1856 -0.2763
  475MPD2    C5 7069   3.765   1.130  10.436 -0.2064 -0.2713 -0.1740
  475MPD2     H 7070   4.097   1.306  10.506  0.5391 -0.4341 -3.0352
  475MPD2    H1 7071   3.668   1.291  10.528  0.9880 -0.3135  0.0702
  475MPD2    H2 7072   3.868   0.993  10.320 -1.1626  0.4626 -0.1442
  475MPD2    H3 7073   3.666   1.098  10.405 -0.3032  0.4387 -0.6108
  475MPD2     N 7074   3.900   1.404  10.634  0.0999  0.2533  0.7496
  475MPD2    H5 7075   3.993   1.442  10.646 -0.2238  1.7546 -1.6459
  475MPD2    N1 7076   4.110   1.104  10.331  0.1424  0.3001 -0.3658
  475MPD2    H7 7077   4.100   1.013  10.287 -0.9726 -0.3590  1.2666
  476TMC3    C1 7078   4.249   1.295  10.330 -0.5439 -1.1267  0.7278
  476TMC3    C2 7079   4.159   1.363  10.251  0.4251  0.3513 -0.1925
  476TMC3    C3 7080   4.137   1.493  10.289 -0.2807 -0.3620 -0.2211
  476TMC3    C4 7081   4.323   1.353  10.430  0.0674  0.7416  0.4478
  476TMC3    C5 7082   4.307   1.485  10.459 -0.3038 -0.0424  0.5353
  476TMC3    C6 7083   4.212   1.555  10.392  0.7217 -0.0291  0.7852
  476TMC3     C 7084   4.243   1.151  10.336  0.9141 -0.4057 -0.8503
  476TMC3     O 7085   4.344   1.088  10.314  0.4453  0.4733 -0.0024
  476TMC3     H 7086   4.104   1.308  10.177 -1.7260  2.1101  0.1131
  476TMC3    H1 7087   4.393   1.292  10.485  0.1968 -0.5553 -1.1579
  476TMC3    H2 7088   4.186   1.657  10.417 -0.6665  0.3798 -2.3122
  476TMC3    C7 7089   4.290   1.503  10.602  0.1615  0.0720 -0.4009
  476TMC3    C8 7090   3.997   1.539  10.284 -0.3544 -0.4700 -0.5854
  476TMC3    O1 7091   4.253   1.410  10.676 -0.5083  0.1478  0.2546
  476TMC3    O2 7092   3.962   1.614  10.372  0.3116  0.3790 -0.1950
  477MPD2     C 7093   1.825   3.312  11.816 -0.4371  0.3474  0.4165
  477MPD2    C1 7094   1.758   3.216  11.747 -0.8112  0.1474  0.6468
  477MPD2    C2 7095   1.731   3.091  11.802  0.8336  0.4893 -0.1849
  477MPD2    C3 7096   1.750   3.065  11.934  0.0726 -0.8473  0.2466
  477MPD2    C4 7097   1.830   3.159  11.998  0.7809 -0.0688  0.8360
  477MPD2    C5 7098   1.859   3.281  11.945  0.1963 -0.4856  0.5889
  477MPD2     H 7099   1.689   3.010  11.744 -0.3634  0.0561  1.2916
  477MPD2    H1 7100   1.864   3.136  12.099  1.1293 -1.8016  0.3346
  477MPD2    H2 7101   1.848   3.402  11.761  0.1529  0.6851  1.2309
  477MPD2    H3 7102   1.913   3.349  12.009  0.7152 -1.1087  0.8193
  477MPD2     N 7103   1.693   2.948  11.988  0.0513 -0.1438  0.1873
  477MPD2    H5 7104   1.652   2.885  11.920  0.3340 -1.6949  1.4268
  477MPD2    N1 7105   1.703   3.260  11.624  0.1415 -0.0946  0.0121
  477MPD2    H7 7106   1.725   3.353  11.590 -0.8706  0.5919  1.1806
  478TMC3    C1 7107   1.611   3.251  11.417  0.0695 -0.4126 -0.1685
  478TMC3    C2 7108   1.593   3.385  11.427 -0.5097 -0.6855 -0.1319
  478TMC3    C3 7109   1.539   3.445  11.314  0.1006 -0.8581 -0.5086
  478TMC3    C4 7110   1.583   3.183  11.306  0.9902  0.4647  0.5606
  478TMC3    C5 7111   1.534   3.248  11.200  0.2159 -0.2041 -0.0107
  478TMC3    C6 7112   1.504   3.383  11.203 -0.0593 -0.3707 -0.2270
  478TMC3     C 7113   1.647   3.177  11.536  0.7340 -0.1358 -0.6812
  478TMC3     O 7114   1.620   3.053  11.538 -0.0042 -0.1945 -0.9886
  478TMC3     H 7115   1.612   3.450  11.511 -3.0327 -2.0921  1.4982
  478TMC3    H1 7116   1.575   3.075  11.306  1.0508  0.4592 -0.3171
  478TMC3    H2 7117   1.453   3.438  11.125  0.7650  1.3692  0.4553
  478TMC3    C7 7118   1.507   3.174  11.080  0.4451  0.2267 -0.5591
  478TMC3    C8 7119   1.457   3.573  11.340  0.2110  0.6373 -0.1988
  478TMC3    O1 7120   1.565   3.068  11.063 -0.5330  0.1267  0.6778
  478TMC3    O2 7121   1.347   3.595  11.290 -0.1046  0.1876  0.0532
  479MPD2     C 7122   0.404   0.588  15.146 -0.3480 -0.0704  0.5216
  479MPD2    C1 7123   0.337   0.530  15.250 -0.6475 -0.0388 -0.4219
  479MPD2    C2 7124   0.407   0.505  15.374 -0.7220 -0.8316 -0.4214
  479MPD2    C3 7125   0.534   0.551  15.391 -0.4337  0.4620  0.6770
  479MPD2    C4 7126   0.595   0.618  15.286  0.8732 -0.3628  0.7730
  479MPD2    C5 7127   0.531   0.635  15.163  0.0782  0.1741  0.3770
  479MPD2     H 7128   0.358   0.450  15.454 -2.3341  0.3535 -0.5862
  479MPD2    H1 7129   0.693   0.664  15.283  1.7662 -2.2371  1.0377
  479MPD2    H2 7130   0.351   0.606  15.053  0.6261 -0.9069 -0.2140
  479MPD2    H3 7131   0.583   0.678  15.078 -1.1614  2.1725  0.6245
  479MPD2     N 7132   0.613   0.546  15.504 -0.0312  0.1998  0.1403
  479MPD2    H5 7133   0.711   0.570  15.492  0.1704 -1.0913 -0.8060
  479MPD2    N1 7134   0.200   0.499  15.236  0.0692  0.1148  0.2434
  479MPD2    H7 7135   0.158   0.534  15.151  1.5180  0.4474 -0.3266
  480TMC3    C1 7136   0.298   0.452  15.847 -0.5035  0.0753 -0.1538
  480TMC3    C2 7137   0.211   0.556  15.819 -0.2740  0.1808  0.8083
  480TMC3    C3 7138   0.258   0.638  15.719  0.6870 -0.4384  0.1032
  480TMC3    C4 7139   0.417   0.434  15.785  0.1974  0.3972  0.5124
  480TMC3    C5 7140   0.450   0.512  15.683  0.1097  0.2935 -0.1008
  480TMC3    C6 7141   0.382   0.629  15.660 -0.0058  0.6777 -0.0480
  480TMC3     C 7142   0.260   0.360  15.953  0.7970  0.1244 -0.1483
  480TMC3     O 7143   0.324   0.258  15.953  0.0485  0.2158  0.2404
  480TMC3     H 7144   0.113   0.572  15.861 -1.4060 -0.3102 -1.6693
  480TMC3    H1 7145   0.482   0.347  15.788  0.1823  0.3243 -1.0135
  480TMC3    H2 7146   0.420   0.702  15.591  0.9488  0.3224  0.1035
  480TMC3    C7 7147   0.585   0.491  15.631 -0.2145 -0.6295  0.0930
  480TMC3    C8 7148   0.152   0.702  15.644  0.3621  0.6000  0.9009
  480TMC3    O1 7149   0.667   0.443  15.709  0.2640  0.1216  0.2449
  480TMC3    O2 7150   0.038   0.707  15.689  0.0572  0.8777 -0.0959
  481MPD2     C 7151   2.421   0.325  14.511  0.2037  0.1907  0.3888
  481MPD2    C1 7152   2.286   0.293  14.495 -0.7498  0.8702 -0.2243
  481MPD2    C2 7153   2.200   0.315  14.609 -0.4664 -0.8140 -0.0645
  481MPD2    C3 7154   2.246   0.347  14.735 -0.2177 -0.0305 -1.0711
  481MPD2    C4 7155   2.376   0.374  14.749  0.3555 -0.0706 -0.7793
  481MPD2    C5 7156   2.465   0.369  14.641  0.1832 -0.1616 -0.3730
  481MPD2     H 7157   2.095   0.292  14.596 -0.9676  1.1493  0.5537
  481MPD2    H1 7158   2.420   0.394  14.846  3.3707 -0.4622 -2.0692
  481MPD2    H2 7159   2.490   0.314  14.429 -1.1287  0.5496 -0.7922
  481MPD2    H3 7160   2.571   0.369  14.660  0.2606 -1.3936 -0.8007
  481MPD2     N 7161   2.164   0.368  14.852  0.6124  0.2125 -0.2656
  481MPD2    H5 7162   2.210   0.413  14.930 -1.3057  0.4449  0.7473
  481MPD2    N1 7163   2.239   0.251  14.368  0.2340  0.7934  0.4476
  481MPD2    H7 7164   2.305   0.252  14.291 -1.1225  0.9423 -0.7347
  482TMC3    C1 7165   2.079   0.171  14.210  0.5114  0.2391 -0.6105
  482TMC3    C2 7166   1.987   0.071  14.184  0.4350 -0.0317  0.0685
  482TMC3    C3 7167   1.950   0.045  14.053  0.4581 -1.1808 -0.1879
  482TMC3    C4 7168   2.141   0.239  14.108  0.2310 -0.3293  0.1508
  482TMC3    C5 7169   2.089   0.213  13.984 -0.4844 -0.1842 -0.8574
  482TMC3    C6 7170   1.994   0.124  13.952 -0.8702  0.5796  0.2055
  482TMC3     C 7171   2.113   0.194  14.343 -0.7784 -0.2013 -1.3240
  482TMC3     O 7172   2.032   0.163  14.428  0.1020 -0.0794  0.2890
  482TMC3     H 7173   1.948   0.005  14.260 -1.5892  0.8433 -0.2058
  482TMC3    H1 7174   2.219   0.312  14.126  1.4332 -1.7572  0.7288
  482TMC3    H2 7175   1.972   0.097  13.849  1.5233 -1.4130  0.2426
  482TMC3    C7 7176   2.155   0.296  13.877 -0.3032  0.0460  0.6026
  482TMC3    C8 7177   1.833   4.687  14.037  0.9168 -0.2217 -1.1293
  482TMC3    O1 7178   2.263   0.345  13.902 -0.2398 -0.8724  0.3277
  482TMC3    O2 7179   1.808   4.602  14.122  0.1345  0.2816 -0.4734
  483TMC3    C1 7180   4.227   3.154   0.521  0.4099  0.0317  0.5371
  483TMC3    C2 7181   4.222   3.284   0.497 -0.3168 -0.5095 -0.1900
  483TMC3    C3 7182   4.205   3.360   0.603 -1.0681  0.5916 -0.1111
  483TMC3    C4 7183   4.219   3.101   0.647 -0.3703 -0.2734  0.4155
  483TMC3    C5 7184   4.229   3.187   0.757  0.0644  0.5672 -0.1767
  483TMC3    C6 7185   4.213   3.319   0.732 -0.1633 -0.4973 -0.2430
  483TMC3     C 7186   4.245   3.056   0.410 -0.2766 -0.1390  0.2064
  483TMC3     O 7187   4.175   3.078   0.312  0.7811  0.2517 -0.0238
  483TMC3     H 7188   4.221   3.324   0.396 -3.2615 -1.5006 -0.5425
  483TMC3    H1 7189   4.186   2.999   0.659 -1.1467 -0.1311 -0.4995
  483TMC3    H2 7190   4.241   3.387   0.812  2.6039 -0.2497 -1.4219
  483TMC3    C7 7191   4.262   3.123   0.879 -0.5921 -0.8947  0.2831
  483TMC3    C8 7192   4.235   3.499   0.583 -0.6587 -0.7371  0.1082
  483TMC3    O1 7193   4.299   3.005   0.874  0.2240  0.4299 -0.1677
  483TMC3    O2 7194   4.288   3.528   0.476 -0.3862 -1.4190  0.0967
  484MPD2     C 7195   2.560   1.793  12.612 -0.2750 -0.6607 -0.1198
  484MPD2    C1 7196   2.611   1.720  12.714 -0.5729  0.0860 -0.4816
  484MPD2    C2 7197   2.747   1.735  12.737  0.2394 -0.2847 -0.0441
  484MPD2    C3 7198   2.824   1.812  12.659 -0.5912  0.0457 -0.0633
  484MPD2    C4 7199   2.767   1.887  12.561  0.3577 -0.0046  0.7394
  484MPD2    C5 7200   2.636   1.879  12.535  0.5968  0.3728  0.9050
  484MPD2     H 7201   2.795   1.671  12.810  0.7976  0.9938  0.6943
  484MPD2    H1 7202   2.833   1.944  12.496  2.2714  0.3680  2.9909
  484MPD2    H2 7203   2.455   1.791  12.583 -0.6946 -0.0830  1.3430
  484MPD2    H3 7204   2.597   1.943  12.457 -0.2649  1.0979  1.9328
  484MPD2     N 7205   2.963   1.835  12.692 -0.6330  0.0636  0.2148
  484MPD2    H5 7206   3.003   1.915  12.644 -2.6075 -1.4706 -3.9894
  484MPD2    N1 7207   2.527   1.629  12.782 -0.1759  0.0888  0.0504
  484MPD2    H7 7208   2.427   1.633  12.762 -0.0317 -0.8236 -0.8671
  485TMC3    C1 7209   3.181   1.782  12.772  0.3067 -0.1439 -0.2557
  485TMC3    C2 7210   3.266   1.681  12.800 -0.6178 -0.2870 -0.0162
  485TMC3    C3 7211   3.402   1.707  12.813 -0.0288 -0.9051  0.2543
  485TMC3    C4 7212   3.228   1.912  12.759  0.1713 -0.2084  0.4959
  485TMC3    C5 7213   3.360   1.939  12.767  0.0439  0.2423 -0.1479
  485TMC3    C6 7214   3.451   1.838  12.800  0.5808 -0.3361  0.1041
  485TMC3     C 7215   3.037   1.744  12.766  0.4680 -0.2388 -0.6477
  485TMC3     O 7216   3.014   1.631  12.800  0.3176 -0.2545 -0.3935
  485TMC3     H 7217   3.234   1.579  12.816  1.9742 -1.1422 -0.3569
  485TMC3    H1 7218   3.159   1.995  12.750  0.1536 -0.2536  0.2236
  485TMC3    H2 7219   3.556   1.852  12.824  0.4944 -0.4121  0.5221
  485TMC3    C7 7220   3.412   2.001  12.641  0.0654 -1.2273  0.0708
  485TMC3    C8 7221   3.497   1.612  12.771  0.1635  0.0475  0.3960
  485TMC3    O1 7222   3.533   1.995  12.622 -0.5491  0.0690 -0.0196
  485TMC3    O2 7223   3.603   1.658  12.733  0.7787  1.2338  0.2541
  486MPD2     C 7224   4.489   0.487  13.071 -0.2128  0.7914  0.2976
  486MPD2    C1 7225   4.437   0.466  12.944 -0.3127  0.1439 -0.1770
  486MPD2    C2 7226   4.443   0.569  12.849  0.0961 -1.0517  0.1389
  486MPD2    C3 7227   4.502   0.691  12.885  0.6780 -0.4341 -0.2077
  486MPD2    C4 7228   4.559   0.706  13.006  0.0075  0.1369  0.6000
  486MPD2    C5 7229   4.542   0.609  13.103 -0.5677  0.0781  0.2665
  486MPD2     H 7230   4.424   0.543  12.745  0.2521 -1.4922  0.2195
  486MPD2    H1 7231   4.621   0.787  13.040 -2.3179  2.3045 -0.3054
  486MPD2    H2 7232   4.476   0.413  13.150 -2.1657  0.5332 -0.2648
  486MPD2    H3 7233   4.566   0.628  13.207 -0.5254  0.3299  0.2102
  486MPD2     N 7234   4.503   0.799  12.789  0.1746  0.1664 -0.1186
  486MPD2    H5 7235   4.453   0.786  12.702  1.5483 -1.4642 -0.6601
  486MPD2    N1 7236   4.373   0.339  12.924  0.2671 -0.2216 -0.0319
  486MPD2    H7 7237   4.358   0.275  13.001  1.7998  1.4082  1.6295
  487TMC3    C1 7238   4.266   0.158  12.813 -0.2800  0.4296 -0.6413
  487TMC3    C2 7239   4.135   0.142  12.774 -0.0656  0.2992 -0.1930
  487TMC3    C3 7240   4.080   0.025  12.791  0.2036  0.4956  1.4299
  487TMC3    C4 7241   4.329   0.067  12.887 -0.8360 -0.0436  0.5155
  487TMC3    C5 7242   4.262   4.678  12.914  0.0918  0.0288 -0.4122
  487TMC3    C6 7243   4.143   4.646  12.854  0.1395 -0.1331  0.2577
  487TMC3     C 7244   4.313   0.297  12.809 -0.3938 -0.4221  0.2274
  487TMC3     O 7245   4.266   0.376  12.724  0.3430 -0.3296 -0.5234
  487TMC3     H 7246   4.076   0.224  12.733 -0.5136 -0.3073 -0.7446
  487TMC3    H1 7247   4.430   0.089  12.920 -0.0702  0.2416 -1.9756
  487TMC3    H2 7248   4.093   4.554  12.885  1.9177 -0.1624  3.0802
  487TMC3    C7 7249   4.292   4.637  13.049 -0.3186 -0.0849  0.2002
  487TMC3    C8 7250   3.942   0.043  12.837 -0.5107  0.3557  0.0951
  487TMC3    O1 7251   4.391   4.679  13.107  0.7356 -0.4002 -0.1992
  487TMC3    O2 7252   3.915   0.153  12.886  0.3150 -0.0664  0.2821
  488MPD2     C 7253   0.044   2.361  16.493 -1.1176  0.6832 -0.1805
  488MPD2    C1 7254   0.017   2.492  16.531  0.1481 -0.1498 -0.7276
  488MPD2    C2 7255   4.646   2.515  16.628  1.1679  0.1217  0.1428
  488MPD2    C3 7256   4.578   2.408  16.687  0.0872  0.3835  0.2284
  488MPD2    C4 7257   4.611   2.278  16.647  0.6019 -0.4339 -0.0088
  488MPD2    C5 7258   4.695   2.259  16.546 -0.4619  0.2603  1.2272
  488MPD2     H 7259   4.634   2.616  16.664  2.2503  1.3418 -2.9157
  488MPD2    H1 7260   4.565   2.190  16.691 -2.5945 -0.5001 -3.5545
  488MPD2    H2 7261   0.100   2.332  16.405 -1.8393  0.5626 -0.6055
  488MPD2    H3 7262   0.012   2.163  16.524 -0.5339  0.0696  1.8966
  488MPD2     N 7263   4.497   2.429  16.802  0.0964  0.4262  0.5102
  488MPD2    H5 7264   4.487   2.525  16.831 -0.0496  1.0775 -1.7114
  488MPD2    N1 7265   0.084   2.601  16.468 -0.3715 -0.0619 -0.3482
  488MPD2    H7 7266   0.055   2.694  16.496  1.8773  0.5193  0.0348
  489TMC3    C1 7267   4.420   2.420  17.008  0.1331  0.7416  0.6955
  489TMC3    C2 7268   4.370   2.540  16.973  0.2182  0.1824  0.1800
  489TMC3    C3 7269   4.396   2.644  17.051 -0.0481 -0.8267 -0.1449
  489TMC3    C4 7270   4.508   2.407  17.113 -0.1015  0.0417 -0.4454
  489TMC3    C5 7271   4.529   2.517  17.192 -0.5139  0.6951 -0.0186
  489TMC3    C6 7272   4.480   2.641  17.161  0.1638 -0.1128  0.4881
  489TMC3     C 7273   4.445   2.340  16.890  1.0470 -0.4345  0.0506
  489TMC3     O 7274   4.450   2.218  16.898  0.6280  0.2889 -0.3804
  489TMC3     H 7275   4.293   2.544  16.896 -0.8950 -1.5188  1.1948
  489TMC3    H1 7276   4.552   2.309  17.123 -0.7001 -0.3734 -1.8934
  489TMC3    H2 7277   4.496   2.727  17.225  1.1377 -0.1360  0.2801
  489TMC3    C7 7278   4.614   2.514  17.310  0.1326 -0.6149 -0.1716
  489TMC3    C8 7279   4.378   2.766  16.984  0.5905  0.4169 -0.1327
  489TMC3    O1 7280   4.641   2.615  17.373 -0.3438  0.0146 -0.0375
  489TMC3    O2 7281   4.421   2.761  16.866  0.1024  1.4514 -0.1791
  490MPD2     C 7282   1.194   1.061  17.703 -0.0880 -0.3565 -0.0181
  490MPD2    C1 7283   1.081   1.134   0.007 -0.3251 -0.0190  0.0898
  490MPD2    C2 7284   1.075   1.260  17.667  0.2502 -0.1548 -0.1743
  490MPD2    C3 7285   1.178   1.318  17.599  0.0529  0.1747  0.1648
  490MPD2    C4 7286   1.293   1.247  17.583 -0.1207 -0.5483  0.6088
  490MPD2    C5 7287   1.293   1.115  17.630 -0.1813  0.2015 -0.5546
  490MPD2     H 7288   0.981   1.314  17.672  0.6842  0.5565  0.4465
  490MPD2    H1 7289   1.377   1.286  17.526  0.5752 -0.6437  1.5663
  490MPD2    H2 7290   1.202   0.957   0.025  2.0671  0.2566  1.3995
  490MPD2    H3 7291   1.369   1.047  17.593  1.2114  0.5912  1.6479
  490MPD2     N 7292   1.160   1.439  17.538 -0.3232  0.5563 -0.3896
  490MPD2    H5 7293   1.238   1.481  17.489 -0.8688  1.3154 -0.6024
  490MPD2    N1 7294   0.956   1.084   0.050  0.4762  0.9845 -0.0857
  490MPD2    H7 7295   0.875   1.145   0.045  0.5467  0.9621 -1.5523
  491TMC3    C1 7296   0.792   0.916   0.087 -0.4599  0.1816 -0.1968
  491TMC3    C2 7297   0.746   0.810   0.160  0.1526 -0.2146 -0.1662
  491TMC3    C3 7298   0.610   0.803   0.187 -0.2344  0.1427 -0.1631
  491TMC3    C4 7299   0.702   0.992   0.016  0.7137  0.9828  0.0912
  491TMC3    C5 7300   0.571   0.968   0.025 -0.0030  1.0732 -0.1678
  491TMC3    C6 7301   0.521   0.880   0.117 -0.6067 -0.2568  0.3611
  491TMC3     C 7302   0.930   0.954   0.084  0.0103  1.1144 -0.4594
  491TMC3     O 7303   1.007   0.866   0.111  0.0336  0.1439 -0.3875
  491TMC3     H 7304   0.820   0.746   0.209 -1.2519 -0.9551  0.9762
  491TMC3    H1 7305   0.742   1.046  17.641  2.2568 -0.7750 -0.3174
  491TMC3    H2 7306   0.415   0.859   0.128 -0.4529 -1.1981  0.0339
  491TMC3    C7 7307   0.474   1.029  17.648 -0.2547  0.0010  0.0970
  491TMC3    C8 7308   0.570   0.792   0.324 -0.5649 -0.7109  0.6979
  491TMC3    O1 7309   0.372   0.971  17.621  0.0318  0.1024 -0.5313
  491TMC3    O2 7310   0.461   0.836   0.358 -0.8415 -0.1246 -0.7567
  492MPD2     C 7311   0.622   1.097  10.693  0.3532 -0.6694  0.0430
  492MPD2    C1 7312   0.733   1.132  10.759 -0.7806  0.4955 -0.7707
  492MPD2    C2 7313   0.745   1.129  10.906 -0.1847 -0.1844  0.1871
  492MPD2    C3 7314   0.635   1.082  10.980  0.0288  0.0662  1.0037
  492MPD2    C4 7315   0.523   1.041  10.906  0.0610  0.3440 -0.2378
  492MPD2    C5 7316   0.515   1.057  10.769  0.0884  0.5770 -0.3415
  492MPD2     H 7317   0.832   1.166  10.960 -0.0495 -1.2681  0.7067
  492MPD2    H1 7318   0.432   1.009  10.955  1.4877  2.4536  3.7391
  492MPD2    H2 7319   0.612   1.099  10.585 -1.8630  0.5175  0.2578
  492MPD2    H3 7320   0.425   1.031  10.714  0.1224 -1.3211  0.4881
  492MPD2     N 7321   0.618   1.076  11.127  0.3609  0.0338  0.3805
  492MPD2    H5 7322   0.532   1.027  11.149 -0.8825  1.9856 -0.0707
  492MPD2    N1 7323   0.843   1.181  10.682 -0.3334  0.2578 -0.0745
  492MPD2    H7 7324   0.840   1.185  10.581  0.6268 -0.5599 -0.1358
  493TMC3    C1 7325   1.067   1.257  10.634 -0.1262  0.1384 -0.8857
  493TMC3    C2 7326   1.193   1.272  10.675  0.8117  0.0125 -0.2058
  493TMC3    C3 7327   1.284   1.332  10.591 -1.0947  0.1923 -0.3148
  493TMC3    C4 7328   1.021   1.323  10.523 -0.7660 -0.7928  0.6073
  493TMC3    C5 7329   1.113   1.375  10.437 -0.4971 -0.1470  0.2813
  493TMC3    C6 7330   1.243   1.386  10.468 -0.2891 -0.0940 -0.3368
  493TMC3     C 7331   0.972   1.218  10.736 -0.2009 -0.3294  0.8948
  493TMC3     O 7332   1.022   1.214  10.849  0.1800 -0.2138  0.3102
  493TMC3     H 7333   1.230   1.215  10.760  0.1486 -0.9537 -0.5707
  493TMC3    H1 7334   0.919   1.303  10.494 -0.9184 -0.3539  0.8336
  493TMC3    H2 7335   1.313   1.430  10.399 -0.6244 -0.4071 -0.8771
  493TMC3    C7 7336   1.058   1.435  10.314 -0.0479 -0.6958  0.2450
  493TMC3    C8 7337   1.415   1.355  10.648 -0.5088  0.4822  0.8782
  493TMC3    O1 7338   0.943   1.414  10.282 -0.1414 -0.2571  0.0437
  493TMC3    O2 7339   1.453   1.268  10.720  0.2116 -0.0167 -0.3477
  494TMC3    C1 7340   1.497   3.531   0.381  0.1667 -1.0474  0.2778
  494TMC3    C2 7341   1.549   3.427   0.447  0.3011 -0.6930  0.3985
  494TMC3    C3 7342   1.617   3.326   0.383  0.1540 -0.8190 -0.1491
  494TMC3    C4 7343   1.502   3.537   0.243 -0.6460  0.2493 -0.3323
  494TMC3    C5 7344   1.554   3.422   0.181 -0.5267 -0.3995 -0.5435
  494TMC3    C6 7345   1.610   3.315   0.248 -0.0271 -0.3998  0.4025
  494TMC3     C 7346   1.466   3.654   0.458 -0.3691 -1.0501  0.5313
  494TMC3     O 7347   1.429   3.651   0.574 -0.5152  0.1460  0.4145
  494TMC3     H 7348   1.533   3.431   0.554 -1.6036  0.5150  0.0664
  494TMC3    H1 7349   1.435   3.606   0.192  0.1221 -0.8681 -2.8721
  494TMC3    H2 7350   1.666   3.230   0.209 -3.2204 -1.9131 -0.8305
  494TMC3    C7 7351   1.554   3.427   0.042 -0.7353 -0.2133 -0.1301
  494TMC3    C8 7352   1.671   3.219   0.462  0.0097  0.0420  0.5491
  494TMC3    O1 7353   1.575   3.537  17.701 -0.2524  0.0412  0.5515
  494TMC3    O2 7354   1.675   3.105   0.407  0.3257 -0.3734 -0.4580
  495TMC3    C1 7355   0.513   0.914  14.824 -1.0808 -0.0992  0.5027
  495TMC3    C2 7356   0.449   0.972  14.721  0.4448 -0.4454  1.1951
  495TMC3    C3 7357   0.340   1.049  14.745 -0.1118  0.0551 -0.1433
  495TMC3    C4 7358   0.488   0.941  14.951  0.4602  0.3745  0.6730
  495TMC3    C5 7359   0.381   1.028  14.975 -0.1902  0.1196 -0.3962
  495TMC3    C6 7360   0.299   1.077  14.872 -0.0745  0.0487 -0.0994
  495TMC3     C 7361   0.628   0.827  14.801 -0.3632  0.2429 -0.2664
  495TMC3     O 7362   0.729   0.844  14.869  0.3672 -0.2222  0.2357
  495TMC3     H 7363   0.485   0.956  14.620 -1.3570  1.7413  0.1984
  495TMC3    H1 7364   0.544   0.897  15.033 -1.3476  0.6237  2.0621
  495TMC3    H2 7365   0.219   1.147  14.891 -0.6486 -0.7392  0.3996
  495TMC3    C7 7366   0.336   1.004  15.108 -0.3275  0.4016  0.0391
  495TMC3    C8 7367   0.234   1.043  14.648  0.1251 -0.4266 -0.4949
  495TMC3    O1 7368   0.425   0.980  15.193 -0.1381  0.0153  0.5519
  495TMC3    O2 7369   0.123   1.074  14.692  0.2724  0.6122  0.0721
  496MPD2     C 7370   2.744   0.550  15.676 -0.8961  0.2989 -0.6249
  496MPD2    C1 7371   2.654   0.452  15.698  0.4808  0.5418 -0.0625
  496MPD2    C2 7372   2.559   0.462  15.798 -0.8328  0.2435 -0.5521
  496MPD2    C3 7373   2.537   0.581  15.871 -0.4074 -0.3831 -0.6054
  496MPD2    C4 7374   2.622   0.683  15.839 -0.5362  0.2515  0.1283
  496MPD2    C5 7375   2.726   0.666  15.747 -0.1026  0.2869 -0.1579
  496MPD2     H 7376   2.487   0.383  15.811 -0.6673  0.0524 -0.8135
  496MPD2    H1 7377   2.611   0.779  15.888 -1.4637 -1.4095  3.1683
  496MPD2    H2 7378   2.823   0.533  15.603  0.2817 -2.4122  1.2788
  496MPD2    H3 7379   2.798   0.747  15.741 -2.1003  2.1161  0.5789
  496MPD2     N 7380   2.444   0.581  15.968 -0.4346  0.3768  1.0394
  496MPD2    H5 7381   2.373   0.510  15.979 -0.5811  0.3681  0.0196
  496MPD2    N1 7382   2.664   0.345  15.610  0.1025  0.5946 -0.3845
  496MPD2    H7 7383   2.739   0.340  15.542 -1.3774 -3.2959 -1.7333
  497TMC3    C1 7384   2.327   0.647  16.156  0.0374 -0.5730 -0.3390
  497TMC3    C2 7385   2.206   0.622  16.097 -0.4418 -0.0563 -0.3024
  497TMC3    C3 7386   2.100   0.589  16.183 -0.3202  0.0985 -0.6761
  497TMC3    C4 7387   2.349   0.635  16.290  0.1673 -0.1810 -0.0417
  497TMC3    C5 7388   2.244   0.593  16.365 -0.3043  0.0231  0.4621
  497TMC3    C6 7389   2.123   0.576  16.314  0.8388  0.5106 -0.3320
  497TMC3     C 7390   2.437   0.672  16.071  0.3776  0.3189  0.1040
  497TMC3     O 7391   2.520   0.753  16.108  0.0785 -0.6579 -0.2182
  497TMC3     H 7392   2.190   0.651  15.994  1.6651  3.4472  0.3581
  497TMC3    H1 7393   2.445   0.644  16.338 -0.2844 -0.1717  0.8652
  497TMC3    H2 7394   2.031   0.557  16.368  1.8461 -3.4876 -0.0249
  497TMC3    C7 7395   2.253   0.578  16.509 -0.8480  0.3734 -0.3155
  497TMC3    C8 7396   1.967   0.585  16.137  0.1955 -0.4778 -0.1866
  497TMC3    O1 7397   2.170   0.509  16.569  0.0160  0.4242  0.1275
  497TMC3    O2 7398   1.871   0.614  16.205  0.1850  0.2488  0.3790
  498MPD2     C 7399   2.452   0.605   9.993 -0.0966  0.5792  0.6662
  498MPD2    C1 7400   2.524   0.712  10.036  0.4680 -0.0712  0.5425
  498MPD2    C2 7401   2.511   0.765  10.163  0.5934 -0.0067  0.5641
  498MPD2    C3 7402   2.420   0.710  10.254  0.0187 -0.5937 -0.5156
  498MPD2    C4 7403   2.340   0.606  10.208  0.1579 -0.2846  0.2736
  498MPD2    C5 7404   2.365   0.552  10.084 -0.0462  0.4224  0.1410
  498MPD2     H 7405   2.583   0.842  10.189 -1.2271  1.9889 -0.4024
  498MPD2    H1 7406   2.270   0.554  10.272 -1.1106 -1.2146 -1.8553
  498MPD2    H2 7407   2.470   0.565   9.894  1.8396  0.5835  1.0308
  498MPD2    H3 7408   2.300   0.474  10.048  0.7541 -0.0058 -0.3588
  498MPD2     N 7409   2.402   0.774  10.382 -0.1731  0.3620  0.0048
  498MPD2    H5 7410   2.470   0.845  10.408 -0.6009  0.9036 -0.3472
  498MPD2    N1 7411   2.606   0.781   9.948 -0.3037  0.0168 -0.2742
  498MPD2    H7 7412   2.660   0.859   9.985  0.7852 -0.0122 -1.8011
  499TMC3    C1 7413   2.724   0.848   9.751 -0.0323  0.2860 -0.1369
  499TMC3    C2 7414   2.765   0.807   9.630 -0.2593 -0.1266  0.1190
  499TMC3    C3 7415   2.885   0.864   9.580 -0.2160 -0.4853 -0.3992
  499TMC3    C4 7416   2.779   0.951   9.825  0.0889  0.2769 -0.4352
  499TMC3    C5 7417   2.895   1.005   9.770  0.5744  0.2183  0.3907
  499TMC3    C6 7418   2.947   0.968   9.649  0.1566  0.2241  0.0924
  499TMC3     C 7419   2.637   0.752   9.818 -0.0349 -0.0657  0.6085
  499TMC3     O 7420   2.587   0.670   9.745 -0.5019  0.3227  0.3360
  499TMC3     H 7421   2.715   0.731   9.571  2.0851 -0.0661 -1.9668
  499TMC3    H1 7422   2.738   0.989   9.918  0.2318  0.7257 -0.5526
  499TMC3    H2 7423   3.037   1.021   9.617 -0.4031  1.9362  1.3446
  499TMC3    C7 7424   2.981   1.097   9.842  0.2346  0.5603 -0.6429
  499TMC3    C8 7425   2.951   0.798   9.464  0.3926 -1.6991  0.2444
  499TMC3    O1 7426   3.061   1.166   9.776 -0.1139  0.0170 -0.0513
  499TMC3    O2 7427   3.069   0.828   9.440  0.2879 -0.1064  0.0154
  500MPD2     C 7428   0.483   2.201   9.701 -0.0849  0.0919 -0.2411
  500MPD2    C1 7429   0.461   2.205   9.837  0.1187  0.6874 -0.7244
  500MPD2    C2 7430   0.346   2.166   9.900  0.1743  0.2288  0.2257
  500MPD2    C3 7431   0.243   2.134   9.812  0.1264  0.3432  0.6043
  500MPD2    C4 7432   0.266   2.126   9.672  0.3346  0.2574 -0.6666
  500MPD2    C5 7433   0.385   2.162   9.617 -0.0188  0.3930 -0.1045
  500MPD2     H 7434   0.337   2.176  10.008 -1.6516 -0.4563  0.1300
  500MPD2    H1 7435   0.186   2.103   9.603 -0.3680  0.7434 -0.0244
  500MPD2    H2 7436   0.580   2.220   9.656  1.5951 -1.4260  2.7024
  500MPD2    H3 7437   0.396   2.162   9.510 -2.0506 -0.6592 -0.3232
  500MPD2     N 7438   0.115   2.100   9.859  0.5088  0.4821  0.2637
  500MPD2    H5 7439   0.055   2.072   9.782  1.2204 -0.1302 -0.0610
  500MPD2    N1 7440   0.556   2.276   9.920 -0.6202  0.4941 -0.0149
  500MPD2    H7 7441   0.561   2.257  10.019  0.6208 -0.8744 -0.3386
  501TMC3    C1 7442   0.721   2.434   9.965 -0.3408 -0.7742 -0.4557
  501TMC3    C2 7443   0.753   2.569   9.958 -0.4216 -0.1133 -0.2126
  501TMC3    C3 7444   0.844   2.618  10.047  0.2555 -0.2803  0.0379
  501TMC3    C4 7445   0.775   2.351  10.060 -0.0393 -0.3874  0.2160
  501TMC3    C5 7446   0.872   2.408  10.142  0.0524 -0.3508  0.6737
  501TMC3    C6 7447   0.908   2.538  10.133 -0.2241  0.4478 -0.2847
  501TMC3     C 7448   0.627   2.383   9.870  0.0454 -0.9050 -0.0498
  501TMC3     O 7449   0.617   2.446   9.763 -0.3971  0.0936 -0.4283
  501TMC3     H 7450   0.695   2.642   9.902 -0.4798  0.3361  0.4363
  501TMC3    H1 7451   0.764   2.243  10.061 -1.3390 -0.2646 -0.4202
  501TMC3    H2 7452   0.983   2.585  10.195  0.6744 -1.6649  0.2231
  501TMC3    C7 7453   0.899   2.340  10.271  0.4427  0.2149 -0.4383
  501TMC3    C8 7454   0.819   2.745  10.108  0.0157  0.3393 -0.2210
  501TMC3    O1 7455   1.001   2.381  10.324 -0.2995 -0.3512 -0.7685
  501TMC3    O2 7456   0.814   2.745  10.232  0.6083  0.2153  0.5823
  502TMC3    C1 7457   4.495   1.663  15.456 -0.0600 -0.3632  0.7953
  502TMC3    C2 7458   4.474   1.799  15.469 -0.3586  0.8417  0.6812
  502TMC3    C3 7459   4.346   1.839  15.503  0.2406  0.3876 -0.4707
  502TMC3    C4 7460   4.396   1.572  15.453 -0.0684  0.1564 -0.2700
  502TMC3    C5 7461   4.267   1.615  15.477 -0.2092 -0.3519  0.6874
  502TMC3    C6 7462   4.240   1.746  15.508 -0.1136 -0.0450  0.2654
  502TMC3     C 7463   4.633   1.617  15.437  0.2883 -0.2874 -0.4980
  502TMC3     O 7464   4.642   1.526  15.357 -0.4015  0.5363 -0.6464
  502TMC3     H 7465   4.550   1.876  15.466 -0.3070  0.8060  1.1100
  502TMC3    H1 7466   4.422   1.467  15.441 -1.7720 -0.4040  0.8906
  502TMC3    H2 7467   4.140   1.776  15.537 -0.3423 -0.6050  0.0473
  502TMC3    C7 7468   4.173   1.513  15.522 -0.1327  0.4592 -0.1154
  502TMC3    C8 7469   4.319   1.982  15.486 -0.0625 -0.4411  0.5907
  502TMC3    O1 7470   4.221   1.420  15.586 -0.0214  0.7961  0.2531
  502TMC3    O2 7471   4.398   2.050  15.421 -0.7786 -0.5572  0.3157
  503MPD2     C 7472   1.883   2.449  16.631 -0.3061  0.6638  0.1010
  503MPD2    C1 7473   1.854   2.428  16.766  0.7088 -0.2367 -0.4039
  503MPD2    C2 7474   1.933   2.342  16.832  0.3346  0.3557  0.4825
  503MPD2    C3 7475   2.039   2.268  16.776  0.0654  0.4187  0.3683
  503MPD2    C4 7476   2.067   2.285  16.638  0.2339  0.6834 -0.2542
  503MPD2    C5 7477   1.977   2.373  16.577 -0.1014  0.2281 -0.4310
  503MPD2     H 7478   1.912   2.339  16.938  0.2540  1.5538  0.5061
  503MPD2    H1 7479   2.154   2.249  16.584 -1.1410 -2.7481 -0.1626
  503MPD2    H2 7480   1.843   2.524  16.564 -2.4666 -0.2857  0.3103
  503MPD2    H3 7481   1.995   2.392  16.472 -1.0415  0.5258 -0.5441
  503MPD2     N 7482   2.112   2.184  16.861 -0.3211 -0.2332 -0.3956
  503MPD2    H5 7483   2.090   2.161  16.957  0.4450 -2.5125 -0.7686
  503MPD2    N1 7484   1.755   2.499  16.840  0.1294  0.3810  0.2132
  503MPD2    H7 7485   1.742   2.494  16.940 -2.6087 -0.7907 -0.1942
  504TMC3    C1 7486   2.308   2.099  16.949  0.4023  0.4819 -0.9233
  504TMC3    C2 7487   2.252   2.123  17.075 -0.0669  0.8726  0.3340
  504TMC3    C3 7488   2.309   2.067  17.178 -0.0866 -0.0226  0.3370
  504TMC3    C4 7489   2.428   2.035  16.938  0.1105 -0.1644  0.5691
  504TMC3    C5 7490   2.490   1.994  17.054  0.3651 -0.3475 -0.3156
  504TMC3    C6 7491   2.430   2.002  17.174 -0.0207  0.3986  0.1954
  504TMC3     C 7492   2.240   2.148  16.829 -0.1842 -0.3119  0.2873
  504TMC3     O 7493   2.304   2.150  16.722 -0.3232  0.0026 -0.5246
  504TMC3     H 7494   2.153   2.162  17.095 -0.8267 -0.9078  0.0886
  504TMC3    H1 7495   2.464   2.025  16.836  3.6390 -0.4268  1.8750
  504TMC3    H2 7496   2.490   1.996  17.264 -0.3306  2.0704  0.5051
  504TMC3    C7 7497   2.619   1.933  17.030 -0.4413 -0.0157  0.2734
  504TMC3    C8 7498   2.227   2.064  17.299 -0.1766 -0.4961 -0.3366
  504TMC3    O1 7499   2.665   1.949  16.916 -0.2026 -0.3191  0.2957
  504TMC3    O2 7500   2.137   2.145  17.310 -0.2739 -0.2182 -0.1475
  505MPD2     C 7501   3.332   0.865  11.235  0.4726 -0.1932  0.4363
  505MPD2    C1 7502   3.323   0.758  11.147  0.1515  0.2504 -0.4558
  505MPD2    C2 7503   3.381   0.769  11.025  0.4274  0.0618 -0.2427
  505MPD2    C3 7504   3.439   0.884  10.978 -0.3180 -0.4545  0.0399
  505MPD2    C4 7505   3.456   0.986  11.071  0.0328 -0.0486  0.6178
  505MPD2    C5 7506   3.409   0.970  11.198  0.3698 -0.1978 -0.4824
  505MPD2     H 7507   3.366   0.684  10.960 -1.5352 -1.2971  1.9759
  505MPD2    H1 7508   3.500   1.082  11.046 -0.9518  0.0840 -0.6063
  505MPD2    H2 7509   3.289   0.871  11.335  0.8168 -1.1661  0.6383
  505MPD2    H3 7510   3.405   1.054  11.266  0.4462  0.2519 -1.0392
  505MPD2     N 7511   3.465   0.912  10.847  0.3746 -0.2771  0.8692
  505MPD2    H5 7512   3.493   1.006  10.820 -2.0303  0.0786 -0.3664
  505MPD2    N1 7513   3.263   0.642  11.197 -0.3722  0.2916 -0.0386
  505MPD2    H7 7514   3.210   0.647  11.283 -1.3870 -0.0160 -0.6416
  506TMC3    C1 7515   3.189   0.415  11.194 -0.1833  0.3965 -0.1817
  506TMC3    C2 7516   3.068   0.458  11.251 -0.4544 -0.5636 -0.0598
  506TMC3    C3 7517   2.969   0.361  11.226  0.3817 -0.7783  0.6306
  506TMC3    C4 7518   3.206   0.290  11.145 -0.4464 -0.9157  0.1780
  506TMC3    C5 7519   3.109   0.198  11.118 -0.0939  0.2441  0.7046
  506TMC3    C6 7520   2.980   0.243  11.160  0.0229 -0.7019  0.1328
  506TMC3     C 7521   3.280   0.519  11.144 -0.7264  0.6558 -0.4242
  506TMC3     O 7522   3.355   0.473  11.061  0.9322  0.5277  0.0508
  506TMC3     H 7523   3.038   0.555  11.290 -0.1645  0.1991 -1.7379
  506TMC3    H1 7524   3.306   0.257  11.117  0.5222  2.1117  0.0685
  506TMC3    H2 7525   2.887   0.195  11.129 -0.8741  0.9063  0.3022
  506TMC3    C7 7526   3.113   0.156  10.981 -0.2597 -0.3627 -0.7491
  506TMC3    C8 7527   2.839   0.394  11.277  0.6141  0.5479  0.0719
  506TMC3    O1 7528   3.034   0.071  10.940 -0.4459 -0.8035  0.1480
  506TMC3    O2 7529   2.826   0.439  11.391 -0.2684  0.4824 -0.2070
  507TMC3    C1 7530   2.992   1.789  14.866  0.0290 -0.3172 -0.3406
  507TMC3    C2 7531   2.931   1.679  14.807 -1.0343  0.1950  0.1336
  507TMC3    C3 7532   2.956   1.676  14.675 -0.1522  0.4325 -0.1284
  507TMC3    C4 7533   3.065   1.885  14.800 -0.1265  0.0891 -0.4199
  507TMC3    C5 7534   3.092   1.866  14.667  1.1899 -0.1637 -0.6640
  507TMC3    C6 7535   3.044   1.755  14.606 -0.3331  0.9677 -0.5120
  507TMC3     C 7536   2.964   1.817  15.007  0.1282  0.1040 -0.2852
  507TMC3     O 7537   3.041   1.895  15.069 -0.6937  0.0103 -0.2329
  507TMC3     H 7538   2.866   1.610  14.860 -0.1855 -2.0714 -1.7734
  507TMC3    H1 7539   3.109   1.956  14.869 -0.1875  0.6356 -0.9375
  507TMC3    H2 7540   3.074   1.721  14.508  2.9293  0.8876  0.5228
  507TMC3    C7 7541   3.066   1.974  14.573  0.4298  0.1011  0.9967
  507TMC3    C8 7542   2.830   1.663  14.607 -0.0966  0.4456  0.1983
  507TMC3    O1 7543   3.026   1.933  14.465 -0.4775 -0.3011  0.2032
  507TMC3    O2 7544   2.744   1.612  14.678 -0.1813  0.0949 -0.1136
  508MPD2     C 7545   3.837   4.015  16.229  0.4418  0.5252  0.0752
  508MPD2    C1 7546   3.950   4.089  16.214  0.5812 -0.5230 -0.1932
  508MPD2    C2 7547   3.973   4.165  16.101  0.5545 -0.5902 -0.7525
  508MPD2    C3 7548   3.887   4.158  15.994 -0.1418  0.0700  0.7632
  508MPD2    C4 7549   3.775   4.075  16.000  0.2198  0.2756 -0.7332
  508MPD2    C5 7550   3.759   4.006  16.118  0.1555  0.3769  0.4547
  508MPD2     H 7551   4.053   4.238  16.108  1.4009 -1.5342 -0.4783
  508MPD2    H1 7552   3.697   4.060  15.927 -0.0343  1.9937 -0.7953
  508MPD2    H2 7553   3.812   3.973  16.326  0.4896 -1.9057 -0.9425
  508MPD2    H3 7554   3.678   3.934  16.117  2.3635 -2.1397  1.3912
  508MPD2     N 7555   3.919   4.236  15.879 -0.4581 -0.3807  0.2893
  508MPD2    H5 7556   3.998   4.296  15.898 -0.9228  0.0832  0.7550
  508MPD2    N1 7557   4.035   4.091  16.324 -0.6184 -0.0180 -0.3474
  508MPD2    H7 7558   3.996   4.046  16.407  0.9891  1.6320  1.3156
  509TMC3    C1 7559   3.804   4.486  15.500 -0.2851  0.2465  0.1500
  509TMC3    C2 7560   3.918   4.551  15.501  0.5873  0.3953  0.0736
  509TMC3    C3 7561   4.017   4.511  15.593  0.5759  0.6333  0.2750
  509TMC3    C4 7562   3.776   4.380  15.582  0.5114 -0.1432  0.3032
  509TMC3    C5 7563   3.871   4.343  15.674 -0.0154  0.2975 -0.3145
  509TMC3    C6 7564   3.997   4.402  15.675 -0.5007  0.0069  0.5702
  509TMC3     C 7565   3.720   4.495  15.385 -0.9321 -0.3968 -0.7979
  509TMC3     O 7566   3.644   4.401  15.356 -0.2462  0.2389 -0.4152
  509TMC3     H 7567   3.950   4.623  15.426  3.9818 -1.1610  0.0287
  509TMC3    H1 7568   3.680   4.330  15.577  0.6816 -0.3968 -0.3803
  509TMC3    H2 7569   4.073   4.356  15.738 -0.3086 -1.1579 -0.5218
  509TMC3    C7 7570   3.844   4.230  15.755  0.2028 -0.4405  0.1509
  509TMC3    C8 7571   4.152   4.565  15.575 -0.1174  0.2496 -0.0357
  509TMC3    O1 7572   3.754   4.152  15.716  0.1923  0.4197  0.1333
  509TMC3    O2 7573   4.240   4.484  15.609 -0.1477  0.2744  0.6695
  510MPD2     C 7574   1.743   1.262  14.807 -0.4717 -0.2536 -0.3855
  510MPD2    C1 7575   1.793   1.159  14.885  0.7091  0.0569 -0.0506
  510MPD2    C2 7576   1.929   1.124  14.867 -0.1183  0.2945  0.4053
  510MPD2    C3 7577   2.004   1.188  14.767 -0.3439  0.0249 -0.2463
  510MPD2    C4 7578   1.946   1.295  14.693  0.2938 -0.1255 -1.3332
  510MPD2    C5 7579   1.821   1.338  14.724  1.1794 -0.0397 -0.1679
  510MPD2     H 7580   1.978   1.054  14.934  0.3519  0.8687  0.6627
  510MPD2    H1 7581   2.000   1.344  14.613  1.6750  0.7989  0.1676
  510MPD2    H2 7582   1.647   1.307  14.829  0.2508  1.0855  0.0122
  510MPD2    H3 7583   1.779   1.417  14.662  0.3564  2.1787  3.1655
  510MPD2     N 7584   2.138   1.143  14.740 -0.2580  0.4188 -0.2465
  510MPD2    H5 7585   2.174   1.079  14.810  3.0748  1.5073 -0.9834
  510MPD2    N1 7586   1.727   1.087  14.982  0.3188  0.5561  0.3503
  510MPD2    H7 7587   1.771   1.014  15.036  0.8214  0.4304 -0.2253
  511TMC3    C1 7588   1.533   1.009  15.096 -0.2831  0.3709  0.1785
  511TMC3    C2 7589   1.460   1.036  15.211 -0.0201  0.4085 -0.5453
  511TMC3    C3 7590   1.379   0.937  15.260  0.0153 -0.2830  0.2576
  511TMC3    C4 7591   1.541   0.887  15.039 -0.3656  0.2442  0.0229
  511TMC3    C5 7592   1.450   0.788  15.090 -0.0870  0.3897  0.6966
  511TMC3    C6 7593   1.378   0.806  15.209 -1.3584  0.3775 -0.1385
  511TMC3     C 7594   1.598   1.114  15.025  0.0318 -0.8337  0.3547
  511TMC3     O 7595   1.532   1.217  15.005 -0.2830 -0.1966 -0.3197
  511TMC3     H 7596   1.475   1.133  15.258 -0.8667 -0.3618  1.3174
  511TMC3    H1 7597   1.606   0.865  14.955 -1.1077  1.8068 -0.9702
  511TMC3    H2 7598   1.301   0.732  15.229 -2.4680  1.5909  0.0972
  511TMC3    C7 7599   1.431   0.665  15.011  0.0420  0.2441  0.0870
  511TMC3    C8 7600   1.310   0.966  15.390  0.1243  0.4114  0.0618
  511TMC3    O1 7601   1.456   0.670  14.892  0.0714  0.2370 -0.0438
  511TMC3    O2 7602   1.320   1.080  15.436 -0.3562 -0.2541  0.4337
  512TMC3    C1 7603   0.662   0.317  13.829  0.0720 -0.0440  0.6005
  512TMC3    C2 7604   0.755   0.375  13.901  0.2064  0.1500 -0.6040
  512TMC3    C3 7605   0.884   0.365  13.865 -1.0464  0.5731  0.0025
  512TMC3    C4 7606   0.694   0.244  13.716 -0.5994  0.2745  0.4041
  512TMC3    C5 7607   0.830   0.218  13.693 -0.0588 -0.0455 -0.1975
  512TMC3    C6 7608   0.929   0.282  13.767 -0.5317 -0.4942  0.0124
  512TMC3     C 7609   0.528   0.358  13.849  0.6642 -0.7928 -0.0728
  512TMC3     O 7610   0.473   0.398  13.747 -0.4388  0.2611  0.1974
  512TMC3     H 7611   0.724   0.446  13.977  0.6918  0.1256 -0.3855
  512TMC3    H1 7612   0.619   0.206  13.647  0.4849 -1.4359  0.1489
  512TMC3    H2 7613   1.028   0.283  13.724 -1.4850  1.8536 -2.1676
  512TMC3    C7 7614   0.862   0.215  13.549 -0.4473  0.5907  1.2424
  512TMC3    C8 7615   0.991   0.415  13.954  0.1372 -0.1588 -0.2339
  512TMC3    O1 7616   0.966   0.274  13.517 -0.0381  0.6948  0.3364
  512TMC3    O2 7617   1.091   0.347  13.948 -0.3226  0.3043  0.2301
  513MPD2     C 7618   2.611   0.224  13.235  0.6742 -0.0046 -0.5130
  513MPD2    C1 7619   2.740   0.265  13.209 -0.0519 -0.2069  0.5003
  513MPD2    C2 7620   2.818   0.271  13.323 -0.5473  0.3089  0.1585
  513MPD2    C3 7621   2.779   0.255  13.452  0.4101  0.0316 -0.5120
  513MPD2    C4 7622   2.650   0.208  13.474  0.1915 -0.7813 -0.6395
  513MPD2    C5 7623   2.572   0.190  13.362 -0.4643 -0.0018 -0.7478
  513MPD2     H 7624   2.920   0.308  13.324 -0.1240 -0.8339 -0.9279
  513MPD2    H1 7625   2.621   0.191  13.577  0.1937  0.1900 -0.4732
  513MPD2    H2 7626   2.536   0.212  13.157  0.7096 -0.9292 -0.4004
  513MPD2    H3 7627   2.471   0.159  13.385 -1.0840  1.4387 -1.5097
  513MPD2     N 7628   2.876   0.281  13.555 -0.1700 -0.5112 -0.5507
  513MPD2    H5 7629   2.965   0.318  13.522 -1.3344  0.6040 -2.4845
  513MPD2    N1 7630   2.784   0.292  13.081 -0.1781  0.1092  0.7046
  513MPD2    H7 7631   2.713   0.298  13.010  2.8085  0.0987 -2.2731
  514TMC3    C1 7632   2.892   0.482  13.012 -0.3105  0.5088  0.8418
  514TMC3    C2 7633   2.794   0.497  12.914  0.0929 -0.3986  0.3781
  514TMC3    C3 7634   2.689   0.579  12.942 -0.1489  0.6538 -0.1770
  514TMC3    C4 7635   2.892   0.564  13.117  0.1309 -0.5067  0.0470
  514TMC3    C5 7636   2.789   0.660  13.128 -0.0972  0.2018 -0.5727
  514TMC3    C6 7637   2.677   0.654  13.052  0.5040 -0.5780  0.0309
  514TMC3     C 7638   2.912   0.341  13.058  0.1759 -0.6779  0.5750
  514TMC3     O 7639   3.017   0.323  13.116 -0.3869 -0.4915 -0.0372
  514TMC3     H 7640   2.795   0.438  12.824 -1.0769  0.8981 -0.4799
  514TMC3    H1 7641   2.965   0.562  13.197  0.9816 -0.8956 -0.7445
  514TMC3    H2 7642   2.596   0.726  13.057  1.1709  0.0787  1.4862
  514TMC3    C7 7643   2.776   0.697  13.262  0.2128  0.7275 -0.5302
  514TMC3    C8 7644   2.600   0.628  12.837  0.1058 -0.6820 -0.5571
  514TMC3    O1 7645   2.888   0.732  13.306 -0.6562  0.4925 -0.5261
  514TMC3    O2 7646   2.481   0.644  12.865  0.7925 -0.7278  0.7318
  515MPD2     C 7647   0.665   2.471  14.841  0.3942  0.0875 -0.9504
  515MPD2    C1 7648   0.604   2.413  14.957  0.0733  0.0815  0.2007
  515MPD2    C2 7649   0.644   2.449  15.085  0.0585  0.3518  0.0145
  515MPD2    C3 7650   0.735   2.554  15.101 -0.1940 -0.2954  0.1645
  515MPD2    C4 7651   0.796   2.601  14.987  0.2958  0.1047 -0.6116
  515MPD2    C5 7652   0.761   2.568  14.863  1.0218 -0.2310  0.8738
  515MPD2     H 7653   0.594   2.418  15.176 -2.2056  2.5912 -0.4863
  515MPD2    H1 7654   0.866   2.683  15.002  0.4244 -0.0527 -0.3534
  515MPD2    H2 7655   0.634   2.461  14.738 -1.9862  0.7101 -0.3140
  515MPD2    H3 7656   0.813   2.622  14.785  3.0607 -1.5823  1.3181
  515MPD2     N 7657   0.753   2.605  15.230  0.2497  0.5195 -0.1920
  515MPD2    H5 7658   0.707   2.556  15.306  1.0363 -0.8063 -0.5625
  515MPD2    N1 7659   0.509   2.318  14.931 -0.2229  0.9595  0.0820
  515MPD2    H7 7660   0.492   2.309  14.832 -0.3080 -1.4169  0.3139
  516TMC3    C1 7661   0.377   2.126  14.961 -0.4690  0.1257 -0.5542
  516TMC3    C2 7662   0.309   2.163  14.845 -0.4198  0.3547  0.2827
  516TMC3    C3 7663   0.244   2.064  14.781 -0.4797  0.9273 -0.8611
  516TMC3    C4 7664   0.384   2.000  15.012 -0.2269 -0.6562 -0.1657
  516TMC3    C5 7665   0.319   1.900  14.945 -0.0913  0.0258  0.0939
  516TMC3    C6 7666   0.246   1.930  14.829  0.4037 -0.3553 -0.3768
  516TMC3     C 7667   0.465   2.224  15.022 -0.7704  0.1636 -0.0112
  516TMC3     O 7668   0.485   2.213  15.140  0.2187  0.0931  0.3355
  516TMC3     H 7669   0.306   2.266  14.811  1.3965  1.2459  2.7866
  516TMC3    H1 7670   0.442   1.987  15.102 -1.0273  2.0208  0.7219
  516TMC3    H2 7671   0.184   1.856  14.780  0.1145  1.0488 -2.1429
  516TMC3    C7 7672   0.359   1.768  14.974 -0.6968 -0.0210 -0.2711
  516TMC3    C8 7673   0.176   2.104  14.661  0.0961 -0.0980  0.0883
  516TMC3    O1 7674   0.370   1.745  15.092 -0.2500 -0.6492 -0.6362
  516TMC3    O2 7675   0.109   2.203  14.672 -0.3391  0.6914 -0.1081
  517MPD2     C 7676   4.471   3.789  17.476 -0.6492  0.4690 -0.3894
  517MPD2    C1 7677   4.591   3.765  17.533 -0.0948 -0.5048 -0.1021
  517MPD2    C2 7678   4.633   3.829  17.646  0.5497 -0.3643  0.1069
  517MPD2    C3 7679   4.539   3.914  17.708 -0.2347 -0.6412 -0.0045
  517MPD2    C4 7680   4.423   3.944  17.640 -0.0204 -0.1695  0.3489
  517MPD2    C5 7681   4.389   3.876  17.524 -0.6828  0.3134 -0.8133
  517MPD2     H 7682   0.004   3.816  17.689 -0.1064  3.4989  2.8030
  517MPD2    H1 7683   4.349   4.005  17.689  0.2801 -1.7151  2.7404
  517MPD2    H2 7684   4.448   3.744  17.380  1.5935  0.3092 -0.8644
  517MPD2    H3 7685   4.295   3.899  17.476  0.9467  1.8295 -3.3162
  517MPD2     N 7686   4.563   3.984   0.121  0.4083  0.1758  0.3859
  517MPD2    H5 7687   4.488   4.039   0.160  1.0846  1.9471 -0.8433
  517MPD2    N1 7688   4.680   3.670  17.481 -0.7295  0.0270  0.0794
  517MPD2    H7 7689   0.045   3.672  17.523 -0.7350  1.5984  0.0177
  518TMC3    C1 7690   0.025   3.470  17.373 -1.2341  0.8069  0.3466
  518TMC3    C2 7691   4.715   3.342  17.358 -0.3245  0.5027 -0.4244
  518TMC3    C3 7692   0.081   3.249  17.327  0.1010 -1.0911  0.4639
  518TMC3    C4 7693   0.158   3.503  17.374  0.5695  0.0173 -0.0370
  518TMC3    C5 7694   0.247   3.403  17.349 -0.0747 -0.1774  0.4764
  518TMC3    C6 7695   0.214   3.274  17.318 -0.3966  0.0805  0.1248
  518TMC3     C 7696   4.654   3.573  17.383 -0.3283 -0.6417  0.8086
  518TMC3     O 7697   4.554   3.547  17.316  0.1761  1.1301 -0.6016
  518TMC3     H 7698   4.611   3.313  17.368  1.3205 -4.7732  1.4097
  518TMC3    H1 7699   0.187   3.604  17.400  0.2349  0.4612 -1.3956
  518TMC3    H2 7700   0.281   3.201  17.274  0.7668  0.3532  1.4676
  518TMC3    C7 7701   0.374   3.445  17.303  0.3897  0.0783 -0.0361
  518TMC3    C8 7702   0.035   3.135  17.256  0.6589 -1.4670  0.6876
  518TMC3    O1 7703   0.374   3.561  17.256  0.4367 -0.0739  0.2785
  518TMC3    O2 7704   4.655   3.142  17.199  0.4294  0.2809 -0.4926
  519MPD2     C 7705   1.865   2.440  13.886  0.6288 -0.4155 -0.9802
  519MPD2    C1 7706   1.764   2.349  13.873  0.4891 -0.0763  0.2683
  519MPD2    C2 7707   1.782   2.210  13.886 -0.2393  0.2630 -0.3001
  519MPD2    C3 7708   1.903   2.167  13.949 -0.6353 -0.2695 -0.2481
  519MPD2    C4 7709   1.998   2.265  13.978  0.3508  0.3809 -0.0267
  519MPD2    C5 7710   1.982   2.398  13.943  0.5152 -0.8712  0.1710
  519MPD2     H 7711   1.699   2.143  13.865 -1.9776  2.9588 -2.1051
  519MPD2    H1 7712   2.100   2.247  14.011 -0.5271 -1.5815  1.5978
  519MPD2    H2 7713   1.867   2.545  13.858 -0.5373 -0.1879 -0.1967
  519MPD2    H3 7714   2.061   2.471  13.958 -0.2444 -0.4713  2.1168
  519MPD2     N 7715   1.946   2.028  13.957 -0.6853  0.1797 -0.5469
  519MPD2    H5 7716   2.018   2.010  14.026 -0.2930  0.9730 -0.7520
  519MPD2    N1 7717   1.640   2.411  13.835  0.6057 -0.2333  0.5160
  519MPD2    H7 7718   1.644   2.511  13.819 -0.2698 -0.6516 -2.2681
  520TMC3    C1 7719   1.948   1.802  13.913  0.1613  0.7474  0.0589
  520TMC3    C2 7720   1.871   1.693  13.881  0.6081  0.4916 -0.3827
  520TMC3    C3 7721   1.928   1.566  13.887  0.0077 -0.1225  0.5292
  520TMC3    C4 7722   2.076   1.790  13.943 -0.5048 -0.5855  0.2126
  520TMC3    C5 7723   2.132   1.665  13.947  0.2596  0.1975  0.0740
  520TMC3    C6 7724   2.063   1.552  13.911  0.0088 -0.1203 -0.3467
  520TMC3     C 7725   1.884   1.925  13.890 -0.1360 -0.1802 -0.4516
  520TMC3     O 7726   1.797   1.929  13.803  0.1184 -0.2771  0.2689
  520TMC3     H 7727   1.764   1.710  13.878  0.6704  1.0114  0.3295
  520TMC3    H1 7728   2.143   1.871  13.969 -0.9801  0.3817 -1.5567
  520TMC3    H2 7729   2.107   1.454  13.927 -1.8560 -0.8605  0.2866
  520TMC3    C7 7730   2.260   1.640  14.002  0.3008  0.4327  0.1193
  520TMC3    C8 7731   1.887   1.475  13.777 -0.7089  0.8114  0.3617
  520TMC3    O1 7732   2.279   1.532  14.057  0.2503 -0.3407 -0.1644
  520TMC3    O2 7733   1.963   1.401  13.715 -0.1409  0.1194  0.2969
  521MPD2     C 7734   2.878   4.561  17.560 -0.0458 -0.2056 -0.0920
  521MPD2    C1 7735   2.895   4.479  17.445  0.0974  0.0435 -0.6717
  521MPD2    C2 7736   3.002   4.512  17.363  0.2273 -0.8360  0.1277
  521MPD2    C3 7737   3.087   4.616  17.387 -0.4037  0.1741 -0.2021
  521MPD2    C4 7738   3.062   4.699  17.494 -0.3730  0.4393 -0.2783
  521MPD2    C5 7739   2.961   4.665  17.579  0.6201  0.3267 -0.1112
  521MPD2     H 7740   3.025   4.449  17.277  1.3513  1.2220 -1.0722
  521MPD2    H1 7741   3.123   0.058  17.515 -0.3099  0.7102 -1.5397
  521MPD2    H2 7742   2.801   4.547  17.636 -1.5004 -0.4001 -1.5903
  521MPD2    H3 7743   2.955   4.718  17.674 -3.0644 -0.6650  0.2378
  521MPD2     N 7744   3.195   4.634  17.296  0.0806 -0.1455 -0.3081
  521MPD2    H5 7745   3.203   4.575  17.214  1.7542 -2.0124  1.1687
  521MPD2    N1 7746   2.809   4.366  17.431  0.6407  0.2990  0.1692
  521MPD2    H7 7747   2.744   4.357  17.509  0.4920  2.5417  0.3143
  522TMC3    C1 7748   3.393   4.698  17.202 -0.2189  0.1128  0.5437
  522TMC3    C2 7749   3.527   4.694  17.237 -0.7304 -0.0400 -0.8219
  522TMC3    C3 7750   3.616   4.653  17.141 -0.7464  0.9923  0.2461
  522TMC3    C4 7751   3.349   4.663  17.082 -0.3710  0.0120 -0.0004
  522TMC3    C5 7752   3.440   4.628  16.992 -0.2501 -0.3206 -0.1146
  522TMC3    C6 7753   3.573   4.613  17.017 -0.1852 -0.1869  0.4495
  522TMC3     C 7754   3.305   4.714  17.313  0.7827  0.9134 -0.1170
  522TMC3     O 7755   3.335   0.054  17.413 -0.0593 -0.0423 -0.2433
  522TMC3     H 7756   3.558   4.719  17.337  0.1135  1.2088 -1.3991
  522TMC3    H1 7757   3.245   4.690  17.065  0.2803  2.4617  0.0629
  522TMC3    H2 7758   3.635   4.588  16.932  0.7793  3.7002 -0.0150
  522TMC3    C7 7759   3.399   4.637  16.855  0.7975 -0.5563  0.2013
  522TMC3    C8 7760   3.748   4.625  17.192  0.1409 -0.2048 -0.6766
  522TMC3    O1 7761   3.487   4.652  16.774  0.0155 -0.5047 -0.3819
  522TMC3    O2 7762   3.772   4.658  17.311  0.1678 -0.4143 -0.0393
  523MPD2     C 7763   1.142   3.816   9.738  0.4053 -0.7335  0.5485
  523MPD2    C1 7764   1.032   3.731   9.738  0.0695  0.1187 -0.4210
  523MPD2    C2 7765   0.917   3.765   9.666  0.1314  0.0681 -0.1222
  523MPD2    C3 7766   0.910   3.890   9.609  0.0784  0.2600 -0.0512
  523MPD2    C4 7767   1.022   3.967   9.605  0.2658 -0.3258  0.2179
  523MPD2    C5 7768   1.138   3.930   9.663 -0.0418  0.2767 -0.3508
  523MPD2     H 7769   0.826   3.707   9.676 -0.1203  0.4181 -0.3728
  523MPD2    H1 7770   1.033   4.050   9.537 -0.3818 -1.0254 -0.7456
  523MPD2    H2 7771   1.238   3.804   9.786  2.2189 -1.4444 -3.2977
  523MPD2    H3 7772   1.222   3.997   9.653  0.1952 -0.1962 -1.4573
  523MPD2     N 7773   0.793   3.940   9.540  0.6904  0.5571  0.1742
  523MPD2    H5 7774   0.797   4.025   9.486 -1.4345 -0.0952 -1.0484
  523MPD2    N1 7775   1.047   3.607   9.807  0.5285  0.3254  0.3921
  523MPD2    H7 7776   1.133   3.590   9.858  1.0241  0.5739 -0.3627
  524TMC3    C1 7777   0.594   3.966   9.440  0.0475 -0.2100 -0.3596
  524TMC3    C2 7778   0.523   3.927   9.327 -0.4565  0.0668 -0.9981
  524TMC3    C3 7779   0.458   4.023   9.256 -0.4333  0.5223 -0.8331
  524TMC3    C4 7780   0.584   4.095   9.486 -0.1736 -0.1152 -0.7002
  524TMC3    C5 7781   0.508   4.182   9.419 -0.6151  0.4034  0.0392
  524TMC3    C6 7782   0.444   4.151   9.301 -0.0795 -0.0389  0.2797
  524TMC3     C 7783   0.679   3.872   9.511 -0.1212 -0.2902 -0.1492
  524TMC3     O 7784   0.664   3.752   9.511 -0.0415  0.7437  0.0207
  524TMC3     H 7785   0.542   3.836   9.271 -3.0566 -1.2284  0.2254
  524TMC3    H1 7786   0.619   4.119   9.586 -0.5563 -1.0821 -0.3362
  524TMC3    H2 7787   0.381   4.224   9.252  0.2199 -0.2963 -0.4877
  524TMC3    C7 7788   0.479   4.309   9.489  0.4489  0.3931 -0.3405
  524TMC3    C8 7789   0.393   3.999   9.135  0.2559  0.3236  0.0622
  524TMC3    O1 7790   0.540   4.344   9.585 -0.2604  0.4136 -0.4837
  524TMC3    O2 7791   0.357   4.096   9.071  0.6306  0.0373  0.6846
  525MPD2     C 7792   3.276   1.505  14.403 -0.0570  0.1904  0.6138
  525MPD2    C1 7793   3.378   1.531  14.497 -0.1532  0.4013  0.0280
  525MPD2    C2 7794   3.447   1.651  14.492 -0.6052  0.5913 -0.6968
  525MPD2    C3 7795   3.416   1.749  14.392 -0.5529  0.6131 -0.2696
  525MPD2    C4 7796   3.321   1.720  14.292 -0.7211  0.2509 -0.0874
  525MPD2    C5 7797   3.255   1.598  14.299 -0.6219  0.2110 -0.0207
  525MPD2     H 7798   3.530   1.664  14.560  0.6948 -2.2199 -1.7284
  525MPD2    H1 7799   3.292   1.789  14.214 -3.1449  0.6522  1.1797
  525MPD2    H2 7800   3.207   1.421  14.400 -1.2813  1.2075 -0.2469
  525MPD2    H3 7801   3.177   1.582  14.225  0.9324 -1.6923 -1.2327
  525MPD2     N 7802   3.462   1.883  14.401 -0.0089 -0.4660 -0.8120
  525MPD2    H5 7803   3.408   1.947  14.343 -1.3323  0.8237  1.8648
  525MPD2    N1 7804   3.411   1.443  14.599  0.6860  0.3458 -0.3112
  525MPD2    H7 7805   3.477   1.474  14.670  1.7726 -0.2077 -1.0793
  526TMC3    C1 7806   3.407   1.262  14.739 -0.2535  0.3025  0.3036
  526TMC3    C2 7807   3.335   1.223  14.844  0.8726 -0.4920  0.4817
  526TMC3    C3 7808   3.403   1.161  14.947  1.1382  0.0577  0.1509
  526TMC3    C4 7809   3.536   1.242  14.719 -0.0927 -1.1756  0.3988
  526TMC3    C5 7810   3.603   1.187  14.824  0.2226 -0.1968 -0.2251
  526TMC3    C6 7811   3.544   1.148  14.939  0.0265  0.4933  0.6661
  526TMC3     C 7812   3.329   1.348  14.654 -0.7309  0.1617  0.7216
  526TMC3     O 7813   3.205   1.340  14.651  0.1500  0.0085 -0.2262
  526TMC3     H 7814   3.230   1.244  14.862  2.0519  3.5665  2.5953
  526TMC3    H1 7815   3.589   1.273  14.629  0.0165 -1.4687  0.3636
  526TMC3    H2 7816   3.599   1.103  15.022  0.9190 -0.2384 -0.3185
  526TMC3    C7 7817   3.743   1.153  14.814 -0.3115  0.4566  0.2162
  526TMC3    C8 7818   3.369   1.191  15.084 -0.1248 -0.8284 -0.1826
  526TMC3    O1 7819   3.774   1.037  14.836  0.2315  0.4923 -0.0989
  526TMC3    O2 7820   3.456   1.231  15.157 -0.4827 -0.6203  0.3255
  527MPD2     C 7821   1.110   4.325   1.176  0.4298  0.5347 -0.0335
  527MPD2    C1 7822   1.158   4.216   1.243 -0.2524  0.4351  0.3976
  527MPD2    C2 7823   1.268   4.155   1.200  0.5503  0.4782 -0.5518
  527MPD2    C3 7824   1.342   4.198   1.091 -0.2778 -0.3219 -0.3128
  527MPD2    C4 7825   1.297   4.309   1.022  0.7319  0.0203  0.6935
  527MPD2    C5 7826   1.183   4.365   1.066 -0.5014  0.7113 -0.2161
  527MPD2     H 7827   1.300   4.067   1.255  2.8311  1.4979 -0.2565
  527MPD2    H1 7828   1.334   4.350   0.929 -1.0180  2.7542  1.1842
  527MPD2    H2 7829   1.029   4.385   1.217  0.0078  0.1131 -0.2562
  527MPD2    H3 7830   1.156   4.451   1.005  0.6608  0.3698 -1.2146
  527MPD2     N 7831   1.445   4.113   1.042 -0.3915 -0.7655  0.0750
  527MPD2    H5 7832   1.464   4.026   1.090 -1.0417 -0.7931  0.2934
  527MPD2    N1 7833   1.106   4.163   1.359 -0.2892 -0.5010 -0.4043
  527MPD2    H7 7834   1.160   4.083   1.392 -2.4575 -1.0998  1.6609
  528TMC3    C1 7835   0.962   4.110   1.528  0.3231  0.1963  0.1768
  528TMC3    C2 7836   1.063   4.039   1.582  0.3517 -0.3196 -0.0119
  528TMC3    C3 7837   1.031   3.929   1.664 -0.4052  0.1639  0.3161
  528TMC3    C4 7838   0.826   4.076   1.550 -0.2099 -0.3189 -0.3931
  528TMC3    C5 7839   0.801   3.975   1.637 -0.1721 -0.1559  0.3137
  528TMC3    C6 7840   0.902   3.898   1.686 -0.0978  0.0837  0.2875
  528TMC3     C 7841   0.992   4.202   1.426 -0.6508  0.2477 -0.6641
  528TMC3     O 7842   0.912   4.291   1.396 -0.2712 -0.1312 -0.7621
  528TMC3     H 7843   1.166   4.072   1.575 -0.6294  2.7444  0.1290
  528TMC3    H1 7844   0.741   4.127   1.507 -1.1692 -0.1006  1.7640
  528TMC3    H2 7845   0.885   3.818   1.758  0.4950 -1.5539 -1.3968
  528TMC3    C7 7846   0.661   3.943   1.663 -0.0037 -0.3078 -0.4035
  528TMC3    C8 7847   1.146   3.865   1.729 -0.0877 -0.1865 -0.7030
  528TMC3    O1 7848   0.576   3.998   1.596 -0.5797 -0.0114  0.0841
  528TMC3    O2 7849   1.257   3.887   1.683  0.1143 -0.0021  0.1793
  529MPD2     C 7850   3.873   1.819   0.621  0.5546  0.3701  0.3278
  529MPD2    C1 7851   3.949   1.901   0.703 -1.1405  0.5578  0.0529
  529MPD2    C2 7852   4.000   2.015   0.647 -0.3548  0.0466  0.1955
  529MPD2    C3 7853   3.983   2.051   0.512  0.9222  0.2072 -1.1506
  529MPD2    C4 7854   3.907   1.964   0.437  0.2796 -0.3596 -0.4290
  529MPD2    C5 7855   3.860   1.850   0.490 -0.7604  0.3685  0.1206
  529MPD2     H 7856   4.044   2.093   0.709 -0.8760 -1.0913  1.9870
  529MPD2    H1 7857   3.896   1.979   0.331 -2.2742  0.0587 -0.1098
  529MPD2    H2 7858   3.821   1.730   0.653 -1.0845  1.3440  0.3467
  529MPD2    H3 7859   3.801   1.787   0.425  0.4297 -1.2251  0.5756
  529MPD2     N 7860   4.018   2.175   0.457  0.7019 -0.3731  0.5659
  529MPD2    H5 7861   3.957   2.206   0.382 -0.3690 -0.5102  1.3792
  529MPD2    N1 7862   3.967   1.874   0.842  0.6498 -0.5139  0.7042
  529MPD2    H7 7863   4.026   1.938   0.894  0.4712  0.1787  0.0517
  530TMC3    C1 7864   3.978   1.729   1.035 -0.5510 -0.1277  0.2223
  530TMC3    C2 7865   4.089   1.793   1.081  0.7452 -0.4033 -0.2834
  530TMC3    C3 7866   4.147   1.757   1.205 -0.0789 -0.4011 -0.0564
  530TMC3    C4 7867   3.929   1.623   1.104  1.0352 -0.0245 -0.7164
  530TMC3    C5 7868   3.983   1.598   1.225  0.3158  0.1738  0.8062
  530TMC3    C6 7869   4.092   1.664   1.287  0.2167 -0.0979  0.1990
  530TMC3     C 7870   3.913   1.767   0.906  0.4971 -0.5682  0.6465
  530TMC3     O 7871   3.815   1.704   0.876  0.2071  0.6057 -0.0522
  530TMC3     H 7872   4.138   1.870   1.022  1.2100  1.0114  1.9573
  530TMC3    H1 7873   3.845   1.566   1.068  0.4915  1.5748 -1.9865
  530TMC3    H2 7874   4.117   1.660   1.392 -2.5683  2.2639  0.9449
  530TMC3    C7 7875   3.901   1.515   1.312  0.2737  0.9688  0.0514
  530TMC3    C8 7876   4.253   1.841   1.245 -0.4509 -0.0952 -0.0030
  530TMC3    O1 7877   3.954   1.429   1.377 -0.0351 -0.0692 -0.4031
  530TMC3    O2 7878   4.269   1.946   1.187  0.1387  0.1808  0.5404
  531MPD2     C 7879   2.572   0.629  13.733 -0.4280 -0.5932 -0.6300
  531MPD2    C1 7880   2.701   0.661  13.694  0.1303 -0.2642  0.1382
  531MPD2    C2 7881   2.727   0.685  13.557  0.3711 -0.2146  0.2535
  531MPD2    C3 7882   2.622   0.674  13.466  0.6699 -0.0473  0.3331
  531MPD2    C4 7883   2.499   0.638  13.508  0.2112 -0.3119 -0.1836
  531MPD2    C5 7884   2.469   0.631  13.639  1.0164  0.7278  0.3797
  531MPD2     H 7885   2.828   0.712  13.529  0.4300 -2.0440 -1.3466
  531MPD2    H1 7886   2.411   0.640  13.444  0.5691 -3.7399 -0.7556
  531MPD2    H2 7887   2.536   0.614  13.834  1.0452 -0.8219 -0.1290
  531MPD2    H3 7888   2.365   0.625  13.670  1.2911 -1.3254  0.8980
  531MPD2     N 7889   2.648   0.685  13.322  0.1467  0.5124 -0.3570
  531MPD2    H5 7890   2.571   0.652  13.265  0.3309 -1.9449  0.8105
  531MPD2    N1 7891   2.799   0.636  13.787  0.2121  0.3659  0.0563
  531MPD2    H7 7892   2.768   0.616  13.882  0.1866 -1.4168 -0.3276
  532TMC3    C1 7893   3.012   0.560  13.853  0.4470  0.3573  0.0439
  532TMC3    C2 7894   2.936   0.442  13.843 -0.1107  0.0163  0.1365
  532TMC3    C3 7895   2.970   0.340  13.756  1.0965  0.5222  0.2981
  532TMC3    C4 7896   3.142   0.554  13.803 -0.1399 -0.1952  0.6172
  532TMC3    C5 7897   3.171   0.454  13.716  0.0028  0.3655  0.0502
  532TMC3    C6 7898   3.082   0.348  13.684 -0.6819  0.8439  0.0651
  532TMC3     C 7899   2.938   0.663  13.777 -0.3436  0.2808  0.8999
  532TMC3     O 7900   3.002   0.716  13.687 -0.1511  0.2998  0.5246
  532TMC3     H 7901   2.845   0.425  13.900 -0.4117  1.8305  0.1760
  532TMC3    H1 7902   3.201   0.645  13.798  0.7623 -0.8649 -0.8962
  532TMC3    H2 7903   3.122   0.266  13.625 -1.9077 -1.3166  2.2649
  532TMC3    C7 7904   3.314   0.443  13.678  0.1989  0.5152 -1.1800
  532TMC3    C8 7905   2.854   0.279  13.688 -0.3763  0.4623  0.0339
  532TMC3    O1 7906   3.400   0.495  13.744  0.6418 -0.9210  0.2692
  532TMC3    O2 7907   2.746   0.268  13.744 -0.0702 -0.3629  0.3730
  533TMC3    C1 7908   3.566   2.065  14.484 -0.0995  0.1288  0.4905
  533TMC3    C2 7909   3.694   2.118  14.508  1.3131  0.6346  0.9603
  533TMC3    C3 7910   3.688   2.235  14.570  0.0410  0.4358  0.6523
  533TMC3    C4 7911   3.451   2.106  14.548 -0.5405  0.0772 -0.6161
  533TMC3    C5 7912   3.464   2.203  14.637  0.1567 -0.1291 -0.0246
  533TMC3    C6 7913   3.577   2.269  14.646  0.8461  0.2042  0.3191
  533TMC3     C 7914   3.571   1.926  14.469  0.5647 -0.3099  0.0374
  533TMC3     O 7915   3.662   1.866  14.518 -0.0243  0.1471  0.0236
  533TMC3     H 7916   3.785   2.087  14.458  0.3044 -0.9891  0.1078
  533TMC3    H1 7917   3.359   2.048  14.542 -0.7149  0.2600  0.3053
  533TMC3    H2 7918   3.578   2.363  14.699  1.2609 -0.1265  0.9017
  533TMC3    C7 7919   3.395   2.180  14.768 -0.2613  0.4049 -0.6888
  533TMC3    C8 7920   3.813   2.290  14.615  0.5732 -0.3016 -0.0232
  533TMC3    O1 7921   3.305   2.098  14.769  0.5302 -0.4699 -0.4717
  533TMC3    O2 7922   3.815   2.331  14.731  0.7617  0.6266 -0.8102
  534MPD2     C 7923   0.896   2.927   1.783  0.3800 -0.1135  0.5692
  534MPD2    C1 7924   0.931   2.986   1.659 -0.5817  0.6294 -0.4490
  534MPD2    C2 7925   0.875   2.938   1.541  0.3563 -0.0523 -1.1611
  534MPD2    C3 7926   0.792   2.832   1.537 -0.3782 -0.3346 -0.2698
  534MPD2    C4 7927   0.761   2.781   1.660 -0.5993  0.3201 -0.3132
  534MPD2    C5 7928   0.807   2.824   1.780 -0.0788  0.0493 -0.3160
  534MPD2     H 7929   0.906   2.984   1.448  0.2015 -0.7084 -1.5398
  534MPD2    H1 7930   0.693   2.697   1.670  0.5746 -0.3181  2.4200
  534MPD2    H2 7931   0.939   2.963   1.875 -1.4692  2.4520  0.4538
  534MPD2    H3 7932   0.779   2.772   1.871 -0.7486  2.2655  0.7286
  534MPD2     N 7933   0.752   2.773   1.416  0.2750 -0.1675 -0.1340
  534MPD2    H5 7934   0.805   2.803   1.335  0.3861  1.2900  0.4772
  534MPD2    N1 7935   1.015   3.099   1.649  0.4788 -0.1445  0.2593
  534MPD2    H7 7936   1.028   3.142   1.558  1.4554  0.2914  0.6100
  535TMC3    C1 7937   0.672   2.603   1.278 -0.1469 -0.4958  0.9845
  535TMC3    C2 7938   0.596   2.492   1.281 -0.0954  0.3797 -0.6704
  535TMC3    C3 7939   0.635   2.389   1.203  0.1432 -0.4821  0.2197
  535TMC3    C4 7940   0.787   2.602   1.207  0.2881 -0.3639 -0.4769
  535TMC3    C5 7941   0.815   2.503   1.119 -0.9368 -0.2976 -0.0582
  535TMC3    C6 7942   0.740   2.390   1.112  0.7971  0.2282  0.2897
  535TMC3     C 7943   0.661   2.673   1.405 -0.0236 -0.2424  0.6241
  535TMC3     O 7944   0.574   2.644   1.488  0.6149 -0.6874 -0.3204
  535TMC3     H 7945   0.503   2.486   1.337 -0.7368  1.6305 -1.6032
  535TMC3    H1 7946   0.844   2.694   1.208  0.3067 -0.3668 -2.1702
  535TMC3    H2 7947   0.772   2.299   1.063 -1.2421 -1.4138  2.0135
  535TMC3    C7 7948   0.922   2.516   1.014  0.0362 -0.1819  0.2678
  535TMC3    C8 7949   0.550   2.270   1.228  0.5064 -0.2085 -0.5169
  535TMC3    O1 7950   0.918   2.450   0.913  0.4419  0.2373 -0.0680
  535TMC3    O2 7951   0.530   2.187   1.141  0.4529 -0.5160 -0.7640
  536MPD2     C 7952   4.612   1.203  16.459  0.1502 -0.3200 -0.5540
  536MPD2    C1 7953   4.718   1.229  16.538  0.1570  0.0116  0.4155
  536MPD2    C2 7954   0.084   1.318  16.481  0.1365  0.0194 -0.2413
  536MPD2    C3 7955   0.064   1.377  16.355  0.2927  0.3305  0.0279
  536MPD2    C4 7956   4.682   1.341  16.281  0.2137 -0.5150 -0.2528
  536MPD2    C5 7957   4.592   1.254  16.335 -0.2709 -0.2096  0.4056
  536MPD2     H 7958   0.175   1.339  16.535  2.5422 -2.2078 -3.4042
  536MPD2    H1 7959   4.663   1.367  16.177 -1.0755  2.7626  0.7892
  536MPD2    H2 7960   4.545   1.128  16.501  1.7972 -2.6821 -2.1524
  536MPD2    H3 7961   4.503   1.225  16.280  0.0009  1.0065 -0.6868
  536MPD2     N 7962   0.152   1.466  16.291 -0.2615  0.5259  0.4465
  536MPD2    H5 7963   0.124   1.504  16.201 -4.3654  0.6066  1.7571
  536MPD2    N1 7964   0.002   1.156  16.659  0.2589  0.3848  0.7969
  536MPD2    H7 7965   4.651   1.095  16.679  0.3187 -0.0335 -0.2243
  537TMC3    C1 7966   0.095   1.092  16.859 -0.9506  0.5513 -0.5847
  537TMC3    C2 7967   0.181   1.127  16.959  0.3653  0.1569 -0.0432
  537TMC3    C3 7968   0.203   1.032  17.057  0.1263 -0.7575 -0.0698
  537TMC3    C4 7969   0.046   0.959  16.850 -0.0970 -0.0390 -0.7286
  537TMC3    C5 7970   0.079   0.862  16.945 -0.4050 -0.1860 -0.6136
  537TMC3    C6 7971   0.162   0.898  17.052 -0.2701 -0.2380  0.4998
  537TMC3     C 7972   0.104   1.173  16.746 -0.2937  0.6584 -0.1131
  537TMC3     O 7973   0.203   1.246  16.738  0.0770  0.0731 -0.3843
  537TMC3     H 7974   0.215   1.230  16.959  1.1898 -0.1133  0.3259
  537TMC3    H1 7975   4.699   0.928  16.778 -0.4311  0.3306 -0.5426
  537TMC3    H2 7976   0.199   0.836  17.133 -1.2818 -1.6834 -0.1565
  537TMC3    C7 7977   4.716   0.745  16.956  0.1061 -0.1309 -0.3759
  537TMC3    C8 7978   0.295   1.063  17.167 -0.1542  0.4923 -0.5435
  537TMC3    O1 7979   4.628   0.723  16.874  0.2630 -0.1697  0.1055
  537TMC3    O2 7980   0.356   0.973  17.227  0.1541  0.8340  0.4721
  538TMC3    C1 7981   1.379   4.323  11.027 -0.1019  0.2309  0.1999
  538TMC3    C2 7982   1.416   4.207  10.965  0.1472  0.5152  0.1017
  538TMC3    C3 7983   1.365   4.181  10.842  0.9105 -0.3482  0.0010
  538TMC3    C4 7984   1.310   4.416  10.961  0.5298  0.0174  0.1261
  538TMC3    C5 7985   1.276   4.392  10.832  0.1031  0.5153  0.3912
  538TMC3    C6 7986   1.300   4.276  10.764  0.3216  0.0102  0.8302
  538TMC3     C 7987   1.437   4.366  11.155  0.0174  0.7294 -0.2772
  538TMC3     O 7988   1.389   4.464  11.217 -0.2453  0.2896  0.0653
  538TMC3     H 7989   1.473   4.138  11.026 -2.0673 -1.4435 -0.0742
  538TMC3    H1 7990   1.286   4.512  11.005 -0.6097 -0.0806 -0.2964
  538TMC3    H2 7991   1.271   4.256  10.662 -1.7463 -1.2318  1.6561
  538TMC3    C7 7992   1.197   4.482  10.752  0.1977  0.5970 -0.4936
  538TMC3    C8 7993   1.412   4.062  10.776  0.1479  0.3397  0.0480
  538TMC3    O1 7994   1.132   4.424  10.665 -0.0291 -0.2822 -0.3615
  538TMC3    O2 7995   1.362   4.034  10.668  0.2326  0.0046 -0.1385
  539MPD2     C 7996   1.585   3.857  11.544  0.1568  0.3687 -0.3499
  539MPD2    C1 7997   1.506   3.799  11.447  0.1263  0.2472 -0.6601
  539MPD2    C2 7998   1.403   3.874  11.389 -0.2276  0.1861  0.3451
  539MPD2    C3 7999   1.377   3.999  11.442  0.7726  0.2603  0.0502
  539MPD2    C4 8000   1.442   4.049  11.549 -0.8647  0.6750 -0.3570
  539MPD2    C5 8001   1.550   3.976  11.589  0.7715  0.7089 -0.7571
  539MPD2     H 8002   1.345   3.830  11.309 -1.8523  0.1090  1.5526
  539MPD2    H1 8003   1.414   4.138  11.604 -1.3501  0.7300 -0.6941
  539MPD2    H2 8004   1.662   3.794  11.586  1.8524  2.9832  0.4316
  539MPD2    H3 8005   1.606   4.015  11.673  2.9471  1.4236 -2.5492
  539MPD2     N 8006   1.272   4.078  11.386 -0.0783 -0.0082 -0.0377
  539MPD2    H5 8007   1.231   4.147  11.447 -0.1961 -0.4595  0.3969
  539MPD2    N1 8008   1.535   3.666  11.414  0.0908 -0.2310  0.7128
  539MPD2    H7 8009   1.628   3.636  11.441 -0.4330 -2.6073 -0.1645
  540TMC3    C1 8010   1.095   4.134  11.249  0.1612  0.9578  0.7993
  540TMC3    C2 8011   1.039   4.149  11.125  0.1553  0.4475 -0.8528
  540TMC3    C3 8012   0.911   4.204  11.124  1.0785  0.4740  0.7339
  540TMC3    C4 8013   1.024   4.150  11.369 -0.0424  0.0977  0.1419
  540TMC3    C5 8014   0.896   4.198  11.355  0.1209  0.1191  0.1148
  540TMC3    C6 8015   0.840   4.225  11.235 -0.3296 -0.8432  0.0286
  540TMC3     C 8016   1.224   4.069  11.260  0.0725 -0.5669  0.0752
  540TMC3     O 8017   1.275   4.026  11.155  0.0965 -0.4823  0.0020
  540TMC3     H 8018   1.092   4.130  11.032  3.4430  0.8325  0.9523
  540TMC3    H1 8019   1.053   4.121  11.469 -0.3458  1.0881  0.5214
  540TMC3    H2 8020   0.741   4.270  11.238 -1.0302 -2.3329 -1.0700
  540TMC3    C7 8021   0.820   4.223  11.479 -0.2754  0.3724  0.2382
  540TMC3    C8 8022   0.858   4.213  10.989 -0.1410  0.2502 -1.0011
  540TMC3    O1 8023   0.703   4.197  11.485  0.1726  0.1312  0.6989
  540TMC3    O2 8024   0.823   4.317  10.938  0.0542 -0.5057 -0.0047
  541MPD2     C 8025   4.219   0.532  13.442 -0.4944  0.1650 -0.2093
  541MPD2    C1 8026   4.126   0.453  13.378 -0.2465  0.4081 -0.0288
  541MPD2    C2 8027   4.100   0.481  13.244 -0.3637  0.1711  0.5149
  541MPD2    C3 8028   4.151   0.594  13.183 -0.5624  0.6676 -0.7445
  541MPD2    C4 8029   4.243   0.677  13.247  0.1512  0.3496  0.2550
  541MPD2    C5 8030   4.278   0.639  13.374 -0.2760  0.3690  0.3083
  541MPD2     H 8031   4.022   0.427  13.192  0.2195 -0.1806 -0.0009
  541MPD2    H1 8032   4.298   0.750  13.189  0.1353  0.1781  0.0262
  541MPD2    H2 8033   4.265   0.509  13.537  1.0313  1.2147 -0.7014
  541MPD2    H3 8034   4.358   0.689  13.429  0.0121  0.3650 -0.1109
  541MPD2     N 8035   4.117   0.619  13.047 -0.2671 -0.2980  0.3018
  541MPD2    H5 8036   4.163   0.698  13.004  0.2769 -0.3358  0.8020
  541MPD2    N1 8037   4.056   0.344  13.444  0.9956 -0.0522  0.2508
  541MPD2    H7 8038   3.993   0.288  13.387  0.2155  3.5710 -2.4123
  542TMC3    C1 8039   4.019   0.600  12.827  0.2267 -0.2412 -0.3760
  542TMC3    C2 8040   3.998   0.528  12.718 -0.2514 -0.9370 -0.5108
  542TMC3    C3 8041   3.958   0.594  12.596  0.1455  0.5940 -0.0803
  542TMC3    C4 8042   4.004   0.733  12.820  0.0956  0.2806 -0.1047
  542TMC3    C5 8043   3.950   0.791  12.707  1.0051  0.3111 -1.1128
  542TMC3    C6 8044   3.934   0.724  12.590  0.3562 -0.2462 -0.8255
  542TMC3     C 8045   4.047   0.538  12.959 -0.5308 -0.4341  0.2361
  542TMC3     O 8046   4.029   0.420  12.967 -0.0551 -0.2398 -0.5726
  542TMC3     H 8047   4.016   0.421  12.728  1.0684 -0.5475  1.4224
  542TMC3    H1 8048   3.994   0.789  12.912  0.6478  0.0643  0.0907
  542TMC3    H2 8049   3.917   0.775  12.496  0.3134 -1.2820 -1.3802
  542TMC3    C7 8050   3.950   0.934  12.692  0.3559  0.1244 -0.3168
  542TMC3    C8 8051   4.014   0.555  12.471 -0.3989 -1.4764  0.0883
  542TMC3    O1 8052   3.865   0.970  12.615  0.1577 -0.2783  0.1204
  542TMC3    O2 8053   3.959   0.607  12.375 -0.0431  0.3008 -0.8587
  543TMC3    C1 8054   3.688   1.557  17.395 -0.0318  0.3241  0.0375
  543TMC3    C2 8055   3.688   1.427  17.443 -0.1571  0.8115  0.1572
  543TMC3    C3 8056   3.606   1.403  17.548 -0.4277 -0.0553 -0.2585
  543TMC3    C4 8057   3.622   1.659  17.445  0.4818 -0.0646  0.0583
  543TMC3    C5 8058   3.544   1.631  17.555  0.0144  0.1883  0.8012
  543TMC3    C6 8059   3.537   1.506  17.605 -0.3018 -0.0475  0.1226
  543TMC3     C 8060   3.762   1.573  17.270 -0.6532  0.0217 -0.2964
  543TMC3     O 8061   3.834   1.484  17.241 -0.3467 -0.0351 -0.2535
  543TMC3     H 8062   3.728   1.339  17.394  2.4431  0.5207  2.7998
  543TMC3    H1 8063   3.635   1.759  17.404 -0.7346 -0.8261 -2.2105
  543TMC3    H2 8064   3.459   1.485  17.677 -0.7517 -1.3999 -0.7579
  543TMC3    C7 8065   3.470   1.741  17.614 -0.2290  0.1285  1.1245
  543TMC3    C8 8066   3.571   1.261  17.578 -0.0343 -0.4157 -0.0648
  543TMC3    O1 8067   3.378   1.711  17.690  0.2683  0.0962 -0.3723
  543TMC3    O2 8068   3.593   1.170  17.499 -0.4870  0.5699 -1.2079
  544MPD2     C 8069   3.326   0.920   0.166 -0.2066  0.6896  0.0648
  544MPD2    C1 8070   3.398   0.896   0.053 -0.0909 -0.4888  0.2428
  544MPD2    C2 8071   3.447   1.002  17.696  0.1043 -0.8721  0.0919
  544MPD2    C3 8072   3.437   1.134   0.035 -0.3830 -0.1496 -0.2544
  544MPD2    C4 8073   3.378   1.149   0.158  0.7146 -0.3019 -0.2805
  544MPD2    C5 8074   3.317   1.045   0.217  0.2067 -0.0743  0.9126
  544MPD2     H 8075   3.497   0.991  17.600  0.0014  0.7614 -0.1459
  544MPD2    H1 8076   3.355   1.246   0.200 -0.8679 -1.2524  1.0688
  544MPD2    H2 8077   3.269   0.841   0.213  0.1322 -0.6265 -1.6881
  544MPD2    H3 8078   3.248   1.061   0.299 -1.2417 -1.9925  0.0469
  544MPD2     N 8079   3.494   1.251  17.691  0.0326  0.3261 -0.3814
  544MPD2    H5 8080   3.469   1.333   0.035  0.3074 -0.1804  0.5030
  544MPD2    N1 8081   3.398   0.766  17.702  0.1879  0.0338 -0.2253
  544MPD2    H7 8082   3.342   0.693   0.034 -0.6862 -0.3061 -1.9673
  545TMC3    C1 8083   3.484   0.573  17.606 -0.5892  0.6158  0.0767
  545TMC3    C2 8084   3.365   0.510  17.572  0.0299 -0.6195 -0.7229
  545TMC3    C3 8085   3.367   0.388  17.513 -0.2966 -0.2337 -1.2819
  545TMC3    C4 8086   3.600   0.507  17.582 -0.5637  0.6958 -0.7317
  545TMC3    C5 8087   3.598   0.386  17.522  0.0617 -0.4440 -0.3952
  545TMC3    C6 8088   3.480   0.327  17.485  0.2877 -0.3401  0.1726
  545TMC3     C 8089   3.486   0.721  17.609 -0.0962  0.3959 -0.0588
  545TMC3     O 8090   3.588   0.770  17.568  0.4139 -0.0842 -0.0065
  545TMC3     H 8091   3.268   0.554  17.588  0.0263 -1.4558  1.6214
  545TMC3    H1 8092   3.686   0.562  17.619  0.7618 -0.7504 -1.6596
  545TMC3    H2 8093   3.472   0.231  17.435  3.3764 -0.5616  0.0754
  545TMC3    C7 8094   3.726   0.311  17.500  1.0372 -0.3448 -0.3297
  545TMC3    C8 8095   3.250   0.358  17.431 -0.7090 -0.1915  0.5552
  545TMC3    O1 8096   3.726   0.187  17.489 -0.5719  0.0756 -0.3723
  545TMC3    O2 8097   3.147   0.334  17.493  0.8935 -0.5609  0.3212
  546MPD2     C 8098   0.383   1.699   0.021 -0.0013  0.7552  0.2530
  546MPD2    C1 8099   0.290   1.698  17.621  0.1148 -0.8340  0.2715
  546MPD2    C2 8100   0.304   1.793  17.522 -0.0649  0.5620 -0.4678
  546MPD2    C3 8101   0.396   1.895  17.530  0.4599 -0.1006  0.0773
  546MPD2    C4 8102   0.475   1.904  17.642 -0.3880  0.3446  0.0173
  546MPD2    C5 8103   0.465   1.808   0.034  0.1912 -0.0742  0.3318
  546MPD2     H 8104   0.241   1.782  17.435  0.5441 -0.6548 -0.7419
  546MPD2    H1 8105   0.547   1.985  17.649 -0.8612  0.7065  0.7022
  546MPD2    H2 8106   0.368   1.624   0.098  1.4467 -0.0756 -0.2668
  546MPD2    H3 8107   0.520   1.820   0.127 -2.4455  3.0747  1.5177
  546MPD2     N 8108   0.414   1.982  17.422  0.6211 -0.0482  0.5618
  546MPD2    H5 8109   0.488   2.052  17.429 -1.9961  2.8755 -1.0689
  546MPD2    N1 8110   0.197   1.594  17.617 -0.3315 -0.7283  0.1697
  546MPD2    H7 8111   0.211   1.523  17.687 -1.2800 -0.1457  0.9480
  547TMC3    C1 8112   0.065   1.423  17.535  0.0517  0.2457 -0.1109
  547TMC3    C2 8113   0.047   1.342  17.423  0.8086  0.0556 -0.1057
  547TMC3    C3 8114   0.044   1.204  17.442  0.8680  0.5471  0.6729
  547TMC3    C4 8115   0.072   1.370  17.657  0.1406 -0.9098  0.4486
  547TMC3    C5 8116   0.069   1.232  17.670  0.4786 -0.5785 -0.2810
  547TMC3    C6 8117   0.063   1.144  17.565 -0.2743  0.2964  0.0139
  547TMC3     C 8118   0.107   1.561  17.521  0.0510 -0.4951  0.0687
  547TMC3     O 8119   0.059   1.620  17.426  0.2136  0.2922 -0.2815
  547TMC3     H 8120   0.068   1.388  17.328 -0.4017  0.9564  0.0531
  547TMC3    H1 8121   0.073   1.435   0.034  0.8355 -1.8355  1.1288
  547TMC3    H2 8122   0.066   1.036  17.578 -2.1113  0.2551  0.0668
  547TMC3    C7 8123   0.045   1.182   0.093  0.0112  0.1470  0.2667
  547TMC3    C8 8124   4.711   1.121  17.342 -0.6177 -0.2443 -0.2735
  547TMC3    O1 8125   4.719   1.258   0.171 -0.7088 -0.5315  0.0914
  547TMC3    O2 8126   4.710   0.999  17.367  0.8218 -0.4204  0.3732
  548MPD2     C 8127   0.254   2.493  12.270  0.3530 -0.2496 -0.4937
  548MPD2    C1 8128   0.239   2.379  12.339  0.1479  1.0725  0.4709
  548MPD2    C2 8129   0.327   2.270  12.312 -0.0247  0.3465  0.1969
  548MPD2    C3 8130   0.434   2.285  12.230 -0.2551  0.6921  0.1116
  548MPD2    C4 8131   0.445   2.408  12.157  0.1774  0.9115 -0.1576
  548MPD2    C5 8132   0.353   2.512  12.184  0.0455  0.0722  0.4222
  548MPD2     H 8133   0.309   2.173  12.358  0.3554 -0.4750 -1.3811
  548MPD2    H1 8134   0.523   2.423  12.082  1.2932 -0.6472  0.6728
  548MPD2    H2 8135   0.183   2.573  12.288  0.6652 -0.1961  0.4888
  548MPD2    H3 8136   0.362   2.598  12.117 -0.4823  0.9959  1.5405
  548MPD2     N 8137   0.521   2.177  12.215  0.1083 -0.0328  0.2801
  548MPD2    H5 8138   0.500   2.091  12.265 -0.5201 -0.9264 -1.5236
  548MPD2    N1 8139   0.127   2.360  12.418  0.3623 -0.5874  0.0219
  548MPD2    H7 8140   0.055   2.430  12.402 -0.5435 -1.1119  1.8247
  549TMC3    C1 8141   4.688   2.261  12.558  0.8069 -0.5678 -0.1093
  549TMC3    C2 8142   4.623   2.375  12.589 -0.5696  0.1062 -0.1825
  549TMC3    C3 8143   4.503   2.362  12.642  0.0963  0.0604 -0.2719
  549TMC3    C4 8144   4.647   2.145  12.617 -0.0452 -0.1749  0.4692
  549TMC3    C5 8145   4.540   2.144  12.697 -0.1822  0.1146  0.0954
  549TMC3    C6 8146   4.459   2.249  12.706 -0.0774 -0.4184 -1.1913
  549TMC3     C 8147   0.097   2.260  12.505 -0.2928 -0.2533 -0.1713
  549TMC3     O 8148   0.162   2.162  12.533 -0.1193  0.1201  0.5005
  549TMC3     H 8149   4.664   2.468  12.550  0.1320 -0.8361 -1.6871
  549TMC3    H1 8150   4.700   2.052  12.600 -0.1949 -0.2670  0.5132
  549TMC3    H2 8151   4.367   2.242  12.762  0.8737 -0.6111  0.3509
  549TMC3    C7 8152   4.526   2.033  12.786  0.8764  0.2644  0.2916
  549TMC3    C8 8153   4.412   2.474  12.626  0.0261 -0.3935  0.2271
  549TMC3    O1 8154   4.496   2.065  12.904  0.0514  0.4944  0.0212
  549TMC3    O2 8155   4.292   2.462  12.626 -0.0139 -0.1982  0.7014
  550TMC3    C1 8156   3.779   0.263  12.459  0.4029  0.0635 -0.2992
  550TMC3    C2 8157   3.738   0.214  12.576 -0.5178 -0.0925 -0.4898
  550TMC3    C3 8158   3.598   0.196  12.592  0.2760  0.2979 -0.3475
  550TMC3    C4 8159   3.697   0.302  12.355  0.3484 -1.1290  0.2495
  550TMC3    C5 8160   3.564   0.302  12.382 -0.1431 -0.3132 -0.1441
  550TMC3    C6 8161   3.511   0.242  12.497 -0.3938 -0.3421  0.1776
  550TMC3     C 8162   3.911   0.207  12.424 -0.2700  0.2574 -1.0297
  550TMC3     O 8163   4.000   0.212  12.513 -0.8155  0.2679  0.6123
  550TMC3     H 8164   3.815   0.210  12.652 -1.1732  0.6153  0.2196
  550TMC3    H1 8165   3.746   0.346  12.269 -2.3589  1.2260 -0.0345
  550TMC3    H2 8166   3.404   0.248  12.512 -0.5331 -2.4141 -0.0142
  550TMC3    C7 8167   3.472   0.353  12.277  0.1745 -0.2692 -0.0960
  550TMC3    C8 8168   3.539   0.214  12.729  0.2975 -0.5496  0.6367
  550TMC3    O1 8169   3.354   0.355  12.302  0.5102  0.5352 -0.0560
  550TMC3    O2 8170   3.418   0.231  12.738 -0.7644 -0.3909 -0.0535
  551TMC3    C1 8171   0.784   2.877  13.486 -0.3165  0.4127  0.0265
  551TMC3    C2 8172   0.868   2.907  13.382  0.1271 -0.5095 -0.0895
  551TMC3    C3 8173   0.945   3.022  13.376  0.2770  0.4302  0.1156
  551TMC3    C4 8174   0.787   2.950  13.602  0.1939 -0.4724  0.3457
  551TMC3    C5 8175   0.875   3.055  13.599  0.0019  0.3946 -0.4595
  551TMC3    C6 8176   0.948   3.100  13.492  0.0623 -0.3121  0.1878
  551TMC3     C 8177   0.675   2.780  13.471  0.3733  0.1462  0.2084
  551TMC3     O 8178   0.686   2.694  13.388 -0.2725 -0.4899  0.4219
  551TMC3     H 8179   0.875   2.832  13.303 -0.2895 -1.4574  0.7747
  551TMC3    H1 8180   0.748   2.907  13.693 -0.8018  0.7774  0.5184
  551TMC3    H2 8181   1.007   3.190  13.502 -0.4667  0.1150 -0.5891
  551TMC3    C7 8182   0.936   3.069  13.729  0.1359 -0.2270  0.3737
  551TMC3    C8 8183   1.035   3.046  13.256  0.1888 -0.2179  0.9254
  551TMC3    O1 8184   0.950   2.973  13.802  0.3642  0.0910  0.4558
  551TMC3    O2 8185   1.031   2.961  13.169 -0.1743 -0.2404 -0.3211
  552MPD2     C 8186   3.329   0.260  14.138 -0.3388 -0.4114  1.0530
  552MPD2    C1 8187   3.289   0.137  14.194 -0.1897 -1.0530 -0.2811
  552MPD2    C2 8188   3.348   0.098  14.311  1.0901  0.4129 -0.3799
  552MPD2    C3 8189   3.432   0.177  14.388 -0.0639  0.0744  0.5252
  552MPD2    C4 8190   3.459   0.302  14.342  0.2089 -0.0092 -0.0880
  552MPD2    C5 8191   3.412   0.343  14.218  0.8250 -0.2207  0.0689
  552MPD2     H 8192   3.331   0.003  14.360 -0.3775  1.4153  1.0854
  552MPD2    H1 8193   3.538   0.359  14.389 -0.3444 -0.1859  1.0613
  552MPD2    H2 8194   3.288   0.308  14.050  0.3220 -2.6961 -0.4993
  552MPD2    H3 8195   3.445   0.438  14.175 -0.4617 -0.4646 -1.4819
  552MPD2     N 8196   3.494   0.130  14.506  0.2006  0.3388 -0.8023
  552MPD2    H5 8197   3.567   0.186  14.551 -0.5869  0.8553 -0.1684
  552MPD2    N1 8198   3.207   0.045  14.120  0.1441 -0.0875  0.0419
  552MPD2    H7 8199   3.210   4.677  14.153 -2.3413 -0.3026 -0.3748
  553TMC3    C1 8200   3.094   4.692  13.928 -0.5807 -0.5079  0.3644
  553TMC3    C2 8201   3.073   4.718  13.794  0.1415  0.6337 -0.3624
  553TMC3    C3 8202   3.013   4.623  13.717  0.3178  0.4992 -0.6786
  553TMC3    C4 8203   3.054   4.566  13.974  0.3412  0.1048 -0.9235
  553TMC3    C5 8204   2.985   4.481  13.888 -0.2859 -0.4409 -0.0667
  553TMC3    C6 8205   2.965   4.503  13.761  0.0055  0.0192 -0.2164
  553TMC3     C 8206   3.147   0.075  13.999  0.4440  0.4017 -0.1702
  553TMC3     O 8207   3.133   0.184  13.950  0.5253 -0.2815  0.1362
  553TMC3     H 8208   3.132   0.069  13.748  1.0342 -0.8514 -1.7518
  553TMC3    H1 8209   3.063   4.547  14.080  1.1450 -1.2993 -1.2535
  553TMC3    H2 8210   2.926   4.421  13.702  0.9465  0.2835 -1.1890
  553TMC3    C7 8211   2.994   4.340  13.931  0.6776 -0.6876 -0.0714
  553TMC3    C8 8212   2.985   4.668  13.582 -0.5699 -0.2238 -0.1949
  553TMC3    O1 8213   2.925   4.256  13.872 -0.5603  0.2233 -0.0193
  553TMC3    O2 8214   3.069   0.021  13.543 -0.1333 -0.0650  0.5368
  554TMC3    C1 8215   0.230   3.680  11.751  0.6070 -0.3060  0.0392
  554TMC3    C2 8216   0.142   3.586  11.696  0.3026 -0.5250 -0.1837
  554TMC3    C3 8217   0.109   3.607  11.562  0.5739  0.9772 -0.5568
  554TMC3    C4 8218   0.282   3.787  11.683  0.4733  0.0667 -0.2140
  554TMC3    C5 8219   0.233   3.803  11.557 -0.3271  1.4409  0.5584
  554TMC3    C6 8220   0.151   3.714  11.495 -0.0280  1.0271  0.5014
  554TMC3     C 8221   0.269   3.673  11.890  0.3436  0.1458 -0.0159
  554TMC3     O 8222   0.337   3.768  11.930  0.6690 -0.0664  0.0674
  554TMC3     H 8223   0.111   3.496  11.747 -1.2513  0.0966 -0.0024
  554TMC3    H1 8224   0.358   3.855  11.720 -1.5178  1.7874  0.7089
  554TMC3    H2 8225   0.125   3.740  11.393 -0.9333  0.0039  0.4723
  554TMC3    C7 8226   0.266   3.923  11.485 -0.6127  0.6582 -0.5119
  554TMC3    C8 8227   0.033   3.503  11.494  0.0856  0.2535 -0.1486
  554TMC3    O1 8228   0.275   3.911  11.364  0.4117  0.0076  0.7419
  554TMC3    O2 8229   4.721   3.405  11.557 -0.5226 -0.7622 -0.0340
  555TMC3    C1 8230   3.804   3.261  14.979  0.5115 -0.0361  0.1680
  555TMC3    C2 8231   3.829   3.363  15.066 -0.0016 -0.4514 -0.3781
  555TMC3    C3 8232   3.859   3.333  15.195 -0.0631  0.3020 -0.1756
  555TMC3    C4 8233   3.818   3.128  15.014  0.3680  0.3832 -0.0114
  555TMC3    C5 8234   3.853   3.094  15.143  0.0495 -0.4163 -0.7692
  555TMC3    C6 8235   3.867   3.201  15.236 -0.7195 -0.2064  0.5417
  555TMC3     C 8236   3.824   3.294  14.838  0.9979  0.1973  0.2283
  555TMC3     O 8237   3.898   3.221  14.781  0.1803  0.1470  0.9801
  555TMC3     H 8238   3.848   3.458  15.018 -0.6416  0.0369  0.3447
  555TMC3    H1 8239   3.803   3.056  14.935  0.0432  0.6766 -0.2174
  555TMC3    H2 8240   3.902   3.175  15.335 -0.7580 -1.3493  0.2587
  555TMC3    C7 8241   3.839   2.955  15.194  0.3593 -0.3576 -0.1866
  555TMC3    C8 8242   3.853   3.450  15.285  0.1906 -0.2369 -0.3892
  555TMC3    O1 8243   3.814   2.939  15.315  0.5597  0.1819 -0.4639
  555TMC3    O2 8244   3.866   3.556  15.225 -0.6776  0.4705  0.4069
  556MPD2     C 8245   2.333   4.315  11.510 -0.3762  0.0851  0.0307
  556MPD2    C1 8246   2.229   4.359  11.428  0.5012  0.3251 -0.3040
  556MPD2    C2 8247   2.232   4.316  11.294  0.0499  0.8712 -0.5797
  556MPD2    C3 8248   2.331   4.228  11.251  0.1441 -0.5183 -0.4951
  556MPD2    C4 8249   2.441   4.196  11.324 -0.0127 -0.4562  0.5764
  556MPD2    C5 8250   2.435   4.230  11.458 -0.3317 -0.9061  0.1347
  556MPD2     H 8251   2.150   4.342  11.228 -1.6508 -1.0602  0.8061
  556MPD2    H1 8252   2.523   4.133  11.290 -1.2402 -0.8253 -1.7172
  556MPD2    H2 8253   2.334   4.328  11.617  0.5587 -1.4883  0.2205
  556MPD2    H3 8254   2.506   4.187  11.527  2.1025  1.2324 -1.0325
  556MPD2     N 8255   2.317   4.181  11.122 -0.1792  0.7724 -1.0809
  556MPD2    H5 8256   2.228   4.192  11.074 -1.1134 -0.1479  0.4250
  556MPD2    N1 8257   2.120   4.432  11.485  0.8599  0.1842  0.2266
  556MPD2    H7 8258   2.125   4.445  11.585 -2.3365 -1.5749  0.6323
  557TMC3    C1 8259   2.358   4.038  10.942  0.5277 -0.5420 -0.3631
  557TMC3    C2 8260   2.438   4.020  10.839 -0.9092  0.7345  0.2925
  557TMC3    C3 8261   2.391   3.958  10.720  0.3494  0.2171 -0.2205
  557TMC3    C4 8262   2.230   4.008  10.941  0.4808 -0.3731 -1.0737
  557TMC3    C5 8263   2.187   3.938  10.827  0.2397  0.4022 -0.0542
  557TMC3    C6 8264   2.254   3.926  10.709  0.0110  0.4433 -0.2223
  557TMC3     C 8265   2.416   4.118  11.048  0.3337 -0.6333  0.1053
  557TMC3     O 8266   2.537   4.120  11.056 -0.2610 -0.0487 -0.3793
  557TMC3     H 8267   2.539   4.060  10.837 -0.3884 -0.6671 -1.0218
  557TMC3    H1 8268   2.171   4.016  11.032  0.4839 -0.1207 -1.0951
  557TMC3    H2 8269   2.213   3.876  10.622  0.7605 -1.1216  0.3271
  557TMC3    C7 8270   2.040   3.949  10.812  0.1116 -0.1899  0.0798
  557TMC3    C8 8271   2.468   3.970  10.598  0.0221 -0.5042  0.1970
  557TMC3    O1 8272   1.996   4.048  10.873  0.2261 -0.0710  0.1784
  557TMC3    O2 8273   2.570   4.040  10.605  0.1468  0.3926 -0.4415
  558TMC3    C1 8274   4.650   2.105  10.000  0.0960 -0.0980  0.3719
  558TMC3    C2 8275   4.593   2.168  10.103 -0.4241  0.2478 -0.3058
  558TMC3    C3 8276   4.485   2.110  10.156  0.3058 -0.1632 -0.3410
  558TMC3    C4 8277   4.583   2.012   9.923 -0.5575 -0.4024  0.2934
  558TMC3    C5 8278   4.471   1.959   9.980  0.9045  0.3794  0.2146
  558TMC3    C6 8279   4.422   2.008  10.098  0.6171  0.0648 -0.0977
  558TMC3     C 8280   0.063   2.130   9.983  0.3937  0.6661  0.4034
  558TMC3     O 8281   0.117   2.191  10.071  0.2210  0.7320  0.2025
  558TMC3     H 8282   4.643   2.245  10.160  1.1878 -1.3848  0.4378
  558TMC3    H1 8283   4.629   1.950   9.847 -1.5509 -0.3147 -0.3708
  558TMC3    H2 8284   4.341   1.960  10.151  0.7700  0.5595  0.5805
  558TMC3    C7 8285   4.409   1.855   9.910  0.5499 -0.3419  0.7581
  558TMC3    C8 8286   4.429   2.172  10.274  1.4511  0.0439  0.0052
  558TMC3    O1 8287   4.467   1.801   9.818 -0.1663  0.4876 -0.3431
  558TMC3    O2 8288   4.388   2.103  10.366 -0.0318 -0.6401 -0.4114
  559MPD2     C 8289   4.665   3.074  10.668  0.1164  0.2243 -0.6127
  559MPD2    C1 8290   4.643   3.005  10.784 -0.0488  0.6334  0.6793
  559MPD2    C2 8291   0.021   2.942  10.848 -0.2609 -0.1257  0.3129
  559MPD2    C3 8292   0.148   2.949  10.790 -0.0145  0.8029  0.2962
  559MPD2    C4 8293   0.165   3.021  10.672  0.5030  0.2936  0.7735
  559MPD2    C5 8294   0.057   3.080  10.613  0.1673 -0.1648  0.0651
  559MPD2     H 8295   4.723   2.898  10.944 -1.4805 -2.0849 -0.9352
  559MPD2    H1 8296   0.256   3.029  10.614 -0.4354  0.8596 -0.6292
  559MPD2    H2 8297   4.577   3.119  10.623  1.3726  2.5763 -0.6872
  559MPD2    H3 8298   0.072   3.131  10.519  2.6534  1.1316  1.1746
  559MPD2     N 8299   0.246   2.881  10.855 -0.1503  0.1343 -0.1090
  559MPD2    H5 8300   0.217   2.822  10.932  2.3796 -1.7429 -0.5723
  559MPD2    N1 8301   4.508   3.013  10.843  0.5098 -0.5612 -0.3058
  559MPD2    H7 8302   4.447   3.066  10.781 -1.7799 -3.2936 -0.3654
  560TMC3    C1 8303   0.458   2.843  10.938  0.1894 -0.2687 -0.0413
  560TMC3    C2 8304   0.400   2.729  10.993 -0.0393 -0.2847 -1.0514
  560TMC3    C3 8305   0.402   2.711  11.127 -0.6923  0.3043  0.2520
  560TMC3    C4 8306   0.526   2.936  11.006 -1.2210 -0.1638  0.1765
  560TMC3    C5 8307   0.539   2.901  11.144 -0.2371 -0.2150 -0.5707
  560TMC3    C6 8308   0.466   2.801  11.208  0.3259  0.4166  0.2923
  560TMC3     C 8309   0.377   2.910  10.838 -0.2496  0.3043  0.4783
  560TMC3     O 8310   0.426   2.984  10.755 -0.1254 -0.0873 -0.1876
  560TMC3     H 8311   0.395   2.644  10.926 -1.4110  0.6139 -2.0701
  560TMC3    H1 8312   0.551   3.033  10.964  1.2746 -1.5000 -1.4595
  560TMC3    H2 8313   0.469   2.788  11.316 -0.9853  1.0101  0.4097
  560TMC3    C7 8314   0.624   2.983  11.234  0.2752  0.0995 -1.0857
  560TMC3    C8 8315   0.281   2.654  11.173 -0.7322  0.6531  0.4938
  560TMC3    O1 8316   0.642   2.941  11.350 -0.0210  0.2425 -0.3496
  560TMC3    O2 8317   0.204   2.648  11.079 -0.2424 -0.8124 -0.2741
  561TMC3    C1 8318   2.314   2.439  11.574  0.8180  0.5136 -0.3253
  561TMC3    C2 8319   2.186   2.394  11.580 -0.3141 -0.3598  0.3740
  561TMC3    C3 8320   2.094   2.457  11.501  0.0188  0.3684  1.2534
  561TMC3    C4 8321   2.353   2.557  11.506 -0.5793  0.4241 -0.0145
  561TMC3    C5 8322   2.253   2.619  11.427  0.1338 -0.2506 -0.0378
  561TMC3    C6 8323   2.125   2.570  11.425  0.2468 -0.1952  0.2236
  561TMC3     C 8324   2.420   2.347  11.624  0.0107  0.0232  0.4957
  561TMC3     O 8325   2.387   2.242  11.679  0.4632  0.9782  0.3398
  561TMC3     H 8326   2.156   2.308  11.638 -0.0774  0.2306  1.3745
  561TMC3    H1 8327   2.453   2.597  11.512 -0.2122 -0.9662  2.8670
  561TMC3    H2 8328   2.050   2.616  11.363 -1.5606 -2.2414  0.9033
  561TMC3    C7 8329   2.274   2.741  11.350 -0.7277  0.7049  0.6419
  561TMC3    C8 8330   1.951   2.445  11.531  0.5459  0.3926  0.9970
  561TMC3    O1 8331   2.176   2.806  11.314 -0.1293  0.4655  0.2106
  561TMC3    O2 8332   1.876   2.533  11.499  0.0245 -0.0764  0.2600
  562TMC3    C1 8333   3.463   3.785  16.149 -0.2225 -0.3112 -0.1452
  562TMC3    C2 8334   3.383   3.879  16.087  0.1091  0.2493  0.0748
  562TMC3    C3 8335   3.366   3.863  15.949  0.1730  0.1266  0.0758
  562TMC3    C4 8336   3.525   3.682  16.084  0.7215 -0.4289  0.8027
  562TMC3    C5 8337   3.514   3.679  15.949 -0.0255 -0.3812  0.2612
  562TMC3    C6 8338   3.431   3.764  15.883 -0.0091 -0.7203  0.7814
  562TMC3     C 8339   3.484   3.794  16.293  0.4623  0.6795 -0.0250
  562TMC3     O 8340   3.471   3.909  16.338 -0.3243  0.3274 -0.2115
  562TMC3     H 8341   3.342   3.964  16.141  3.6499  1.6418  0.5777
  562TMC3    H1 8342   3.604   3.625  16.131  0.4693 -0.4431  1.2066
  562TMC3    H2 8343   3.427   3.741  15.777 -0.9957  0.6352  0.5117
  562TMC3    C7 8344   3.553   3.558  15.875 -0.4362  0.1043  0.4157
  562TMC3    C8 8345   3.261   3.948  15.888 -0.3812 -0.1350  0.0016
  562TMC3    O1 8346   3.550   3.558  15.751 -0.3345  0.2407  0.3589
  562TMC3    O2 8347   3.182   4.000  15.966  0.2448 -0.3748  0.1869
  563MPD2     C 8348   1.057   0.343  15.669 -0.9705 -0.0214 -0.1429
  563MPD2    C1 8349   1.091   0.386  15.798 -0.8678 -0.6963 -0.2059
  563MPD2    C2 8350   1.205   0.335  15.856  0.1188 -0.5759  0.4662
  563MPD2    C3 8351   1.287   0.249  15.789 -0.7281  0.4617 -0.1175
  563MPD2    C4 8352   1.260   0.227  15.655  0.1810  0.6237  0.0040
  563MPD2    C5 8353   1.148   0.273  15.598 -0.2527 -0.6441 -0.5008
  563MPD2     H 8354   1.230   0.350  15.960  0.6581  1.0629  0.0988
  563MPD2    H1 8355   1.305   0.159  15.583 -1.7804 -1.2983  0.5965
  563MPD2    H2 8356   0.969   0.375  15.615 -1.3444  1.2371  1.2260
  563MPD2    H3 8357   1.134   0.257  15.491 -1.8395 -0.8846 -0.2620
  563MPD2     N 8358   1.396   0.195  15.862 -0.5956  0.5453 -0.1074
  563MPD2    H5 8359   1.388   0.210  15.962 -1.2341  0.5674 -0.1597
  563MPD2    N1 8360   0.993   0.455  15.866  0.3270  0.1169 -0.1441
  563MPD2    H7 8361   0.902   0.441  15.823  0.2782  0.5192 -0.1673
  564TMC3    C1 8362   0.881   0.480  16.068 -0.3547 -0.7306 -0.6081
  564TMC3    C2 8363   0.773   0.421  16.006 -0.8015 -0.2144 -0.5540
  564TMC3    C3 8364   0.706   0.314  16.074  0.0308  0.1153  0.6747
  564TMC3    C4 8365   0.905   0.465  16.202  0.3388  0.0469  0.1078
  564TMC3    C5 8366   0.834   0.381  16.280  0.1057  0.5687  0.3138
  564TMC3    C6 8367   0.738   0.300  16.213  0.1799  0.8435  0.3768
  564TMC3     C 8368   1.003   0.498  15.997  0.7837  0.1154 -0.1476
  564TMC3     O 8369   1.104   0.536  16.059 -0.2814 -0.6594 -0.1244
  564TMC3     H 8370   0.740   0.465  15.912  1.3352 -1.4924 -1.8867
  564TMC3    H1 8371   0.993   0.507  16.250  0.7217 -1.6242  0.8678
  564TMC3    H2 8372   0.684   0.231  16.278  0.2777 -0.7701 -1.2714
  564TMC3    C7 8373   0.933   0.295  16.347 -0.4490  0.5469  0.3581
  564TMC3    C8 8374   0.714   0.183  16.010  0.2123 -0.2166  0.0417
  564TMC3    O1 8375   1.009   0.334  16.431 -0.0547  0.2591 -0.7808
  564TMC3    O2 8376   0.720   0.088  16.084  0.3350 -0.1894 -0.0675
  565TMC3    C1 8377   2.322   1.498  10.141  0.0050 -0.2285 -0.0814
  565TMC3    C2 8378   2.332   1.472  10.276 -0.4062 -0.3926  0.4509
  565TMC3    C3 8379   2.242   1.377  10.323 -0.0358 -0.4826  0.0005
  565TMC3    C4 8380   2.239   1.432  10.055  0.4155 -0.1299 -0.3533
  565TMC3    C5 8381   2.157   1.336  10.106 -0.6615  0.0988 -0.1218
  565TMC3    C6 8382   2.155   1.310  10.245  0.4117  0.4486 -0.1854
  565TMC3     C 8383   2.415   1.597  10.086  0.9916  0.1410 -0.3742
  565TMC3     O 8384   2.425   1.604   9.964  0.0325  0.5125 -0.2162
  565TMC3     H 8385   2.414   1.507  10.338  1.0877  1.4528 -2.5373
  565TMC3    H1 8386   2.224   1.473   9.956 -1.4736  1.0708  0.4430
  565TMC3    H2 8387   2.115   1.212  10.271  2.7501 -0.5314 -0.2751
  565TMC3    C7 8388   2.069   1.260  10.021  0.7518 -0.1144 -0.3624
  565TMC3    C8 8389   2.249   1.340  10.468 -0.2545  0.1374 -0.1650
  565TMC3    O1 8390   2.104   1.254   9.906  0.0241  0.9305  0.1201
  565TMC3    O2 8391   2.351   1.355  10.528 -0.2414  0.4472  0.0138
  566MPD2     C 8392   3.135   2.844  14.243 -0.2960  0.2836  0.4173
  566MPD2    C1 8393   3.151   2.979  14.189 -0.0137 -0.1343  0.5447
  566MPD2    C2 8394   3.041   3.037  14.119  0.7148 -0.0135  0.2701
  566MPD2    C3 8395   2.923   2.965  14.105 -0.0777 -0.2574  0.7830
  566MPD2    C4 8396   2.914   2.847  14.170 -0.4478 -0.3782  0.1985
  566MPD2    C5 8397   3.011   2.788  14.241 -0.6534  0.4683  0.2420
  566MPD2     H 8398   3.040   3.136  14.076  1.5551 -0.5678 -1.0090
  566MPD2    H1 8399   2.824   2.786  14.163 -0.6092 -0.2383  1.0176
  566MPD2    H2 8400   3.216   2.791  14.291  0.9144  0.6664 -1.1964
  566MPD2    H3 8401   2.994   2.689  14.283 -1.6597  0.9484  0.9581
  566MPD2     N 8402   2.820   2.998  14.009 -0.1250 -0.1108 -0.3854
  566MPD2    H5 8403   2.735   2.943  14.018 -0.1436 -0.4021 -2.2813
  566MPD2    N1 8404   3.281   3.038  14.212 -0.6695  0.6575  0.0946
  566MPD2    H7 8405   3.348   2.985  14.267 -1.0145  1.7402  1.5743
  567TMC3    C1 8406   3.458   3.183  14.207 -0.0085  0.4467 -0.0288
  567TMC3    C2 8407   3.541   3.234  14.107 -0.1968 -0.4118 -0.6369
  567TMC3    C3 8408   3.677   3.223  14.111  0.1129  0.4391  0.4743
  567TMC3    C4 8409   3.514   3.126  14.317 -0.2901  0.1063  0.4999
  567TMC3    C5 8410   3.651   3.126  14.329  0.3942  0.6156  0.2218
  567TMC3    C6 8411   3.732   3.147  14.217  0.1198  0.4504 -0.0415
  567TMC3     C 8412   3.313   3.159  14.172 -0.3201 -0.4303 -0.4717
  567TMC3     O 8413   3.267   3.218  14.075  0.9402  0.0112  0.5016
  567TMC3     H 8414   3.494   3.280  14.022 -3.4999 -0.2363  1.2910
  567TMC3    H1 8415   3.446   3.085  14.391 -1.0438 -0.3357 -0.4418
  567TMC3    H2 8416   3.839   3.131  14.222  0.0111 -1.1078 -2.8022
  567TMC3    C7 8417   3.702   3.078  14.455 -0.4833  0.5554 -0.5083
  567TMC3    C8 8418   3.736   3.244  13.974 -0.6747  0.4248  0.5114
  567TMC3    O1 8419   3.787   2.989  14.452 -0.4224 -0.4698 -0.0216
  567TMC3    O2 8420   3.650   3.251  13.883 -0.7937 -0.0216  0.2154
  568MPD2     C 8421   0.433   3.589  16.263  0.6719  0.5231  0.2402
  568MPD2    C1 8422   0.527   3.648  16.343 -0.6595 -0.5508  0.6741
  568MPD2    C2 8423   0.600   3.752  16.291 -0.7377 -0.0129 -0.3286
  568MPD2    C3 8424   0.574   3.815  16.170  0.7097 -0.2722  0.5249
  568MPD2    C4 8425   0.474   3.761  16.097 -0.4074 -0.5008  0.3193
  568MPD2    C5 8426   0.411   3.648  16.141 -0.9014  0.1272  0.1221
  568MPD2     H 8427   0.690   3.782  16.342 -0.4547 -0.8289 -0.3395
  568MPD2    H1 8428   0.433   3.807  16.008  2.3225  1.8681  0.2678
  568MPD2    H2 8429   0.367   3.507  16.290  0.1542  0.7714 -0.2590
  568MPD2    H3 8430   0.323   3.622  16.084 -0.3505  0.1221 -0.7322
  568MPD2     N 8431   0.657   3.924  16.125  1.2688 -0.0880  0.2348
  568MPD2    H5 8432   0.723   3.971  16.187  1.4007  1.5869 -1.1571
  568MPD2    N1 8433   0.551   3.594  16.473 -0.1953  0.3676 -0.0954
  568MPD2    H7 8434   0.491   3.516  16.497  1.1740 -0.1273  1.6518
  569TMC3    C1 8435   0.743   4.093  15.981  0.2113 -0.2279 -0.1766
  569TMC3    C2 8436   0.809   4.143  16.094 -0.0749  0.0166  0.3894
  569TMC3    C3 8437   0.888   4.257  16.071 -1.0209 -0.0333 -0.2863
  569TMC3    C4 8438   0.775   4.132  15.851 -0.7555 -0.3185 -1.1920
  569TMC3    C5 8439   0.861   4.236  15.837  0.0808 -0.1836 -0.5020
  569TMC3    C6 8440   0.929   4.291  15.940 -0.0417 -0.0158 -0.8332
  569TMC3     C 8441   0.642   3.991  16.005  0.6915  0.1472 -0.5573
  569TMC3     O 8442   0.562   3.967  15.918 -0.1098  0.0931 -0.2686
  569TMC3     H 8443   0.778   4.134  16.197 -0.0614 -2.3404  0.1916
  569TMC3    H1 8444   0.724   4.096  15.763 -1.4587 -0.5595 -0.6886
  569TMC3    H2 8445   0.984   4.384  15.925 -0.6143  0.1184 -2.0973
  569TMC3    C7 8446   0.818   4.334  15.736  0.4505 -0.6283  0.0608
  569TMC3    C8 8447   0.836   4.374  16.136  0.6788  0.4336  0.1932
  569TMC3    O1 8448   0.820   4.303  15.618  0.2458  0.0407  0.5049
  569TMC3    O2 8449   0.786   4.461  16.064  0.0959  0.2726 -0.3245
  570TMC3    C1 8450   0.241   2.723  16.332 -0.3358 -0.7157 -0.3192
  570TMC3    C2 8451   0.357   2.725  16.259  0.0345 -0.5900  0.3222
  570TMC3    C3 8452   0.405   2.849  16.216 -0.1295 -0.6932 -0.2961
  570TMC3    C4 8453   0.170   2.835  16.344 -0.2370  0.0095 -0.3461
  570TMC3    C5 8454   0.211   2.947  16.287  0.4910 -0.1731 -0.8765
  570TMC3    C6 8455   0.335   2.963  16.230  0.1657  0.2381  0.4411
  570TMC3     C 8456   0.190   2.595  16.379  0.6236 -0.4549  0.0109
  570TMC3     O 8457   0.262   2.500  16.357  0.0685 -0.0271 -0.3591
  570TMC3     H 8458   0.414   2.636  16.236  1.2278 -0.1518  1.5652
  570TMC3    H1 8459   0.074   2.842  16.394 -1.3535 -0.4181 -2.4045
  570TMC3    H2 8460   0.382   3.061  16.218  1.3762  0.0703  3.7706
  570TMC3    C7 8461   0.117   3.063  16.284  0.7340  1.2462 -0.0305
  570TMC3    C8 8462   0.533   2.865  16.152 -0.1570 -0.3903 -0.1622
  570TMC3    O1 8463   0.042   3.083  16.377  0.0740  0.0144  0.7331
  570TMC3    O2 8464   0.561   2.972  16.103  0.0618 -0.8083 -0.6046
  571MPD2     C 8465   3.607   4.249  16.838 -0.1839  0.3120  0.1978
  571MPD2    C1 8466   3.472   4.278  16.870 -0.3134 -0.5763 -0.1184
  571MPD2    C2 8467   3.441   4.309  17.001 -0.7585 -0.1435 -0.1509
  571MPD2    C3 8468   3.537   4.309  17.104  1.0727 -0.0239 -0.5489
  571MPD2    C4 8469   3.664   4.271  17.070  0.0240 -0.3109  0.3348
  571MPD2    C5 8470   3.694   4.245  16.942 -0.0734 -0.0117  0.5293
  571MPD2     H 8471   3.339   4.335  17.028 -1.3184 -1.7681 -0.7167
  571MPD2    H1 8472   3.746   4.270  17.140 -2.1362  0.2943  2.8615
  571MPD2    H2 8473   3.636   4.236  16.735  2.2380 -0.0725  0.9130
  571MPD2    H3 8474   3.796   4.215  16.921  0.2336  3.3950 -2.7119
  571MPD2     N 8475   3.511   4.333  17.242 -0.6602 -0.4812 -0.0692
  571MPD2    H5 8476   3.592   4.324  17.304  0.5228 -0.3904 -1.5999
  571MPD2    N1 8477   3.376   4.274  16.759 -0.0412 -0.5089 -0.3153
  571MPD2    H7 8478   3.407   4.262  16.663 -0.4359 -2.6657 -0.1564
  572TMC3    C1 8479   3.370   4.351  17.434 -0.4795 -0.3232  1.1712
  572TMC3    C2 8480   3.280   4.269  17.486  0.7070  0.0654  0.2102
  572TMC3    C3 8481   3.200   4.313  17.591  0.5450  0.1231  0.3273
  572TMC3    C4 8482   3.421   4.460  17.499 -0.0146 -0.3627  0.7745
  572TMC3    C5 8483   3.347   4.492  17.612  0.0381 -0.1823  0.5559
  572TMC3    C6 8484   3.244   4.415  17.666 -0.2271  0.4663  0.4160
  572TMC3     C 8485   3.380   4.349  17.289  0.1492  0.1777 -0.1934
  572TMC3     O 8486   3.270   4.352  17.234  0.0290  0.1413  0.0054
  572TMC3     H 8487   3.227   4.203  17.418 -1.0132 -0.5542  2.1669
  572TMC3    H1 8488   3.500   4.523  17.461 -0.8824 -0.3998 -1.0635
  572TMC3    H2 8489   3.206   4.450   0.051 -0.4104  0.7078  0.2522
  572TMC3    C7 8490   3.400   4.613  17.680 -0.1340 -0.5691  0.1715
  572TMC3    C8 8491   3.089   4.227  17.625  0.1174 -0.4993 -0.0545
  572TMC3    O1 8492   3.520   4.616  17.708 -0.5747  0.0476  0.1088
  572TMC3    O2 8493   3.080   4.119  17.564  0.7843  0.4076 -0.1588
  573MPD2     C 8494   3.865   0.908   0.526 -0.2539 -0.0604 -0.2853
  573MPD2    C1 8495   3.900   0.777   0.558  0.7091  0.8701  0.7739
  573MPD2    C2 8496   4.004   0.711   0.489 -0.7653  0.7037 -0.2358
  573MPD2    C3 8497   4.070   0.778   0.384 -0.3330 -0.4975 -0.7788
  573MPD2    C4 8498   4.033   0.916   0.360  0.1209  0.0538 -0.7451
  573MPD2    C5 8499   3.931   0.977   0.430  0.5671  0.6182  0.1038
  573MPD2     H 8500   4.033   0.611   0.519 -0.3275  0.8225 -0.2618
  573MPD2    H1 8501   4.089   0.964   0.281 -0.4051  2.8879  0.5888
  573MPD2    H2 8502   3.781   0.964   0.567  1.3187  1.9455  0.2101
  573MPD2    H3 8503   3.899   1.079   0.409  0.8155  0.2913 -1.7724
  573MPD2     N 8504   4.184   0.730   0.318 -0.4315 -0.5612 -0.0716
  573MPD2    H5 8505   4.217   0.791   0.244 -0.4319 -0.6531 -0.1475
  573MPD2    N1 8506   3.829   0.711   0.655  0.2055  0.5348 -0.3954
  573MPD2    H7 8507   3.784   0.774   0.720 -1.7257 -1.8849  0.6253
  574TMC3    C1 8508   4.371   0.591   0.282  0.3055  0.0636  0.8050
  574TMC3    C2 8509   4.358   0.579   0.146  0.1394  0.0829  0.1564
  574TMC3    C3 8510   4.457   0.515   0.071  0.0410 -0.4134 -0.6104
  574TMC3    C4 8511   4.475   0.542   0.348 -0.4058  0.2703  0.0829
  574TMC3    C5 8512   4.577   0.480   0.273 -0.0297 -0.7108 -0.1302
  574TMC3    C6 8513   4.559   0.459   0.139 -0.1104 -0.3194  0.0705
  574TMC3     C 8514   4.255   0.621   0.364  0.3297  0.3146 -0.2232
  574TMC3     O 8515   4.242   0.557   0.469  0.1384 -0.0826 -0.0443
  574TMC3     H 8516   4.264   0.612   0.102 -1.2542 -3.0759  0.7755
  574TMC3    H1 8517   4.483   0.558   0.455  0.0750 -2.9021  0.5187
  574TMC3    H2 8518   4.637   0.402   0.090 -0.8384  0.1177 -1.6102
  574TMC3    C7 8519   4.708   0.449   0.326 -0.3220 -0.6751  0.2135
  574TMC3    C8 8520   4.410   0.443  17.663  0.2362 -0.2320  0.6151
  574TMC3    O1 8521   0.076   0.468   0.253 -0.0961 -0.1443  0.5427
  574TMC3    O2 8522   4.477   0.345  17.633  0.4317  0.1165  0.2769
  575TMC3    C1 8523   2.657   1.199  11.242 -0.5469 -0.5838  0.0644
  575TMC3    C2 8524   2.599   1.223  11.364  0.8391  0.2652 -0.2848
  575TMC3    C3 8525   2.465   1.258  11.357 -0.5195 -0.1541 -0.3083
  575TMC3    C4 8526   2.593   1.208  11.123  0.0959 -0.7002 -0.2952
  575TMC3    C5 8527   2.466   1.243  11.127  0.1957  0.2918 -0.0049
  575TMC3    C6 8528   2.400   1.273  11.239  0.1637  0.3233  0.6803
  575TMC3     C 8529   2.801   1.194  11.235  0.3300  0.2863 -0.4103
  575TMC3     O 8530   2.857   1.254  11.145  0.2112 -0.0421  0.6270
  575TMC3     H 8531   2.647   1.217  11.460 -0.1385 -1.2476  0.1126
  575TMC3    H1 8532   2.651   1.191  11.033 -0.2339 -0.1945 -0.6001
  575TMC3    H2 8533   2.296   1.303  11.251  1.0136  2.6627  2.0969
  575TMC3    C7 8534   2.397   1.231  10.997 -0.2022  0.7807  0.1350
  575TMC3    C8 8535   2.381   1.241  11.474 -0.5412  0.5635  0.3061
  575TMC3    O1 8536   2.470   1.238  10.904  0.0364  0.0245  0.3139
  575TMC3    O2 8537   2.257   1.219  11.467 -0.1003  0.1578  0.0846
  576MPD2     C 8538   1.127   2.830  12.599 -0.4815  0.8740  0.4573
  576MPD2    C1 8539   1.206   2.916  12.526 -0.6535 -0.4795 -0.6119
  576MPD2    C2 8540   1.199   3.052  12.557 -0.5150 -0.5745 -0.2626
  576MPD2    C3 8541   1.119   3.099  12.659 -0.2424  0.1147 -0.3395
  576MPD2    C4 8542   1.045   3.010  12.727 -0.1913  0.3513 -0.0427
  576MPD2    C5 8543   1.042   2.877  12.693  0.4667  0.2529  0.0589
  576MPD2     H 8544   1.262   3.123  12.505  0.0229  0.5827  1.9641
  576MPD2    H1 8545   0.992   3.037  12.817  2.3208  2.3129  0.8665
  576MPD2    H2 8546   1.121   2.723  12.584  0.9046  1.0624 -1.4202
  576MPD2    H3 8547   0.979   2.809  12.750 -1.5070  2.5770  0.6940
  576MPD2     N 8548   1.126   3.240  12.688  0.7261  0.2288 -0.2353
  576MPD2    H5 8549   1.189   3.294  12.629  2.2321 -0.7995  0.4195
  576MPD2    N1 8550   1.298   2.877  12.420 -0.0858  0.0314 -0.0182
  576MPD2    H7 8551   1.351   2.947  12.370 -1.3054  2.2530  1.7967
  577TMC3    C1 8552   1.399   2.736  12.270  0.6605 -0.5365  1.1404
  577TMC3    C2 8553   1.403   2.620  12.186 -0.4433 -0.6110  0.4410
  577TMC3    C3 8554   1.494   2.619  12.088 -0.1402  0.1985  0.4289
  577TMC3    C4 8555   1.493   2.839  12.249  1.0441  0.2403  1.0487
  577TMC3    C5 8556   1.596   2.819  12.165  0.5323  0.8921 -0.4896
  577TMC3    C6 8557   1.583   2.723  12.066  0.1423  0.7521 -0.6775
  577TMC3     C 8558   1.298   2.751  12.371 -0.3082  0.5229  0.1948
  577TMC3     O 8559   1.232   2.653  12.397 -0.1229 -0.4614  0.1526
  577TMC3     H 8560   1.346   2.536  12.223 -0.3936 -0.8662 -0.0633
  577TMC3    H1 8561   1.505   2.918  12.322  0.9137  0.2883  1.0190
  577TMC3    H2 8562   1.659   2.696  11.993  1.3006 -0.0736  0.8396
  577TMC3    C7 8563   1.676   2.930  12.126 -0.8112  0.2346 -0.4551
  577TMC3    C8 8564   1.497   2.497  12.003 -0.0190 -0.3735 -0.4656
  577TMC3    O1 8565   1.718   3.000  12.222  0.0519 -0.0186 -0.0881
  577TMC3    O2 8566   1.446   2.396  12.045 -0.4504 -0.4479 -0.5366
  578MPD2     C 8567   4.262   1.742   0.801  0.1460 -0.5930  0.1596
  578MPD2    C1 8568   4.363   1.835   0.832 -0.4265  0.7633 -0.2590
  578MPD2    C2 8569   4.449   1.793   0.930  0.7092 -0.6012 -0.0490
  578MPD2    C3 8570   4.434   1.673   1.002 -0.1837 -0.0848  0.6579
  578MPD2    C4 8571   4.336   1.588   0.967 -0.2425  0.4681  0.4955
  578MPD2    C5 8572   4.247   1.624   0.869 -0.6588 -0.1405 -0.0688
  578MPD2     H 8573   4.532   1.858   0.957 -0.6061  1.3238 -0.6781
  578MPD2    H1 8574   4.315   1.494   1.019  1.1865 -1.8252 -3.1088
  578MPD2    H2 8575   4.206   1.764   0.711  2.3473  1.7560 -0.6501
  578MPD2    H3 8576   4.161   1.561   0.846 -0.1033  0.0254 -2.5959
  578MPD2     N 8577   4.527   1.643   1.105  0.0350 -0.7505  0.1870
  578MPD2    H5 8578   4.491   1.578   1.174 -3.0673  0.9749  0.1815
  578MPD2    N1 8579   4.391   1.946   0.754 -0.1236 -0.6344 -0.7871
  578MPD2    H7 8580   4.324   1.982   0.687 -1.3952  0.2665  0.9705
  579TMC3    C1 8581   4.701   1.667   1.256  0.1382  1.0856 -0.3245
  579TMC3    C2 8582   0.065   1.749   1.320 -1.0350 -0.5078 -0.3524
  579TMC3    C3 8583   0.116   1.692   1.440 -0.4900  0.5056 -0.3674
  579TMC3    C4 8584   4.657   1.548   1.318 -0.9395 -0.5358 -0.1418
  579TMC3    C5 8585   4.710   1.504   1.441  0.3871  0.4097  0.5263
  579TMC3    C6 8586   0.075   1.580   1.505 -0.4695 -0.3519 -0.2740
  579TMC3     C 8587   4.646   1.708   1.138  0.2644  0.0004  0.2672
  579TMC3     O 8588   4.698   1.801   1.074 -0.1060 -0.7211 -0.1335
  579TMC3     H 8589   0.089   1.845   1.275  2.1363 -1.7610 -1.3394
  579TMC3    H1 8590   4.598   1.478   1.262 -1.2572 -0.5575  0.2198
  579TMC3    H2 8591   0.099   1.549   1.606 -0.0014 -0.3204 -0.3732
  579TMC3    C7 8592   4.665   1.376   1.504 -0.6399 -0.0463  0.1139
  579TMC3    C8 8593   0.212   1.771   1.520  0.4332 -0.0597  0.7037
  579TMC3    O1 8594   4.713   1.349   1.612  0.7775  0.0199  0.3455
  579TMC3    O2 8595   0.242   1.735   1.632 -0.1505  0.2984 -0.2358
  580TMC3    C1 8596   4.070   1.689  11.738 -0.3577  0.0634 -0.1506
  580TMC3    C2 8597   4.046   1.625  11.620 -0.2392  0.2508 -0.3645
  580TMC3    C3 8598   4.037   1.492  11.618 -0.7364 -0.3390 -0.0129
  580TMC3    C4 8599   4.080   1.617  11.857 -0.8080  0.3922  0.0776
  580TMC3    C5 8600   4.050   1.490  11.850 -0.3914  0.0682 -0.2089
  580TMC3    C6 8601   4.040   1.425  11.735 -0.4391  0.0520  0.0257
  580TMC3     C 8602   4.159   1.806  11.718 -1.3027 -0.7371  0.1372
  580TMC3     O 8603   4.149   1.872  11.615  0.0157  0.4661 -0.3970
  580TMC3     H 8604   4.051   1.687  11.532  0.5662  0.0405 -0.4721
  580TMC3    H1 8605   4.062   1.668  11.951 -0.2258  0.2383  0.2724
  580TMC3    H2 8606   4.037   1.316  11.730  1.1135 -0.1558  3.2794
  580TMC3    C7 8607   4.056   1.417  11.970 -0.1490  0.7723 -0.5060
  580TMC3    C8 8608   4.125   1.427  11.521 -0.1427 -0.4528 -0.3021
  580TMC3    O1 8609   4.131   1.472  12.049  0.1962  0.2461 -0.3092
  580TMC3    O2 8610   4.138   1.305  11.519  0.1186 -0.4283 -0.1524
  581MPD2     C 8611   1.960   1.777  14.684  0.1246 -0.4971 -0.0049
  581MPD2    C1 8612   1.850   1.748  14.762  0.7287  0.4633 -0.3541
  581MPD2    C2 8613   1.734   1.826  14.744 -0.1132  0.1388  0.3544
  581MPD2    C3 8614   1.726   1.928  14.647 -0.0512 -0.0004 -0.3326
  581MPD2    C4 8615   1.843   1.952  14.579 -0.1986  0.3616  0.4833
  581MPD2    C5 8616   1.950   1.875  14.592  0.7306  0.1853  0.4332
  581MPD2     H 8617   1.644   1.802  14.800 -1.0604  0.8963 -0.8400
  581MPD2    H1 8618   1.857   2.030  14.505  1.8687 -0.5717 -0.1180
  581MPD2    H2 8619   2.046   1.711  14.686  1.4177  1.0715 -3.9232
  581MPD2    H3 8620   2.040   1.898  14.536  0.5488  0.8804  0.4210
  581MPD2     N 8621   1.603   1.991  14.621  0.1358  0.3723  0.2264
  581MPD2    H5 8622   1.534   1.982  14.695  1.7129  1.0625  1.8023
  581MPD2    N1 8623   1.850   1.640  14.857 -0.2937  0.0446  0.2818
  581MPD2    H7 8624   1.757   1.617  14.892  0.7740 -1.7228  1.9639
  582TMC3    C1 8625   1.939   1.492  15.019  0.1516 -0.3957  0.4574
  582TMC3    C2 8626   2.054   1.446  15.079  0.4431 -0.7487  0.4585
  582TMC3    C3 8627   2.046   1.348  15.172 -0.6106 -0.3512 -0.5346
  582TMC3    C4 8628   1.817   1.464  15.065 -0.0289 -0.2899  0.2758
  582TMC3    C5 8629   1.809   1.370  15.167  0.0072  0.5457  0.6707
  582TMC3    C6 8630   1.918   1.300  15.206  0.8259 -0.3379 -0.0751
  582TMC3     C 8631   1.962   1.575  14.898  0.6024 -0.5107  0.4444
  582TMC3     O 8632   2.077   1.573  14.857 -0.2770 -0.7098 -0.2704
  582TMC3     H 8633   2.154   1.471  15.046  0.1708  0.2472  0.3890
  582TMC3    H1 8634   1.725   1.490  15.014 -0.2310 -0.3879  0.5897
  582TMC3    H2 8635   1.902   1.239  15.294 -4.4267  0.5220 -0.4487
  582TMC3    C7 8636   1.700   1.381  15.255  0.6930  0.1801  0.1789
  582TMC3    C8 8637   2.124   1.364  15.289  0.4123  0.5609  0.5406
  582TMC3    O1 8638   1.668   1.287  15.327 -0.4035 -0.0712 -0.4881
  582TMC3    O2 8639   2.126   1.474  15.340  0.4322 -0.2732  0.7637
  583MPD2     C 8640   1.630   3.559  16.314 -0.9210 -0.2968 -0.5511
  583MPD2    C1 8641   1.717   3.499  16.403 -0.2493  0.3989  0.0993
  583MPD2    C2 8642   1.692   3.512  16.540 -0.2162 -0.1958  0.0524
  583MPD2    C3 8643   1.583   3.587  16.586 -0.2869  0.3980  1.1760
  583MPD2    C4 8644   1.499   3.643  16.493 -0.1575 -0.0677 -0.3911
  583MPD2    C5 8645   1.516   3.630  16.358 -0.0107  0.1897 -0.5087
  583MPD2     H 8646   1.758   3.462  16.610  0.2111  0.8794  0.4292
  583MPD2    H1 8647   1.407   3.693  16.521 -1.6003 -1.7153 -2.1131
  583MPD2    H2 8648   1.649   3.545  16.208  2.3872 -2.2984  0.3189
  583MPD2    H3 8649   1.439   3.679  16.300 -1.6932 -1.4937  0.2968
  583MPD2     N 8650   1.563   3.595  16.728 -0.1706  0.4001  0.9522
  583MPD2    H5 8651   1.631   3.550  16.788 -0.5634  0.0247  1.1231
  583MPD2    N1 8652   1.818   3.424  16.349 -0.1131 -0.1473  0.0307
  583MPD2    H7 8653   1.838   3.421  16.250 -0.5913  0.1032 -0.0769
  584TMC3    C1 8654   1.551   3.726  16.915  0.6422  0.4655 -0.2641
  584TMC3    C2 8655   1.601   3.848  16.931  0.8502 -0.1836 -0.3289
  584TMC3    C3 8656   1.638   3.884  17.053 -0.2239 -0.1173  0.7327
  584TMC3    C4 8657   1.550   3.634  17.013  0.2900  0.3461 -0.2613
  584TMC3    C5 8658   1.597   3.671  17.138 -1.0984  0.3446  0.7251
  584TMC3    C6 8659   1.649   3.793  17.149  0.4372  0.0849  0.5884
  584TMC3     C 8660   1.485   3.694  16.792  0.0199  0.3584 -0.6482
  584TMC3     O 8661   1.413   3.780  16.745 -0.4600 -0.2607 -0.0135
  584TMC3     H 8662   1.584   3.922  16.854 -0.6091  0.7092  0.8437
  584TMC3    H1 8663   1.509   3.535  16.995 -0.2718  0.6284 -0.5321
  584TMC3    H2 8664   1.668   3.825  17.251 -1.7998 -0.3878  1.1479
  584TMC3    C7 8665   1.568   3.597  17.256 -0.0584  0.4065 -0.1584
  584TMC3    C8 8666   1.710   4.011  17.063  0.2783  0.5421  0.0964
  584TMC3    O1 8667   1.575   3.659  17.365 -0.0088 -0.2522  0.1506
  584TMC3    O2 8668   1.681   4.094  16.980  0.0862 -0.1040  0.6461
  585MPD2     C 8669   1.196   2.117   0.414  0.1480  0.5122 -0.2919
  585MPD2    C1 8670   1.200   2.177   0.287 -0.6360 -0.2257 -0.0617
  585MPD2    C2 8671   1.196   2.096   0.170 -0.1629 -0.5346 -0.5174
  585MPD2    C3 8672   1.168   1.963   0.177  0.0204  0.2703  0.2054
  585MPD2    C4 8673   1.145   1.910   0.304  1.0727  0.3389  0.0948
  585MPD2    C5 8674   1.156   1.988   0.419 -0.6295 -0.1600 -0.8956
  585MPD2     H 8675   1.207   2.148   0.075 -2.5079 -0.3926 -0.7005
  585MPD2    H1 8676   1.134   1.802   0.313 -0.8314  0.4644 -0.6775
  585MPD2    H2 8677   1.215   2.179   0.501 -2.5578  0.2203  0.5038
  585MPD2    H3 8678   1.149   1.940   0.516 -1.2628  1.3592 -0.1987
  585MPD2     N 8679   1.154   1.886   0.062 -0.0330  0.1898  0.3908
  585MPD2    H5 8680   1.129   1.789   0.080  1.1335  0.3282  2.8278
  585MPD2    N1 8681   1.213   2.318   0.285  0.3458 -0.4165 -0.2759
  585MPD2    H7 8682   1.212   2.361   0.377 -1.1076  0.4994 -0.7276
  586TMC3    C1 8683   1.188   1.837  17.541 -0.2335  0.5893 -0.3241
  586TMC3    C2 8684   1.285   1.826  17.440  0.4824 -0.3549 -0.3480
  586TMC3    C3 8685   1.269   1.723  17.348 -0.3074  0.2757 -0.1506
  586TMC3    C4 8686   1.083   1.752  17.553 -0.4637 -0.4232 -0.2011
  586TMC3    C5 8687   1.075   1.646  17.470 -0.2671 -0.6431  0.1308
  586TMC3    C6 8688   1.163   1.634  17.358  0.0234  0.1329 -0.2920
  586TMC3     C 8689   1.213   1.923  17.651  0.0120  0.3441  0.3718
  586TMC3     O 8690   1.271   2.026  17.618  0.4622 -1.1854 -0.1679
  586TMC3     H 8691   1.373   1.886  17.461  0.5281  0.0900 -1.8281
  586TMC3    H1 8692   1.010   1.758  17.632 -0.7810  3.0015 -0.7323
  586TMC3    H2 8693   1.165   1.548  17.292  2.0655  0.2531 -0.3871
  586TMC3    C7 8694   1.049   1.519  17.541 -0.6175  0.5823  0.6797
  586TMC3    C8 8695   1.389   1.654  17.327 -0.7842 -0.5494 -0.1606
  586TMC3    O1 8696   0.953   1.514  17.614  0.2051  0.4170  0.1109
  586TMC3    O2 8697   1.392   1.544  17.394  0.2551 -0.8937  0.5155
  587TMC3    C1 8698   3.911   0.765  16.485 -0.1383  0.0012 -0.2874
  587TMC3    C2 8699   3.892   0.892  16.449 -0.3260 -0.8303  0.2973
  587TMC3    C3 8700   3.985   0.953  16.365 -0.3725  0.0755  0.1438
  587TMC3    C4 8701   4.010   0.697  16.426 -0.3901 -0.1084 -0.1582
  587TMC3    C5 8702   4.101   0.753  16.342  0.2376  0.0413  0.8110
  587TMC3    C6 8703   4.097   0.889  16.313 -0.0771 -0.3450 -0.0210
  587TMC3     C 8704   3.828   0.689  16.581  0.3770 -0.7148  0.2240
  587TMC3     O 8705   3.866   0.576  16.612  0.2878  0.2473  0.4974
  587TMC3     H 8706   3.804   0.950  16.471  0.5975  0.7236 -0.1384
  587TMC3    H1 8707   4.030   0.595  16.455  0.7764 -0.3428 -1.8381
  587TMC3    H2 8708   4.153   0.933  16.231 -2.1913  1.3665 -0.5534
  587TMC3    C7 8709   4.171   0.658  16.257 -0.2335  0.5830 -0.0456
  587TMC3    C8 8710   3.968   1.089  16.308 -1.0775 -0.0894  0.5299
  587TMC3    O1 8711   4.135   0.541  16.256 -0.5161  0.8321  0.6109
  587TMC3    O2 8712   4.040   1.127  16.217  0.5280 -0.2753  0.2884
  588TMC3    C1 8713   1.620   3.143   9.917  0.5676 -0.7335 -0.8393
  588TMC3    C2 8714   1.564   3.022   9.893  0.0546  0.4652 -0.2188
  588TMC3    C3 8715   1.569   2.931  10.001  0.3897  0.4412  0.1589
  588TMC3    C4 8716   1.667   3.176  10.040  0.2987 -0.8032 -0.5276
  588TMC3    C5 8717   1.645   3.097  10.148  0.3197 -0.0174 -0.4793
  588TMC3    C6 8718   1.598   2.971  10.130  0.3282  0.3707  0.0824
  588TMC3     C 8719   1.656   3.230   9.814 -0.0390 -0.2283  0.2218
  588TMC3     O 8720   1.634   3.200   9.697  0.0357  0.0953  0.1912
  588TMC3     H 8721   1.527   2.987   9.797 -0.5349  3.3525 -1.0482
  588TMC3    H1 8722   1.730   3.262  10.060  0.6985 -1.5524  1.3782
  588TMC3    H2 8723   1.589   2.898  10.210 -0.5650  0.7454  0.3297
  588TMC3    C7 8724   1.691   3.134  10.282  0.1969 -0.3294 -0.3021
  588TMC3    C8 8725   1.551   2.791   9.963  0.5010  0.3603  0.0365
  588TMC3    O1 8726   1.720   3.039  10.354 -0.0840  1.0385 -0.4277
  588TMC3    O2 8727   1.493   2.767   9.859 -0.0627 -0.1488  0.3228
  589TMC3    C1 8728   4.697   0.420   1.751  0.2386 -0.1473  0.0867
  589TMC3    C2 8729   0.079   0.487   1.790  0.1521 -0.2777  0.0114
  589TMC3    C3 8730   0.190   0.473   1.714 -0.5303 -0.4485 -0.2651
  589TMC3    C4 8731   4.694   0.339   1.640 -0.1014  1.0138 -0.2719
  589TMC3    C5 8732   0.083   0.329   1.563  0.1525 -0.2342 -0.3556
  589TMC3    C6 8733   0.205   0.381   1.607  0.2570 -0.9548 -0.6521
  589TMC3     C 8734   4.570   0.492   1.760 -0.5207  0.5246  0.3052
  589TMC3     O 8735   4.507   0.504   1.654 -0.6780 -0.1989  1.0926
  589TMC3     H 8736   0.073   0.566   1.864  1.2533  1.6253 -1.9349
  589TMC3    H1 8737   4.600   0.302   1.601  0.7291 -0.5198 -0.8099
  589TMC3    H2 8738   0.302   0.373   1.559  0.8177 -0.0896  0.3444
  589TMC3    C7 8739   0.086   0.251   1.444  0.3959  0.3360 -0.9251
  589TMC3    C8 8740   0.299   0.568   1.743 -0.1695 -0.9609 -0.5868
  589TMC3    O1 8741   4.706   0.196   1.430 -0.3393  0.6147 -0.3452
  589TMC3    O2 8742   0.295   0.606   1.859 -0.2626 -0.1042 -0.0923
  590MPD2     C 8743   0.055   4.071  16.865  0.4998  0.4027  0.3702
  590MPD2    C1 8744   0.011   4.122  16.747  0.1820  0.0176  1.0098
  590MPD2    C2 8745   0.095   4.193  16.663  0.0061  0.2648  0.3912
  590MPD2    C3 8746   0.227   4.213  16.693  0.0213 -0.0688  0.0131
  590MPD2    C4 8747   0.273   4.151  16.810 -0.7305 -0.5865 -0.1021
  590MPD2    C5 8748   0.188   4.085  16.894  0.8637 -0.2927 -0.2833
  590MPD2     H 8749   0.065   4.244  16.571  1.0405  1.0915  0.5159
  590MPD2    H1 8750   0.379   4.140  16.830 -0.8268  0.0201  0.7386
  590MPD2    H2 8751   4.712   4.022  16.932  1.3794 -0.5500  0.5819
  590MPD2    H3 8752   0.233   4.026  16.972 -0.3851 -0.8649  0.0053
  590MPD2     N 8753   0.308   4.279  16.601 -0.6290 -0.7149 -0.2892
  590MPD2    H5 8754   0.255   4.311  16.520 -2.5011 -0.3269  1.0959
  590MPD2    N1 8755   4.602   4.115  16.713  0.2909  0.0322  0.2835
  590MPD2    H7 8756   4.547   4.083  16.792  0.0029  0.4685  0.2593
  591TMC3    C1 8757   0.468   4.402  16.497 -0.4476 -0.1889  0.6455
  591TMC3    C2 8758   0.473   4.336  16.376 -0.1035  0.3051 -0.6744
  591TMC3    C3 8759   0.410   4.397  16.268 -0.4201  0.3823  0.3352
  591TMC3    C4 8760   0.377   4.506  16.511  0.3844  0.0724 -0.3713
  591TMC3    C5 8761   0.309   4.552  16.400 -0.3492  0.1428  0.0196
  591TMC3    C6 8762   0.327   4.506  16.275 -0.0687 -0.2476  0.7390
  591TMC3     C 8763   0.444   4.311  16.607 -0.3972  0.0709  0.6225
  591TMC3     O 8764   0.525   4.293  16.692 -0.0544 -0.1783  0.0662
  591TMC3     H 8765   0.532   4.246  16.368  0.8683  0.7982  0.8352
  591TMC3    H1 8766   0.361   4.543  16.611  1.8973 -0.8179  0.2117
  591TMC3    H2 8767   0.266   4.539  16.192  0.5842 -0.0451  0.3394
  591TMC3    C7 8768   0.215   4.661  16.425  0.1303  0.1442 -0.5305
  591TMC3    C8 8769   0.448   4.345  16.137 -0.4581  0.6268  0.4367
  591TMC3    O1 8770   0.151   4.670  16.527  0.3406 -0.1956 -0.2409
  591TMC3    O2 8771   0.460   4.223  16.131  0.1205 -0.4310 -0.4215
  592MPD2     C 8772   0.473   1.506  11.359 -0.1859 -0.8306  0.1817
  592MPD2    C1 8773   0.523   1.528  11.486 -0.4918 -0.3360 -0.3029
  592MPD2    C2 8774   0.438   1.482  11.587  0.1801 -0.0772 -0.0105
  592MPD2    C3 8775   0.319   1.413  11.563 -0.1195  0.1353 -0.5505
  592MPD2    C4 8776   0.275   1.397  11.432 -0.2197 -0.0003  0.2343
  592MPD2    C5 8777   0.350   1.447  11.334 -0.7226  0.1434  0.4620
  592MPD2     H 8778   0.484   1.478  11.685 -1.6088  1.4370  0.8864
  592MPD2    H1 8779   0.183   1.345  11.407 -0.2058 -0.6573  1.5464
  592MPD2    H2 8780   0.534   1.543  11.278 -1.1186  0.5254  0.0957
  592MPD2    H3 8781   0.307   1.442  11.235  1.3986 -1.2389 -0.3891
  592MPD2     N 8782   0.260   1.361  11.681 -0.3191 -0.5327 -0.2589
  592MPD2    H5 8783   0.304   1.384  11.769  1.1394  0.4640 -1.2457
  592MPD2    N1 8784   0.650   1.584  11.514  0.3688  0.0483 -0.8975
  592MPD2    H7 8785   0.722   1.577  11.442  1.3969  0.2212  0.1195
  593TMC3    C1 8786   0.804   1.697  11.660 -0.1474 -0.4346  0.2167
  593TMC3    C2 8787   0.830   1.723  11.796  0.0570 -0.0160  0.4723
  593TMC3    C3 8788   0.957   1.744  11.828  0.2937 -0.1025  0.6071
  593TMC3    C4 8789   0.904   1.671  11.574 -0.7056 -0.0869  0.6818
  593TMC3    C5 8790   1.039   1.673  11.615  0.1571  0.7184 -0.4470
  593TMC3    C6 8791   1.064   1.720  11.743  0.2253  1.1368  0.2249
  593TMC3     C 8792   0.672   1.663  11.622 -0.3050 -0.3087 -0.3907
  593TMC3     O 8793   0.589   1.706  11.703 -0.1847  0.1615 -0.1431
  593TMC3     H 8794   0.757   1.738  11.875  0.7186 -0.9709  1.2695
  593TMC3    H1 8795   0.889   1.649  11.470 -0.2064  1.3417  0.2972
  593TMC3    H2 8796   1.167   1.743  11.767  0.9977 -0.6959 -1.3901
  593TMC3    C7 8797   1.145   1.671  11.510  0.2960  0.3021 -0.4034
  593TMC3    C8 8798   0.984   1.836  11.934  0.8789  0.3489  0.1095
  593TMC3    O1 8799   1.105   1.663  11.398  0.6128  0.1175  0.7262
  593TMC3    O2 8800   0.895   1.911  11.971  0.1912 -0.2655  0.5380
  594MPD2     C 8801   4.257   4.664  14.825 -0.5676  0.0256 -0.6133
  594MPD2    C1 8802   4.154   0.028  14.800 -0.7851  0.1372  0.2649
  594MPD2    C2 8803   4.183   0.159  14.810 -0.2789  0.5003  0.1396
  594MPD2    C3 8804   4.314   0.205  14.822  0.7600  0.2424 -0.3973
  594MPD2    C4 8805   4.415   0.116  14.837  0.1319 -0.1230  0.2561
  594MPD2    C5 8806   4.385   4.713  14.842  0.6179  0.3355  0.7712
  594MPD2     H 8807   4.099   0.227  14.801 -0.1745  0.5942 -0.1118
  594MPD2    H1 8808   4.520   0.139  14.824  1.0346 -2.9228  2.5661
  594MPD2    H2 8809   4.254   4.555  14.818  0.2972 -0.0253 -0.1629
  594MPD2    H3 8810   4.462   4.636  14.843  1.5221  1.2171 -0.8050
  594MPD2     N 8811   4.351   0.341  14.814  0.0277  0.0654 -1.2713
  594MPD2    H5 8812   4.446   0.367  14.793  0.5092 -0.9960 -0.3914
  594MPD2    N1 8813   4.021   4.698  14.777 -0.5532  0.0599  0.1633
  594MPD2    H7 8814   4.012   4.598  14.788 -0.5353 -0.0312 -0.6741
  595TMC3    C1 8815   4.458   0.660  14.590 -0.4929 -0.2411  0.1945
  595TMC3    C2 8816   4.439   0.568  14.690 -0.4083  0.2140 -0.1905
  595TMC3    C3 8817   4.310   0.560  14.745  0.2918  0.0082  0.1343
  595TMC3    C4 8818   4.359   0.736  14.541 -0.5359 -0.2579 -0.3456
  595TMC3    C5 8819   4.234   0.717  14.587  0.7619  0.2234 -0.2549
  595TMC3    C6 8820   4.213   0.631  14.693  0.6386  0.1649  0.1154
  595TMC3     C 8821   4.590   0.686  14.556  0.4461 -0.0773 -0.3569
  595TMC3     O 8822   4.672   0.689  14.649 -0.4884 -0.1525  0.3200
  595TMC3     H 8823   4.516   0.515  14.744 -0.7859  0.1075  0.2477
  595TMC3    H1 8824   4.367   0.798  14.452  2.7861  0.5584  0.5233
  595TMC3    H2 8825   4.119   0.629  14.747  0.2162 -0.6119 -0.6444
  595TMC3    C7 8826   4.129   0.825  14.587 -0.1937  0.0568  0.0938
  595TMC3    C8 8827   4.261   0.442  14.814  0.4716 -0.6717  0.4499
  595TMC3    O1 8828   4.010   0.792  14.604  0.3212  0.6203  0.1062
  595TMC3    O2 8829   4.151   0.441  14.864 -0.5031  0.0266 -0.0084
  596MPD2     C 8830   2.940   3.030  16.656 -0.6029 -0.3674 -0.4993
  596MPD2    C1 8831   2.923   3.156  16.606 -0.6358  0.2765 -0.1757
  596MPD2    C2 8832   2.925   3.165  16.469 -0.1349  0.2803  0.7544
  596MPD2    C3 8833   2.972   3.057  16.395  0.3689  0.5807  0.1634
  596MPD2    C4 8834   2.990   2.931  16.451  0.2402 -0.5689 -0.0552
  596MPD2    C5 8835   2.989   2.922  16.591  0.0869  0.0745 -0.1118
  596MPD2     H 8836   2.900   3.262  16.429 -1.1745 -0.0467  0.6012
  596MPD2    H1 8837   2.999   2.843  16.388  1.5667 -2.0336  2.1726
  596MPD2    H2 8838   2.912   3.008  16.758 -0.5959 -1.3910 -0.7174
  596MPD2    H3 8839   3.001   2.828  16.642  0.7210  0.4441  0.4257
  596MPD2     N 8840   2.966   3.060  16.255 -0.3304 -0.3175  0.0177
  596MPD2    H5 8841   2.960   2.970  16.209 -0.2652 -1.2279  1.7847
  596MPD2    N1 8842   2.864   3.261  16.670 -0.9384 -0.4023  0.9534
  596MPD2    H7 8843   2.851   3.346  16.615 -0.8653 -1.0131 -0.0156
  597TMC3    C1 8844   2.773   3.406  16.834 -0.7293 -0.4857  0.2729
  597TMC3    C2 8845   2.845   3.513  16.788  0.4773  0.2792  0.0739
  597TMC3    C3 8846   2.793   3.640  16.808  0.0946 -0.2192 -0.5053
  597TMC3    C4 8847   2.655   3.413  16.905 -0.1667  0.0848  0.1599
  597TMC3    C5 8848   2.601   3.540  16.911  0.8347 -0.2534  1.3021
  597TMC3    C6 8849   2.677   3.655  16.882 -0.0249  0.1254  0.7212
  597TMC3     C 8850   2.816   3.266  16.794  1.0392  0.4936 -0.3192
  597TMC3     O 8851   2.790   3.175  16.872  0.2706 -0.0611  0.0295
  597TMC3     H 8852   2.940   3.497  16.738  0.1370  1.2581 -0.9112
  597TMC3    H1 8853   2.599   3.331  16.948  3.0065 -0.3158  3.4691
  597TMC3    H2 8854   2.629   3.751  16.893 -0.2333 -0.0820  1.5775
  597TMC3    C7 8855   2.482   3.559  16.992 -0.3826  0.2862 -0.4922
  597TMC3    C8 8856   2.822   3.740  16.704 -0.4897  0.3833  0.7357
  597TMC3    O1 8857   2.462   3.474  17.074  0.3578  0.2868 -0.2568
  597TMC3    O2 8858   2.745   3.833  16.712  0.0845 -0.2417  0.0661
  598TMC3    C1 8859   1.151   4.569  15.485 -0.5596  0.4041  0.1513
  598TMC3    C2 8860   1.071   4.460  15.465  0.1194  1.2138 -0.0204
  598TMC3    C3 8861   0.990   4.464  15.354 -0.0849 -0.1508  0.0796
  598TMC3    C4 8862   1.157   4.684  15.403 -0.4832 -1.0112 -0.1826
  598TMC3    C5 8863   1.076   4.674  15.295  0.2495 -0.7424 -0.4630
  598TMC3    C6 8864   0.989   4.575  15.274 -0.2422  0.6089  0.4162
  598TMC3     C 8865   1.245   4.559  15.603 -0.8656  0.3422 -0.2646
  598TMC3     O 8866   1.336   4.640  15.583 -0.8415  0.3448 -0.2630
  598TMC3     H 8867   1.082   4.372  15.528 -1.1638  0.9603 -0.1547
  598TMC3    H1 8868   1.234   0.032  15.417 -2.7407  1.2465 -0.1237
  598TMC3    H2 8869   0.921   4.569  15.190  0.0735  1.0004  0.1350
  598TMC3    C7 8870   1.086   0.046  15.191  0.6554  0.0113 -0.0367
  598TMC3    C8 8871   0.968   4.338  15.285 -0.7090  0.2131  0.0104
  598TMC3    O1 8872   1.010   0.035  15.098  0.0989 -0.0661 -0.3551
  598TMC3    O2 8873   1.002   4.327  15.166  0.1867 -0.7713  0.8407
  599MPD2     C 8874   1.391   2.449  16.371 -0.3075  0.0754  0.4869
  599MPD2    C1 8875   1.318   2.356  16.307  0.3932  0.3687  0.0060
  599MPD2    C2 8876   1.185   2.338  16.337 -0.4221 -0.1357 -0.8354
  599MPD2    C3 8877   1.117   2.441  16.410  1.0308 -0.6032 -0.9158
  599MPD2    C4 8878   1.188   2.541  16.465  0.2350 -0.1262  0.1281
  599MPD2    C5 8879   1.324   2.546  16.454  0.6472 -0.1209 -0.2131
  599MPD2     H 8880   1.131   2.258  16.287  0.8065 -0.6971 -1.2604
  599MPD2    H1 8881   1.146   2.615  16.533 -0.9235  0.1724 -0.9210
  599MPD2    H2 8882   1.499   2.452  16.369 -0.2757 -0.0013  1.9655
  599MPD2    H3 8883   1.374   2.625  16.509 -1.5389  2.3599 -1.7715
  599MPD2     N 8884   0.981   2.441  16.437 -0.2773 -0.3635 -0.1453
  599MPD2    H5 8885   0.948   2.528  16.478 -0.8355 -0.5058 -0.2983
  599MPD2    N1 8886   1.406   2.262  16.240  0.2426  0.0335 -0.4224
  599MPD2    H7 8887   1.507   2.268  16.245  0.2019  1.8253 -1.5777
  600TMC3    C1 8888   0.761   2.370  16.456 -0.7435  0.7014 -0.3130
  600TMC3    C2 8889   0.708   2.263  16.532  0.0020 -0.5407  0.0347
  600TMC3    C3 8890   0.617   2.300  16.625  0.4568  0.3602 -0.9884
  600TMC3    C4 8891   0.710   2.499  16.469  0.6769  0.0293 -0.1060
  600TMC3    C5 8892   0.609   2.526  16.565  1.0057 -0.3176 -0.3157
  600TMC3    C6 8893   0.560   2.425  16.651 -0.4472  0.0049 -1.2809
  600TMC3     C 8894   0.887   2.353  16.392  0.6128 -0.3938 -0.3204
  600TMC3     O 8895   0.899   2.253  16.323 -0.1209  0.7476  0.1193
  600TMC3     H 8896   0.758   2.167  16.528  1.1156  0.0826 -0.8020
  600TMC3    H1 8897   0.751   2.574  16.402  0.7088  2.2260  2.3802
  600TMC3    H2 8898   0.486   2.442  16.728  0.9680 -1.1626  0.3518
  600TMC3    C7 8899   0.557   2.660  16.587  0.4054  0.0002 -0.1586
  600TMC3    C8 8900   0.605   2.205  16.730 -0.2599  0.6903 -0.5298
  600TMC3    O1 8901   0.469   2.677  16.671  0.0935 -0.1852 -0.4827
  600TMC3    O2 8902   0.700   2.127  16.732  0.4163  0.8729  0.0870
  601MPD2     C 8903   3.336   0.349   0.151  0.0098 -0.4699 -0.1418
  601MPD2    C1 8904   3.213   0.309   0.105 -0.2094 -0.2907 -0.3752
  601MPD2    C2 8905   3.196   0.177   0.063 -0.1176 -0.6477  0.0010
  601MPD2    C3 8906   3.309   0.099   0.053  0.5342  0.3233  0.4625
  601MPD2    C4 8907   3.429   0.149   0.102  0.6862  0.1757  0.4506
  601MPD2    C5 8908   3.443   0.268   0.153 -0.9212 -0.1029  1.1973
  601MPD2     H 8909   3.104   0.141   0.018 -0.0091 -0.4102 -0.4080
  601MPD2    H1 8910   3.515   0.083   0.097  1.2745  0.8081  2.5787
  601MPD2    H2 8911   3.351   0.446   0.196 -0.1207  0.2053 -1.5618
  601MPD2    H3 8912   3.541   0.296   0.189 -0.1986 -1.2933  0.1393
  601MPD2     N 8913   3.299   4.694   0.009  0.6635 -0.7502  0.2700
  601MPD2    H5 8914   3.210   4.673  17.674  0.2332  1.1397  0.2148
  601MPD2    N1 8915   3.102   0.396   0.097  0.1187  0.2459 -0.4768
  601MPD2    H7 8916   3.013   0.353   0.071 -0.9634  0.2891  3.1181
  602TMC3    C1 8917   2.987   0.604   0.093  0.4762 -0.3300 -0.3995
  602TMC3    C2 8918   3.002   0.740   0.070 -0.7074 -0.1656 -0.0242
  602TMC3    C3 8919   2.894   0.808   0.012  0.3086 -0.3222  0.2410
  602TMC3    C4 8920   2.874   0.536   0.065  0.0609 -0.0771  0.0562
  602TMC3    C5 8921   2.773   0.608   0.003 -0.8904  0.2249  0.0996
  602TMC3    C6 8922   2.779   0.739  17.683  0.2807 -0.0171  0.3803
  602TMC3     C 8923   3.114   0.534   0.114  0.6889  0.0356 -0.7364
  602TMC3     O 8924   3.212   0.607   0.124  0.6237 -0.3129 -0.2072
  602TMC3     H 8925   3.090   0.796   0.098 -0.5981 -0.1528 -0.4012
  602TMC3    H1 8926   2.865   0.429   0.080 -0.9083  0.0835  0.6471
  602TMC3    H2 8927   2.685   0.790  17.662 -0.1022 -0.3432  1.3303
  602TMC3    C7 8928   2.665   0.527  17.654  0.5258  0.1853  0.3464
  602TMC3    C8 8929   2.907   0.950  17.693  0.6136 -0.6881 -0.3472
  602TMC3    O1 8930   2.632   0.426  17.708  0.0076  0.1962  0.3820
  602TMC3    O2 8931   2.995   1.018   0.028 -0.5179  0.4705 -0.2620
  603TMC3    C1 8932   1.629   0.443  11.338 -0.6682 -0.0366 -0.5006
  603TMC3    C2 8933   1.658   0.484  11.462  0.4428  0.4691 -0.3250
  603TMC3    C3 8934   1.643   0.615  11.494 -0.3140 -0.0245  0.2514
  603TMC3    C4 8935   1.604   0.525  11.234 -0.3116  0.5692 -0.0509
  603TMC3    C5 8936   1.587   0.654  11.263  0.0676  0.3420 -0.4375
  603TMC3    C6 8937   1.610   0.706  11.393  0.4892 -0.3232  0.3308
  603TMC3     C 8938   1.648   0.303  11.324  0.6793  0.7406  0.3084
  603TMC3     O 8939   1.646   0.239  11.428  0.2052 -0.3004 -0.1358
  603TMC3     H 8940   1.704   0.417  11.533 -0.7502  0.3964  0.3809
  603TMC3    H1 8941   1.600   0.496  11.129  0.9374  2.4385 -0.6036
  603TMC3    H2 8942   1.648   0.807  11.400  1.1676 -0.5874  0.5251
  603TMC3    C7 8943   1.593   0.745  11.152  0.1026  0.1509  0.5187
  603TMC3    C8 8944   1.668   0.662  11.628 -0.4660 -0.3198  0.7452
  603TMC3    O1 8945   1.648   0.851  11.172 -0.0214  0.0252  0.8000
  603TMC3    O2 8946   1.737   0.584  11.696 -0.3855 -0.2189 -0.3814
  604MPD2     C 8947   2.107   4.613  16.292 -0.3929 -0.0712 -0.6831
  604MPD2    C1 8948   1.994   4.532  16.274 -0.5185  0.1695 -0.1561
  604MPD2    C2 8949   1.987   4.457  16.156  0.1370  0.4587  0.3897
  604MPD2    C3 8950   2.098   4.456  16.067 -1.0389  0.2134 -0.2472
  604MPD2    C4 8951   2.211   4.536  16.098 -0.2077  0.2214 -0.7067
  604MPD2    C5 8952   2.215   4.608  16.209  0.3364  0.6941  0.6786
  604MPD2     H 8953   1.897   4.404  16.124  0.8834 -0.5018 -0.1219
  604MPD2    H1 8954   2.280   4.553  16.016 -1.7244  2.2763 -1.5574
  604MPD2    H2 8955   2.117   4.683  16.375 -0.2973 -1.3062  0.3519
  604MPD2    H3 8956   2.298   4.675  16.228  0.8555 -0.4464  2.3567
  604MPD2     N 8957   2.082   4.378  15.945 -0.4831  0.2905  1.0102
  604MPD2    H5 8958   1.992   4.335  15.927 -1.8453  2.8181  1.8507
  604MPD2    N1 8959   1.889   4.541  16.366  0.3207 -1.4271  0.6221
  604MPD2    H7 8960   1.904   4.612  16.436 -1.0623 -0.0669 -0.4567
  605TMC3    C1 8961   1.697   4.503  16.487 -0.1684  0.0004 -0.3917
  605TMC3    C2 8962   1.777   4.545  16.590 -0.1836  0.2675  0.6646
  605TMC3    C3 8963   1.727   4.642  16.670  1.0800  0.3711 -0.2332
  605TMC3    C4 8964   1.575   4.556  16.462  0.1846  0.1074  0.3836
  605TMC3    C5 8965   1.527   4.643  16.552  0.0436  0.7605  0.0034
  605TMC3    C6 8966   1.607   4.699  16.642 -0.9998  0.7740 -0.0292
  605TMC3     C 8967   1.763   4.481  16.359  0.4698  0.3362 -0.4599
  605TMC3     O 8968   1.699   4.427  16.275 -0.5916 -0.3601  0.2641
  605TMC3     H 8969   1.875   4.504  16.611 -0.7814 -1.0284  0.8953
  605TMC3    H1 8970   1.525   4.531  16.369  0.4568  2.4786 -0.4097
  605TMC3    H2 8971   1.567   0.055  16.700  0.2849  1.1949  0.2560
  605TMC3    C7 8972   1.404   4.712  16.510  0.0381  0.6027  0.3267
  605TMC3    C8 8973   1.832   4.711  16.742 -0.5666 -0.2227 -0.2294
  605TMC3    O1 8974   1.386   0.105  16.536 -0.2956  0.2791  0.3761
  605TMC3    O2 8975   1.946   4.674  16.720  0.0011 -0.1396  0.2221
  606TMC3    C1 8976   3.595   2.439  17.029 -0.0943 -0.2875 -0.1515
  606TMC3    C2 8977   3.703   2.448  17.109 -0.4427  0.0697 -0.8614
  606TMC3    C3 8978   3.708   2.372  17.227 -0.4912  0.2943 -0.0622
  606TMC3    C4 8979   3.481   2.359  17.058 -0.2251  0.0483 -0.5890
  606TMC3    C5 8980   3.497   2.277  17.171 -0.3633  0.1184 -0.3291
  606TMC3    C6 8981   3.608   2.280  17.250 -0.0625 -0.9368  0.8184
  606TMC3     C 8982   3.611   2.490  16.893 -0.1305  0.3443  0.1681
  606TMC3     O 8983   3.722   2.518  16.852 -0.0475 -0.2606  0.2684
  606TMC3     H 8984   3.784   2.515  17.083  0.5273 -1.3779 -1.5225
  606TMC3    H1 8985   3.394   2.355  16.994 -0.7905  0.0816  0.1873
  606TMC3    H2 8986   3.596   2.214  17.335 -0.4603  0.9981  2.2558
  606TMC3    C7 8987   3.376   2.233  17.247 -0.2613  1.0999  0.2916
  606TMC3    C8 8988   3.770   2.420  17.346  0.0509  0.4584 -0.2616
  606TMC3    O1 8989   3.396   2.138  17.321  0.2348  0.0111 -0.0084
  606TMC3    O2 8990   3.764   2.343  17.442  0.1812  0.4689  0.0403
  607MPD2     C 8991   0.233   0.825  11.774  0.4916 -0.0019  0.6640
  607MPD2    C1 8992   0.322   0.925  11.811  0.0300 -0.4872 -0.2355
  607MPD2    C2 8993   0.328   0.962  11.944 -0.0607  0.2258  0.2960
  607MPD2    C3 8994   0.269   0.887  12.043  0.3050  0.3066  0.0029
  607MPD2    C4 8995   0.187   0.783  12.010 -0.5672  0.2822  0.2401
  607MPD2    C5 8996   0.168   0.761  11.877 -0.0726 -0.9371 -0.2720
  607MPD2     H 8997   0.403   1.035  11.974  0.4788 -0.3798  0.4275
  607MPD2    H1 8998   0.138   0.719  12.083 -0.8107 -0.8847 -0.9375
  607MPD2    H2 8999   0.217   0.793  11.671  1.4178  2.9468 -0.3970
  607MPD2    H3 9000   0.087   0.692  11.858 -1.3009  0.3881  0.1204
  607MPD2     N 9001   0.326   0.914  12.174  0.1295  0.7247  0.3920
  607MPD2    H5 9002   0.384   0.996  12.184  0.9243  0.1667  0.3411
  607MPD2    N1 9003   0.391   1.000  11.721 -0.4762 -0.8928 -0.2005
  607MPD2    H7 9004   0.448   1.068  11.770 -1.8936  0.8784 -1.0205
  608TMC3    C1 9005   0.501   1.092  11.530 -0.5057  0.0595  0.0114
  608TMC3    C2 9006   0.587   1.153  11.618  0.5229  0.8411 -0.6874
  608TMC3    C3 9007   0.710   1.202  11.578  0.8798 -0.6076  0.6327
  608TMC3    C4 9008   0.536   1.082  11.392  0.5604  0.6214  0.4672
  608TMC3    C5 9009   0.658   1.137  11.352 -1.0106 -0.3536  0.1014
  608TMC3    C6 9010   0.748   1.188  11.445 -0.2301  0.3296 -0.2201
  608TMC3     C 9011   0.403   0.995  11.585  0.3885 -0.3208 -0.0309
  608TMC3     O 9012   0.363   0.919  11.499 -0.1140  0.3788 -0.2605
  608TMC3     H 9013   0.553   1.176  11.718 -0.1360  1.6525 -1.1021
  608TMC3    H1 9014   0.464   1.046  11.320  2.0882  0.7711 -1.1283
  608TMC3    H2 9015   0.848   1.205  11.408 -0.9015  0.0637 -2.1531
  608TMC3    C7 9016   0.705   1.124  11.220 -0.3594  0.4167 -0.6521
  608TMC3    C8 9017   0.791   1.270  11.681  0.5087 -0.5087 -0.7280
  608TMC3    O1 9018   0.817   1.163  11.192  0.1891 -0.2747  0.2151
  608TMC3    O2 9019   0.869   1.359  11.652  0.0235  0.4229  0.5311
  609TMC3    C1 9020   3.941   4.337   9.165 -0.5531 -0.0040  0.4938
  609TMC3    C2 9021   3.902   4.333   9.027  0.7132  0.2516  1.0717
  609TMC3    C3 9022   3.984   4.263   8.946 -0.6322 -0.6316  0.1053
  609TMC3    C4 9023   4.060   4.280   9.203 -0.1621 -0.2534 -0.4354
  609TMC3    C5 9024   4.146   4.225   9.111  0.1897  0.1046 -0.4710
  609TMC3    C6 9025   4.109   4.211   8.982  0.0776  0.4138 -0.4055
  609TMC3     C 9026   3.854   4.388   9.268  0.4363 -0.1248  0.0384
  609TMC3     O 9027   3.907   4.399   9.379  0.2710 -0.5492  0.1367
  609TMC3     H 9028   3.814   4.386   8.994  1.3489  1.0878  0.7167
  609TMC3    H1 9029   4.090   4.268   9.307 -0.1733  0.2890 -0.3690
  609TMC3    H2 9030   4.184   4.179   8.911  0.5965  2.0393 -0.5862
  609TMC3    C7 9031   4.278   4.199   9.158  0.9057  0.1731 -0.1705
  609TMC3    C8 9032   3.972   4.292   8.804 -0.4321 -0.2426  0.2837
  609TMC3    O1 9033   4.297   4.226   9.276 -0.7295  0.0742  0.2668
  609TMC3    O2 9034   4.073   4.265   8.734  0.4187 -0.0682 -0.5378
  610TMC3    C1 9035   0.787   0.990  12.858 -0.0886 -0.3607  0.4124
  610TMC3    C2 9036   0.812   1.074  12.752  0.7155  0.5118  0.7891
  610TMC3    C3 9037   0.934   1.066  12.696  0.4673 -0.9545  0.3916
  610TMC3    C4 9038   0.877   0.901  12.909 -0.2620  0.5274 -0.4645
  610TMC3    C5 9039   1.000   0.900  12.838 -0.5187 -0.5770  0.9814
  610TMC3    C6 9040   1.034   0.995  12.748  0.0762  0.3401 -0.2493
  610TMC3     C 9041   0.650   0.944  12.865 -0.0781 -0.4806 -0.0887
  610TMC3     O 9042   0.627   0.830  12.904 -0.2455  0.4416 -0.6983
  610TMC3     H 9043   0.733   1.127  12.700  0.2789  0.5348  1.4657
  610TMC3    H1 9044   0.848   0.837  12.991  0.9077  0.5454 -0.0408
  610TMC3    H2 9045   1.130   0.981  12.699  0.1083  0.9289 -0.3622
  610TMC3    C7 9046   1.099   0.800  12.881 -0.0266 -0.0168 -0.0523
  610TMC3    C8 9047   0.955   1.144  12.575  0.1517  0.2233  0.4966
  610TMC3    O1 9048   1.214   0.846  12.867  0.2826 -0.7483  0.1711
  610TMC3    O2 9049   0.895   1.246  12.549  0.1255  0.3858 -0.1696
  611MPD2     C 9050   0.881   0.012  10.432 -0.3597 -0.4938  0.2636
  611MPD2    C1 9051   0.788   0.092  10.367 -0.2717 -0.1741  0.2171
  611MPD2    C2 9052   0.808   0.226  10.382 -0.1096  0.1690 -0.2391
  611MPD2    C3 9053   0.923   0.279  10.443 -0.0043  0.4691  0.2037
  611MPD2    C4 9054   1.012   0.197  10.502  0.0036 -0.1508 -0.7718
  611MPD2    C5 9055   0.985   0.065  10.504 -0.2112  0.2076  0.6621
  611MPD2     H 9056   0.738   0.293  10.333  1.1374  0.5747 -1.4549
  611MPD2    H1 9057   1.086   0.236  10.569 -1.0970  0.2424  0.2146
  611MPD2    H2 9058   0.858   4.634  10.438  1.8908 -1.0735 -1.3717
  611MPD2    H3 9059   1.056   4.726  10.553  0.1332 -0.1748 -0.3321
  611MPD2     N 9060   0.950   0.418  10.448  0.0177  0.0750  0.2533
  611MPD2    H5 9061   1.018   0.457  10.513  0.2213 -0.4151  0.3328
  611MPD2    N1 9062   0.681   0.033  10.299 -0.1946 -0.0703 -0.1266
  611MPD2    H7 9063   0.673   4.660  10.299  1.1915 -0.1827  0.9475
  612TMC3    C1 9064   0.916   0.649  10.424  0.0432 -0.4147  1.1500
  612TMC3    C2 9065   1.041   0.668  10.477 -0.3265  0.7307 -0.3173
  612TMC3    C3 9066   1.081   0.793  10.510  0.7109 -0.4564  0.0827
  612TMC3    C4 9067   0.829   0.754  10.390 -0.7042  0.0444 -0.6397
  612TMC3    C5 9068   0.889   0.884  10.406 -0.2189  1.0338 -0.8396
  612TMC3    C6 9069   1.010   0.902  10.469  0.4783  0.3940  0.2837
  612TMC3     C 9070   0.870   0.512  10.391  0.0806 -0.6288  0.2835
  612TMC3     O 9071   0.790   0.504  10.298  0.6173 -0.6646  0.2709
  612TMC3     H 9072   1.107   0.587  10.506 -1.3523  0.2676  0.7057
  612TMC3    H1 9073   0.736   0.751  10.335 -2.0399 -0.6080  1.6592
  612TMC3    H2 9074   1.053   0.998  10.497  2.3596 -0.2166 -0.5464
  612TMC3    C7 9075   0.815   1.007  10.370 -0.4095 -0.4288 -0.2654
  612TMC3    C8 9076   1.218   0.830  10.550 -0.2381  0.3560  0.0387
  612TMC3    O1 9077   0.864   1.112  10.407  0.5830  0.1205 -0.1057
  612TMC3    O2 9078   1.271   0.910  10.469 -0.4032 -0.1797  0.4547
  613MPD2     C 9079   3.945   3.353  16.798 -0.2164  0.5945 -1.0157
  613MPD2    C1 9080   3.895   3.379  16.673  0.6251  0.0064  0.1574
  613MPD2    C2 9081   3.835   3.271  16.604  0.0228 -0.3909 -0.4620
  613MPD2    C3 9082   3.823   3.143  16.661 -0.2681  0.5208  1.1127
  613MPD2    C4 9083   3.883   3.131  16.789 -0.1183 -0.2878 -0.0279
  613MPD2    C5 9084   3.945   3.232  16.852  0.5240  0.2923  0.0614
  613MPD2     H 9085   3.790   3.271  16.506  1.4663 -1.3417 -1.1216
  613MPD2    H1 9086   3.877   3.039  16.846  0.1760 -0.8353 -0.8763
  613MPD2    H2 9087   3.986   3.438  16.852  2.2251 -1.6602  0.6287
  613MPD2    H3 9088   3.980   3.207  16.951  2.4016 -1.3774 -1.0056
  613MPD2     N 9089   3.776   3.024  16.602 -0.2771  0.9524 -0.4560
  613MPD2    H5 9090   3.787   2.936  16.651  0.2643  2.3272  1.8730
  613MPD2    N1 9091   3.921   3.510  16.615 -0.3936  0.2689  0.0620
  613MPD2    H7 9092   3.934   3.583  16.685  0.3162 -0.7097  0.9531
  614TMC3    C1 9093   3.906   3.476  16.367  0.0481 -0.4898  0.3223
  614TMC3    C2 9094   3.991   3.368  16.359 -0.1672 -0.6032 -0.2372
  614TMC3    C3 9095   4.026   3.301  16.245  0.1790  0.4684 -0.5807
  614TMC3    C4 9096   3.870   3.537  16.249 -0.3622  0.5676  0.1300
  614TMC3    C5 9097   3.920   3.480  16.135 -0.4834 -0.4202  0.7413
  614TMC3    C6 9098   3.986   3.360  16.127 -0.0461  0.5960 -0.2070
  614TMC3     C 9099   3.912   3.558  16.486  0.4823  0.4980 -0.1582
  614TMC3     O 9100   3.912   3.676  16.451 -0.5786  0.3930  0.3934
  614TMC3     H 9101   4.043   3.332  16.447  2.3223  1.7160 -0.7523
  614TMC3    H1 9102   3.819   3.632  16.242 -0.4360  0.6953  2.4035
  614TMC3    H2 9103   4.018   3.316  16.033 -0.9488  0.7500 -0.5816
  614TMC3    C7 9104   3.887   3.550  16.013  0.5163  0.5285  0.1618
  614TMC3    C8 9105   4.050   3.157  16.252 -1.0238  0.3244  0.0420
  614TMC3    O1 9106   3.854   3.668  16.021  0.7196 -0.0590 -0.7000
  614TMC3    O2 9107   4.022   3.108  16.365  0.1974 -0.3884  0.3696
  615MPD2     C 9108   3.549   4.326  16.076 -0.3534  0.2048 -0.1534
  615MPD2    C1 9109   3.621   4.428  16.019 -0.5339 -0.5040 -0.4367
  615MPD2    C2 9110   3.589   4.463  15.883  1.2585 -0.1603 -0.7122
  615MPD2    C3 9111   3.498   4.397  15.808 -0.3185 -0.7625  0.6897
  615MPD2    C4 9112   3.416   4.305  15.875 -0.2942 -0.2348  0.1878
  615MPD2    C5 9113   3.442   4.266  16.007 -0.5265 -0.1113 -0.6191
  615MPD2     H 9114   3.648   4.548  15.849  2.5752 -0.3952  0.9552
  615MPD2    H1 9115   3.344   4.245  15.821 -0.2679 -0.2667  0.1879
  615MPD2    H2 9116   3.570   4.284  16.173  0.9663  0.9210 -0.1348
  615MPD2    H3 9117   3.390   4.192  16.066  1.4985 -0.7262  0.4152
  615MPD2     N 9118   3.470   4.435  15.679  0.1188  0.2367 -1.0664
  615MPD2    H5 9119   3.497   4.529  15.651 -0.1916  0.2351 -1.3736
  615MPD2    N1 9120   3.737   4.478  16.076  0.0702 -0.0157 -1.3487
  615MPD2    H7 9121   3.784   4.549  16.021  0.2612  1.5080  0.7676
  616TMC3    C1 9122   3.917   4.514  16.222 -0.4439 -0.0816  0.0371
  616TMC3    C2 9123   3.953   4.536  16.347 -1.0406  0.1307 -0.2844
  616TMC3    C3 9124   4.086   4.556  16.379 -0.2407  0.2057  0.0835
  616TMC3    C4 9125   4.014   4.497  16.127  1.0043 -0.2849 -0.3212
  616TMC3    C5 9126   4.142   4.511  16.163  0.4826  0.3603 -0.6397
  616TMC3    C6 9127   4.183   4.540  16.289  0.1224  0.1551 -0.1556
  616TMC3     C 9128   3.785   4.459  16.203  0.4413  0.2728 -0.7563
  616TMC3     O 9129   3.736   4.398  16.296 -0.2598 -0.4842 -0.5242
  616TMC3     H 9130   3.873   4.552  16.419  1.3131 -0.6011  2.5227
  616TMC3    H1 9131   3.990   4.474  16.024  0.8177  0.1299 -0.3696
  616TMC3    H2 9132   4.282   4.516  16.325 -0.9474 -1.2871  1.8211
  616TMC3    C7 9133   4.239   4.501  16.059 -0.1187  0.0216 -0.4582
  616TMC3    C8 9134   4.120   4.557  16.521 -0.2880 -0.1970 -0.0145
  616TMC3    O1 9135   4.199   4.438  15.966 -0.5169  0.3129  0.1731
  616TMC3    O2 9136   4.029   4.505  16.591  0.3272 -0.1786  0.2209
  617MPD2     C 9137   1.693   2.571  13.255 -0.0300 -0.2610 -0.2718
  617MPD2    C1 9138   1.657   2.662  13.353  0.6949  0.6058 -0.7959
  617MPD2    C2 9139   1.519   2.686  13.380 -0.3300 -0.4822  0.6585
  617MPD2    C3 9140   1.428   2.607  13.307 -1.3015  0.9835  0.1472
  617MPD2    C4 9141   1.470   2.518  13.211  0.0072  0.2610 -0.2375
  617MPD2    C5 9142   1.600   2.510  13.179 -0.0006  0.4711  0.0946
  617MPD2     H 9143   1.493   2.754  13.460  2.2250  1.9150 -0.5585
  617MPD2    H1 9144   1.409   2.446  13.158  1.2258  0.3291 -1.7198
  617MPD2    H2 9145   1.796   2.549  13.230 -0.3549 -2.6648  0.5207
  617MPD2    H3 9146   1.624   2.438  13.102 -1.5384 -0.3517  0.3679
  617MPD2     N 9147   1.291   2.609  13.332  0.0195 -0.3515 -0.6564
  617MPD2    H5 9148   1.241   2.531  13.290  2.7096 -1.9302 -0.8800
  617MPD2    N1 9149   1.758   2.703  13.432  0.0702 -0.1255  0.1291
  617MPD2    H7 9150   1.848   2.661  13.410  0.8584  0.8045  1.5836
  618TMC3    C1 9151   1.887   2.826  13.583  0.4833  0.2584  0.4128
  618TMC3    C2 9152   1.946   2.711  13.625  0.0610  0.4991 -0.2668
  618TMC3    C3 9153   2.073   2.714  13.673  0.1372 -0.8792  0.7186
  618TMC3    C4 9154   1.949   2.946  13.598 -0.4252 -0.5299 -0.0206
  618TMC3    C5 9155   2.087   2.944  13.631 -0.2526 -1.0823 -0.2472
  618TMC3    C6 9156   2.143   2.833  13.681 -0.2825  0.0278  0.4651
  618TMC3     C 9157   1.754   2.812  13.517 -0.3847 -0.0646  0.0679
  618TMC3     O 9158   1.674   2.903  13.525 -0.0148 -0.8026  0.4161
  618TMC3     H 9159   1.891   2.618  13.622 -0.2476  0.6712  0.1352
  618TMC3    H1 9160   1.892   3.034  13.567 -0.6746 -0.0717  1.7576
  618TMC3    H2 9161   2.242   2.841  13.725  0.2785  0.1905 -0.8252
  618TMC3    C7 9162   2.134   3.070  13.674 -0.2207 -0.3700 -0.2230
  618TMC3    C8 9163   2.141   2.593  13.672 -0.4275  0.3695 -0.8636
  618TMC3    O1 9164   2.049   3.147  13.707  0.7392 -0.1405  0.1661
  618TMC3    O2 9165   2.076   2.500  13.620 -0.5521 -0.2807 -0.4112
  619MPD2     C 9166   3.288   4.155  12.976  0.3634 -0.0602  0.4133
  619MPD2    C1 9167   3.229   4.269  13.021 -0.5507 -1.3818 -0.1026
  619MPD2    C2 9168   3.131   4.251  13.113  0.2397  0.0696  0.5534
  619MPD2    C3 9169   3.098   4.127  13.160  0.2030 -0.2908  0.4370
  619MPD2    C4 9170   3.163   4.010  13.120  0.0804 -0.2227  0.6338
  619MPD2    C5 9171   3.266   4.027  13.029 -0.0105  0.2555  0.8298
  619MPD2     H 9172   3.079   4.335  13.158  0.7560  1.1038 -0.7638
  619MPD2    H1 9173   3.142   3.915  13.166  3.4731 -1.9199 -1.2771
  619MPD2    H2 9174   3.360   4.158  12.895  1.5365 -0.9868  1.4379
  619MPD2    H3 9175   3.318   3.946  12.978 -2.5138 -0.9807  0.2644
  619MPD2     N 9176   2.998   4.102  13.255  0.0376 -0.1221  0.0782
  619MPD2    H5 9177   2.964   4.008  13.272  1.8637 -0.7387  0.2706
  619MPD2    N1 9178   3.246   4.400  12.967 -0.4904  0.3596  0.3246
  619MPD2    H7 9179   3.176   4.464  13.001 -2.6461 -1.4009 -0.8289
  620TMC3    C1 9180   3.348   4.590  12.866  0.1274 -0.0405 -0.1579
  620TMC3    C2 9181   3.218   4.621  12.826  0.2266  0.6088  0.2792
  620TMC3    C3 9182   3.145   4.722  12.882  0.5125  0.2075  0.7038
  620TMC3    C4 9183   3.406   4.666  12.960  0.0330  0.3306 -0.5276
  620TMC3    C5 9184   3.341   0.049  13.007 -0.2920  0.0900 -0.5177
  620TMC3    C6 9185   3.217   0.077  12.969  0.3201 -0.7004  0.4776
  620TMC3     C 9186   3.356   4.445  12.900  0.6440 -0.2908 -0.2809
  620TMC3     O 9187   3.449   4.383  12.860 -0.4922  0.1365  0.1094
  620TMC3     H 9188   3.161   4.546  12.773 -0.2104  0.0688  1.5072
  620TMC3    H1 9189   3.488   4.623  13.018  1.3186  3.2943 -0.1306
  620TMC3    H2 9190   3.175   0.168  13.012 -0.1881 -0.8846  0.3653
  620TMC3    C7 9191   3.350   0.073  13.151  0.2484 -0.2874  0.2974
  620TMC3    C8 9192   3.019   4.673  12.932 -0.3414 -0.1077 -0.1595
  620TMC3    O1 9193   3.240   0.058  13.208  0.0449  0.3842 -0.2099
  620TMC3    O2 9194   2.956   4.587  12.872 -0.3133 -0.4986 -0.2432
  621MPD2     C 9195   4.155   3.669   9.619 -0.5685 -0.7750 -0.6311
  621MPD2    C1 9196   4.228   3.671   9.734 -0.7074 -0.3458 -0.5065
  621MPD2    C2 9197   4.201   3.772   9.827  0.0830  1.1316 -0.1001
  621MPD2    C3 9198   4.115   3.879   9.795 -0.8166 -0.0704  0.4782
  621MPD2    C4 9199   4.047   3.871   9.679  0.1878  0.3640 -0.7780
  621MPD2    C5 9200   4.062   3.767   9.595 -0.4639 -0.1295  0.1981
  621MPD2     H 9201   4.273   3.791   9.905 -0.8570 -0.5706  1.1804
  621MPD2    H1 9202   3.974   3.942   9.641 -1.6665 -0.1482  1.8571
  621MPD2    H2 9203   4.157   3.590   9.545 -1.4505 -0.7643 -0.6665
  621MPD2    H3 9204   4.000   3.774   9.506 -2.0474 -1.6616  1.1711
  621MPD2     N 9205   4.107   3.990   9.888 -0.5467 -0.0153  0.1393
  621MPD2    H5 9206   4.152   3.982   9.979 -4.2719 -0.1081  1.9746
  621MPD2    N1 9207   4.327   3.572   9.759 -0.1988  0.3257  0.9114
  621MPD2    H7 9208   4.359   3.566   9.855  0.9904  0.7027  0.5299
  622TMC3    C1 9209   4.462   3.385   9.704  0.2325 -0.2316  0.7600
  622TMC3    C2 9210   4.435   3.324   9.824  0.5952  0.4386 -0.2738
  622TMC3    C3 9211   4.435   3.185   9.830 -0.8856 -0.4955  0.5096
  622TMC3    C4 9212   4.513   3.307   9.601  0.2872  0.1444 -0.1499
  622TMC3    C5 9213   4.515   3.170   9.614 -0.5448 -0.1919 -0.0165
  622TMC3    C6 9214   4.473   3.101   9.722  0.0374 -0.0157  0.3976
  622TMC3     C 9215   4.374   3.488   9.663  0.1924  0.2977 -0.4847
  622TMC3     O 9216   4.357   3.492   9.539  0.1265 -0.0114 -0.2831
  622TMC3     H 9217   4.386   3.384   9.900  3.2937  1.7065  0.4577
  622TMC3    H1 9218   4.550   3.349   9.508 -1.9254 -1.8745 -1.9375
  622TMC3    H2 9219   4.460   2.994   9.733  1.5307 -0.2117  0.2526
  622TMC3    C7 9220   4.509   3.101   9.485  0.2706  0.3657 -0.1922
  622TMC3    C8 9221   4.406   3.121   9.951  0.2486 -0.2774  0.2652
  622TMC3    O1 9222   4.556   2.988   9.468  0.5866  0.4235  0.3224
  622TMC3    O2 9223   4.384   3.001   9.950 -0.2851  0.0389  0.5731
  623MPD2     C 9224   2.182   0.257  16.048 -0.5670 -0.1446 -0.0311
  623MPD2    C1 9225   2.107   0.221  16.155 -0.1648  0.0933 -0.0373
  623MPD2    C2 9226   2.158   0.235  16.282  1.0536  0.4461 -0.4717
  623MPD2    C3 9227   2.294   0.259  16.304 -0.2835 -0.3937  0.1197
  623MPD2    C4 9228   2.375   0.272  16.190  0.8418  0.6876 -0.1666
  623MPD2    C5 9229   2.318   0.273  16.064  0.5892  0.2253  0.6859
  623MPD2     H 9230   2.090   0.215  16.364 -0.9894  1.4840 -1.9170
  623MPD2    H1 9231   2.482   0.285  16.197  0.7546  1.3176  0.0328
  623MPD2    H2 9232   2.147   0.253  15.945 -0.5150  1.6355 -0.1146
  623MPD2    H3 9233   2.385   0.290  15.980 -0.3159  1.7582  0.2682
  623MPD2     N 9234   2.333   0.265  16.439 -0.5461  0.4632  0.4859
  623MPD2    H5 9235   2.278   0.223  16.514  2.9929  1.1795  3.5166
  623MPD2    N1 9236   1.980   0.174  16.132 -0.4404 -0.1308  0.3414
  623MPD2    H7 9237   1.926   0.170  16.218 -1.4678  0.1286 -0.2911
  624TMC3    C1 9238   2.614   0.080  16.716 -0.3950  0.1978 -0.1499
  624TMC3    C2 9239   2.532   0.090  16.825  0.0092 -0.2699 -0.3783
  624TMC3    C3 9240   2.429   0.184  16.817  0.2695 -0.0300 -0.4860
  624TMC3    C4 9241   2.596   0.160  16.603  0.0733  0.2231 -0.7192
  624TMC3    C5 9242   2.501   0.260  16.604 -0.4619 -0.2288  0.5195
  624TMC3    C6 9243   2.412   0.260  16.703 -0.3087  0.1983  0.0023
  624TMC3     C 9244   2.755   0.047  16.745  0.4352  1.1454 -0.3654
  624TMC3     O 9245   2.791   0.032  16.863 -0.2182 -0.6840  0.1377
  624TMC3     H 9246   2.543   0.043  16.922  2.4809  0.1079 -0.4764
  624TMC3    H1 9247   2.651   0.147  16.510 -0.1668 -0.9787 -0.7028
  624TMC3    H2 9248   2.319   0.313  16.686 -0.4020  0.2831  0.7755
  624TMC3    C7 9249   2.465   0.306  16.473  0.5731  0.0017  0.2717
  624TMC3    C8 9250   2.307   0.155  16.892  0.4085  0.8375  0.5821
  624TMC3    O1 9251   2.559   0.353  16.407  0.0980  0.2169 -0.4500
  624TMC3    O2 9252   2.270   0.041  16.880 -0.7778 -0.4511  0.3837
  625MPD2     C 9253   2.476   1.103   0.549 -0.1157 -0.3821  0.0106
  625MPD2    C1 9254   2.586   1.187   0.559  0.4618  0.2760  0.0969
  625MPD2    C2 9255   2.689   1.149   0.643  0.2018  0.5054  0.4941
  625MPD2    C3 9256   2.693   1.027   0.706  0.6355  0.4533 -0.2501
  625MPD2    C4 9257   2.583   0.946   0.695  0.6570 -0.7467  0.6059
  625MPD2    C5 9258   2.477   0.987   0.621  0.7203 -0.5439  0.0866
  625MPD2     H 9259   2.773   1.216   0.651 -0.4012  0.6948  5.4330
  625MPD2    H1 9260   2.574   0.848   0.740 -1.8737 -1.0803 -0.6426
  625MPD2    H2 9261   2.396   1.128   0.480 -0.4877 -0.9153  0.2503
  625MPD2    H3 9262   2.383   0.933   0.617 -0.6774  2.1502 -4.3886
  625MPD2     N 9263   2.811   0.985   0.775 -0.1249 -0.4562 -0.8988
  625MPD2    H5 9264   2.881   1.057   0.790 -1.8523  0.6312  2.0234
  625MPD2    N1 9265   2.586   1.311   0.496 -0.0372  0.1544  0.7740
  625MPD2    H7 9266   2.659   1.374   0.530 -1.0047 -0.0754  3.2852
  626TMC3    C1 9267   2.507   1.503   0.383 -0.5867  0.3710 -0.8563
  626TMC3    C2 9268   2.475   1.550   0.259  0.1591 -0.3406 -0.3192
  626TMC3    C3 9269   2.433   1.682   0.260 -0.0370  0.3448  0.4235
  626TMC3    C4 9270   2.490   1.571   0.500  0.0881 -0.3058  0.4399
  626TMC3    C5 9271   2.467   1.703   0.493  0.1184 -0.3034 -0.5451
  626TMC3    C6 9272   2.422   1.755   0.373  0.6748 -0.0791  0.3962
  626TMC3     C 9273   2.505   1.354   0.396  0.9799  0.1469 -0.1745
  626TMC3     O 9274   2.427   1.295   0.323  0.4092 -0.0690 -0.0401
  626TMC3     H 9275   2.476   1.481   0.176  0.3305  2.0109 -2.2723
  626TMC3    H1 9276   2.504   1.531   0.600  0.4635 -2.5971 -0.5266
  626TMC3    H2 9277   2.419   1.863   0.369  1.1908 -0.1113 -1.0144
  626TMC3    C7 9278   2.435   1.780   0.605 -0.6887  0.4170 -0.0606
  626TMC3    C8 9279   2.390   1.728   0.135  0.1611  0.1092  0.6814
  626TMC3    O1 9280   2.533   1.809   0.678 -0.2255  0.5143 -0.0856
  626TMC3    O2 9281   2.424   1.664   0.031  0.0559 -0.3798 -0.3155
  627MPD2     C 9282   1.021   1.862  14.217  0.3729 -0.0275 -0.1740
  627MPD2    C1 9283   1.069   1.840  14.343  1.2048  0.7365 -0.0552
  627MPD2    C2 9284   1.044   1.715  14.401  0.3699  0.1273 -0.4019
  627MPD2    C3 9285   0.960   1.618  14.346 -0.2861 -0.2133  0.0219
  627MPD2    C4 9286   0.900   1.654  14.230 -0.6302 -0.1481  0.8897
  627MPD2    C5 9287   0.936   1.769  14.160  0.0565  0.2625  0.0377
  627MPD2     H 9288   1.070   1.704  14.506 -1.6266  1.8088  0.2552
  627MPD2    H1 9289   0.832   1.583  14.184  0.2558 -0.8615  0.6862
  627MPD2    H2 9290   1.023   1.959  14.168 -1.6416 -0.0057 -0.2461
  627MPD2    H3 9291   0.900   1.797  14.061 -1.9016 -0.7767  0.4626
  627MPD2     N 9292   0.933   1.507  14.429  0.2160 -0.2952  0.6505
  627MPD2    H5 9293   0.992   1.503  14.512  0.7563  0.3705  0.3025
  627MPD2    N1 9294   1.139   1.928  14.418 -0.5970 -0.4553  0.5751
  627MPD2    H7 9295   1.177   1.897  14.507 -1.4615 -0.9147  0.7832
  628TMC3    C1 9296   1.223   2.142  14.473  0.2313  0.4385 -0.5502
  628TMC3    C2 9297   1.334   2.087  14.531  0.6570  0.3434 -0.0566
  628TMC3    C3 9298   1.453   2.159  14.528  0.7954 -0.0107  1.0151
  628TMC3    C4 9299   1.231   2.273  14.435 -0.7406 -0.4051 -0.0661
  628TMC3    C5 9300   1.351   2.340  14.435  0.3103 -0.3307  0.2444
  628TMC3    C6 9301   1.461   2.285  14.481 -0.1790 -0.0957  0.3554
  628TMC3     C 9302   1.133   2.064  14.392  0.3464 -0.0959 -1.0604
  628TMC3     O 9303   1.079   2.129  14.303  0.7459  0.1400 -0.1392
  628TMC3     H 9304   1.351   1.982  14.555  0.6813  0.8121  2.0185
  628TMC3    H1 9305   1.146   2.331  14.401 -0.0544  2.2462  2.6928
  628TMC3    H2 9306   1.553   2.337  14.458  0.3649 -1.2007  0.0214
  628TMC3    C7 9307   1.362   2.468  14.372 -0.0334 -0.9254  0.3852
  628TMC3    C8 9308   1.575   2.078  14.512 -0.1795 -0.5358  0.1463
  628TMC3    O1 9309   1.453   2.543  14.409  0.0032  0.4192 -0.2175
  628TMC3    O2 9310   1.652   2.131  14.436 -0.1028  0.1308 -0.2576
  629MPD2     C 9311   4.309   0.079  16.912  0.6950 -0.0739 -0.1283
  629MPD2    C1 9312   4.380   0.125  16.804 -0.5185 -0.1081 -0.8440
  629MPD2    C2 9313   4.334   0.077  16.679  0.3755 -0.1681  0.2801
  629MPD2    C3 9314   4.237   4.703  16.673  0.1390  0.6108 -0.0317
  629MPD2    C4 9315   4.178   4.656  16.787 -0.4113  0.3985  0.2078
  629MPD2    C5 9316   4.214   4.711  16.906  0.1554  0.3988  0.4989
  629MPD2     H 9317   4.372   0.108  16.582 -0.3967 -1.4855 -0.4502
  629MPD2    H1 9318   4.109   4.572  16.792 -0.7301  0.6413 -0.0948
  629MPD2    H2 9319   4.326   0.125  17.009 -2.5262 -1.0768  0.9242
  629MPD2    H3 9320   4.165   4.670  16.994 -0.3037  1.4638  0.7392
  629MPD2     N 9321   4.213   4.650  16.543  0.1496 -0.5463  0.1714
  629MPD2    H5 9322   4.257   4.692  16.462 -2.3777  2.7429  0.4997
  629MPD2    N1 9323   4.475   0.224  16.829  0.3572  0.4332  0.4590
  629MPD2    H7 9324   4.497   0.244  16.926  0.5143  0.9602  0.3147
  630TMC3    C1 9325   4.657   0.371  16.784  0.0166 -0.2832  0.3091
  630TMC3    C2 9326   4.702   0.471  16.703  0.3296  0.7386 -0.2268
  630TMC3    C3 9327   0.109   0.505  16.723 -1.0655  1.0167 -0.3186
  630TMC3    C4 9328   0.007   0.300  16.868  0.9754 -0.3271  0.2690
  630TMC3    C5 9329   0.139   0.330  16.875 -0.1172 -0.2981  0.0561
  630TMC3    C6 9330   0.189   0.440  16.811 -0.0687  0.3714 -0.2372
  630TMC3     C 9331   4.540   0.296  16.733  0.7129  0.5970 -0.6916
  630TMC3     O 9332   4.505   0.309  16.618 -0.1877 -0.2465 -0.2265
  630TMC3     H 9333   4.640   0.520  16.628 -0.2122  0.7398  0.2197
  630TMC3    H1 9334   4.699   0.198  16.876 -2.4398  0.8400 -0.0100
  630TMC3    H2 9335   0.291   0.473  16.826  0.1510 -1.1582  1.5126
  630TMC3    C7 9336   0.197   0.273  16.995  0.0396 -0.1859  0.1771
  630TMC3    C8 9337   0.161   0.634  16.671 -0.6602  0.5498 -0.0789
  630TMC3    O1 9338   0.120   0.205  17.062  0.0428 -0.0268  0.2118
  630TMC3    O2 9339   0.266   0.680  16.715  0.2510 -0.1132  0.0897
  631MPD2     C 9340   2.574   4.332  15.121  0.6762 -0.0561  0.2032
  631MPD2    C1 9341   2.586   4.385  15.249 -0.7558  0.2751 -0.1986
  631MPD2    C2 9342   2.712   4.390  15.307 -0.1989  0.1110  0.6151
  631MPD2    C3 9343   2.824   4.355  15.234 -0.7891  0.1728  0.3093
  631MPD2    C4 9344   2.811   4.287  15.116 -0.1974 -0.8016  0.2168
  631MPD2    C5 9345   2.687   4.285  15.059  0.0978 -0.2379 -0.4478
  631MPD2     H 9346   2.734   4.426  15.407 -0.9690  0.5045  0.6459
  631MPD2    H1 9347   2.890   4.256  15.049 -0.4751 -0.4891 -0.2576
  631MPD2    H2 9348   2.478   4.339  15.071  0.5223 -1.4352  0.3136
  631MPD2    H3 9349   2.664   4.233  14.966 -1.7681  1.1447 -0.7564
  631MPD2     N 9350   2.951   4.390  15.295 -0.1496 -0.3390 -1.0701
  631MPD2    H5 9351   2.946   4.448  15.379 -0.2919 -0.4789 -0.9826
  631MPD2    N1 9352   2.477   4.446  15.316  0.6584  0.1544  0.1188
  631MPD2    H7 9353   2.390   4.407  15.282  2.2316 -1.1280 -2.4244
  632TMC3    C1 9354   2.588   4.641  15.433 -0.2090  0.8413 -0.4834
  632TMC3    C2 9355   2.573   4.727  15.544 -0.5935  0.7216 -0.1628
  632TMC3    C3 9356   2.644   0.116  15.537 -0.1380  0.6338 -0.2902
  632TMC3    C4 9357   2.674   4.667  15.334  0.3322 -0.4002  0.3828
  632TMC3    C5 9358   2.755   0.049  15.346 -0.0686  0.0130  0.8113
  632TMC3    C6 9359   2.751   0.130  15.455 -0.1765 -0.1382 -0.6112
  632TMC3     C 9360   2.478   4.539  15.416  0.3959  0.6210  0.2522
  632TMC3     O 9361   2.376   4.571  15.476  0.2381 -0.2888  0.2778
  632TMC3     H 9362   2.493   4.714  15.616  0.5577  0.4039  1.0818
  632TMC3    H1 9363   2.670   4.616  15.238 -0.1499  1.1116 -0.4104
  632TMC3    H2 9364   2.818   0.215  15.463 -0.1715 -0.2688  0.6620
  632TMC3    C7 9365   2.839   0.097  15.244  0.5263 -0.5167  0.1781
  632TMC3    C8 9366   2.599   0.221  15.629 -0.3508 -0.0641  0.4213
  632TMC3    O1 9367   2.882   0.216  15.246  0.3508  0.4465 -0.2872
  632TMC3    O2 9368   2.521   0.188  15.717 -0.0541  0.4604  0.3303
  633MPD2     C 9369   2.166   3.160  17.317 -0.7983  0.5975 -0.5436
  633MPD2    C1 9370   2.186   3.085  17.199  0.1290  0.2825  0.3640
  633MPD2    C2 9371   2.221   2.951  17.213 -0.5099  0.6730  0.1788
  633MPD2    C3 9372   2.245   2.897  17.338  0.2121  0.2226  0.8666
  633MPD2    C4 9373   2.235   2.975  17.450  0.0545 -0.1766 -0.6217
  633MPD2    C5 9374   2.202   3.104  17.435  0.3011 -0.0490 -1.1798
  633MPD2     H 9375   2.238   2.901  17.119  3.4147 -1.4814  2.0562
  633MPD2    H1 9376   2.264   2.943  17.549  0.9972 -0.7063 -1.0738
  633MPD2    H2 9377   2.148   3.266  17.322 -1.2669  0.4960 -0.0840
  633MPD2    H3 9378   2.192   3.175  17.516  1.0572 -1.5417  0.2239
  633MPD2     N 9379   2.276   2.767  17.351 -0.5639  0.1148 -0.3572
  633MPD2    H5 9380   2.288   2.731  17.445 -2.9900  0.1515 -0.0208
  633MPD2    N1 9381   2.170   3.145  17.068 -0.1946  1.3225 -0.8159
  633MPD2    H7 9382   2.205   3.087  16.993 -0.5615 -0.6446  0.5248
  634TMC3    C1 9383   2.204   3.324  16.917 -1.0361 -0.5621  0.1076
  634TMC3    C2 9384   2.306   3.253  16.858  0.6121 -0.4182 -0.5526
  634TMC3    C3 9385   2.334   3.279  16.725  0.2997  0.4129  0.4860
  634TMC3    C4 9386   2.127   3.419  16.858  0.2343 -0.0752 -0.2921
  634TMC3    C5 9387   2.175   3.448  16.732 -0.1180  1.4347  0.9327
  634TMC3    C6 9388   2.261   3.372  16.662  0.1445  0.9937  0.7210
  634TMC3     C 9389   2.152   3.282  17.046  0.3472 -0.1437 -0.3507
  634TMC3     O 9390   2.090   3.356  17.123 -0.4932 -0.2187  0.0029
  634TMC3     H 9391   2.367   3.183  16.913 -1.7742  0.1438  2.7796
  634TMC3    H1 9392   2.063   3.478  16.923  1.9338  2.3553 -0.7901
  634TMC3    H2 9393   2.284   3.391  16.558 -0.7889  1.1853  0.5533
  634TMC3    C7 9394   2.122   3.552  16.646 -0.0133  0.0010  0.4009
  634TMC3    C8 9395   2.421   3.181  16.654 -0.1333  0.1918  0.0586
  634TMC3    O1 9396   2.172   3.570  16.538  0.2168  0.1440 -0.0174
  634TMC3    O2 9397   2.419   3.062  16.681  0.3768 -0.3797 -0.2566
  635TMC3    C1 9398   3.163   4.259  16.652 -0.8053  0.4968 -0.1792
  635TMC3    C2 9399   3.032   4.212  16.664  0.1801 -0.1454  0.2825
  635TMC3    C3 9400   2.942   4.239  16.558 -0.4470 -0.0178 -0.2655
  635TMC3    C4 9401   3.211   4.299  16.529  0.2269 -0.1559  0.4154
  635TMC3    C5 9402   3.123   4.324  16.426  0.0783  0.1965 -0.7064
  635TMC3    C6 9403   2.988   4.288  16.440  0.4660  0.1153 -0.3526
  635TMC3     C 9404   3.241   4.282  16.775 -0.0924 -0.4820 -0.0807
  635TMC3     O 9405   3.187   4.290  16.884 -0.1106 -0.4989 -0.5364
  635TMC3     H 9406   3.006   4.167  16.760  0.3221  0.1132  0.4418
  635TMC3    H1 9407   3.310   4.341  16.519  0.1463 -0.0640  0.0297
  635TMC3    H2 9408   2.916   4.281  16.359  1.9534 -1.2616 -1.5541
  635TMC3    C7 9409   3.166   4.405  16.315  0.2313  0.1601  0.2308
  635TMC3    C8 9410   2.802   4.201  16.578 -0.9453 -0.2850  0.4409
  635TMC3    O1 9411   3.284   4.438  16.313  1.3481  0.0702  0.5342
  635TMC3    O2 9412   2.742   4.170  16.482 -0.2585 -0.4438  0.3152
  636MPD2     C 9413   3.623   3.281  15.785  0.3677 -0.4236  0.3314
  636MPD2    C1 9414   3.602   3.312  15.914  0.0322  0.3507 -0.0979
  636MPD2    C2 9415   3.605   3.215  16.010  0.2507 -0.1422  0.2267
  636MPD2    C3 9416   3.637   3.087  15.976 -0.2050  0.1806 -0.7794
  636MPD2    C4 9417   3.658   3.052  15.846 -0.2205  0.3594  0.2749
  636MPD2    C5 9418   3.645   3.153  15.750 -0.8208 -0.6878 -0.5690
  636MPD2     H 9419   3.579   3.238  16.113  0.6556  0.4970  0.1887
  636MPD2    H1 9420   3.684   2.952  15.811  1.4612  0.1121  2.2077
  636MPD2    H2 9421   3.613   3.351  15.702  3.3670 -0.9248 -0.4532
  636MPD2    H3 9422   3.663   3.136  15.645 -0.3467 -1.2628 -0.4000
  636MPD2     N 9423   3.658   2.997  16.082  0.3913  0.1298 -0.1467
  636MPD2    H5 9424   3.656   3.028  16.179  0.6747 -2.3859  0.6695
  636MPD2    N1 9425   3.563   3.449  15.956 -0.6538  0.5823 -0.0014
  636MPD2    H7 9426   3.553   3.462  16.056  2.4965 -0.4764  0.4754
  637TMC3    C1 9427   3.727   2.802  16.200 -0.1929  0.1853 -0.1219
  637TMC3    C2 9428   3.668   2.876  16.302 -0.1227 -0.7710 -0.6000
  637TMC3    C3 9429   3.729   2.887  16.424  0.2061  0.6405 -0.2280
  637TMC3    C4 9430   3.841   2.729  16.224  0.1824  0.6195  0.7231
  637TMC3    C5 9431   3.891   2.736  16.351 -0.7053  0.6236 -0.6968
  637TMC3    C6 9432   3.842   2.813  16.456  0.0191  0.2374  0.1206
  637TMC3     C 9433   3.713   2.872  16.071  0.0728  0.1007 -0.2343
  637TMC3     O 9434   3.770   2.822  15.974 -0.1619  0.5424 -0.1882
  637TMC3     H 9435   3.577   2.932  16.290  0.6520  0.3765 -1.1132
  637TMC3    H1 9436   3.884   2.670  16.144 -0.5071  0.0925  0.7356
  637TMC3    H2 9437   3.893   2.813  16.552 -0.7832  1.3878  0.5440
  637TMC3    C7 9438   3.996   2.646  16.374 -0.5113 -0.4305 -0.1673
  637TMC3    C8 9439   3.717   3.021  16.481  0.4075  0.4619  0.3289
  637TMC3    O1 9440   3.951   2.552  16.440 -0.1659  0.0144 -0.4727
  637TMC3    O2 9441   3.658   3.104  16.415  0.2457  0.0180  0.5699
  638MPD2     C 9442   3.486   2.320  15.096  0.0925 -0.3883 -0.1077
  638MPD2    C1 9443   3.449   2.219  15.010 -0.2276 -0.2335 -0.4718
  638MPD2    C2 9444   3.408   2.095  15.062  0.2094  0.4789  0.5442
  638MPD2    C3 9445   3.401   2.076  15.200  0.7449 -0.0327 -0.2998
  638MPD2    C4 9446   3.430   2.181  15.292  0.4182 -1.2484  0.0048
  638MPD2    C5 9447   3.477   2.301  15.232 -0.3606  0.9167  0.4536
  638MPD2     H 9448   3.393   2.012  14.993  0.1033  2.1417 -1.4382
  638MPD2    H1 9449   3.415   2.176  15.400 -0.8542  1.5579 -0.0571
  638MPD2    H2 9450   3.532   2.414  15.067 -1.9763  1.5118  2.6552
  638MPD2    H3 9451   3.501   2.388  15.292  1.7419 -0.1879  1.1826
  638MPD2     N 9452   3.367   1.947  15.244  0.4601 -0.0448  0.3332
  638MPD2    H5 9453   3.353   1.870  15.179  0.1751 -0.8760  1.3922
  638MPD2    N1 9454   3.458   2.248  14.871  0.5795 -0.2447 -0.0232
  638MPD2    H7 9455   3.509   2.334  14.852  0.8446 -0.5171 -0.5210
  639TMC3    C1 9456   3.337   1.765  15.365  0.3146 -0.0734  0.0414
  639TMC3    C2 9457   3.270   1.706  15.264  0.4612  0.0915  0.0557
  639TMC3    C3 9458   3.227   1.582  15.272  0.4287  0.5049  0.4210
  639TMC3    C4 9459   3.370   1.692  15.476  0.5426  0.4356  0.3997
  639TMC3    C5 9460   3.345   1.561  15.467  0.5889  0.3575 -0.5629
  639TMC3    C6 9461   3.258   1.501  15.379  0.3139 -0.5259  0.6684
  639TMC3     C 9462   3.356   1.902  15.371 -0.2198 -0.4085  0.0123
  639TMC3     O 9463   3.397   1.953  15.471 -0.9261 -0.3413 -0.0493
  639TMC3     H 9464   3.244   1.759  15.173 -3.2543  0.7251  1.4594
  639TMC3    H1 9465   3.418   1.743  15.559 -1.0137 -0.0723  1.6042
  639TMC3    H2 9466   3.234   1.395  15.384 -2.3151  0.0780  0.8201
  639TMC3    C7 9467   3.443   1.473  15.511  0.3355  0.1340 -0.1859
  639TMC3    C8 9468   3.192   1.516  15.152 -0.0748 -0.0793 -0.2524
  639TMC3    O1 9469   3.408   1.359  15.533 -0.4120 -0.0339 -0.5243
  639TMC3    O2 9470   3.252   1.533  15.047  0.1487 -0.1438 -0.3451
  640MPD2     C 9471   4.103   0.647   9.754  0.5163  0.5834 -0.0629
  640MPD2    C1 9472   3.993   0.565   9.729  0.1108  0.5234 -0.5356
  640MPD2    C2 9473   3.869   0.622   9.755  0.2616 -0.4290 -0.2127
  640MPD2    C3 9474   3.859   0.748   9.814 -0.0043  0.3125  0.0214
  640MPD2    C4 9475   3.968   0.826   9.844  0.0044 -0.4357 -0.2277
  640MPD2    C5 9476   4.093   0.772   9.814  0.2776 -0.3150  0.2879
  640MPD2     H 9477   3.781   0.562   9.736  0.1489 -0.3686  0.1157
  640MPD2    H1 9478   3.956   0.932   9.865 -2.1328 -1.1385  2.1430
  640MPD2    H2 9479   4.205   0.609   9.748  0.8052  1.2781  0.4281
  640MPD2    H3 9480   4.188   0.818   9.839 -0.8312  1.8955  0.4363
  640MPD2     N 9481   3.732   0.801   9.852  0.2125 -0.3211 -0.2119
  640MPD2    H5 9482   3.729   0.893   9.895 -1.5906  0.1684 -1.3983
  640MPD2    N1 9483   4.011   0.431   9.690 -0.1505 -0.5346 -0.3253
  640MPD2    H7 9484   4.106   0.397   9.678 -0.5853 -1.9166  0.1125
  641TMC3    C1 9485   3.947   0.215   9.613 -0.1554 -0.4844  0.3139
  641TMC3    C2 9486   4.049   0.150   9.680  0.3150  0.4609  0.2233
  641TMC3    C3 9487   4.095   0.040   9.620 -0.8454 -0.2435 -0.1359
  641TMC3    C4 9488   3.879   0.159   9.502 -0.7481  0.1821  0.4138
  641TMC3    C5 9489   3.929   0.038   9.459  0.1682 -0.1398 -0.9013
  641TMC3    C6 9490   4.035   4.708   9.514 -0.2659  0.4316 -0.4633
  641TMC3     C 9491   3.906   0.343   9.666 -0.0546 -0.1661 -0.2363
  641TMC3     O 9492   3.787   0.362   9.670  0.0519 -0.6280  0.0550
  641TMC3     H 9493   4.086   0.195   9.771  1.0804  1.2614 -0.4884
  641TMC3    H1 9494   3.794   0.213   9.460 -0.2264 -0.1550 -1.0802
  641TMC3    H2 9495   4.069   4.613   9.474  0.0040 -0.1257  1.1026
  641TMC3    C7 9496   3.915   0.009   9.315  0.1289 -0.1774  0.0723
  641TMC3    C8 9497   4.221   4.705   9.657  0.0121  0.7195 -0.5017
  641TMC3    O1 9498   4.016   4.703   9.253  0.0954 -0.4766  0.1000
  641TMC3    O2 9499   4.256   4.605   9.597 -0.2001  0.0285  0.3248
  642TMC3    C1 9500   0.712   2.066  12.189 -0.4589  0.6677  0.1399
  642TMC3    C2 9501   0.798   2.087  12.293 -0.3771  0.3255 -0.4612
  642TMC3    C3 9502   0.838   1.975  12.356  0.4454  0.3896 -0.4360
  642TMC3    C4 9503   0.660   1.951  12.149  0.5730  0.1717 -0.0683
  642TMC3    C5 9504   0.712   1.838  12.215 -0.1555  0.1018 -0.0301
  642TMC3    C6 9505   0.791   1.847  12.326  0.5811  0.1469  0.0837
  642TMC3     C 9506   0.642   2.186  12.148  0.4424 -1.1181  0.0190
  642TMC3     O 9507   0.705   2.275  12.095  0.0054 -0.0972 -0.0193
  642TMC3     H 9508   0.828   2.186  12.326 -0.4464  0.4709 -0.8374
  642TMC3    H1 9509   0.596   1.934  12.063 -1.2460  0.9652  1.1282
  642TMC3    H2 9510   0.833   1.758  12.372 -0.3905  0.6117  1.8803
  642TMC3    C7 9511   0.642   1.716  12.186 -0.6195  0.0177  0.5201
  642TMC3    C8 9512   0.850   1.989  12.498 -0.2197 -0.5764  0.0147
  642TMC3    O1 9513   0.586   1.707  12.080 -0.0025  0.3824  0.1434
  642TMC3    O2 9514   0.931   2.062  12.554  0.4650 -0.3421 -0.0614
  643TMC3    C1 9515   4.364   1.189   0.773  0.7227  0.0382  0.1718
  643TMC3    C2 9516   4.264   1.273   0.733 -0.5670  0.4626 -0.0530
  643TMC3    C3 9517   4.175   1.230   0.631 -0.0035 -0.2757 -0.0685
  643TMC3    C4 9518   4.406   1.073   0.712 -0.0028  0.2393 -0.2259
  643TMC3    C5 9519   4.339   1.055   0.595 -0.0480  0.1619  0.4014
  643TMC3    C6 9520   4.222   1.124   0.565 -0.2265  0.1700  0.6239
  643TMC3     C 9521   4.465   1.283   0.816  0.5658  0.6176 -0.2118
  643TMC3     O 9522   4.495   1.376   0.742  0.0572 -0.2084 -0.3973
  643TMC3     H 9523   4.238   1.373   0.767 -0.3666 -0.1470  1.8790
  643TMC3    H1 9524   4.503   1.031   0.735 -0.8700 -1.1496  0.9179
  643TMC3    H2 9525   4.167   1.107   0.474 -2.6978  0.8131  2.0173
  643TMC3    C7 9526   4.422   1.037   0.479 -0.3031  0.1723  0.4274
  643TMC3    C8 9527   4.140   1.338   0.545 -0.2677  0.0212  0.7758
  643TMC3    O1 9528   4.391   1.107   0.386  0.2216  0.1011  0.1056
  643TMC3    O2 9529   4.029   1.347   0.492  0.8451  0.2269  0.0548
  644MPD2     C 9530   3.904   0.338   9.176  0.3325 -0.4112  0.4598
  644MPD2    C1 9531   4.024   0.370   9.246 -0.1149 -0.4940  0.0159
  644MPD2    C2 9532   4.024   0.486   9.313 -0.5074  0.4423  0.1434
  644MPD2    C3 9533   3.916   0.570   9.313  0.0318 -0.8505  0.4381
  644MPD2    C4 9534   3.803   0.537   9.245 -0.2775  0.0900  0.8561
  644MPD2    C5 9535   3.792   0.420   9.168  0.1030 -0.2502 -1.2693
  644MPD2     H 9536   4.114   0.523   9.360 -0.2797 -2.4112  1.9539
  644MPD2    H1 9537   3.713   0.597   9.243 -0.2485  0.1120 -0.0506
  644MPD2    H2 9538   3.898   0.242   9.127  0.5680 -1.6512  2.8918
  644MPD2    H3 9539   3.703   0.396   9.112  0.1609 -0.7970 -1.1291
  644MPD2     N 9540   3.925   0.704   9.370  0.1435  0.2959 -0.6594
  644MPD2    H5 9541   4.019   0.737   9.386  0.0160 -0.5819  1.9031
  644MPD2    N1 9542   4.128   0.271   9.248  0.2146 -0.3207 -0.0890
  644MPD2    H7 9543   4.116   0.194   9.184  0.4864 -0.4481  0.0137
  645TMC3    C1 9544   3.871   0.925   9.427 -0.0284 -0.2840 -0.1621
  645TMC3    C2 9545   3.803   1.033   9.380 -0.0872 -0.1455  0.4458
  645TMC3    C3 9546   3.857   1.159   9.400 -0.5931  0.0507  0.1515
  645TMC3    C4 9547   3.988   0.942   9.489 -0.0718  0.1621 -0.7457
  645TMC3    C5 9548   4.038   1.069   9.508  0.3921  0.8733 -0.2559
  645TMC3    C6 9549   3.978   1.187   9.459  0.2944 -0.2761 -0.0692
  645TMC3     C 9550   3.822   0.796   9.385 -0.3479 -0.6744  0.1053
  645TMC3     O 9551   3.697   0.787   9.363 -0.1169 -0.0799 -0.0022
  645TMC3     H 9552   3.706   1.018   9.333 -0.1972 -0.8548  0.8989
  645TMC3    H1 9553   4.037   0.852   9.526 -3.2033 -1.1930  0.1523
  645TMC3    H2 9554   4.009   1.288   9.484  1.7876 -0.5058 -1.0179
  645TMC3    C7 9555   4.158   1.089   9.594 -0.1695 -0.0299  0.1454
  645TMC3    C8 9556   3.771   1.277   9.384 -0.1983 -0.2995  0.6262
  645TMC3    O1 9557   4.154   1.189   9.668  0.0164 -0.8239 -0.0268
  645TMC3    O2 9558   3.798   1.370   9.458 -0.0127  0.4222 -0.7640
  646MPD2     C 9559   3.608   0.909  14.500 -0.4174 -0.2067  0.5639
  646MPD2    C1 9560   3.508   0.892  14.589 -0.0567  0.6774 -0.1942
  646MPD2    C2 9561   3.384   0.951  14.568 -0.4904  0.0782 -0.0058
  646MPD2    C3 9562   3.358   1.026  14.458  0.8364 -0.1753 -0.2825
  646MPD2    C4 9563   3.462   1.052  14.371 -0.7838 -0.3290 -0.8310
  646MPD2    C5 9564   3.581   0.989  14.392 -0.6263  0.0835 -0.2059
  646MPD2     H 9565   3.295   0.926  14.626  0.4696 -2.5911  0.3385
  646MPD2    H1 9566   3.451   1.114  14.283 -0.0571 -0.3753 -0.9494
  646MPD2    H2 9567   3.709   0.873  14.516  1.1040  2.1908 -3.6097
  646MPD2    H3 9568   3.658   1.006  14.317  0.7332  1.6507  1.5506
  646MPD2     N 9569   3.222   1.070  14.437 -0.2587 -0.4800  0.3245
  646MPD2    H5 9570   3.148   1.035  14.496 -1.2087  0.2019 -0.4611
  646MPD2    N1 9571   3.539   0.825  14.706  0.1649 -0.7367 -0.8031
  646MPD2    H7 9572   3.639   0.810  14.706  0.3152  0.3164  0.0188
  647TMC3    C1 9573   3.508   0.695  14.903 -0.9009  0.2508  0.1859
  647TMC3    C2 9574   3.433   0.598  14.960 -0.4647  0.1918  0.6454
  647TMC3    C3 9575   3.500   0.525  15.058 -0.3071  0.1956 -0.6734
  647TMC3    C4 9576   3.635   0.743  14.951 -0.3533  0.1627 -0.3384
  647TMC3    C5 9577   3.689   0.670  15.053 -0.2516 -0.0217  0.8490
  647TMC3    C6 9578   3.622   0.566  15.105 -0.0750  0.1897 -0.8240
  647TMC3     C 9579   3.444   0.770  14.794  0.4489  0.7539  0.9075
  647TMC3     O 9580   3.322   0.766  14.790  0.2966 -0.0969  0.3137
  647TMC3     H 9581   3.331   0.578  14.929  0.0723 -1.9304  0.2495
  647TMC3    H1 9582   3.675   0.838  14.919 -1.5683  0.9479  0.4951
  647TMC3    H2 9583   3.672   0.515  15.187 -0.7178  0.9923  0.0653
  647TMC3    C7 9584   3.828   0.681  15.089 -0.0134  0.1670 -0.4238
  647TMC3    C8 9585   3.473   0.384  15.054 -0.5490  0.2327 -0.0492
  647TMC3    O1 9586   3.873   0.613  15.178  0.0181 -0.1813 -0.6148
  647TMC3    O2 9587   3.372   0.357  14.988 -0.6207 -0.3463  0.1576
  648TMC3    C1 9588   2.938   3.161  16.045  0.0868 -0.2774  0.9556
  648TMC3    C2 9589   2.949   3.034  15.994 -0.0183 -0.7995 -0.1988
  648TMC3    C3 9590   2.893   3.011  15.873  0.8749 -0.4077  0.2945
  648TMC3    C4 9591   2.867   3.257  15.981  0.2393 -0.6699  0.0986
  648TMC3    C5 9592   2.824   3.235  15.852  0.5450  0.3798 -0.4411
  648TMC3    C6 9593   2.838   3.111  15.793 -0.2980  0.4180  0.5713
  648TMC3     C 9594   2.967   3.175  16.185 -0.0286 -0.0900 -0.1972
  648TMC3     O 9595   2.975   3.291  16.220  0.1615 -0.5973 -0.1783
  648TMC3     H 9596   2.996   2.953  16.048 -1.0520  0.7293  3.0076
  648TMC3    H1 9597   2.832   3.344  16.034  1.2220 -1.4583  2.0409
  648TMC3    H2 9598   2.801   3.085  15.695  1.1015 -1.1645  0.4709
  648TMC3    C7 9599   2.730   3.327  15.779  0.0641  0.7517 -0.5547
  648TMC3    C8 9600   2.870   2.876  15.823  0.4244  0.2821  0.5448
  648TMC3    O1 9601   2.687   3.287  15.675  0.1301  0.2697 -0.5736
  648TMC3    O2 9602   2.780   2.861  15.738 -0.2499 -0.4287  0.1627
  649TMC3    C1 9603   1.928   4.052  12.940  0.1973 -0.3216 -0.6201
  649TMC3    C2 9604   2.058   4.097  12.952  0.3882 -0.6789  0.0701
  649TMC3    C3 9605   2.117   4.093  13.073  0.4671 -0.1623 -0.5355
  649TMC3    C4 9606   1.858   4.005  13.053 -0.8961 -0.5085  0.3354
  649TMC3    C5 9607   1.936   3.984  13.165  0.3064 -0.0787  0.0463
  649TMC3    C6 9608   2.062   4.026  13.185  0.1250  0.1577 -0.5544
  649TMC3     C 9609   1.847   4.077  12.825 -0.2289 -0.4159 -0.2986
  649TMC3     O 9610   1.729   4.115  12.850  0.0565  0.5104  0.1762
  649TMC3     H 9611   2.097   4.151  12.867 -0.5434  0.8530  0.6036
  649TMC3    H1 9612   1.761   3.960  13.041 -0.2377 -1.9104  0.2076
  649TMC3    H2 9613   2.114   4.013  13.279  3.0556  2.2095 -1.9124
  649TMC3    C7 9614   1.879   3.919  13.281 -0.1814  0.1399 -0.3200
  649TMC3    C8 9615   2.262   4.119  13.093  0.1592 -0.2535  0.0762
  649TMC3    O1 9616   1.914   3.941  13.396 -0.3521  1.0092  0.2042
  649TMC3    O2 9617   2.317   4.076  13.192 -0.3922 -0.1163  0.8155
  650TMC3    C1 9618   4.492   1.025  12.719  0.1651  0.3733  0.1273
  650TMC3    C2 9619   4.530   1.150  12.733 -1.0124  0.1480  0.7796
  650TMC3    C3 9620   4.480   1.250  12.656  0.0557 -0.2346  0.3562
  650TMC3    C4 9621   4.388   0.991  12.644 -0.0949 -0.2809 -0.4545
  650TMC3    C5 9622   4.326   1.091  12.570 -0.3065 -0.5403 -0.1216
  650TMC3    C6 9623   4.381   1.219  12.560 -0.6239 -0.5719  0.2672
  650TMC3     C 9624   4.549   0.927  12.817 -0.3895  0.1847 -0.6513
  650TMC3     O 9625   4.629   0.963  12.902  0.1148 -0.1767  0.1118
  650TMC3     H 9626   4.612   1.174  12.800 -0.7796 -0.1190  0.5888
  650TMC3    H1 9627   4.328   0.901  12.650  0.8130 -0.9309 -1.0992
  650TMC3    H2 9628   4.339   1.291  12.492 -1.2696 -0.9912  0.2296
  650TMC3    C7 9629   4.222   1.053  12.476  0.2364  0.1175  0.3706
  650TMC3    C8 9630   4.538   1.383  12.661  0.0269  0.4708  0.4358
  650TMC3    O1 9631   4.191   0.937  12.491  0.1448 -0.2507 -0.0709
  650TMC3    O2 9632   4.518   1.444  12.559  0.2427  0.2036 -0.0263
  651MPD2     C 9633   3.615   2.665  11.288 -0.6128 -0.9304  0.1401
  651MPD2    C1 9634   3.601   2.783  11.217 -0.6890  0.3099  0.9306
  651MPD2    C2 9635   3.709   2.861  11.192  0.0061  0.9114 -0.7837
  651MPD2    C3 9636   3.836   2.822  11.233  0.2290  0.9261 -0.2341
  651MPD2    C4 9637   3.849   2.699  11.299  0.1249 -0.5706 -0.2781
  651MPD2    C5 9638   3.740   2.633  11.336  0.4335 -0.0345 -0.4642
  651MPD2     H 9639   3.702   2.959  11.146 -0.3364  1.7601  1.0571
  651MPD2    H1 9640   3.944   2.665  11.340 -1.0823 -2.3593  1.0043
  651MPD2    H2 9641   3.533   2.598  11.311 -1.7869 -0.4340 -2.6329
  651MPD2    H3 9642   3.756   2.553  11.407 -0.1285  0.9257  0.7500
  651MPD2     N 9643   3.945   2.900  11.195 -0.4581 -0.5159 -0.2026
  651MPD2    H5 9644   3.932   2.988  11.147  3.1744 -0.4801 -1.1389
  651MPD2    N1 9645   3.475   2.817  11.162  0.5962 -0.1150 -0.1698
  651MPD2    H7 9646   3.478   2.904  11.110  2.3225 -0.7161 -1.0810
  652TMC3    C1 9647   4.334   2.996  10.999 -0.5596 -0.2133  0.7800
  652TMC3    C2 9648   4.270   2.913  11.084 -0.8274 -0.1394  0.2329
  652TMC3    C3 9649   4.164   2.960  11.162  0.0427  1.0346 -0.3067
  652TMC3    C4 9650   4.291   3.125  10.983  0.6786  0.3241 -0.3245
  652TMC3    C5 9651   4.183   3.168  11.057 -0.9453 -0.1661 -0.1377
  652TMC3    C6 9652   4.114   3.090  11.147  0.1967 -0.2091  0.3139
  652TMC3     C 9653   4.462   2.953  10.962 -0.0486  0.0178  0.0539
  652TMC3     O 9654   4.509   2.878  11.042 -0.3307  0.0267  0.3299
  652TMC3     H 9655   4.300   2.809  11.089  1.7632  0.7334  2.8689
  652TMC3    H1 9656   4.355   3.194  10.929 -2.1892  1.9890 -1.6221
  652TMC3    H2 9657   4.041   3.128  11.217  0.4442  1.0634 -0.1276
  652TMC3    C7 9658   4.130   3.302  11.038 -0.0040 -0.1665  0.0046
  652TMC3    C8 9659   4.076   2.859  11.211  0.1924  0.6604  0.1453
  652TMC3    O1 9660   4.013   3.315  11.060  0.4057 -0.4821  0.1509
  652TMC3    O2 9661   4.129   2.763  11.257 -0.0871  0.0325  0.0670
  653MPD2     C 9662   1.793   3.056  17.636  0.1938 -0.4835 -0.6548
  653MPD2    C1 9663   1.792   3.135  17.526 -0.4694  0.3748  0.1534
  653MPD2    C2 9664   1.763   3.081  17.403  0.3682  0.2489 -0.5424
  653MPD2    C3 9665   1.714   2.957  17.389 -0.1900  0.2181  0.1453
  653MPD2    C4 9666   1.696   2.881  17.508 -0.4722  0.3783  0.3322
  653MPD2    C5 9667   1.735   2.930  17.626 -0.0251 -0.3292  0.4605
  653MPD2     H 9668   1.755   3.148  17.318 -0.0927 -1.0217 -1.4981
  653MPD2    H1 9669   1.664   2.778  17.502 -1.6260  0.7130  0.7637
  653MPD2    H2 9670   1.857   3.075   0.011  1.0034 -1.9140 -0.9519
  653MPD2    H3 9671   1.724   2.877   0.009 -0.4107 -0.1856  0.5006
  653MPD2     N 9672   1.668   2.922  17.256 -0.4911 -1.0859  0.3468
  653MPD2    H5 9673   1.676   2.988  17.179 -2.1178 -1.6728 -0.3400
  653MPD2    N1 9674   1.844   3.267  17.523 -0.3685  0.0733 -0.0806
  653MPD2    H7 9675   1.846   3.302  17.428  1.3607 -0.7546 -0.3546
  654TMC3    C1 9676   1.616   2.793  17.080  0.0437  0.8114 -0.0095
  654TMC3    C2 9677   1.515   2.879  17.035  0.1197  0.7666 -0.2641
  654TMC3    C3 9678   1.461   2.853  16.914  0.0783 -0.1941  0.0344
  654TMC3    C4 9679   1.661   2.686  17.006  0.3355 -0.0563  0.8044
  654TMC3    C5 9680   1.603   2.671  16.883  0.2743  0.4802  0.0443
  654TMC3    C6 9681   1.501   2.752  16.828  0.0547 -0.0952 -0.1270
  654TMC3     C 9682   1.635   2.792  17.221  0.3703  0.1159  0.0253
  654TMC3     O 9683   1.658   2.687  17.283 -0.3838  0.4561  0.2300
  654TMC3     H 9684   1.471   2.956  17.097 -1.5572  0.3104 -0.9087
  654TMC3    H1 9685   1.733   2.618  17.050 -0.0525  0.3117  1.9968
  654TMC3    H2 9686   1.467   2.733  16.727  0.3066  1.7802 -0.5737
  654TMC3    C7 9687   1.678   2.592  16.783  0.1859  0.7504  0.9980
  654TMC3    C8 9688   1.351   2.939  16.870  0.0577 -0.1582 -0.1546
  654TMC3    O1 9689   1.662   2.630  16.665 -0.1206 -0.1741  0.0867
  654TMC3    O2 9690   1.297   2.999  16.963  0.8551 -0.2075  1.1296
  655MPD2     C 9691   3.254   3.223  15.829  0.0565  0.6432 -0.0661
  655MPD2    C1 9692   3.182   3.318  15.766  0.0956  0.3491  0.3014
  655MPD2    C2 9693   3.150   3.301  15.634  0.8947 -0.2978  0.6341
  655MPD2    C3 9694   3.203   3.192  15.566 -0.2506 -0.2176 -0.4950
  655MPD2    C4 9695   3.284   3.097  15.628  0.3841  0.6687  0.8054
  655MPD2    C5 9696   3.302   3.109  15.768 -0.0060  0.1604  0.2294
  655MPD2     H 9697   3.071   3.366  15.598  0.8431 -1.2714 -0.9766
  655MPD2    H1 9698   3.314   3.008  15.574 -3.0376 -0.2470  0.4037
  655MPD2    H2 9699   3.276   3.243  15.933  0.1140 -1.7642  0.3676
  655MPD2    H3 9700   3.363   3.039  15.823  0.9079  1.3750  0.7576
  655MPD2     N 9701   3.162   3.157  15.430  0.4847 -0.3288 -0.0498
  655MPD2    H5 9702   3.214   3.089  15.375  0.3356  0.2509 -0.9278
  655MPD2    N1 9703   3.123   3.433  15.824 -0.5103  0.2317 -0.2604
  655MPD2    H7 9704   3.069   3.496  15.766 -1.2185 -2.4859 -2.5364
  656TMC3    C1 9705   3.089   3.601  15.971 -0.8263 -0.2157 -0.2509
  656TMC3    C2 9706   3.001   3.597  16.069  0.0190 -0.2573  0.5687
  656TMC3    C3 9707   2.911   3.700  16.077 -0.0770 -0.0271 -0.7313
  656TMC3    C4 9708   3.073   3.678  15.861 -0.0875 -0.4618  0.2982
  656TMC3    C5 9709   2.977   3.766  15.866 -0.8377  0.4147  0.1918
  656TMC3    C6 9710   2.893   3.774  15.970 -0.7241  0.0272 -0.2161
  656TMC3     C 9711   3.147   3.473  15.954  0.3412 -0.1375  0.9084
  656TMC3     O 9712   3.210   3.428  16.048 -0.0335  0.2668  0.0893
  656TMC3     H 9713   2.996   3.519  16.143 -0.3887 -1.2984 -0.5601
  656TMC3    H1 9714   3.149   3.666  15.784  0.1740  0.1044  0.4662
  656TMC3    H2 9715   2.802   3.831  15.955  0.2535  1.9070  0.9499
  656TMC3    C7 9716   2.923   3.785  15.732  0.0316  0.2913 -1.1013
  656TMC3    C8 9717   2.793   3.666  16.143  0.2096 -0.1781 -0.2742
  656TMC3    O1 9718   2.972   3.716  15.643  0.1592 -0.6593  0.4622
  656TMC3    O2 9719   2.760   3.552  16.129  0.0220  0.2367  0.6126
  657TMC3    C1 9720   2.499   2.566  14.525  0.6761 -0.0401 -0.2265
  657TMC3    C2 9721   2.414   2.581  14.633 -0.0927  0.9023  0.0621
  657TMC3    C3 9722   2.301   2.648  14.611 -0.8682  0.1160 -0.4643
  657TMC3    C4 9723   2.480   2.629  14.406  0.2349 -0.7188 -0.6808
  657TMC3    C5 9724   2.377   2.711  14.398 -0.0986 -0.1202 -0.0856
  657TMC3    C6 9725   2.275   2.716  14.493 -0.5036  0.8763 -0.0023
  657TMC3     C 9726   2.563   2.433  14.509 -0.0305 -0.1165  1.0592
  657TMC3     O 9727   2.512   2.366  14.420 -0.3641  0.6610 -0.1193
  657TMC3     H 9728   2.426   2.511  14.715  0.1129  1.2663  0.3400
  657TMC3    H1 9729   2.539   2.611  14.317 -0.4969  1.1763 -1.5482
  657TMC3    H2 9730   2.182   2.771  14.483  0.0671  1.8213 -0.0826
  657TMC3    C7 9731   2.391   2.816  14.294 -0.5452  0.8886 -0.3050
  657TMC3    C8 9732   2.193   2.633  14.706 -0.7740 -0.9243 -0.1328
  657TMC3    O1 9733   2.489   2.815  14.221 -0.0342 -0.1336  0.1839
  657TMC3    O2 9734   2.215   2.562  14.804 -0.0442  0.6524  0.4536
  658MPD2     C 9735   3.531   2.949  14.934  0.0945  0.0733  0.4626
  658MPD2    C1 9736   3.490   3.077  14.901  0.0761  0.9734 -0.1937
  658MPD2    C2 9737   3.536   3.140  14.783  0.2628  0.2823 -0.6634
  658MPD2    C3 9738   3.602   3.062  14.688  0.6118 -0.1812  0.3062
  658MPD2    C4 9739   3.648   2.938  14.724  0.2371  0.3324  0.2513
  658MPD2    C5 9740   3.607   2.881  14.846 -0.3219 -0.1196 -1.0544
  658MPD2     H 9741   3.515   3.243  14.759 -1.5457 -0.0984 -0.6829
  658MPD2    H1 9742   3.696   2.875  14.651 -0.6996  0.7668 -0.7420
  658MPD2    H2 9743   3.492   2.909  15.027 -2.5621 -0.7856 -1.0131
  658MPD2    H3 9744   3.641   2.779  14.861  0.9523  0.4312 -0.2478
  658MPD2     N 9745   3.625   3.124  14.562  0.3266  0.2828 -0.5705
  658MPD2    H5 9746   3.578   3.213  14.549 -0.5280 -0.0073  0.5101
  658MPD2    N1 9747   3.391   3.124  14.988 -0.3091 -0.4967  0.1376
  658MPD2    H7 9748   3.372   3.073  15.074 -0.6765 -0.4350  0.0934
  659TMC3    C1 9749   3.184   3.233  15.032 -0.4962 -0.9663  0.3975
  659TMC3    C2 9750   3.182   3.198  15.167  0.3323  0.0023  0.6503
  659TMC3    C3 9751   3.063   3.184  15.227  0.5094  0.1546 -0.1696
  659TMC3    C4 9752   3.073   3.240  14.959  0.0750 -0.7358 -0.0954
  659TMC3    C5 9753   2.953   3.214  15.029 -0.5699  0.0481 -0.1819
  659TMC3    C6 9754   2.941   3.190  15.159  1.5357  0.1867 -0.1728
  659TMC3     C 9755   3.308   3.222  14.951 -0.1863  0.1587 -0.3934
  659TMC3     O 9756   3.306   3.273  14.842  0.6257  0.4513 -0.2390
  659TMC3     H 9757   3.269   3.222  15.225  1.1377 -1.4778  0.0713
  659TMC3    H1 9758   3.072   3.258  14.852 -1.4964  1.1739  0.2389
  659TMC3    H2 9759   2.844   3.204  15.206  1.2438 -2.3341  0.0016
  659TMC3    C7 9760   2.837   3.187  14.946  0.0052 -0.0832 -0.4741
  659TMC3    C8 9761   3.055   3.207  15.367  0.9374 -1.0004  0.4864
  659TMC3    O1 9762   2.728   3.196  14.992  0.3247 -0.3349 -0.3258
  659TMC3    O2 9763   2.955   3.252  15.419  0.3313 -0.1711  0.2348
  660MPD2     C 9764   1.870   1.321  12.838  0.0237 -0.1254  0.3797
  660MPD2    C1 9765   1.755   1.398  12.801  0.0249 -0.0909 -0.2213
  660MPD2    C2 9766   1.637   1.371  12.867 -0.3022 -0.2828 -0.6357
  660MPD2    C3 9767   1.626   1.271  12.966  0.0348 -0.0214  0.1223
  660MPD2    C4 9768   1.742   1.205  12.997  0.3015  0.2276 -0.3835
  660MPD2    C5 9769   1.861   1.241  12.940  0.2830 -0.0597  0.7850
  660MPD2     H 9770   1.546   1.425  12.844  0.5065  0.7899 -1.3304
  660MPD2    H1 9771   1.748   1.150  13.091  0.2980  3.4259  1.5000
  660MPD2    H2 9772   1.970   1.339  12.798  0.8976 -1.6769  1.8504
  660MPD2    H3 9773   1.949   1.190  12.974 -0.2488  0.0806  2.3787
  660MPD2     N 9774   1.517   1.241  13.053  0.5330  0.1266 -0.1553
  660MPD2    H5 9775   1.520   1.159  13.113  1.8694 -0.6861 -1.3296
  660MPD2    N1 9776   1.769   1.481  12.693  0.1990 -0.5408 -0.2170
  660MPD2    H7 9777   1.856   1.491  12.641  0.3150  0.4707  0.1702
  661TMC3    C1 9778   1.714   1.640  12.533  0.0827 -0.6804  0.3086
  661TMC3    C2 9779   1.794   1.591  12.433  0.8447  0.0827 -0.0301
  661TMC3    C3 9780   1.785   1.668  12.329 -0.0414 -0.6781 -0.0974
  661TMC3    C4 9781   1.653   1.757  12.529  0.0700 -0.6496  0.6265
  661TMC3    C5 9782   1.660   1.835  12.417  0.0740 -0.1354  0.5557
  661TMC3    C6 9783   1.723   1.784  12.309 -0.8524 -0.5896 -0.1629
  661TMC3     C 9784   1.671   1.549  12.636 -0.8993  0.4025  0.1950
  661TMC3     O 9785   1.554   1.559  12.666  0.5693  0.2985  0.5246
  661TMC3     H 9786   1.868   1.513  12.449  2.0457  0.9558 -1.2965
  661TMC3    H1 9787   1.593   1.786  12.615 -1.4658 -0.7742 -0.4152
  661TMC3    H2 9788   1.731   1.824  12.208 -0.2719 -1.1990 -0.3609
  661TMC3    C7 9789   1.549   1.922  12.394  0.2748 -0.1421 -0.0905
  661TMC3    C8 9790   1.866   1.620  12.225  0.6093 -0.0264 -0.0499
  661TMC3    O1 9791   1.531   2.021  12.466 -0.6498 -0.1742 -0.1307
  661TMC3    O2 9792   1.969   1.678  12.193  0.1492 -0.3449 -0.7313
  662MPD2     C 9793   1.819   1.532  17.087 -0.2187 -0.4962  0.0405
  662MPD2    C1 9794   1.757   1.486  17.197  0.0797 -0.0973 -0.3910
  662MPD2    C2 9795   1.633   1.534  17.239 -0.0377  0.2690 -0.1983
  662MPD2    C3 9796   1.582   1.641  17.173 -0.7362  0.2860 -0.5081
  662MPD2    C4 9797   1.653   1.691  17.065  0.3708 -0.1653  0.3297
  662MPD2    C5 9798   1.768   1.638  17.017  0.6710  0.3234 -0.4936
  662MPD2     H 9799   1.586   1.484  17.324  1.0499  0.4657  0.5219
  662MPD2    H1 9800   1.613   1.778  17.015  2.1570 -0.3573 -1.4427
  662MPD2    H2 9801   1.918   1.490  17.068  1.2940  2.8546  0.4658
  662MPD2    H3 9802   1.813   1.690  16.933 -0.9988  2.1548 -0.2545
  662MPD2     N 9803   1.465   1.700  17.221  0.1142 -0.1716 -0.3170
  662MPD2    H5 9804   1.437   1.794  17.194  0.3630  0.0461  0.1845
  662MPD2    N1 9805   1.816   1.383  17.272 -0.1878 -0.1879  0.1437
  662MPD2    H7 9806   1.752   1.347  17.342  0.9918  0.0755  1.3657
  663TMC3    C1 9807   1.965   1.245  17.361 -0.6981 -0.5236  0.3051
  663TMC3    C2 9808   2.085   1.262  17.429  0.5144 -0.7248  0.9344
  663TMC3    C3 9809   2.090   1.239  17.569 -0.5106  0.3945  0.0578
  663TMC3    C4 9810   1.867   1.163  17.415  1.2305 -0.3654  0.0335
  663TMC3    C5 9811   1.888   1.120  17.542 -0.1079 -0.2863  0.1802
  663TMC3    C6 9812   1.989   1.165  17.620  0.0765 -0.7216  0.1410
  663TMC3     C 9813   1.938   1.332  17.254  0.0348 -0.1517 -0.3909
  663TMC3     O 9814   2.040   1.374  17.197 -0.0232  0.0164 -0.4330
  663TMC3     H 9815   2.155   1.336  17.392 -0.0325  0.3407  2.0414
  663TMC3    H1 9816   1.789   1.130  17.347  2.3529 -2.0074 -0.4482
  663TMC3    H2 9817   2.001   1.121   0.008 -2.4458  0.1130  0.8076
  663TMC3    C7 9818   1.783   1.055  17.617  0.8514  0.7228 -0.1580
  663TMC3    C8 9819   2.080   1.369  17.627 -0.0136 -0.2063 -0.4463
  663TMC3    O1 9820   1.775   1.097   0.021  0.4140  0.9990  0.0382
  663TMC3    O2 9821   2.124   1.468  17.571 -0.0954 -0.2231  0.1649
  664MPD2     C 9822   4.339   4.572  17.575  0.7966  0.6182  0.4067
  664MPD2    C1 9823   4.421   4.647  17.662  0.1569  0.0388 -0.3545
  664MPD2    C2 9824   4.369   4.701   0.067  0.6166 -0.2922  0.5454
  664MPD2    C3 9825   4.247   4.657   0.111 -0.5139 -0.4099 -0.1856
  664MPD2    C4 9826   4.171   4.578   0.021 -0.3145  0.2175 -0.1235
  664MPD2    C5 9827   4.216   4.540  17.612  0.6750 -0.1749 -0.2317
  664MPD2     H 9828   4.426   0.030   0.140 -1.5405  0.0281  1.9772
  664MPD2    H1 9829   4.075   4.538   0.051 -0.0500 -0.7082 -0.5261
  664MPD2    H2 9830   4.377   4.531  17.482  0.2907 -1.0918  0.9538
  664MPD2    H3 9831   4.163   4.481  17.538 -0.9371 -0.1963  0.9540
  664MPD2     N 9832   4.204   4.685   0.241 -0.0111 -0.0207  0.2926
  664MPD2    H5 9833   4.262   0.015   0.301 -0.4380 -0.2563  0.9259
  664MPD2    N1 9834   4.551   4.676  17.632 -0.4218 -0.3276 -0.4784
  664MPD2    H7 9835   4.603   0.007  17.697 -1.5935 -0.2469  0.3853
  665TMC3    C1 9836   4.087   4.656   0.441 -0.2361 -0.4610  0.2785
  665TMC3    C2 9837   3.976   4.631   0.516 -0.0421  0.2927 -0.0874
  665TMC3    C3 9838   3.982   4.620   0.649 -0.0442 -0.2494 -0.3799
  665TMC3    C4 9839   4.211   4.674   0.516 -1.0397 -0.1280 -0.3689
  665TMC3    C5 9840   4.209   4.661   0.651 -0.5302 -0.1043 -0.0115
  665TMC3    C6 9841   4.098   4.642   0.722 -0.2814 -0.0292  0.1011
  665TMC3     C 9842   4.087   4.642   0.300  0.1535  0.6920  0.3424
  665TMC3     O 9843   3.982   4.595   0.252  0.1042 -0.2076  0.2671
  665TMC3     H 9844   3.880   4.627   0.466 -0.1573 -1.2716  0.2634
  665TMC3    H1 9845   4.308   4.698   0.474 -0.4691 -1.2226  0.3250
  665TMC3    H2 9846   4.097   4.647   0.831 -0.5023  1.9119  0.0177
  665TMC3    C7 9847   4.321   0.000   0.715  0.0183  0.8708  0.0875
  665TMC3    C8 9848   3.860   4.652   0.717  0.9397  0.3008  0.2253
  665TMC3    O1 9849   4.372   0.092   0.655  0.8628  0.3982  0.4030
  665TMC3    O2 9850   3.847   4.607   0.831 -0.5118 -0.5171  0.0679
  666TMC3    C1 9851   4.085   4.220   9.914 -0.4300  0.3689 -0.0617
  666TMC3    C2 9852   4.212   4.217   9.976  0.1150 -0.1501 -0.1809
  666TMC3    C3 9853   4.274   4.337  10.018  0.3942 -0.1430  0.1438
  666TMC3    C4 9854   4.014   4.339   9.896  0.7003  0.1140 -0.1769
  666TMC3    C5 9855   4.084   4.449   9.937 -0.4894 -0.3369 -1.0612
  666TMC3    C6 9856   4.211   4.449   9.989 -0.8600 -0.7799 -0.1723
  666TMC3     C 9857   4.028   4.101   9.858  0.7378  0.1112  0.0572
  666TMC3     O 9858   3.916   4.103   9.807  0.3537 -0.3444  0.1015
  666TMC3     H 9859   4.251   4.121  10.010 -0.9763 -0.8812 -1.0041
  666TMC3    H1 9860   3.907   4.332   9.881  0.3002 -0.7907  3.1765
  666TMC3    H2 9861   4.259   4.547   9.995 -0.4038 -0.9772 -0.5996
  666TMC3    C7 9862   4.008   4.567   9.962 -0.0586 -0.9726  0.1413
  666TMC3    C8 9863   4.364   4.344  10.139 -0.2919 -0.2209 -0.0747
  666TMC3    O1 9864   4.055   4.638  10.049 -0.2911 -0.1789  1.2550
  666TMC3    O2 9865   4.385   4.228  10.184 -0.3830 -0.4045 -0.0010
  667MPD2     C 9866   0.770   4.627  14.625 -0.1968 -0.1163 -0.2650
  667MPD2    C1 9867   0.658   4.672  14.686  0.0837 -0.2604  0.5964
  667MPD2    C2 9868   0.534   4.615  14.659 -0.9099  0.0640 -0.7937
  667MPD2    C3 9869   0.522   4.505  14.574 -0.1075  0.3611 -0.7258
  667MPD2    C4 9870   0.636   4.467  14.509  0.5586 -0.1666 -0.7011
  667MPD2    C5 9871   0.757   4.527  14.532  0.4114 -0.1351 -0.4287
  667MPD2     H 9872   0.450   4.662  14.710 -0.2472 -0.1911  0.5219
  667MPD2    H1 9873   0.639   4.381  14.444 -1.3946 -1.6813  1.2068
  667MPD2    H2 9874   0.863   4.682  14.628 -2.0508  2.9923  0.6892
  667MPD2    H3 9875   0.850   4.500  14.483  0.1616  0.7683 -1.4059
  667MPD2     N 9876   0.409   4.430  14.540 -0.2985 -0.1008 -0.4111
  667MPD2    H5 9877   0.415   4.374  14.456 -0.8353 -1.8670  0.7256
  667MPD2    N1 9878   0.654   0.055  14.775  0.1313 -0.2139 -0.0063
  667MPD2    H7 9879   0.563   0.073  14.817 -0.6013  1.0574 -2.1684
  668TMC3    C1 9880   0.744   0.200  14.936  0.3976 -0.5503 -0.0167
  668TMC3    C2 9881   0.827   0.302  14.971 -0.4019 -0.5647  0.0548
  668TMC3    C3 9882   0.832   0.342  15.101  0.5924 -0.1979  0.3980
  668TMC3    C4 9883   0.655   0.147  15.023  0.1252  0.1466  0.1123
  668TMC3    C5 9884   0.655   0.197  15.148 -0.6008 -0.6346  0.5298
  668TMC3    C6 9885   0.741   0.294  15.191  0.3261 -0.3783 -0.1023
  668TMC3     C 9886   0.766   0.122  14.816 -0.1786 -0.0530  0.0743
  668TMC3     O 9887   0.877   0.118  14.771  0.4949  0.4062 -0.1302
  668TMC3     H 9888   0.896   0.348  14.901 -2.4308  0.8586 -0.9798
  668TMC3    H1 9889   0.586   0.066  14.999 -0.9432  0.9373  0.5173
  668TMC3    H2 9890   0.724   0.317  15.296  0.9161 -0.7092  0.0624
  668TMC3    C7 9891   0.566   0.139  15.252 -0.1984 -0.0603 -0.1252
  668TMC3    C8 9892   0.918   0.446  15.154 -0.4122  0.4194 -0.6222
  668TMC3    O1 9893   0.547   0.211  15.354  0.3934 -0.3456 -0.2835
  668TMC3    O2 9894   0.919   0.450  15.279  0.4652  0.1522  0.2757
  669TMC3    C1 9895   3.646   4.570  14.844  0.0534  0.3406 -0.2570
  669TMC3    C2 9896   3.547   4.627  14.774 -0.0639 -0.1378 -0.0435
  669TMC3    C3 9897   3.568   4.723  14.681  0.8410 -0.0839  0.1014
  669TMC3    C4 9898   3.771   4.614  14.831  1.2176  0.2348  0.5723
  669TMC3    C5 9899   3.791   4.709  14.738 -0.0517 -0.5288 -0.1569
  669TMC3    C6 9900   3.701   0.037  14.651  0.3043 -0.1080  0.2616
  669TMC3     C 9901   3.626   4.439  14.893  0.5410 -0.1281  0.1420
  669TMC3     O 9902   3.510   4.400  14.923  0.2183  0.1754 -0.1837
  669TMC3     H 9903   3.446   4.595  14.797 -0.2123 -0.1878 -0.7665
  669TMC3    H1 9904   3.854   4.581  14.892  0.6622  1.3345  1.9009
  669TMC3    H2 9905   3.730   0.124  14.593 -0.8798  2.2699  3.2220
  669TMC3    C7 9906   3.921   0.047  14.729 -0.3671 -0.3635  0.3046
  669TMC3    C8 9907   3.466   0.017  14.583  0.1050 -1.0252  0.4269
  669TMC3    O1 9908   3.936   0.156  14.671 -0.6355 -0.0957 -0.2395
  669TMC3    O2 9909   3.356   4.690  14.592  0.3540 -0.2758  0.1024
  670MPD2     C 9910   1.994   2.110  13.297  0.0098 -0.2403  0.3311
  670MPD2    C1 9911   2.009   2.207  13.393 -0.0654 -0.6569  0.1223
  670MPD2    C2 9912   1.893   2.266  13.439  0.4315 -0.7572 -0.0916
  670MPD2    C3 9913   1.763   2.221  13.406  0.0925  0.2050  0.4135
  670MPD2    C4 9914   1.754   2.118  13.308  0.4923 -1.4100  0.6632
  670MPD2    C5 9915   1.872   2.071  13.257  0.2777 -0.1322  0.3285
  670MPD2     H 9916   1.899   2.350  13.507 -1.3949  0.8329 -1.9296
  670MPD2    H1 9917   1.657   2.084  13.275 -0.6588  1.2681  1.2642
  670MPD2    H2 9918   2.069   2.049  13.248 -1.5218 -2.0281  0.2090
  670MPD2    H3 9919   1.860   2.000  13.176 -1.2923  1.2133 -0.6065
  670MPD2     N 9920   1.648   2.292  13.464 -0.3505  0.4324 -0.4062
  670MPD2    H5 9921   1.666   2.346  13.548  1.2341 -1.0272  0.1995
  670MPD2    N1 9922   2.135   2.265  13.426  0.9818 -0.2786  0.0897
  670MPD2    H7 9923   2.136   2.356  13.471 -0.1864 -0.2214 -0.0175
  671TMC3    C1 9924   1.423   2.342  13.511 -0.0796 -0.1931 -0.1654
  671TMC3    C2 9925   1.471   2.419  13.609 -0.6449  0.0093 -0.9751
  671TMC3    C3 9926   1.424   2.410  13.741  0.3894  0.2988 -0.2419
  671TMC3    C4 9927   1.300   2.294  13.525 -0.3553 -0.3967  0.6946
  671TMC3    C5 9928   1.237   2.298  13.648 -0.2261 -0.8030  0.1374
  671TMC3    C6 9929   1.312   2.343  13.758  0.0577  0.5995 -1.0365
  671TMC3     C 9930   1.517   2.279  13.422  0.4150 -0.5920 -0.1859
  671TMC3     O 9931   1.472   2.196  13.346 -0.1868  0.2949  0.4167
  671TMC3     H 9932   1.570   2.463  13.599  1.3595 -3.9668  1.3784
  671TMC3    H1 9933   1.251   2.237  13.447 -1.8984 -2.3593  3.0947
  671TMC3    H2 9934   1.282   2.332  13.862 -0.0392 -0.7583 -1.2145
  671TMC3    C7 9935   1.145   2.188  13.674 -0.6356 -0.1566 -0.2294
  671TMC3    C8 9936   1.521   2.337  13.817 -0.0193  0.2822 -0.5347
  671TMC3    O1 9937   1.138   2.107  13.588 -0.1021 -0.7280  0.5497
  671TMC3    O2 9938   1.491   2.217  13.823 -0.7427  0.0327 -0.5710
  672MPD2     C 9939   1.214   2.446   1.355 -0.4705  0.4293 -0.0293
  672MPD2    C1 9940   1.283   2.544   1.292 -0.0092  0.4303 -0.0237
  672MPD2    C2 9941   1.293   2.669   1.347 -0.2372  0.4093 -0.3358
  672MPD2    C3 9942   1.263   2.689   1.475  0.2616 -0.5610  0.4475
  672MPD2    C4 9943   1.211   2.589   1.549  0.2701  0.1710  0.5058
  672MPD2    C5 9944   1.177   2.471   1.482  0.0445  0.2651 -0.4360
  672MPD2     H 9945   1.343   2.744   1.288  0.9463 -0.9667 -1.0795
  672MPD2    H1 9946   1.178   2.598   1.652  0.5060  0.1698  0.5808
  672MPD2    H2 9947   1.196   2.346   1.316 -1.2077 -0.2827  2.1170
  672MPD2    H3 9948   1.118   2.397   1.536 -0.1216 -0.2751 -1.3720
  672MPD2     N 9949   1.285   2.815   1.542 -0.5226  0.4185  0.5291
  672MPD2    H5 9950   1.283   2.799   1.642 -0.8368 -1.1347  0.2846
  672MPD2    N1 9951   1.344   2.533   1.172  0.1604  0.6123  0.1668
  672MPD2    H7 9952   1.383   2.620   1.138  2.2399 -0.4200 -0.0661
  673TMC3    C1 9953   1.463   2.451   0.990  0.5780 -0.2675 -0.6031
  673TMC3    C2 9954   1.457   2.363   0.888  0.0123  0.2091  0.1412
  673TMC3    C3 9955   1.525   2.404   0.770  0.2407 -0.5607 -0.4027
  673TMC3    C4 9956   1.536   2.568   0.996 -0.4165  0.2185  0.6936
  673TMC3    C5 9957   1.588   2.603   0.878 -0.6413  0.0854  0.7096
  673TMC3    C6 9958   1.585   2.527   0.764  0.3133 -0.3954 -0.3111
  673TMC3     C 9959   1.374   2.420   1.099  0.5085 -0.1479 -0.2605
  673TMC3     O 9960   1.342   2.306   1.127 -0.1279 -0.3470 -0.9885
  673TMC3     H 9961   1.399   2.272   0.887  1.5052 -0.7568  0.5941
  673TMC3    H1 9962   1.560   2.629   1.082  0.6144 -0.8982  1.1992
  673TMC3    H2 9963   1.626   2.573   0.675  5.2554 -2.1660  1.0892
  673TMC3    C7 9964   1.687   2.705   0.870 -0.5285  0.0261 -0.1786
  673TMC3    C8 9965   1.490   2.329   0.646 -0.0536  0.2705  0.3666
  673TMC3    O1 9966   1.770   2.712   0.960 -0.2200  0.8155  0.4864
  673TMC3    O2 9967   1.372   2.301   0.642  0.0675  0.1116  0.5596
  674MPD2     C 9968   1.999   2.446  17.539 -0.3411  0.2852  0.2917
  674MPD2    C1 9969   1.871   2.401  17.506  0.5368  0.3383 -0.2371
  674MPD2    C2 9970   1.764   2.462  17.566  0.2641  0.8937  0.3010
  674MPD2    C3 9971   1.773   2.541  17.672  0.4276  0.0251  0.0818
  674MPD2    C4 9972   1.901   2.587  17.702 -0.1833  0.3330  0.3429
  674MPD2    C5 9973   2.010   2.545  17.629 -0.0699  0.3437 -0.4291
  674MPD2     H 9974   1.663   2.445  17.529  0.1349  1.2032  0.5134
  674MPD2    H1 9975   1.921   2.663   0.066  0.9889 -0.2907  0.6691
  674MPD2    H2 9976   2.093   2.413  17.496 -1.0192 -1.3675  0.0808
  674MPD2    H3 9977   2.102   2.589  17.666  1.1563 -1.2215 -1.5823
  674MPD2     N 9978   1.656   2.562   0.034  0.0833 -0.4045 -0.4002
  674MPD2    H5 9979   1.570   2.517   0.006 -1.5736  2.3811  0.1704
  674MPD2    N1 9980   1.852   2.292  17.418 -0.0297 -0.4915  0.2720
  674MPD2    H7 9981   1.934   2.256  17.369  1.2949  3.0227 -0.0930
  675TMC3    C1 9982   1.742   2.094  17.338  1.0007  0.0321  0.1665
  675TMC3    C2 9983   1.682   2.001  17.414 -0.3310  0.0188 -0.3327
  675TMC3    C3 9984   1.725   1.872  17.419  0.0494  0.2960 -0.2754
  675TMC3    C4 9985   1.844   2.063  17.260 -0.0091 -0.3641  0.6249
  675TMC3    C5 9986   1.876   1.929  17.249  0.4559 -0.9043 -0.6996
  675TMC3    C6 9987   1.825   1.832  17.338 -0.0842 -0.8793 -0.4261
  675TMC3     C 9988   1.734   2.232  17.386  0.0894  0.3112 -1.0367
  675TMC3     O 9989   1.620   2.265  17.418 -0.2993 -0.2691 -0.2486
  675TMC3     H 9990   1.614   2.035  17.491 -0.0998  0.4606 -0.3215
  675TMC3    H1 9991   1.873   2.136  17.185 -2.4284  1.2721  1.2966
  675TMC3    H2 9992   1.848   1.728  17.321 -0.8461 -1.6331  3.1261
  675TMC3    C7 9993   1.968   1.891  17.146  0.2624 -0.7881 -0.5345
  675TMC3    C8 9994   1.668   1.788  17.526 -0.9351  0.4659  0.3396
  675TMC3    O1 9995   1.971   1.961  17.048  0.0370  0.2773  0.7726
  675TMC3    O2 9996   1.688   1.670  17.514  1.0171  0.4794 -0.7140
  676MPD2     C 9997   4.561   0.898  11.217 -0.0050 -0.4778 -0.2974
  676MPD2    C1 9998   4.451   0.831  11.281 -0.3949  0.2451  0.2854
  676MPD2    C2 9999   4.410   0.711  11.225  0.2694  0.3810 -0.0147
  676MPD2    C310000   4.467   0.661  11.107  0.1915 -0.3319 -0.4736
  676MPD2    C410001   4.560   0.736  11.041 -0.5232 -0.0920  0.0818
  676MPD2    C510002   4.599   0.855  11.098  0.3676  0.5337  0.1678
  676MPD2     H10003   4.331   0.660  11.278  1.2896 -0.3499  0.8066
  676MPD2    H110004   4.598   0.719  10.941 -1.3915  0.5262 -0.3481
  676MPD2    H210005   4.599   0.995  11.246  1.6268 -0.3516 -2.8984
  676MPD2    H310006   4.672   0.915  11.045  1.6841  1.2678  2.7931
  676MPD2     N10007   4.444   0.538  11.049  0.4051 -0.1103 -0.0976
  676MPD2    H510008   4.522   0.505  10.993  1.1664  1.1237  0.2210
  676MPD2    N110009   4.385   0.877  11.402 -0.7065 -0.1059  0.2367
  676MPD2    H710010   4.290   0.844  11.410 -0.5363 -1.0920 -1.8626
  677TMC3    C110011   4.364   1.027  11.586  0.5522 -0.5285  0.0415
  677TMC3    C210012   4.255   0.960  11.621  0.3677  0.2239 -0.3972
  677TMC3    C310013   4.197   1.005  11.735  0.2777 -0.1215 -0.1379
  677TMC3    C410014   4.406   1.142  11.649 -0.6743 -0.5461  0.1726
  677TMC3    C510015   4.345   1.180  11.764 -0.1166  0.2840  0.7812
  677TMC3    C610016   4.237   1.115  11.808 -0.6171  0.1137  0.1715
  677TMC3     C10017   4.441   0.983  11.473  0.1764 -0.0019  0.1669
  677TMC3     O10018   4.556   1.027  11.471  0.6017 -0.0010  0.1810
  677TMC3     H10019   4.216   0.867  11.581  0.9366  0.1662 -0.8277
  677TMC3    H110020   4.490   1.202  11.614  1.9911 -3.4577  1.5187
  677TMC3    H210021   4.200   1.120  11.909 -2.6855  2.4837 -0.7041
  677TMC3    C710022   4.398   1.282  11.845 -0.1486 -0.3992  0.4261
  677TMC3    C810023   4.093   0.905  11.786  0.1842 -0.0537  0.1960
  677TMC3    O110024   4.403   1.257  11.965  0.3417  0.1354  0.1984
  677TMC3    O210025   4.017   0.881  11.697  0.1380 -0.1340 -0.0079
  678MPD2     C10026   0.751   0.780   1.684 -0.8953  0.0962 -0.0378
  678MPD2    C110027   0.727   0.706   1.574  0.2456 -0.0516  0.5852
  678MPD2    C210028   0.604   0.640   1.556 -0.3390  0.1279 -0.0098
  678MPD2    C310029   0.514   0.646   1.662  0.1005 -0.2098 -0.4971
  678MPD2    C410030   0.544   0.716   1.777 -0.3381  0.1652 -0.0165
  678MPD2    C510031   0.661   0.787   1.783  0.2967 -0.2617  0.2988
  678MPD2     H10032   0.567   0.580   1.474 -0.9320 -0.1028  0.4258
  678MPD2    H110033   0.486   0.711   1.868  1.2569 -0.6954  0.9614
  678MPD2    H210034   0.847   0.826   1.705 -0.7927 -0.4481  0.6596
  678MPD2    H310035   0.691   0.834   1.876  2.2479  1.2604 -1.0998
  678MPD2     N10036   0.396   0.582   1.645  1.0033  0.4135 -0.6898
  678MPD2    H510037   0.379   0.532   1.558  3.4288 -1.4988 -0.0664
  678MPD2    N110038   0.829   0.675   1.476 -0.1329  0.0131  0.1396
  678MPD2    H710039   0.810   0.603   1.408  0.1331 -1.1550  1.2950
  679TMC3    C110040   1.143   0.485   1.292 -0.1215  0.0356 -0.0120
  679TMC3    C210041   1.038   0.541   1.369 -0.8716 -0.6503 -0.3600
  679TMC3    C310042   1.040   0.677   1.374 -0.3071  0.3359 -0.2150
  679TMC3    C410043   1.244   0.551   1.226 -0.3554  0.0724 -0.9169
  679TMC3    C510044   1.228   0.686   1.225 -0.6444  0.4760 -0.2084
  679TMC3    C610045   1.124   0.750   1.298  0.0614 -0.3736 -0.1916
  679TMC3     C10046   1.168   0.341   1.290  0.5068  0.4118 -0.2102
  679TMC3     O10047   1.268   0.309   1.228 -0.4814  0.6949  0.1269
  679TMC3     H10048   0.967   0.484   1.428  2.3435 -0.6935  3.4945
  679TMC3    H110049   1.305   0.503   1.150 -0.0785 -0.5694 -0.2794
  679TMC3    H210050   1.130   0.857   1.320 -0.1192 -0.3893 -0.0583
  679TMC3    C710051   1.307   0.780   1.150 -0.4257 -0.1190 -0.2614
  679TMC3    C810052   0.939   0.745   1.461 -0.5808  0.5340 -0.2318
  679TMC3    O110053   1.240   0.876   1.111  0.4437  0.1800 -0.5544
  679TMC3    O210054   0.972   0.849   1.513  0.2301  0.4985  0.7357
  680MPD2     C10055   1.485   4.516  13.699  0.4662 -0.1386  0.4559
  680MPD2    C110056   1.541   4.450  13.806 -0.0196  0.2092 -0.2660
  680MPD2    C210057   1.643   4.510  13.875  0.1160 -0.4960  0.2923
  680MPD2    C310058   1.677   4.642  13.855  0.1846 -0.1978  0.6169
  680MPD2    C410059   1.620   4.708  13.753 -0.6422  0.1247 -0.4350
  680MPD2    C510060   1.528   4.647  13.675  0.0163  0.2647 -0.0354
  680MPD2     H10061   1.698   4.463  13.956  2.7955  0.6903 -0.8416
  680MPD2    H110062   1.654   0.082  13.733  2.0856 -0.8140 -0.5590
  680MPD2    H210063   1.411   4.471  13.634 -0.2644 -0.5393  1.5593
  680MPD2    H310064   1.475   4.708  13.603  0.4414 -0.5406 -1.0242
  680MPD2     N10065   1.769   4.718  13.926  0.6555  0.3577 -0.1833
  680MPD2    H510066   1.774   0.089  13.901  1.4693  0.7703  1.5774
  680MPD2    N110067   1.516   4.321  13.821  0.4664 -0.0792 -0.0817
  680MPD2    H710068   1.578   4.280  13.890  0.9265  1.3318  0.3509
  681TMC3    C110069   1.415   4.113  13.817  0.9531 -0.0129 -0.3650
  681TMC3    C210070   1.411   4.087  13.954  0.6073 -0.5964  0.7412
  681TMC3    C310071   1.401   3.957  14.001 -0.6749 -0.6569 -0.0139
  681TMC3    C410072   1.395   4.016  13.727  0.0539 -0.4369 -0.4761
  681TMC3    C510073   1.383   3.889  13.775  0.3238 -0.5493  0.4661
  681TMC3    C610074   1.382   3.854  13.911  0.1457 -0.0681  0.2978
  681TMC3     C10075   1.415   4.248  13.767 -0.0329  0.0459 -0.1043
  681TMC3     O10076   1.312   4.275  13.706 -0.1424 -0.1264 -0.0372
  681TMC3     H10077   1.409   4.173  14.020  2.2671  0.7190 -0.9120
  681TMC3    H110078   1.405   4.048  13.624  1.0735 -1.8622 -0.8271
  681TMC3    H210079   1.377   3.751  13.945 -1.3983  0.4219  1.5143
  681TMC3    C710080   1.403   3.782  13.686 -0.2486  0.7522  0.5861
  681TMC3    C810081   1.411   3.924  14.137 -0.1952  0.0635  0.4164
  681TMC3    O110082   1.354   3.673  13.705 -0.1392 -0.3583 -0.1375
  681TMC3    O210083   1.409   3.807  14.174 -0.2346  0.2557 -0.8609
  682MPD2     C10084   3.860   0.777  10.655 -0.3707  0.0314 -0.1492
  682MPD2    C110085   3.776   0.686  10.715  0.3470  0.9030  0.7963
  682MPD2    C210086   3.759   0.697  10.852 -0.1506 -0.0294 -0.0688
  682MPD2    C310087   3.823   0.789  10.927 -0.7676 -1.0340 -0.5061
  682MPD2    C410088   3.905   0.880  10.864  0.4196 -0.5281 -0.5051
  682MPD2    C510089   3.923   0.875  10.727 -0.1315  0.4303  0.5637
  682MPD2     H10090   3.698   0.625  10.906  2.3970 -3.0071 -1.1370
  682MPD2    H110091   3.962   0.941  10.933  0.3638  0.0329 -0.9484
  682MPD2    H210092   3.894   0.769  10.552  0.3915  2.6459 -0.1064
  682MPD2    H310093   3.989   0.949  10.685  0.7368  0.3295  1.7475
  682MPD2     N10094   3.803   0.779  11.069 -0.6927  0.2860 -0.0706
  682MPD2    H510095   3.734   0.712  11.103 -0.1591  0.0677  0.6007
  682MPD2    N110096   3.733   0.565  10.645 -0.1153  0.0371 -0.7136
  682MPD2    H710097   3.690   0.489  10.697  2.7257 -0.3210  1.1054
  683TMC3    C110098   3.628   1.016  11.426  0.5655 -0.1687  0.2537
  683TMC3    C210099   3.580   0.900  11.484  0.4148  0.3613  0.7191
  683TMC3    C310100   3.633   0.781  11.440 -0.4818  0.3317  0.3319
  683TMC3    C410101   3.712   1.011  11.322  0.3700  0.6226 -0.0676
  683TMC3    C510102   3.757   0.884  11.282  0.2224  0.2628 -0.3937
  683TMC3    C610103   3.723   0.764  11.338 -0.3117  0.6878  0.0440
  683TMC3     C10104   3.607   1.145  11.492 -0.0329  0.1077  0.1068
  683TMC3     O10105   3.595   1.130  11.612  0.1568  0.1485 -0.3224
  683TMC3     H10106   3.514   0.896  11.569  0.5537 -0.2154  0.8005
  683TMC3    H110107   3.755   1.093  11.266 -0.1884  0.3827 -0.8553
  683TMC3    H210108   3.757   0.665  11.307  1.3773  1.8163 -1.6808
  683TMC3    C710109   3.837   0.883  11.155 -0.5018 -0.6018 -0.5790
  683TMC3    C810110   3.544   0.669  11.455  0.5918 -0.6451 -0.3042
  683TMC3    O110111   3.892   0.988  11.132 -0.3397  1.0636 -0.1520
  683TMC3    O210112   3.432   0.695  11.494 -0.7287 -0.0641  0.1385
  684MPD2     C10113   1.307   0.426  16.264 -0.1648  0.3175 -0.2885
  684MPD2    C110114   1.443   0.389  16.257  0.3354  0.0812 -0.1521
  684MPD2    C210115   1.542   0.494  16.256  0.5127 -0.3472 -0.0000
  684MPD2    C310116   1.500   0.628  16.257  1.2782  1.1330 -0.0082
  684MPD2    C410117   1.366   0.657  16.281  0.8142  0.1757 -0.4962
  684MPD2    C510118   1.270   0.557  16.287  0.0883  0.3547 -0.4337
  684MPD2     H10119   1.644   0.466  16.231  1.0854 -0.1894  2.2106
  684MPD2    H110120   1.329   0.759  16.286  0.5687  0.0979 -0.7195
  684MPD2    H210121   1.225   0.358  16.242 -0.0965  0.1998 -0.1846
  684MPD2    H310122   1.167   0.591  16.287 -0.7330 -2.1766 -0.2630
  684MPD2     N10123   1.600   0.722  16.228  0.4444  0.1005  0.2872
  684MPD2    H510124   1.695   0.686  16.215 -0.5683 -1.6773 -2.1670
  684MPD2    N110125   1.468   0.256  16.241 -0.1292 -0.1319 -0.2993
  684MPD2    H710126   1.390   0.192  16.224  0.0112 -1.0692  2.6291
  685TMC3    C110127   1.604   0.080  16.161  0.2258 -0.4236  0.7297
  685TMC3    C210128   1.516   0.074  16.056 -0.7341 -0.0403  0.2658
  685TMC3    C310129   1.579   0.075  15.925 -0.2214 -0.0113  0.6545
  685TMC3    C410130   1.736   0.048  16.149 -0.1300 -0.2239 -0.3177
  685TMC3    C510131   1.793   0.063  16.024  0.3021  0.4270  0.2474
  685TMC3    C610132   1.713   0.059  15.917  0.0307  0.5156  0.4413
  685TMC3     C10133   1.591   0.198  16.241  0.1410  0.0522 -0.2024
  685TMC3     O10134   1.693   0.239  16.295  0.9358  0.3420  0.6765
  685TMC3     H10135   1.411   0.092  16.075 -1.0115  0.2072 -1.4488
  685TMC3    H110136   1.800   0.040  16.236 -0.9083  0.7785  0.3514
  685TMC3    H210137   1.763   0.046  15.822 -0.3317  1.7760  0.0725
  685TMC3    C710138   1.931   0.114  16.018 -0.1769  0.0481  0.6527
  685TMC3    C810139   1.499   0.122  15.815 -0.2412 -0.3763 -0.1665
  685TMC3    O110140   1.990   0.086  15.915 -0.3097 -0.3730 -0.1818
  685TMC3    O210141   1.537   0.115  15.698 -0.2941  0.5378  0.1427
  686MPD2     C10142   3.278   0.440  15.716  0.3390 -0.7956  0.3854
  686MPD2    C110143   3.174   0.349  15.704  0.1990 -0.3355  0.0201
  686MPD2    C210144   3.183   0.236  15.623 -1.1474  0.8167 -0.3448
  686MPD2    C310145   3.297   0.234  15.543 -0.5393  0.2723  0.1265
  686MPD2    C410146   3.398   0.326  15.545 -0.1197 -0.4965 -0.5319
  686MPD2    C510147   3.381   0.434  15.629 -0.5680  0.1244  0.2355
  686MPD2     H10148   3.106   0.161  15.611 -1.9539  1.5620  0.2287
  686MPD2    H110149   3.484   0.311  15.481  2.7641  0.6834  3.1124
  686MPD2    H210150   3.265   0.520  15.789  2.5810  1.0827 -1.2607
  686MPD2    H310151   3.454   0.514  15.641  0.9357 -1.2329  0.2128
  686MPD2     N10152   3.317   0.121  15.459 -0.4420  0.5423  0.2662
  686MPD2    H510153   3.406   0.097  15.417 -0.5343  3.4721 -1.5992
  686MPD2    N110154   3.060   0.362  15.783 -0.2384  0.1781 -0.2832
  686MPD2    H710155   3.070   0.426  15.861  1.1150  2.6076 -2.4705
  687TMC3    C110156   3.255   4.626  15.392 -0.7067  0.1827  0.2005
  687TMC3    C210157   3.173   4.552  15.318 -0.0027  0.6151  0.3710
  687TMC3    C310158   3.180   4.419  15.315 -0.8118  0.7080 -0.5549
  687TMC3    C410159   3.341   4.557  15.479 -0.1709 -0.2675 -0.2570
  687TMC3    C510160   3.345   4.421  15.476 -0.0608  0.0767 -0.1673
  687TMC3    C610161   3.264   4.349  15.394 -0.4416 -0.0617  0.5241
  687TMC3     C10162   3.212   0.036  15.421 -0.3119 -1.2744 -0.5570
  687TMC3     O10163   3.092   0.036  15.440 -0.0367 -0.4242  0.0925
  687TMC3     H10164   3.111   4.597  15.241  0.2668 -0.2829 -0.3702
  687TMC3    H110165   3.386   4.621  15.554  0.9279  0.0124 -1.1594
  687TMC3    H210166   3.256   4.241  15.397 -0.0867 -0.1087 -0.4531
  687TMC3    C710167   3.398   4.354  15.592  0.1655  0.1127  0.3222
  687TMC3    C810168   3.071   4.346  15.249  0.4591  1.0073 -0.2206
  687TMC3    O110169   3.360   4.237  15.607 -0.0844 -0.0454 -0.4171
  687TMC3    O210170   3.102   4.246  15.184  0.3023  0.5492 -0.1776
  688MPD2     C10171   2.032   3.778  17.062 -0.1870  0.3127 -0.7202
  688MPD2    C110172   2.100   3.700  17.147  0.5722  1.3110  0.2788
  688MPD2    C210173   2.229   3.660  17.116  0.0128 -0.9390 -0.4223
  688MPD2    C310174   2.289   3.704  16.991  0.5355 -0.5759  0.4417
  688MPD2    C410175   2.221   3.793  16.918 -0.2095 -0.1120  0.0756
  688MPD2    C510176   2.097   3.829  16.950 -0.1073  0.4222 -0.1129
  688MPD2     H10177   2.281   3.603  17.192  0.5826 -0.3130 -0.3401
  688MPD2    H110178   2.271   3.836  16.832  0.7880  0.6894  1.0682
  688MPD2    H210179   1.933   3.815  17.087 -0.9502 -0.7297 -2.1804
  688MPD2    H310180   2.047   3.896  16.880  2.6817  1.5560 -1.0147
  688MPD2     N10181   2.415   3.666  16.940 -0.5949  0.5245 -0.2412
  688MPD2    H510182   2.449   3.713  16.857  0.4899 -0.6642 -0.4654
  688MPD2    N110183   2.055   3.653  17.266  0.0527 -0.2584  0.5692
  688MPD2    H710184   2.095   3.568  17.303 -1.7120 -2.5167 -2.7457
  689TMC3    C110185   1.945   3.660  17.477 -0.7950  0.6615  0.4895
  689TMC3    C210186   1.958   3.748  17.581 -0.3966 -0.2461  0.2040
  689TMC3    C310187   1.951   3.695  17.706 -0.0271  0.0841 -0.0173
  689TMC3    C410188   1.921   3.524  17.487 -0.0181 -0.1287 -0.4349
  689TMC3    C510189   1.902   3.483  17.615 -0.3048 -0.2604  0.7473
  689TMC3    C610190   1.926   3.559   0.014 -0.1028 -0.2764  0.0300
  689TMC3     C10191   1.958   3.716  17.339 -0.5144 -0.4445  0.0196
  689TMC3     O10192   1.897   3.821  17.326  0.0799 -0.1367  0.1073
  689TMC3     H10193   2.000   3.847  17.563  3.7924 -1.9536  0.5907
  689TMC3    H110194   1.922   3.456  17.403  1.6893  1.3687 -1.6392
  689TMC3    H210195   1.906   3.515   0.111 -0.5867 -1.2673 -0.5152
  689TMC3    C710196   1.874   3.342  17.637 -0.7090  0.3498 -0.1824
  689TMC3    C810197   1.947   3.771   0.123  0.6892  0.0448  0.2811
  689TMC3    O110198   1.885   3.305   0.044 -0.4797  0.7021  0.3131
  689TMC3    O210199   1.943   3.702   0.225  0.2913 -0.3303 -0.4262
  690MPD2     C10200   0.007   1.107  15.895 -0.6893 -1.1242  0.4098
  690MPD2    C110201   4.724   1.039  15.774 -0.4464  0.2075  0.0055
  690MPD2    C210202   0.102   1.063  15.687  0.4131  0.6199  0.4856
  690MPD2    C310203   0.222   1.117  15.731  1.0650 -0.0114  0.5570
  690MPD2    C410204   0.225   1.164  15.858 -0.8886 -0.6964  0.7001
  690MPD2    C510205   0.115   1.173  15.938 -0.0226  0.0794 -0.0467
  690MPD2     H10206   0.110   1.028  15.584  1.3729 -0.3239  0.8818
  690MPD2    H110207   0.315   1.206  15.902 -0.6449  0.3211 -0.7916
  690MPD2    H210208   4.658   1.104  15.971 -2.4200 -0.4323 -1.2895
  690MPD2    H310209   0.113   1.222  16.035 -0.8575 -0.8417  0.3973
  690MPD2     N10210   0.329   1.132  15.644  0.0586  0.1005  0.5676
  690MPD2    H510211   0.308   1.103  15.548  0.9853  0.1765  0.3449
  690MPD2    N110212   4.604   0.966  15.736 -0.0699 -0.4033 -0.3509
  690MPD2    H710213   4.608   0.915  15.648 -1.0860 -0.0940 -0.5765
  691TMC3    C110214   4.404   0.833  15.764  0.2365  0.4685  0.2904
  691TMC3    C210215   4.282   0.821  15.815 -0.6152  0.0073 -0.1698
  691TMC3    C310216   4.190   0.723  15.782 -0.9321 -0.3589  1.2719
  691TMC3    C410217   4.445   0.729  15.678 -0.4069  0.0905  0.7774
  691TMC3    C510218   4.353   0.630  15.644 -0.6489  0.3870  0.2634
  691TMC3    C610219   4.224   0.632  15.691  0.4945  0.5030  0.2391
  691TMC3     C10220   4.500   0.937  15.817 -0.8007 -0.4521 -0.7623
  691TMC3     O10221   4.478   0.977  15.928 -0.6765 -0.5041  0.0100
  691TMC3     H10222   4.246   0.894  15.887  0.4004  0.3941 -0.0568
  691TMC3    H110223   4.549   0.712  15.652 -0.9930 -0.0979 -1.4791
  691TMC3    H210224   4.148   0.556  15.680 -0.3636  1.5619 -1.1687
  691TMC3    C710225   4.416   0.510  15.594 -0.2899  0.5452  0.0305
  691TMC3    C810226   4.082   0.686  15.873 -0.1028 -0.0655 -0.2411
  691TMC3    O110227   4.538   0.505  15.602  0.3483 -0.2236  0.0182
  691TMC3    O210228   4.063   0.563  15.892 -0.2555 -0.2826  0.3153
  692TMC3    C110229   1.470   2.063  16.143  0.5573 -0.7538 -0.3864
  692TMC3    C210230   1.599   2.101  16.185 -0.3786  0.8351 -0.1860
  692TMC3    C310231   1.719   2.056  16.124  0.0476  0.5346 -0.4170
  692TMC3    C410232   1.464   1.978  16.036  0.6822 -0.2425  0.2407
  692TMC3    C510233   1.579   1.944  15.982 -0.0399  0.3493 -0.7837
  692TMC3    C610234   1.699   1.985  16.009  0.2063 -0.0438 -0.6125
  692TMC3     C10235   1.360   2.149  16.173 -0.3991 -0.1615 -0.7998
  692TMC3     O10236   1.245   2.112  16.155  0.1333  0.2640 -0.4683
  692TMC3     H10237   1.604   2.146  16.283 -2.2313 -1.4169  0.9329
  692TMC3    H110238   1.371   1.938  15.997  0.6196 -1.3560  1.5425
  692TMC3    H210239   1.790   1.936  15.976  0.2519  0.7766 -1.7035
  692TMC3    C710240   1.567   1.835  15.890 -0.1484 -0.5657 -0.6320
  692TMC3    C810241   1.796   1.976  16.223  0.2395  0.0091  0.4157
  692TMC3    O110242   1.464   1.822  15.828  0.1121  0.3738  0.5994
  692TMC3    O210243   1.823   1.860  16.183 -0.0358 -0.1764  0.7344
  693MPD2     C10244   0.840   0.119  10.805 -0.7647 -0.1935 -0.6026
  693MPD2    C110245   0.834   4.713  10.773  0.0768 -0.3719  0.0302
  693MPD2    C210246   0.942   4.637  10.774 -0.1145 -0.1748  0.2292
  693MPD2    C310247   1.060   4.686  10.816 -0.2491  0.2863  0.0393
  693MPD2    C410248   1.072   0.094  10.852  0.7897 -0.4064  0.4652
  693MPD2    C510249   0.961   0.174  10.842 -0.1140  0.3463  0.0623
  693MPD2     H10250   0.937   4.533  10.743 -0.9163  0.0505 -0.4116
  693MPD2    H110251   1.161   0.143  10.889  1.5233 -1.3085 -0.0983
  693MPD2    H210252   0.754   0.185  10.802  0.4553  1.4280 -0.0653
  693MPD2    H310253   0.955   0.279  10.869 -1.8653  0.0466  0.8596
  693MPD2     N10254   1.178   4.605  10.814  0.2873 -0.2658  0.2858
  693MPD2    H510255   1.252   4.664  10.852 -1.5349  1.9905  0.3657
  693MPD2    N110256   0.708   4.651  10.749  0.0426  0.1200  0.1113
  693MPD2    H710257   0.626   4.687  10.798 -0.6732 -0.0329 -0.9661
  694TMC3    C110258   0.584   4.449  10.766  0.7487 -0.0314 -0.1545
  694TMC3    C210259   0.545   4.333  10.704  0.3502 -0.1774 -0.3552
  694TMC3    C310260   0.482   4.238  10.773  0.6132 -0.3303 -0.3666
  694TMC3    C410261   0.556   4.475  10.894 -0.2190 -0.4082 -0.1752
  694TMC3    C510262   0.503   4.374  10.963  0.0769  0.2583 -0.0678
  694TMC3    C610263   0.464   4.248  10.907  1.0247 -0.7925 -0.1775
  694TMC3     C10264   0.685   4.525  10.693 -0.0443 -0.0810 -0.1719
  694TMC3     O10265   0.752   4.474  10.603  0.3394  0.0448  0.0636
  694TMC3     H10266   0.558   4.328  10.597 -1.0024 -0.8374 -0.4917
  694TMC3    H110267   0.601   4.560  10.944 -1.8943  0.3976 -0.0351
  694TMC3    H210268   0.393   4.185  10.958  0.2249  0.8666  0.7689
  694TMC3    C710269   0.490   4.399  11.106  0.5000  0.0455 -0.6354
  694TMC3    C810270   0.387   4.152  10.701  0.2141 -0.0581 -0.1307
  694TMC3    O110271   0.542   4.501  11.150  0.3882  0.0954 -0.0967
  694TMC3    O210272   0.363   4.039  10.742  0.4002  0.4967 -0.0435
  695MPD2     C10273   1.750   1.402  13.514  0.6963  0.1348  0.2858
  695MPD2    C110274   1.692   1.473  13.617  0.4356  0.3748  0.7468
  695MPD2    C210275   1.558   1.515  13.606  0.1850  0.7655 -0.1666
  695MPD2    C310276   1.487   1.504  13.491 -0.4587 -0.2963 -0.5575
  695MPD2    C410277   1.541   1.429  13.386  0.2963 -0.1199  0.7380
  695MPD2    C510278   1.672   1.380  13.399 -0.7923 -0.2856  0.2712
  695MPD2     H10279   1.506   1.585  13.671 -0.8479  0.4136 -0.6268
  695MPD2    H110280   1.485   1.420  13.293  0.2896 -0.3511  0.7646
  695MPD2    H210281   1.849   1.359  13.519  0.7482  0.2454  0.2080
  695MPD2    H310282   1.723   1.319  13.324  0.5316  1.0038  0.1356
  695MPD2     N10283   1.358   1.557  13.483  0.2963 -0.0922 -0.7399
  695MPD2    H510284   1.312   1.606  13.559  1.4856 -0.6890  0.3406
  695MPD2    N110285   1.761   1.512  13.740 -0.0926 -0.1396  0.5700
  695MPD2    H710286   1.716   1.583  13.798  2.6912  1.6570  0.5284
  696TMC3    C110287   1.124   1.560  13.453 -0.0302  0.8649  0.0627
  696TMC3    C210288   1.104   1.552  13.589 -0.1067 -0.2386  0.3178
  696TMC3    C310289   0.984   1.589  13.647 -0.2409  0.4507  0.4196
  696TMC3    C410290   1.024   1.593  13.371  0.7055 -0.3409  0.4383
  696TMC3    C510291   0.902   1.620  13.426  0.1918  0.3125  0.6816
  696TMC3    C610292   0.881   1.613  13.561  0.0625  0.2292  0.3654
  696TMC3     C10293   1.253   1.519  13.400 -0.3623 -0.4601 -0.9704
  696TMC3     O10294   1.253   1.452  13.296 -0.1796 -0.1624 -0.6447
  696TMC3     H10295   1.181   1.508  13.653 -0.0264  0.8326  0.9653
  696TMC3    H110296   1.035   1.602  13.263  2.5260  0.1681  0.6716
  696TMC3    H210297   0.782   1.637  13.596 -0.6561  2.3118 -3.1228
  696TMC3    C710298   0.806   1.693  13.348 -0.0357 -0.5761  0.6413
  696TMC3    C810299   1.007   1.688  13.751 -0.3412  0.5223  0.1706
  696TMC3    O110300   0.695   1.636  13.341 -0.2137  0.0662  0.8265
  696TMC3    O210301   1.122   1.730  13.765 -0.3344  0.4302  0.2551
  697MPD2     C10302   1.137   3.807  15.951 -0.0187 -0.1469 -0.1406
  697MPD2    C110303   1.221   3.729  15.869 -0.8924  0.6567 -0.0039
  697MPD2    C210304   1.254   3.775  15.746 -0.3776 -0.3660  0.0304
  697MPD2    C310305   1.220   3.904  15.708  0.1256 -0.0859  0.5515
  697MPD2    C410306   1.143   3.981  15.793 -0.6207 -0.3390 -0.5315
  697MPD2    C510307   1.101   3.936  15.911 -0.2185  1.4930  0.1374
  697MPD2     H10308   1.309   3.712  15.677  2.4529  0.5653  1.4688
  697MPD2    H110309   1.117   4.080  15.759  1.4089  0.3606 -0.0729
  697MPD2    H210310   1.097   3.763  16.042  3.6772  0.7650  1.9412
  697MPD2    H310311   1.030   3.999  15.964 -0.7683 -0.2083  1.4373
  697MPD2     N10312   1.263   3.954  15.579  0.3694  0.7177 -0.2016
  697MPD2    H510313   1.323   3.892  15.526 -2.1267 -0.6426 -1.4100
  697MPD2    N110314   1.244   3.597  15.900  0.5053 -0.1564  0.6621
  697MPD2    H710315   1.290   3.544  15.826 -0.3232  0.2217 -0.1304
  698TMC3    C110316   1.276   4.085  15.386 -0.1840 -0.0974 -0.0684
  698TMC3    C210317   1.305   4.210  15.332 -0.0378  0.7631 -0.8114
  698TMC3    C310318   1.370   4.213  15.212 -0.2709 -0.0993  0.7584
  698TMC3    C410319   1.318   3.972  15.315  0.5404 -0.0886  0.3467
  698TMC3    C510320   1.373   3.986  15.192 -0.5333 -0.4138 -0.0079
  698TMC3    C610321   1.407   4.102  15.132  0.0535 -0.1573 -0.5285
  698TMC3     C10322   1.241   4.074  15.526 -0.0241 -0.8472 -0.0602
  698TMC3     O10323   1.172   4.164  15.569  0.1330 -0.3629 -0.3348
  698TMC3     H10324   1.276   4.305  15.377 -1.0429  0.5400 -0.9839
  698TMC3    H110325   1.303   3.873  15.356  1.8317 -1.5681 -2.7793
  698TMC3    H210326   1.464   4.102  15.040 -1.2212 -5.3294 -1.2951
  698TMC3    C710327   1.401   3.867  15.117 -0.4634 -0.2630 -0.5686
  698TMC3    C810328   1.340   4.325  15.126  0.3482  0.1054  0.5690
  698TMC3    O110329   1.454   3.773  15.169  0.4786 -0.1457  0.8094
  698TMC3    O210330   1.315   4.290  15.012 -0.2551 -0.0700  0.1192
  699TMC3    C110331   1.309   1.231  13.123 -0.3744  0.2848  0.2603
  699TMC3    C210332   1.345   1.172  13.245 -0.4054  0.5799 -0.4704
  699TMC3    C310333   1.250   1.115  13.323 -0.8437  0.4117 -0.0877
  699TMC3    C410334   1.174   1.238  13.097  0.1768  0.5324  0.0120
  699TMC3    C510335   1.076   1.169  13.172 -0.0763 -0.1294 -0.7738
  699TMC3    C610336   1.118   1.103  13.285 -0.3146  0.6646  0.3157
  699TMC3     C10337   1.398   1.309  13.051 -0.3121 -0.8158 -0.6866
  699TMC3     O10338   1.360   1.396  12.980 -0.2215 -0.0799  0.2755
  699TMC3     H10339   1.439   1.201  13.290  0.0500 -0.5808 -0.6670
  699TMC3    H110340   1.129   1.296  13.017  0.0716 -0.4703 -0.6595
  699TMC3    H210341   1.045   1.065  13.355  0.1240 -0.5949  0.0853
  699TMC3    C710342   0.954   1.234  13.180  0.1944  0.4703  0.4167
  699TMC3    C810343   1.275   1.136  13.463  0.0643  0.4317  0.1999
  699TMC3    O110344   0.946   1.348  13.140 -0.0081 -0.1694  0.0089
  699TMC3    O210345   1.170   1.138  13.525 -0.5277 -0.4985 -0.2061
  700TMC3    C110346   4.629   4.110  17.220 -0.3877  0.6172 -0.2509
  700TMC3    C210347   4.651   3.982  17.177 -0.3535  0.5104  0.3611
  700TMC3    C310348   0.024   3.917  17.248 -0.1614  0.6464 -0.2170
  700TMC3    C410349   4.673   4.158  17.336  0.2188  0.4564 -0.5684
  700TMC3    C510350   0.039   4.094  17.407  0.2534 -0.0488  0.5634
  700TMC3    C610351   0.084   3.975  17.359 -0.4402  0.6611  0.1282
  700TMC3     C10352   4.578   4.205  17.119  0.0905  0.1701 -0.3498
  700TMC3     O10353   4.472   4.181  17.057 -0.1550 -0.4492 -0.2469
  700TMC3     H10354   4.604   3.944  17.088 -2.1610  1.4931  0.9057
  700TMC3    H110355   4.650   4.261  17.362  1.8006 -0.2547  3.7767
  700TMC3    H210356   0.159   3.917  17.413 -1.7319 -0.4061  0.7835
  700TMC3    C710357   0.093   4.159  17.530 -0.2114 -0.5068  0.5950
  700TMC3    C810358   0.094   3.813  17.184  0.0938  0.1446  0.4564
  700TMC3    O110359   0.212   4.142  17.555  0.5358 -0.4375 -0.8342
  700TMC3    O210360   0.203   3.789  17.237 -0.1137 -0.6195 -0.2200
  701TMC3    C110361   0.305   2.781  15.827 -0.8997 -0.2883  0.0098
  701TMC3    C210362   0.312   2.694  15.721  0.1737 -0.6741 -0.0673
  701TMC3    C310363   0.417   2.707  15.628 -0.0804 -0.0592  0.9068
  701TMC3    C410364   0.398   2.881  15.835 -0.0279  0.1190 -0.3124
  701TMC3    C510365   0.498   2.901  15.741  0.3777 -0.3057 -0.3379
  701TMC3    C610366   0.509   2.814  15.632 -0.1267  0.3044 -0.3466
  701TMC3     C10367   0.195   2.780  15.927  0.9028 -0.8575 -0.6576
  701TMC3     O10368   0.153   2.892  15.956  0.3749  0.1364 -0.1198
  701TMC3     H10369   0.243   2.611  15.714 -0.1215 -0.5868  1.7203
  701TMC3    H110370   0.364   2.955  15.907 -1.0097  1.0915 -1.7942
  701TMC3    H210371   0.580   2.828  15.551  0.6037  1.7594  0.5514
  701TMC3    C710372   0.570   3.026  15.721 -0.5063 -0.6241  0.0992
  701TMC3    C810373   0.401   2.662  15.492  0.1735  0.0137 -0.2211
  701TMC3    O110374   0.610   3.046  15.609  0.2263  0.0023  0.5143
  701TMC3    O210375   0.500   2.651  15.422  0.4404  0.3112 -0.6029
  702MPD2     C10376   0.114   4.661  11.014  0.2229  0.5979 -0.4545
  702MPD2    C110377   0.044   0.024  10.934  0.2970 -0.1230 -0.0539
  702MPD2    C210378   0.070   0.030  10.798 -0.0246  0.2136 -0.4460
  702MPD2    C310379   0.170   4.681  10.742  0.5176  0.3292  0.0935
  702MPD2    C410380   0.227   4.582  10.820  0.0989 -0.8451 -0.4438
  702MPD2    C510381   0.200   4.580  10.953 -0.8521  0.3460  0.3167
  702MPD2     H10382   0.023   0.114  10.747  0.2580  1.8222  1.9065
  702MPD2    H110383   0.295   4.505  10.786  0.0849 -0.1850 -2.0076
  702MPD2    H210384   0.098   4.648  11.120  2.8902  0.2925 -0.0963
  702MPD2    H310385   0.265   4.517  11.011 -1.1193 -2.1393 -2.0710
  702MPD2     N10386   0.207   4.704  10.607 -0.8334  0.0182 -1.0537
  702MPD2    H510387   0.165   0.057  10.561 -0.3803  0.6573 -0.3569
  702MPD2    N110388   4.671   0.106  10.991 -0.0380 -0.2022 -0.5000
  702MPD2    H710389   4.601   0.146  10.929 -0.3340 -0.9126 -0.6231
  703TMC3    C110390   0.310   4.682  10.407  0.6967  0.5924  0.0489
  703TMC3    C210391   0.213   0.021  10.342  0.2405 -0.2015 -0.3609
  703TMC3    C310392   0.235   0.074  10.219  0.7519  0.1441 -0.4975
  703TMC3    C410393   0.440   4.680  10.354  0.2556 -0.0197  0.3327
  703TMC3    C510394   0.464   0.021  10.235 -0.0423  0.3241  0.0211
  703TMC3    C610395   0.363   0.078  10.170  0.1838  0.0086 -0.3296
  703TMC3     C10396   0.289   4.628  10.538  0.2147 -0.5758 -0.1320
  703TMC3     O10397   0.361   4.531  10.569 -0.1111  0.2882  0.0209
  703TMC3     H10398   0.112   0.018  10.381 -0.0506 -1.0744 -1.1779
  703TMC3    H110399   0.509   4.623  10.415  0.7864 -1.3748 -1.5173
  703TMC3    H210400   0.391   0.127  10.078 -1.1137  2.9049  0.8502
  703TMC3    C710401   0.581   0.095  10.239 -0.2719  0.5693  0.3078
  703TMC3    C810402   0.148   0.180  10.166 -0.3716  0.3523 -0.3712
  703TMC3    O110403   0.576   0.207  10.196 -0.5267  0.5504 -0.3062
  703TMC3    O210404   0.170   0.213  10.053  0.5502  0.7961 -0.6588
  704TMC3    C110405   2.144   3.024  12.834 -0.2215  0.1035 -0.2273
  704TMC3    C210406   2.237   3.108  12.883 -0.6064  0.0452 -0.3429
  704TMC3    C310407   2.321   3.068  12.981  0.7401 -0.8711 -0.1259
  704TMC3    C410408   2.133   2.898  12.890  0.5807  0.9000 -0.1292
  704TMC3    C510409   2.218   2.866  12.990  0.3417  0.4564 -0.0842
  704TMC3    C610410   2.317   2.943  13.039 -0.2537  0.6386 -0.4467
  704TMC3     C10411   2.063   3.062  12.723  0.1038  0.2266 -0.2779
  704TMC3     O10412   1.959   3.002  12.720  0.2432  0.0708 -0.3948
  704TMC3     H10413   2.258   3.206  12.841  1.9626 -0.4518 -0.2173
  704TMC3    H110414   2.070   2.819  12.853  1.3218  0.6794 -0.9293
  704TMC3    H210415   2.382   2.903  13.116 -1.6461 -2.2817 -0.8207
  704TMC3    C710416   2.243   2.726  12.999 -0.7300 -0.1421  0.1907
  704TMC3    C810417   2.455   3.127  12.982 -0.0193 -0.7625 -0.0942
  704TMC3    O110418   2.362   2.702  13.020 -0.1497  0.0236 -0.5911
  704TMC3    O210419   2.487   3.178  12.876 -0.6362 -0.2713  0.0135
  705MPD2     C10420   1.868   1.260  16.501 -0.0623 -0.7823 -0.2329
  705MPD2    C110421   1.863   1.401  16.498 -0.6911  0.8623  0.0708
  705MPD2    C210422   1.753   1.467  16.562  0.0231 -0.1966 -0.6854
  705MPD2    C310423   1.650   1.399  16.624 -0.8659  0.2920  0.7461
  705MPD2    C410424   1.656   1.264  16.620 -0.3962 -0.5968  0.7925
  705MPD2    C510425   1.767   1.198  16.580 -0.2138 -0.1174  0.1366
  705MPD2     H10426   1.746   1.575  16.558 -4.0130 -0.4274  0.8440
  705MPD2    H110427   1.580   1.204  16.669 -1.3410 -1.7901 -2.1268
  705MPD2    H210428   1.940   1.199  16.448 -0.7804 -1.3238 -0.5869
  705MPD2    H310429   1.761   1.090  16.579  0.0181 -0.1687  2.4941
  705MPD2     N10430   1.532   1.461  16.679  0.0854  0.0797 -0.5664
  705MPD2    H510431   1.458   1.399  16.708  1.1701 -0.1543  1.6808
  705MPD2    N110432   1.947   1.470  16.404 -0.1284  0.7066 -0.2171
  705MPD2    H710433   1.912   1.559  16.369  1.3876  2.2009  2.0576
  706TMC3    C110434   2.177   1.441  16.023  0.0857 -0.4616  0.3311
  706TMC3    C210435   2.150   1.562  15.976  0.5570  0.8074  0.3001
  706TMC3    C310436   2.099   1.648  16.072 -0.5412 -0.3358  0.0988
  706TMC3    C410437   2.168   1.404  16.155  0.0227  0.0101 -0.4832
  706TMC3    C510438   2.116   1.488  16.244  0.1215 -0.1202  0.0458
  706TMC3    C610439   2.076   1.608  16.200 -0.7230 -0.3291 -0.2812
  706TMC3     C10440   2.234   1.338  15.939  0.1526  0.5852 -0.0995
  706TMC3     O10441   2.296   1.245  15.981 -0.1720 -0.2579  0.1982
  706TMC3     H10442   2.180   1.599  15.878  1.9101  1.3679  0.9337
  706TMC3    H110443   2.199   1.303  16.179  1.5563  0.0752 -2.2133
  706TMC3    H210444   2.034   1.680  16.270  1.6508 -0.1394  0.9676
  706TMC3    C710445   2.065   1.420  16.361  0.2042 -0.2314 -0.9179
  706TMC3    C810446   2.099   1.792  16.049  0.3744 -0.0104 -0.6073
  706TMC3    O110447   2.126   1.321  16.402 -0.1871  0.0191  0.0245
  706TMC3    O210448   2.040   1.845  15.957 -0.4274 -0.4612 -0.0889
  707TMC3    C110449   2.981   0.985   1.338 -0.7909 -0.0906 -0.5289
  707TMC3    C210450   2.895   0.877   1.325 -0.5602 -0.5865 -1.0646
  707TMC3    C310451   2.801   0.881   1.226  0.0887  0.8686 -0.3447
  707TMC3    C410452   2.945   1.105   1.276  0.3808  0.4603 -0.8622
  707TMC3    C510453   2.839   1.103   1.191  0.0731  0.0284  0.6994
  707TMC3    C610454   2.763   0.993   1.167  0.6423 -0.3383 -0.6047
  707TMC3     C10455   3.116   0.931   1.308 -0.4414  0.0543  0.0977
  707TMC3     O10456   3.115   0.820   1.260 -0.7915 -0.7437  1.2251
  707TMC3     H10457   2.918   0.786   1.379 -1.9254 -0.5936 -0.4950
  707TMC3    H110458   3.009   1.192   1.280 -2.2849  2.3166  1.9504
  707TMC3    H210459   2.683   0.984   1.095  0.6710 -0.2878 -0.6429
  707TMC3    C710460   2.805   1.222   1.124 -0.0918 -0.2673 -0.6213
  707TMC3    C810461   2.734   0.759   1.189 -1.3069  0.9270  0.1845
  707TMC3    O110462   2.888   1.318   1.109 -0.6023 -0.5592 -1.0574
  707TMC3    O210463   2.626   0.764   1.130  0.4765  0.6056 -0.3745
  708MPD2     C10464   0.233   0.077  13.689  0.3067 -0.3639 -0.3135
  708MPD2    C110465   0.139   0.097  13.793  0.0639  0.4736 -0.5073
  708MPD2    C210466   0.186   0.071  13.921  0.1570 -0.4143  0.6493
  708MPD2    C310467   0.321   0.034  13.946 -0.3391  0.5723 -0.1160
  708MPD2    C410468   0.402   0.018  13.841  0.5432 -0.1482  0.0766
  708MPD2    C510469   0.367   0.051  13.716  0.9159 -0.7435  0.0869
  708MPD2     H10470   0.130   0.092  14.012 -0.1264  0.0950  0.3576
  708MPD2    H110471   0.507   4.723  13.856  0.4241 -0.8155 -0.0796
  708MPD2    H210472   0.214   0.104  13.586 -1.9798  0.9222  0.4686
  708MPD2    H310473   0.441   0.048  13.637 -0.9292  0.3433 -1.6667
  708MPD2     N10474   0.360   0.025  14.077 -0.1445  0.1020  0.5416
  708MPD2    H510475   0.279   0.031  14.138 -0.0201 -1.7526  0.9102
  708MPD2    N110476   0.008   0.140  13.765 -0.2853  0.4649 -0.2703
  708MPD2    H710477   4.723   0.169  13.668 -1.3994 -0.6845 -0.4714
  709TMC3    C110478   4.510   0.210  13.814 -0.4639 -0.1830 -0.0142
  709TMC3    C210479   4.442   0.121  13.742  0.1774 -0.5748  0.0653
  709TMC3    C310480   4.315   0.090  13.785  0.3119  0.9942 -0.5270
  709TMC3    C410481   4.452   0.256  13.927 -0.1362 -0.0393  0.9765
  709TMC3    C510482   4.330   0.221  13.971 -0.0155  0.1214 -0.6683
  709TMC3    C610483   4.263   0.130  13.897 -0.5029  0.1207 -0.1891
  709TMC3     C10484   4.634   0.149  13.856  0.4793 -0.2155 -0.8888
  709TMC3     O10485   4.638   0.140  13.976 -0.3065  0.5028 -0.0987
  709TMC3     H10486   4.499   0.054  13.678 -0.0844  0.3535 -1.1446
  709TMC3    H110487   4.508   0.331  13.983  1.1154  1.0047 -1.6627
  709TMC3    H210488   4.179   0.081  13.945  1.1400  0.7610  3.3510
  709TMC3    C710489   4.319   0.190  14.110 -0.2196  0.1599 -0.2458
  709TMC3    C810490   4.242   4.725  13.709  0.5092  0.1133  0.3245
  709TMC3    O110491   4.215   0.215  14.163  0.1348  0.6070  0.4444
  709TMC3    O210492   4.162   4.657  13.775  0.1563 -0.6995  0.4693
  710TMC3    C110493   1.369   1.445   0.620 -0.1228 -0.6404  0.1209
  710TMC3    C210494   1.472   1.461   0.533  0.4933 -0.0968  0.3848
  710TMC3    C310495   1.571   1.362   0.537 -0.1256 -0.1949  0.0028
  710TMC3    C410496   1.362   1.345   0.710  0.2727  0.2202 -0.3066
  710TMC3    C510497   1.463   1.254   0.716 -0.4212  0.1734 -0.4490
  710TMC3    C610498   1.567   1.264   0.628 -0.3844  0.3718  0.0735
  710TMC3     C10499   1.266   1.554   0.627  0.0491 -0.2446 -0.1242
  710TMC3     O10500   1.283   1.635   0.535  0.5402  0.2551  0.0961
  710TMC3     H10501   1.460   1.528   0.448 -3.0724  0.0043  0.9801
  710TMC3    H110502   1.294   1.336   0.794  1.3619  0.0606  0.5612
  710TMC3    H210503   1.636   1.180   0.625 -2.4093 -1.3907  1.9934
  710TMC3    C710504   1.457   1.154   0.811  0.3874  0.1915  0.1792
  710TMC3    C810505   1.658   1.354   0.423 -0.1869  0.0175 -0.3685
  710TMC3    O110506   1.363   1.146   0.887  0.0221  0.7896 -0.0387
  710TMC3    O210507   1.716   1.247   0.396  0.0964 -0.6072  0.2152
  711TMC3    C110508   0.815   2.751  15.404  0.0874 -0.5047 -0.1239
  711TMC3    C210509   0.818   2.647  15.485  0.3634 -0.0150 -0.0787
  711TMC3    C310510   0.854   2.679  15.611  0.1846 -0.1310  0.8158
  711TMC3    C410511   0.868   2.874  15.432 -0.1618  0.1635  0.0095
  711TMC3    C510512   0.943   2.890  15.554 -0.0109  0.1926  0.1486
  711TMC3    C610513   0.914   2.797  15.654 -0.5501  0.0825  0.4992
  711TMC3     C10514   0.805   2.721  15.264 -0.2858  0.0495 -0.3984
  711TMC3     O10515   0.858   2.808  15.192 -0.4311  0.1073  0.3445
  711TMC3     H10516   0.799   2.542  15.469  1.2752 -0.1487 -0.3238
  711TMC3    H110517   0.846   2.961  15.371 -1.0242 -0.8605 -1.1183
  711TMC3    H210518   0.958   2.802  15.753  0.6904  1.3859 -0.1292
  711TMC3    C710519   1.087   2.881  15.525  0.1136  0.4690  0.4769
  711TMC3    C810520   0.898   2.561  15.674  0.3007 -0.0929  0.3605
  711TMC3    O110521   1.154   2.846  15.623 -0.0343 -0.3524 -0.4912
  711TMC3    O210522   0.829   2.461  15.685  0.1372 -0.5537  0.3154
  712MPD2     C10523   2.578   3.372  13.340 -0.0616  0.1333 -0.6020
  712MPD2    C110524   2.470   3.450  13.385 -0.0624  0.2295  0.1279
  712MPD2    C210525   2.504   3.587  13.396  0.0923  0.3172  0.5506
  712MPD2    C310526   2.627   3.644  13.374 -0.2047 -0.1647 -0.5964
  712MPD2    C410527   2.727   3.557  13.337  0.1044  0.0924  0.2304
  712MPD2    C510528   2.702   3.426  13.333  0.7265  0.1811  0.1833
  712MPD2     H10529   2.423   3.650  13.432 -0.4513 -0.2213  0.2770
  712MPD2    H110530   2.827   3.595  13.320 -0.7980  3.6410  2.7106
  712MPD2    H210531   2.580   3.264  13.330  2.2413  0.3075 -1.9100
  712MPD2    H310532   2.789   3.363  13.323  0.6926 -0.3329  3.2317
  712MPD2     N10533   2.651   3.784  13.373 -0.2703  0.5946 -0.0970
  712MPD2    H510534   2.738   3.819  13.333 -0.1565  0.7050  0.2490
  712MPD2    N110535   2.333   3.401  13.389  0.1369  0.3493  0.1245
  712MPD2    H710536   2.261   3.465  13.420 -0.3797 -0.2589  0.1682
  713TMC3    C110537   2.641   4.011  13.421  0.1770  0.7057  0.6227
  713TMC3    C210538   2.773   4.036  13.385  0.4565  0.3768  0.2418
  713TMC3    C310539   2.838   4.150  13.415  0.4343  0.0574  1.1765
  713TMC3    C410540   2.587   4.110  13.499  0.3465  0.7010 -0.3397
  713TMC3    C510541   2.647   4.226  13.525  0.1279  0.4395  0.4265
  713TMC3    C610542   2.777   4.247  13.488 -0.4019  0.9343 -0.1616
  713TMC3     C10543   2.574   3.880  13.426 -0.5719  0.2751 -0.3031
  713TMC3     O10544   2.480   3.867  13.504 -0.1553 -0.0529 -0.3310
  713TMC3     H10545   2.826   3.955  13.336  0.7880 -0.2867  1.6995
  713TMC3    H110546   2.487   4.092  13.538  0.3303  0.6007 -0.4275
  713TMC3    H210547   2.831   4.323  13.544 -0.9999 -0.2678  2.0486
  713TMC3    C710548   2.577   4.336  13.595 -0.6453  0.9597 -0.8903
  713TMC3    C810549   2.942   4.202  13.329 -0.0310 -0.3682  0.1832
  713TMC3    O110550   2.648   4.419  13.646  0.2746 -0.1119  0.0939
  713TMC3    O210551   2.984   4.316  13.347  0.0281 -0.1909 -0.4013
  714MPD2     C10552   4.634   1.978   1.551  0.0522 -0.7501 -0.9259
  714MPD2    C110553   4.579   1.862   1.599 -0.4386 -0.3677  0.5411
  714MPD2    C210554   4.473   1.796   1.532 -0.0584  0.0027  0.6395
  714MPD2    C310555   4.422   1.860   1.421  0.3770  0.2133  0.2235
  714MPD2    C410556   4.470   1.983   1.384  0.2675 -1.1092 -0.1192
  714MPD2    C510557   4.579   2.041   1.450 -0.1667  0.7540  0.3397
  714MPD2     H10558   4.442   1.696   1.561 -2.2685  0.0950 -1.3761
  714MPD2    H110559   4.431   2.036   1.298  0.1011  0.3983  0.8857
  714MPD2    H210560   4.716   2.025   1.605  0.5052 -0.4949 -1.8356
  714MPD2    H310561   4.611   2.143   1.428 -1.1967  1.1350  0.6031
  714MPD2     N10562   4.318   1.791   1.354  0.5120  0.0825  0.7509
  714MPD2    H510563   4.296   1.699   1.390  0.5009 -0.1298  0.1995
  714MPD2    N110564   4.649   1.804   1.708 -0.6830  0.0888  0.0465
  714MPD2    H710565   0.013   1.839   1.734  0.2811 -1.7598 -0.9402
  715TMC3    C110566   4.682   1.680   1.904 -0.7690  0.1918  0.1571
  715TMC3    C210567   4.683   1.548   1.949 -0.7172  0.6493  0.5925
  715TMC3    C310568   0.064   1.517   2.029  0.1719  0.0490 -0.5523
  715TMC3    C410569   0.053   1.769   1.946  0.0617  0.0588  0.1037
  715TMC3    C510570   0.161   1.719   2.003 -0.4717 -0.3061  0.5660
  715TMC3    C610571   0.167   1.601   2.053 -0.2137 -0.3490 -0.2222
  715TMC3     C10572   4.596   1.707   1.789 -0.3724  0.0504  0.3748
  715TMC3     O10573   4.485   1.655   1.782 -0.5278 -1.1758  0.1420
  715TMC3     H10574   4.618   1.474   1.905  0.0715 -0.0369  0.5795
  715TMC3    H110575   0.054   1.874   1.920 -0.7520 -0.3578 -1.5571
  715TMC3    H210576   0.251   1.559   2.107  0.4843  2.9129  1.2316
  715TMC3    C710577   0.244   1.820   2.062  0.1827  0.3699 -0.2451
  715TMC3    C810578   0.103   1.379   2.032  0.8896 -0.6956 -0.1022
  715TMC3    O110579   0.265   1.919   1.992  0.2267 -0.2125  0.5792
  715TMC3    O210580   0.221   1.353   2.012 -0.3974  0.5973  0.9188
  716MPD2     C10581   4.431   0.068   9.940 -0.1865 -0.2115 -0.2321
  716MPD2    C110582   4.396   0.004   9.828  0.7954  0.0083 -0.5006
  716MPD2    C210583   4.477   4.628   9.791  0.0427 -0.2583  0.4183
  716MPD2    C310584   4.597   4.592   9.858  0.0990 -0.1545 -0.2900
  716MPD2    C410585   4.626   4.660   9.974  0.0092 -0.5027 -0.0903
  716MPD2    C510586   4.544   0.039  10.012  0.0556 -0.0943  0.3088
  716MPD2     H10587   4.450   4.580   9.697 -0.6571  3.0742 -1.0678
  716MPD2    H110588   4.719   4.637  10.024  1.8329  1.8674 -2.4051
  716MPD2    H210589   4.373   0.153   9.972  0.2981 -0.8100  2.2080
  716MPD2    H310590   4.567   0.102  10.098  0.5065  2.9274 -1.9975
  716MPD2     N10591   4.657   4.481   9.809  0.0823  0.1587  0.2421
  716MPD2    H510592   4.616   4.454   9.720 -1.1902 -1.5854  1.3588
  716MPD2    N110593   4.281   0.049   9.763  0.1141 -0.2448  0.8034
  716MPD2    H710594   4.232   0.120   9.815 -0.7176 -0.7257  0.6807
  717TMC3    C110595   0.092   4.317   9.764  0.4796 -0.4069 -0.0646
  717TMC3    C210596   0.049   4.314   9.637 -0.2646 -0.3922  0.2874
  717TMC3    C310597   0.087   4.210   9.561  0.0763  0.7184  0.3958
  717TMC3    C410598   0.165   4.213   9.817 -0.0159 -0.2131  0.2126
  717TMC3    C510599   0.211   4.118   9.732 -0.8163  0.0953  0.7769
  717TMC3    C610600   0.171   4.108   9.602  0.0548 -0.1895 -0.1889
  717TMC3     C10601   0.043   4.421   9.858  0.2940  0.6313 -0.2327
  717TMC3     O10602   0.099   4.430   9.968  0.3950  0.1969  0.2827
  717TMC3     H10603   4.726   4.403   9.601 -0.2805 -0.3788  0.3436
  717TMC3    H110604   0.195   4.219   9.921  0.0904  0.5656  0.1345
  717TMC3    H210605   0.201   4.031   9.532  0.4875  1.1875 -1.5344
  717TMC3    C710606   0.326   4.033   9.760 -0.2048  0.4848 -0.6557
  717TMC3    C810607   0.013   4.196   9.434 -1.0717 -0.1682 -0.0132
  717TMC3    O110608   0.359   3.960   9.666  0.8232  0.1333  0.8363
  717TMC3    O210609   4.657   4.286   9.416  0.2301  0.1577 -0.7304
  718MPD2     C10610   3.949   3.899  12.445  0.6468  0.1920  0.5756
  718MPD2    C110611   3.875   4.017  12.404 -0.5751 -0.7680 -0.1493
  718MPD2    C210612   3.738   4.018  12.435  0.5875 -0.8069 -0.3232
  718MPD2    C310613   3.678   3.907  12.490 -0.2506  0.0405  0.6551
  718MPD2    C410614   3.746   3.793  12.523  0.6856  0.4026 -0.1822
  718MPD2    C510615   3.882   3.787  12.494 -0.7702 -0.1429  0.4113
  718MPD2     H10616   3.685   4.110  12.417  2.7009  0.7062  1.2464
  718MPD2    H110617   3.690   3.707  12.558 -1.2860  1.0811 -1.6754
  718MPD2    H210618   4.052   3.890  12.413  0.7364 -0.2833  1.0086
  718MPD2    H310619   3.944   3.699  12.507  0.3593  0.3566 -1.4730
  718MPD2     N10620   3.542   3.935  12.520 -0.1801 -0.3156  0.1631
  718MPD2    H510621   3.505   4.018  12.474 -0.2398 -1.6245 -2.1189
  718MPD2    N110622   3.946   4.123  12.336 -0.5674 -0.5331  0.3545
  718MPD2    H710623   4.047   4.124  12.342 -0.6454 -2.8319  1.8694
  719TMC3    C110624   3.936   4.359  12.274  0.3531  0.7913 -0.3669
  719TMC3    C210625   3.835   4.451  12.297  0.1611  0.3282  0.3701
  719TMC3    C310626   3.857   4.553  12.385 -0.1169 -0.0605 -0.7261
  719TMC3    C410627   4.059   4.370  12.335  0.6216 -0.0645  0.4188
  719TMC3    C510628   4.079   4.477  12.419  0.0585 -0.4962  0.7006
  719TMC3    C610629   3.976   4.563  12.451  0.0020 -0.2680 -0.4271
  719TMC3     C10630   3.873   4.219  12.269 -0.0147  0.1846  0.1469
  719TMC3     O10631   3.765   4.214  12.216  0.2774 -0.3239  0.3221
  719TMC3     H10632   3.731   4.427  12.278 -0.1033  0.8939  1.1410
  719TMC3    H110633   4.131   4.291  12.318  1.5190  0.7069  0.6396
  719TMC3    H210634   4.002   4.646  12.515  0.9512 -0.6228 -0.3594
  719TMC3    C710635   4.209   4.507  12.478 -0.3187  0.4501 -0.2338
  719TMC3    C810636   3.745   4.567  12.476 -0.5430  0.0741  0.5067
  719TMC3    O110637   4.208   4.581  12.575 -0.6045 -0.1222 -0.3858
  719TMC3    O210638   3.759   4.510  12.581  0.0616 -0.1031  0.1139
  720MPD2     C10639   2.362   0.795  14.460  0.0016  0.4940  0.2498
  720MPD2    C110640   2.431   0.763  14.351  0.1320  0.7537  0.4067
  720MPD2    C210641   2.545   0.685  14.363  0.3290  0.1820  0.3395
  720MPD2    C310642   2.593   0.662  14.491  0.2623  0.6113 -0.1474
  720MPD2    C410643   2.514   0.696  14.605 -0.3705  0.1092 -0.2497
  720MPD2    C510644   2.396   0.756  14.588 -0.1471  0.2968  0.4264
  720MPD2     H10645   2.609   0.656  14.279  0.1350  1.9484 -0.4181
  720MPD2    H110646   2.556   0.672  14.702 -1.0965 -1.7225 -0.3974
  720MPD2    H210647   2.265   0.840  14.443 -0.6200 -0.6053  0.8649
  720MPD2    H310648   2.343   0.788  14.677  0.0063  0.7233  0.3615
  720MPD2     N10649   2.729   0.613  14.505  0.5316  0.0164  0.6861
  720MPD2    H510650   2.770   0.571  14.423 -0.1743  3.6285 -1.5251
  720MPD2    N110651   2.393   0.811  14.222  0.8705  0.4424  0.0324
  720MPD2    H710652   2.339   0.897  14.225  0.1337 -0.0594  1.2685
  721TMC3    C110653   2.941   0.579  14.598  0.3833 -0.5647  0.3010
  721TMC3    C210654   2.993   0.501  14.697 -0.0168  0.7552  0.2730
  721TMC3    C310655   3.123   0.463  14.691 -0.0995 -0.2157 -0.4460
  721TMC3    C410656   3.015   0.629  14.497  0.4959 -0.7805 -0.9821
  721TMC3    C510657   3.150   0.601  14.499  0.5694  0.3315  0.0076
  721TMC3    C610658   3.206   0.519  14.593  0.5344  0.9168 -0.1221
  721TMC3     C10659   2.805   0.612  14.619 -0.2603 -0.1057 -1.0366
  721TMC3     O10660   2.773   0.632  14.736 -0.3158 -0.1609 -0.3244
  721TMC3     H10661   2.922   0.478  14.775  1.2771 -1.1629  0.8598
  721TMC3    H110662   2.972   0.692  14.419  2.6746 -0.8588 -2.2539
  721TMC3    H210663   3.314   0.510  14.595  0.3907 -0.4549  1.8242
  721TMC3    C710664   3.238   0.652  14.387 -0.7561  0.7909  0.0223
  721TMC3    C810665   3.162   0.330  14.736 -0.0319 -0.1992 -0.0412
  721TMC3    O110666   3.354   0.617  14.396  0.3773  0.1427  0.6176
  721TMC3    O210667   3.241   0.264  14.672  0.2295 -0.0212  0.6299
  722MPD2     C10668   1.394   4.034  13.364  0.0605 -0.5495 -1.0267
  722MPD2    C110669   1.357   4.168  13.345  0.0758 -0.2510 -0.9961
  722MPD2    C210670   1.223   4.199  13.319  0.4515  0.4590  0.5181
  722MPD2    C310671   1.133   4.097  13.302 -0.6661 -0.5781  0.0878
  722MPD2    C410672   1.171   3.966  13.317  0.4059  0.5917 -0.4757
  722MPD2    C510673   1.297   3.932  13.363  0.6957 -0.4640  0.6011
  722MPD2     H10674   1.198   4.304  13.309 -1.1681 -0.1561 -1.8186
  722MPD2    H110675   1.101   3.886  13.303  1.9334 -0.9709  0.7969
  722MPD2    H210676   1.492   3.993  13.386  0.1430  0.7014  0.8768
  722MPD2    H310677   1.327   3.829  13.379 -0.6981 -0.6960  1.8061
  722MPD2     N10678   1.003   4.135  13.258 -0.7799  0.1919 -0.6038
  722MPD2    H510679   0.985   4.234  13.256 -1.3185  0.1047  0.0776
  722MPD2    N110680   1.448   4.278  13.356  0.3680 -0.3368  0.0432
  722MPD2    H710681   1.405   4.369  13.346 -1.8323 -1.4172 -0.4671
  723TMC3    C110682   0.805   4.124  13.135 -0.7722  0.3949 -0.6169
  723TMC3    C210683   0.716   4.059  13.059 -0.0106  0.2711 -0.4458
  723TMC3    C310684   0.667   4.123  12.948 -0.0324 -0.6797 -0.2451
  723TMC3    C410685   0.828   4.259  13.112 -0.1221  0.1654  0.3490
  723TMC3    C510686   0.758   4.321  13.013 -0.1235  0.6577 -0.4627
  723TMC3    C610687   0.680   4.253  12.924  0.0869  0.6743  0.1218
  723TMC3     C10688   0.911   4.055  13.203 -0.7398  0.7700  0.0281
  723TMC3     O10689   0.890   3.934  13.222  0.6241  0.4976 -0.2849
  723TMC3     H10690   0.706   3.952  13.073 -2.1799  0.7564  1.7071
  723TMC3    H110691   0.901   4.318  13.167 -0.9028 -1.0748  2.7376
  723TMC3    H210692   0.632   4.284  12.832 -0.1538 -2.1275 -0.6938
  723TMC3    C710693   0.749   4.466  13.007  0.1498 -0.7021  0.2706
  723TMC3    C810694   0.593   4.051  12.852 -0.5587 -0.7358 -0.1812
  723TMC3    O110695   0.694   4.517  12.907  0.4118  0.0992  0.1447
  723TMC3    O210696   0.507   4.117  12.791  0.3786  0.4066 -0.0101
  724TMC3    C110697   2.259   1.989  10.133 -0.2242 -0.8878 -1.0703
  724TMC3    C210698   2.223   1.996   9.997 -0.3443 -0.1417  0.3374
  724TMC3    C310699   2.294   2.094   9.922  0.2641  0.2240  0.2034
  724TMC3    C410700   2.359   2.062  10.194 -0.0149  0.8363  0.2303
  724TMC3    C510701   2.429   2.148  10.116  0.0576 -0.4437 -0.5258
  724TMC3    C610702   2.401   2.160   9.980 -0.0251 -0.5269  0.8187
  724TMC3     C10703   2.206   1.886  10.213 -0.5768  0.2441  0.1073
  724TMC3     O10704   2.248   1.871  10.326 -0.4775  0.5939  0.7311
  724TMC3     H10705   2.128   1.959   9.961 -0.1134  0.2111 -0.6347
  724TMC3    H110706   2.396   2.037  10.292 -0.1564 -3.3176 -0.7622
  724TMC3    H210707   2.458   2.231   9.921 -0.8567 -0.2584  0.3415
  724TMC3    C710708   2.534   2.239  10.170 -0.2297 -0.0391 -0.3769
  724TMC3    C810709   2.214   2.167   9.817  0.2620 -0.1972 -0.1742
  724TMC3    O110710   2.592   2.306  10.088 -0.0947 -0.3065 -0.5244
  724TMC3    O210711   2.131   2.109   9.751  0.0758  0.2224 -0.2206
  725TMC3    C110712   3.218   0.953  13.089  0.2122  0.2566  0.7531
  725TMC3    C210713   3.134   0.990  12.993 -0.2842 -0.6437  1.2009
  725TMC3    C310714   3.072   0.886  12.921  0.5317 -0.0894  0.3515
  725TMC3    C410715   3.262   0.819  13.106  0.5387  1.1119 -0.1633
  725TMC3    C510716   3.201   0.723  13.033 -0.0644 -0.2675 -0.0508
  725TMC3    C610717   3.105   0.756  12.939  0.2532  0.0221 -0.1739
  725TMC3     C10718   3.329   1.045  13.108  0.5190  0.0465 -0.2564
  725TMC3     O10719   3.338   1.113  13.203 -0.0837  0.6123 -0.7003
  725TMC3     H10720   3.105   1.093  12.978 -0.7601 -0.6099  2.3746
  725TMC3    H110721   3.333   0.792  13.184  0.8434  2.7487  0.1407
  725TMC3    H210722   3.060   0.677  12.879 -0.3100  0.1222  0.1162
  725TMC3    C710723   3.271   0.601  13.004  0.0343 -0.2029  0.0530
  725TMC3    C810724   2.978   0.910  12.815 -0.2070  0.1144 -0.0404
  725TMC3    O110725   3.235   0.547  12.900  0.5588 -0.2503 -0.0147
  725TMC3    O210726   2.909   0.811  12.788 -0.4140 -0.2274  0.0537
  726MPD2     C10727   1.636   1.946  10.863 -0.5417 -0.1046  0.7832
  726MPD2    C110728   1.550   1.995  10.763  0.1040 -0.5363  0.3644
  726MPD2    C210729   1.454   1.915  10.714 -0.8804  0.2111  0.1282
  726MPD2    C310730   1.412   1.802  10.792  0.1682  0.2017  0.0747
  726MPD2    C410731   1.490   1.756  10.893  0.5214  0.3026 -0.5971
  726MPD2    C510732   1.608   1.822  10.922 -0.2727 -0.0311  0.3767
  726MPD2     H10733   1.392   1.959  10.636 -0.3263  1.0414  0.1548
  726MPD2    H110734   1.466   1.667  10.949  1.1034  0.3325 -0.3035
  726MPD2    H210735   1.732   1.992  10.886  0.0994 -0.3869 -1.2566
  726MPD2    H310736   1.674   1.781  10.998  2.4413 -0.7935 -2.3939
  726MPD2     N10737   1.285   1.742  10.783  0.1359 -0.2655 -0.1967
  726MPD2    H510738   1.277   1.669  10.853 -0.8857  0.3265  0.3090
  726MPD2    N110739   1.577   2.114  10.698 -0.1314 -0.6391 -1.2785
  726MPD2    H710740   1.525   2.137  10.614 -0.8598  0.2848 -0.5663
  727TMC3    C110741   1.666   2.330  10.672 -0.1585 -0.4439  0.2263
  727TMC3    C210742   1.787   2.390  10.695 -0.0222  0.3106  0.1920
  727TMC3    C310743   1.809   2.505  10.627  0.6667  0.3439  0.5069
  727TMC3    C410744   1.563   2.388  10.607 -0.2683  0.1387 -0.7157
  727TMC3    C510745   1.594   2.509  10.539 -0.6076 -0.3720 -0.3145
  727TMC3    C610746   1.718   2.561  10.541 -0.5296 -0.1119  0.4464
  727TMC3     C10747   1.652   2.212  10.755 -0.1814  0.0326  0.5208
  727TMC3     O10748   1.715   2.215  10.860 -0.6171 -0.2245  0.3186
  727TMC3     H10749   1.865   2.345  10.755  0.6778  2.3728  0.8583
  727TMC3    H110750   1.462   2.347  10.604 -1.8709  4.1950 -2.2303
  727TMC3    H210751   1.742   2.647  10.480  0.1494 -1.7384 -1.5774
  727TMC3    C710752   1.493   2.563  10.452  0.0207  0.2736  0.1642
  727TMC3    C810753   1.944   2.548  10.623 -0.4812  0.4757 -0.7563
  727TMC3    O110754   1.407   2.480  10.413  0.0333  0.7241 -0.1207
  727TMC3    O210755   2.036   2.466  10.639 -0.2161 -0.0160  0.4649
  728TMC3    C110756   0.535   1.207  15.557  0.7218 -0.1064  0.4903
  728TMC3    C210757   0.670   1.216  15.586 -0.1064 -0.3235 -0.2041
  728TMC3    C310758   0.752   1.215  15.477  0.0056 -0.4786 -0.6999
  728TMC3    C410759   0.477   1.225  15.439 -0.5985 -0.3317  0.3100
  728TMC3    C510760   0.569   1.256  15.343  0.3960  0.3726 -0.6026
  728TMC3    C610761   0.702   1.243  15.354 -0.5563  0.6600 -0.2568
  728TMC3     C10762   0.450   1.189  15.674 -0.0967  0.3120 -0.4500
  728TMC3     O10763   0.500   1.229  15.779  0.0115 -0.5682  0.1911
  728TMC3     H10764   0.713   1.191  15.682 -2.0957  1.1264  1.0673
  728TMC3    H110765   0.369   1.219  15.429 -0.7192  1.1360  0.6388
  728TMC3    H210766   0.768   1.270  15.272  0.7163 -1.1085  0.2037
  728TMC3    C710767   0.509   1.318  15.227  0.3987 -0.1689 -0.5341
  728TMC3    C810768   0.891   1.240  15.487  0.0814 -0.3945  0.3239
  728TMC3    O110769   0.397   1.366  15.232 -0.1166 -0.5363  0.1430
  728TMC3    O210770   0.967   1.171  15.414  0.4618 -0.3784  0.2493
  729MPD2     C10771   2.259   2.604  16.569 -0.4717 -0.0485 -0.7516
  729MPD2    C110772   2.358   2.511  16.573  0.5267  0.8033 -0.7419
  729MPD2    C210773   2.382   2.464  16.705  0.0134 -0.3406 -0.7735
  729MPD2    C310774   2.320   2.524  16.817  0.5584 -0.8895 -0.0669
  729MPD2    C410775   2.212   2.609  16.806 -0.2167  0.2547  0.6964
  729MPD2    C510776   2.185   2.649  16.679 -0.1239  0.3226  0.3041
  729MPD2     H10777   2.469   2.401  16.718 -0.3468 -0.4496  1.0548
  729MPD2    H110778   2.159   2.646  16.894  0.5066  0.2932  1.1164
  729MPD2    H210779   2.232   2.638  16.469 -1.6751  0.3069 -0.3068
  729MPD2    H310780   2.105   2.720  16.663  1.0625  1.4466 -0.5450
  729MPD2     N10781   2.354   2.491  16.951  0.2586 -0.0443 -0.0009
  729MPD2    H510782   2.294   2.537  17.018  1.1297  1.1971 -0.0618
  729MPD2    N110783   2.441   2.491  16.465  0.4284  0.1302  0.1244
  729MPD2    H710784   2.418   2.543  16.381  0.0945 -1.2952 -0.6790
  730TMC3    C110785   2.466   2.407  17.139  0.2835  0.6710 -0.1377
  730TMC3    C210786   2.592   2.441  17.184 -0.0609  0.1077 -0.1175
  730TMC3    C310787   2.599   2.529  17.282  0.6286 -0.0173 -0.7566
  730TMC3    C410788   2.356   2.465  17.192 -0.0866 -0.1452  0.4938
  730TMC3    C510789   2.369   2.559  17.293 -0.5956  0.2643 -0.5048
  730TMC3    C610790   2.490   2.591  17.343  0.5110  0.2592 -0.0712
  730TMC3     C10791   2.450   2.406  16.993 -0.2983 -0.3874 -0.3544
  730TMC3     O10792   2.548   2.363  16.932  0.0247  0.3467  0.3590
  730TMC3     H10793   2.683   2.406  17.138 -0.1343  2.3194 -1.9151
  730TMC3    H110794   2.255   2.435  17.168  0.2002  0.1992 -1.1475
  730TMC3    H210795   2.506   2.655  17.430  1.6548  1.8683 -1.4680
  730TMC3    C710796   2.296   2.677  17.251  0.3020  0.7296 -0.3693
  730TMC3    C810797   2.716   2.511  17.364 -0.3028  0.7107 -0.5360
  730TMC3    O110798   2.276   2.683  17.131 -0.7305 -0.1159 -0.7831
  730TMC3    O210799   2.688   2.508  17.483 -0.1954 -0.0511  0.0845
  731MPD2     C10800   2.450   0.674  12.347  0.8586  0.4045 -0.3744
  731MPD2    C110801   2.584   0.706  12.355 -0.5057  0.3417  0.5430
  731MPD2    C210802   2.659   0.692  12.471  0.1397  0.5132 -0.1091
  731MPD2    C310803   2.598   0.645  12.587  0.8389  0.0453 -0.1092
  731MPD2    C410804   2.470   0.601  12.574  0.4228  0.1522 -0.3993
  731MPD2    C510805   2.397   0.608  12.460  0.7334 -0.3749  0.4488
  731MPD2     H10806   2.762   0.726  12.468 -0.2222  1.5768 -0.6436
  731MPD2    H110807   2.413   0.552  12.652 -0.2464 -1.3464 -1.8444
  731MPD2    H210808   2.399   0.677  12.251  0.5413  1.1988 -0.1789
  731MPD2    H310809   2.293   0.578  12.462  0.7607 -0.5502 -0.9723
  731MPD2     N10810   2.665   0.637  12.716  0.0183 -0.2347 -0.4017
  731MPD2    H510811   2.766   0.644  12.724 -0.0279 -0.0227  0.0394
  731MPD2    N110812   2.643   0.746  12.230  0.7430  0.2098  0.1449
  731MPD2    H710813   2.571   0.768  12.161  0.0868 -1.5490  0.2594
  732TMC3    C110814   2.800   0.775  12.052  0.0892 -0.5752  0.3360
  732TMC3    C210815   2.699   0.735  11.971  0.0109 -0.2406  0.4205
  732TMC3    C310816   2.730   0.701  11.837 -0.4059 -0.3839 -0.6784
  732TMC3    C410817   2.934   0.773  12.019  0.7516  0.0294 -0.3458
  732TMC3    C510818   2.960   0.736  11.888 -0.7429 -0.2311  0.6041
  732TMC3    C610819   2.864   0.709  11.797  0.0593 -0.4129 -0.3882
  732TMC3     C10820   2.777   0.759  12.194  0.2462 -0.5603 -0.3286
  732TMC3     O10821   2.880   0.726  12.266  0.5814  0.4700  0.7473
  732TMC3     H10822   2.594   0.721  11.994  0.2350 -0.9932  0.9857
  732TMC3    H110823   3.021   0.788  12.081 -0.7443 -1.9705  2.2264
  732TMC3    H210824   2.889   0.674  11.697  2.0050  2.6906 -1.0079
  732TMC3    C710825   3.091   0.690  11.847 -0.2796  0.3725  0.1630
  732TMC3    C810826   2.635   0.629  11.756 -0.2946 -0.1657 -0.5972
  732TMC3    O110827   3.128   0.723  11.734  0.0747  0.5479  0.8942
  732TMC3    O210828   2.660   0.645  11.634  0.1284  0.1698 -0.2150
  733TMC3    C110829   3.123   3.911  12.740  0.1024 -0.1739  0.2465
  733TMC3    C210830   3.247   3.860  12.714  0.3168  0.3048 -0.4142
  733TMC3    C310831   3.327   3.931  12.631 -0.0755 -0.4437  0.3074
  733TMC3    C410832   3.101   4.046  12.712 -0.5244  0.0947  0.5989
  733TMC3    C510833   3.202   4.125  12.652 -0.5404  0.8619 -0.1750
  733TMC3    C610834   3.305   4.060  12.597  0.1078 -0.1239  0.6377
  733TMC3     C10835   3.013   3.828  12.789  0.4827  0.0278 -0.2704
  733TMC3     O10836   2.909   3.889  12.792 -0.4634 -0.6523  0.1456
  733TMC3     H10837   3.268   3.757  12.736  2.1068  0.4967 -1.2352
  733TMC3    H110838   3.006   4.086  12.744 -0.3637  2.6319 -2.1334
  733TMC3    H210839   3.377   4.108  12.531  1.4293  1.0564  2.9281
  733TMC3    C710840   3.183   4.266  12.633 -0.9800 -0.5181 -0.2646
  733TMC3    C810841   3.465   3.867  12.616  0.1751 -0.5197 -0.2339
  733TMC3    O110842   3.071   4.316  12.616  0.1482  0.5334 -0.3001
  733TMC3    O210843   3.489   3.757  12.669 -0.1929 -0.1264  0.0302
  734MPD2     C10844   0.824   1.412  12.180 -0.6306  0.4792  0.2297
  734MPD2    C110845   0.743   1.298  12.176  0.4285 -0.0571 -0.0348
  734MPD2    C210846   0.726   1.244  12.045  0.1662  0.0640  0.5875
  734MPD2    C310847   0.787   1.302  11.933  0.0543 -0.5340  0.3191
  734MPD2    C410848   0.865   1.414  11.944  0.4296 -0.5367 -0.0873
  734MPD2    C510849   0.886   1.463  12.069 -0.2623  0.1513 -0.5142
  734MPD2     H10850   0.661   1.158  12.034  0.9671 -0.8365  2.8439
  734MPD2    H110851   0.904   1.468  11.859 -0.1410  1.4311  0.8951
  734MPD2    H210852   0.843   1.443  12.282  4.0033  1.5214 -0.9745
  734MPD2    H310853   0.952   1.550  12.077  0.3751 -0.3927  0.1561
  734MPD2     N10854   0.756   1.235  11.810 -0.5926 -0.0680  0.0493
  734MPD2    H510855   0.697   1.152  11.822 -0.9164  0.3693  1.5808
  734MPD2    N110856   0.693   1.238  12.296  0.0565 -0.4647 -0.5586
  734MPD2    H710857   0.745   1.252  12.382 -2.1003  0.1146  0.6463
  735TMC3    C110858   0.538   1.078  12.397 -1.0111 -0.8538  0.1552
  735TMC3    C210859   0.414   1.026  12.377  0.0658 -0.4970 -0.2316
  735TMC3    C310860   0.401   0.897  12.390  0.1079  0.4957 -0.1108
  735TMC3    C410861   0.637   1.004  12.453  0.3954  0.1633  0.2053
  735TMC3    C510862   0.614   0.868  12.472 -0.0215 -1.2721  0.7931
  735TMC3    C610863   0.495   0.813  12.446 -0.1300 -0.0839  0.5741
  735TMC3     C10864   0.582   1.154  12.284  0.8058 -0.5271 -0.4776
  735TMC3     O10865   0.497   1.144  12.194  0.6582  0.4331  0.7510
  735TMC3     H10866   0.334   1.085  12.333  0.2779  0.1426  0.2296
  735TMC3    H110867   0.737   1.044  12.466  0.7744 -0.4009 -1.0332
  735TMC3    H210868   0.483   0.706  12.450 -0.1373 -0.0738  0.8040
  735TMC3    C710869   0.737   0.792  12.511 -0.2597  0.3326 -0.3727
  735TMC3    C810870   0.316   0.838  12.286  0.2095  0.0038  0.0660
  735TMC3    O110871   0.839   0.848  12.476 -0.0866  0.2960 -0.3702
  735TMC3    O210872   0.260   0.734  12.302 -0.1855 -0.2695  0.1199
  736MPD2     C10873   0.777   0.483  12.690 -0.4590  1.1636 -0.4420
  736MPD2    C110874   0.812   0.591  12.613 -0.0135 -0.2535 -0.3445
  736MPD2    C210875   0.954   0.610  12.598  0.2637 -0.0987  0.2654
  736MPD2    C310876   1.053   0.522  12.648  0.1294  0.1267 -0.7241
  736MPD2    C410877   1.007   0.414  12.720 -0.0777 -0.1094 -0.3081
  736MPD2    C510878   0.873   0.393  12.745 -0.1110 -0.6360 -0.6336
  736MPD2     H10879   0.984   0.696  12.539  3.8476 -1.8517 -0.4509
  736MPD2    H110880   1.076   0.344  12.766 -0.9252  0.4801  1.8420
  736MPD2    H210881   0.671   0.470  12.711 -0.9094  2.7739 -1.6395
  736MPD2    H310882   0.841   0.309  12.806 -2.0932  0.8929  0.4129
  736MPD2     N10883   1.191   0.540  12.626  0.0896 -0.3293 -0.1478
  736MPD2    H510884   1.259   0.481  12.673  0.8434  0.1007 -0.6929
  736MPD2    N110885   0.710   0.676  12.576 -0.2290  0.5664  0.0742
  736MPD2    H710886   0.614   0.646  12.590 -0.0002  0.7275  2.0477
  737TMC3    C110887   1.379   0.617  12.506 -0.3937 -0.1054 -0.4453
  737TMC3    C210888   1.437   0.721  12.445  0.4403  0.3515 -0.2141
  737TMC3    C310889   1.538   0.686  12.357 -0.2934  0.3512  0.2430
  737TMC3    C410890   1.414   0.483  12.493  0.3655 -0.3717 -0.4985
  737TMC3    C510891   1.509   0.459  12.394  0.1250 -0.4063 -0.2606
  737TMC3    C610892   1.571   0.558  12.315 -0.6828 -0.1672 -0.5970
  737TMC3     C10893   1.244   0.645  12.552 -0.6434  0.1243 -0.3329
  737TMC3     O10894   1.195   0.737  12.488  0.0162  0.3595 -0.1194
  737TMC3     H10895   1.398   0.821  12.461  0.3553 -0.0001  1.7695
  737TMC3    H110896   1.363   0.398  12.538 -1.1459  0.0691 -1.4077
  737TMC3    H210897   1.647   0.542  12.239  0.5893 -2.1604  1.1216
  737TMC3    C710898   1.535   0.319  12.373 -0.2147 -0.3571  0.4952
  737TMC3    C810899   1.585   0.799  12.278 -0.1694 -0.2559  0.3342
  737TMC3    O110900   1.521   0.243  12.466  0.0319 -0.2305 -0.1527
  737TMC3    O210901   1.564   0.911  12.327  0.0509  0.3400 -0.0771
  738MPD2     C10902   1.342   4.566  14.970  0.0856  0.1254  0.1518
  738MPD2    C110903   1.405   4.558  15.097 -0.3988  0.3291  0.3104
  738MPD2    C210904   1.480   4.661  15.144  0.1857  0.1068 -0.1744
  738MPD2    C310905   1.515   0.034  15.056 -0.2179 -0.1313 -0.0619
  738MPD2    C410906   1.442   0.041  14.939 -0.3126 -0.4758 -0.1029
  738MPD2    C510907   1.349   4.680  14.898  0.3425 -0.3231 -0.8954
  738MPD2     H10908   1.532   4.656  15.239  0.5698 -1.0120 -0.4423
  738MPD2    H110909   1.448   0.129  14.876 -2.0974  0.8216  1.5279
  738MPD2    H210910   1.279   4.492  14.921  1.1512 -1.8203  1.7149
  738MPD2    H310911   1.299   4.696  14.803 -0.2342 -1.6430 -0.8102
  738MPD2     N10912   1.615   0.134  15.070  0.6207 -0.1964 -0.0982
  738MPD2    H510913   1.622   0.203  14.996 -1.9058 -0.0747 -0.2211
  738MPD2    N110914   1.387   4.442  15.174 -0.1459  0.7450  0.3245
  738MPD2    H710915   1.436   4.447  15.263  1.0089  0.7091 -0.3024
  739TMC3    C110916   1.816   0.228  15.148  0.3112 -0.0112  0.0247
  739TMC3    C210917   1.863   0.243  15.020  0.0069  0.0105 -0.6406
  739TMC3    C310918   1.980   0.308  14.992  0.0919 -0.9254 -0.7281
  739TMC3    C410919   1.867   0.296  15.262  0.3841  0.4249 -0.1764
  739TMC3    C510920   1.969   0.382  15.222  0.4335 -0.2561 -0.4972
  739TMC3    C610921   2.026   0.395  15.092 -0.0441 -0.4062 -0.5400
  739TMC3     C10922   1.706   0.135  15.176 -0.0223 -0.3627 -0.3435
  739TMC3     O10923   1.693   0.095  15.291  0.6649 -0.1535  0.0387
  739TMC3     H10924   1.820   0.190  14.936  2.9698 -1.0332 -1.5050
  739TMC3    H110925   1.840   0.281  15.366  0.1195  3.8451  0.2424
  739TMC3    H210926   2.106   0.468  15.084 -0.7684  0.4694  0.2639
  739TMC3    C710927   2.035   0.466  15.328  0.6285 -0.6556  0.3695
  739TMC3    C810928   2.036   0.310  14.864  0.2311 -0.1636 -0.0659
  739TMC3    O110929   2.150   0.508  15.309  0.2249 -0.2858 -0.3557
  739TMC3    O210930   1.965   0.250  14.787  0.1893 -0.0279 -0.1332
  740TMC3    C110931   2.358   1.154  14.677 -0.2076 -0.5491 -0.7392
  740TMC3    C210932   2.380   1.126  14.805 -0.6047 -0.1193 -0.5842
  740TMC3    C310933   2.493   1.053  14.834 -0.0193 -0.2078 -0.3405
  740TMC3    C410934   2.447   1.117  14.573  0.0763  0.3014 -0.6359
  740TMC3    C510935   2.560   1.042  14.606 -0.2411 -0.1961 -0.3321
  740TMC3    C610936   2.585   1.012  14.743 -0.1218  0.1378  0.3650
  740TMC3     C10937   2.221   1.178  14.638  0.4363 -0.7080  0.7362
  740TMC3     O10938   2.189   1.216  14.530  0.3894  0.2611 -0.1131
  740TMC3     H10939   2.322   1.174  14.883 -0.6375 -1.4895  0.2367
  740TMC3    H110940   2.412   1.140  14.473  0.9956  0.3956 -0.9444
  740TMC3    H210941   2.677   0.965  14.776 -1.5939 -0.9046  2.9772
  740TMC3    C710942   2.665   1.008  14.507  0.2601  0.1535 -0.1108
  740TMC3    C810943   2.513   1.025  14.971 -0.3727  0.2209  0.3904
  740TMC3    O110944   2.764   0.946  14.544  0.3050 -0.1701  0.3404
  740TMC3    O210945   2.450   1.090  15.053  0.5070 -0.2340 -0.0282
  741TMC3    C110946   2.004   0.651  14.364  0.7142 -0.1988  0.2655
  741TMC3    C210947   1.946   0.533  14.340 -0.5419 -0.5192  0.1133
  741TMC3    C310948   1.887   0.467  14.444  0.3953  0.7482 -0.4762
  741TMC3    C410949   2.020   0.698  14.493  0.1277  0.7451  0.0735
  741TMC3    C510950   1.967   0.627  14.598 -0.1698  0.7846  0.7563
  741TMC3    C610951   1.893   0.514  14.575 -0.0315 -0.1655  0.4434
  741TMC3     C10952   2.015   0.741  14.251  0.1481  0.8585 -0.4027
  741TMC3     O10953   2.031   0.677  14.148  0.1751  0.4504  0.7438
  741TMC3     H10954   1.930   0.491  14.241 -1.4023 -1.5676  0.6902
  741TMC3    H110955   2.070   0.791  14.519 -0.6165  1.0266  0.4847
  741TMC3    H210956   1.867   0.445  14.654 -0.1934 -0.8945 -0.2496
  741TMC3    C710957   1.941   0.702  14.721  0.3802 -0.5108 -0.4154
  741TMC3    C810958   1.775   0.379  14.407 -0.3342 -1.1263 -0.1796
  741TMC3    O110959   1.982   0.818  14.733 -0.1551 -0.1102  0.5725
  741TMC3    O210960   1.718   0.383  14.295  0.3060  0.4411 -0.0741
  742TMC3    C110961   1.585   3.598  15.447  0.4016  0.2411  0.5887
  742TMC3    C210962   1.475   3.533  15.391 -0.4313 -0.7459 -0.1037
  742TMC3    C310963   1.492   3.406  15.340  0.5312 -0.1621 -0.0628
  742TMC3    C410964   1.700   3.531  15.461  0.3068 -0.1182  0.8341
  742TMC3    C510965   1.711   3.405  15.406  0.5748 -0.4833  0.1469
  742TMC3    C610966   1.614   3.339  15.343 -0.1217  0.3031  0.5783
  742TMC3     C10967   1.574   3.739  15.474 -0.5879 -0.0148 -0.5966
  742TMC3     O10968   1.466   3.783  15.506 -0.2550 -0.6135 -0.1539
  742TMC3     H10969   1.385   3.593  15.387 -0.2972 -0.5352  0.0270
  742TMC3    H110970   1.784   3.578  15.512  2.1471 -1.4872 -0.9014
  742TMC3    H210971   1.623   3.238  15.304  0.0692 -0.1151  1.7157
  742TMC3    C710972   1.844   3.357  15.378 -0.5818  0.0434 -0.1024
  742TMC3    C810973   1.420   3.394  15.209  0.0395  0.3171  0.2075
  742TMC3    O110974   1.856   3.291  15.273 -0.3380  0.2987 -0.0729
  742TMC3    O210975   1.475   3.327  15.118 -0.1364 -0.1669  0.0138
  743MPD2     C10976   3.507   0.233   1.818  0.5151 -0.7728  0.6606
  743MPD2    C110977   3.552   0.139   1.730 -0.0546 -0.1289 -0.1900
  743MPD2    C210978   3.664   0.064   1.771 -0.0863  0.1118 -0.2560
  743MPD2    C310979   3.734   0.088   1.889  0.5986  0.4040 -0.5164
  743MPD2    C410980   3.692   0.191   1.968 -0.6847 -0.6550 -0.5715
  743MPD2    C510981   3.576   0.250   1.930 -0.6151 -0.0837  0.3648
  743MPD2     H10982   3.698   4.709   1.709  0.2777  0.9663 -1.1930
  743MPD2    H110983   3.746   0.228   2.054 -0.6568  0.7543 -1.2033
  743MPD2    H210984   3.408   0.276   1.807 -0.7397 -3.5795  1.1345
  743MPD2    H310985   3.527   0.308   2.007  0.4474 -0.8235  1.6100
  743MPD2     N10986   3.846   0.006   1.915 -0.7797  0.5142 -0.1156
  743MPD2    H510987   3.874   4.671   1.841  0.5006  0.6375  0.2554
  743MPD2    N110988   3.474   0.115   1.617  0.4621  0.6714 -0.4996
  743MPD2    H710989   3.398   0.182   1.609 -0.1585  0.2151  1.5170
  744TMC3    C110990   3.415   0.050   1.392  0.4256 -0.5095 -0.2840
  744TMC3    C210991   3.301   0.129   1.402  0.2315 -0.5655 -0.4292
  744TMC3    C310992   3.228   0.140   1.282 -0.0750  0.6592 -0.0297
  744TMC3    C410993   3.442   4.706   1.283  0.1157  0.6161 -0.3191
  744TMC3    C510994   3.369   4.725   1.171  0.1114 -0.7359 -0.1749
  744TMC3    C610995   3.259   0.076   1.167 -0.6211 -0.0271 -1.2028
  744TMC3     C10996   3.506   0.030   1.509  0.4571 -0.3231 -0.3852
  744TMC3     O10997   3.593   4.680   1.492  0.1442 -0.4431  0.0190
  744TMC3     H10998   3.266   0.178   1.492 -2.3304 -0.1713 -1.6543
  744TMC3    H110999   3.530   4.643   1.280 -1.7338 -1.9685 -0.4214
  744TMC3    H211000   3.194   0.068   1.081  0.4146 -0.8547 -1.9142
  744TMC3    C711001   3.438   4.695   1.050 -0.6680  0.2258  0.3643
  744TMC3    C811002   3.120   0.236   1.293  0.3511  0.6317  0.5024
  744TMC3    O111003   3.527   4.615   1.051 -0.4199  0.1149 -0.0553
  744TMC3    O211004   3.137   0.328   1.370  0.2834 -0.4372 -0.2167
  745TMC3    C111005   2.158   3.256  13.372  0.2504  0.6153  0.5033
  745TMC3    C211006   2.074   3.354  13.413 -0.2968 -0.4927 -0.2754
  745TMC3    C311007   1.938   3.334  13.419  0.3973  0.9202 -0.2380
  745TMC3    C411008   2.105   3.147  13.316  0.3034  0.0169  0.0608
  745TMC3    C511009   1.967   3.139  13.299  0.4101  0.3696 -0.3956
  745TMC3    C611010   1.879   3.229  13.359 -0.0967  0.6924  0.3288
  745TMC3     C11011   2.299   3.276  13.362  0.4400 -0.2032 -0.2000
  745TMC3     O11012   2.362   3.182  13.314  0.4095 -0.0539  0.4646
  745TMC3     H11013   2.113   3.427  13.483 -1.7409  0.3223 -0.3412
  745TMC3    H111014   2.163   3.078  13.256 -0.9825 -1.0747  0.0812
  745TMC3    H211015   1.772   3.216  13.358 -0.1420  1.1288 -0.6281
  745TMC3    C711016   1.921   3.040  13.191  0.3110 -0.3450 -0.5836
  745TMC3    C811017   1.853   3.417  13.515  0.0320  0.9464  0.2254
  745TMC3    O111018   1.943   2.926  13.222 -0.4663  0.1781  0.5916
  745TMC3    O211019   1.748   3.375  13.555  0.3817 -0.4566  0.0817
  746TMC3    C111020   4.372   0.317  11.058 -0.1532  0.6873  0.6521
  746TMC3    C211021   4.494   0.277  11.081 -0.4007  0.2379  0.3974
  746TMC3    C311022   4.518   0.154  11.136 -0.4157  0.7991  0.3159
  746TMC3    C411023   4.270   0.229  11.092 -0.1127  0.1141 -0.2466
  746TMC3    C511024   4.292   0.119  11.169  0.1097  0.6586 -0.8042
  746TMC3    C611025   4.420   0.075  11.179  0.4074  0.2000 -0.6147
  746TMC3     C11026   4.340   0.453  11.091 -0.1184  0.7453  0.5699
  746TMC3     O11027   4.242   0.479  11.160  0.1882  0.3791  0.1733
  746TMC3     H11028   4.583   0.338  11.073  0.1009 -0.3068  1.8245
  746TMC3    H111029   4.165   0.249  11.074  0.4219  0.9771 -2.4351
  746TMC3    H211030   4.424   4.702  11.218 -1.2872  0.0502 -0.8205
  746TMC3    C711031   4.182   0.022  11.192 -0.0749  1.1829  0.4662
  746TMC3    C811032   4.650   0.112  11.125  0.8078 -0.0266  0.1837
  746TMC3    O111033   4.091   0.014  11.113 -0.1693 -0.1547 -0.0704
  746TMC3    O211034   4.709   0.073  11.225 -0.1724 -0.7536  0.5075
  747TMC3    C111035   1.963   4.610  11.497 -0.2219 -0.3688  0.2901
  747TMC3    C211036   1.927   4.577  11.628  0.4212  0.4380 -0.7583
  747TMC3    C311037   1.875   4.674  11.704 -0.9859  0.3347 -0.2680
  747TMC3    C411038   1.959   0.009  11.459  0.4102 -0.4246 -0.0772
  747TMC3    C511039   1.910   0.105  11.540  0.2423 -0.0882  0.0674
  747TMC3    C611040   1.856   0.077  11.663 -0.7732  0.3424  0.3372
  747TMC3     C11041   2.031   4.511  11.416  0.1906 -0.3079  0.0517
  747TMC3     O11042   2.010   4.521  11.296 -0.0773 -0.5138 -0.5325
  747TMC3     H11043   1.945   4.483  11.677  0.2152  1.2393  0.8597
  747TMC3    H111044   2.019   0.033  11.372  1.1589 -0.3132  0.4669
  747TMC3    H211045   1.802   0.156  11.715 -1.0842  1.4020 -1.6245
  747TMC3    C711046   1.968   0.239  11.536  0.3709 -0.8591  0.1670
  747TMC3    C811047   1.828   4.648  11.837 -0.3524 -0.1683  0.3971
  747TMC3    O111048   1.974   0.292  11.645 -0.1207 -0.7374 -0.1192
  747TMC3    O211049   1.801   4.530  11.857  0.0565 -0.1072  0.0641
  748MPD2     C11050   3.422   1.268   2.124  1.0196  0.4742  0.4090
  748MPD2    C111051   3.372   1.163   2.042  0.1194 -0.2033 -0.3027
  748MPD2    C211052   3.452   1.053   2.022 -0.0767 -0.3586 -0.5267
  748MPD2    C311053   3.570   1.037   2.089 -0.2786  0.6159 -0.0973
  748MPD2    C411054   3.614   1.146   2.163  0.2919  0.1343 -0.8555
  748MPD2    C511055   3.546   1.259   2.175 -0.1964  0.4473  0.1666
  748MPD2     H11056   3.418   0.971   1.961  1.0173  0.4583 -2.2475
  748MPD2    H111057   3.714   1.151   2.204 -0.2041 -0.1237  0.3724
  748MPD2    H211058   3.358   1.355   2.132  0.0743 -0.3468  1.7692
  748MPD2    H311059   3.583   1.336   2.242  0.2534  1.7016 -1.5328
  748MPD2     N11060   3.634   0.917   2.083 -0.0369 -0.3633  0.1774
  748MPD2    H511061   3.587   0.846   2.028  2.7726 -1.8290 -0.3310
  748MPD2    N111062   3.242   1.182   1.989  0.1141  0.4611 -0.0230
  748MPD2    H711063   3.204   1.274   2.005 -0.4508  0.3668 -0.8149
  749TMC3    C111064   3.803   0.761   2.058  0.2752 -0.5977  0.3771
  749TMC3    C211065   3.864   0.670   2.131 -0.5486 -0.5492  0.0499
  749TMC3    C311066   3.913   0.555   2.073 -0.7802  0.2096 -0.5135
  749TMC3    C411067   3.780   0.738   1.923  0.1498  0.0074 -0.6488
  749TMC3    C511068   3.817   0.617   1.871  0.1696 -0.7589  0.4163
  749TMC3    C611069   3.878   0.519   1.947  0.6102 -0.1159 -0.0823
  749TMC3     C11070   3.763   0.891   2.112  0.0547 -0.3882  0.0431
  749TMC3     O11071   3.839   0.950   2.186  0.5977  0.2758  0.1256
  749TMC3     H11072   3.870   0.699   2.235  0.4762  1.0083 -0.4496
  749TMC3    H111073   3.724   0.804   1.857 -0.8075 -0.3473 -0.2018
  749TMC3    H211074   3.905   0.421   1.909  1.4010  0.7091 -1.6372
  749TMC3    C711075   3.820   0.605   1.726  0.3358 -0.0675  0.7206
  749TMC3    C811076   3.972   0.453   2.160 -0.1131 -0.4547  0.6505
  749TMC3    O111077   3.835   0.710   1.665  0.4514 -0.3662 -0.1065
  749TMC3    O211078   3.951   0.450   2.279  0.6645  0.3425  0.5892
  750MPD2     C11079   4.651   2.249  10.775  0.2828  0.2290 -0.2202
  750MPD2    C111080   4.671   2.150  10.868  0.5653  0.5424 -0.3314
  750MPD2    C211081   4.660   2.015  10.841  0.3975  1.4873 -0.5182
  750MPD2    C311082   4.634   1.975  10.711  0.8139 -0.3647  0.3398
  750MPD2    C411083   4.622   2.077  10.616 -0.1256 -0.1286 -0.3625
  750MPD2    C511084   4.623   2.213  10.649  0.5147 -0.1185  0.0853
  750MPD2     H11085   4.671   1.940  10.919 -3.8063  1.1298 -0.2875
  750MPD2    H111086   4.618   2.057  10.510 -0.3900  1.0992 -0.5846
  750MPD2    H211087   4.641   2.356  10.791 -3.3527 -0.0398 -0.7442
  750MPD2    H311088   4.612   2.282  10.566  0.0370 -0.9009 -0.4955
  750MPD2     N11089   4.627   1.845  10.663 -0.1484  0.3280  0.0642
  750MPD2    H511090   4.590   1.833  10.569  0.4106  0.8726 -0.2203
  750MPD2    N111091   4.708   2.204  10.997 -0.1541 -0.5383 -0.0469
  750MPD2    H711092   4.725   2.304  11.001  1.9087 -0.9556  2.0963
  751TMC3    C111093   4.665   1.618  10.662  0.0345  0.1225 -0.0936
  751TMC3    C211094   4.659   1.500  10.732  0.5151 -0.0677 -0.6420
  751TMC3    C311095   4.672   1.385  10.662 -0.4288  0.0592  0.0984
  751TMC3    C411096   4.683   1.625  10.525 -0.1143  0.5215  0.6842
  751TMC3    C511097   4.686   1.504  10.459 -0.3182  0.1780 -0.7997
  751TMC3    C611098   4.683   1.389  10.524  0.1184  0.0326  0.3842
  751TMC3     C11099   4.650   1.740  10.742  0.3980 -0.0989 -0.9273
  751TMC3     O11100   4.672   1.735  10.865 -0.1012  0.0733 -0.1580
  751TMC3     H11101   4.668   1.504  10.840  0.4487  1.0854 -0.6818
  751TMC3    H111102   4.672   1.711  10.459 -0.1384  1.9108  2.5056
  751TMC3    H211103   4.686   1.298  10.465 -0.9462 -0.3970  0.9865
  751TMC3    C711104   0.023   1.500  10.326 -0.6385  0.2355  0.3622
  751TMC3    C811105   4.636   1.260  10.724  0.1530  0.0211 -0.0169
  751TMC3    O111106   0.068   1.608  10.288  0.0220  0.0604  0.2998
  751TMC3    O211107   4.619   1.170  10.646  0.0463 -0.0264  0.5414
  752TMC3    C111108   3.247   2.012  17.028  0.2789  0.3616  0.2081
  752TMC3    C211109   3.311   1.909  17.099 -0.7636  0.1360  0.9391
  752TMC3    C311110   3.248   1.854  17.206  0.4224 -0.6046 -0.3324
  752TMC3    C411111   3.123   2.065  17.071  0.5142 -0.0701  0.2970
  752TMC3    C511112   3.064   1.997  17.175 -1.1111 -0.7593  0.4445
  752TMC3    C611113   3.121   1.888  17.242  0.0646  0.4976 -0.7233
  752TMC3     C11114   3.308   2.066  16.908 -0.4169 -0.2573 -0.2497
  752TMC3     O11115   3.429   2.074  16.898 -0.1533  0.4946  0.3510
  752TMC3     H11116   3.414   1.886  17.079 -0.8055  1.6734 -1.0487
  752TMC3    H111117   3.070   2.151  17.031  0.4688 -0.4272 -0.3952
  752TMC3    H211118   3.064   1.842  17.322 -0.9547  1.3110 -0.9882
  752TMC3    C711119   2.930   2.047  17.212  0.0462 -0.1625 -0.8951
  752TMC3    C811120   3.302   1.728  17.258 -0.1825  0.0562  0.1193
  752TMC3    O111121   2.869   2.109  17.128 -0.9525  0.2850 -0.3150
  752TMC3    O211122   3.388   1.670  17.194 -0.0445  0.2103 -0.2388
  753TMC3    C111123   0.334   3.333  13.470  0.3504  0.4639 -0.1366
  753TMC3    C211124   0.411   3.308  13.585 -0.7667 -0.9588  0.3027
  753TMC3    C311125   0.413   3.177  13.626 -0.3410  0.7125  1.1113
  753TMC3    C411126   0.263   3.237  13.401  0.6517  0.2321 -0.6514
  753TMC3    C511127   0.277   3.110  13.445 -0.0430 -0.3078 -0.8016
  753TMC3    C611128   0.358   3.076  13.555 -0.5495 -0.1296 -0.1284
  753TMC3     C11129   0.346   3.468  13.400 -0.4081 -0.2433  0.6018
  753TMC3     O11130   0.270   3.486  13.305  0.7333 -0.2094 -0.5481
  753TMC3     H11131   0.442   3.390  13.649 -2.1058 -1.0505  1.0685
  753TMC3    H111132   0.200   3.269  13.319 -1.0749  0.5414  0.7984
  753TMC3    H211133   0.374   2.972  13.580  1.2397 -0.1990 -1.5890
  753TMC3    C711134   0.210   3.002  13.378 -0.2530  0.1158  0.1248
  753TMC3    C811135   0.489   3.128  13.738  0.1186 -0.1119  0.4088
  753TMC3    O111136   0.210   2.995  13.259 -0.2847 -0.3110 -0.7541
  753TMC3    O211137   0.470   3.011  13.769 -0.0352 -0.4924 -0.1957
  754MPD2     C11138   4.469   1.946  13.293  0.1953  0.0824 -1.0067
  754MPD2    C111139   4.441   1.813  13.323  0.0729 -0.2167 -0.6916
  754MPD2    C211140   4.311   1.771  13.317  0.0212  0.3130  0.7739
  754MPD2    C311141   4.207   1.867  13.310 -0.2097  0.4732  0.5201
  754MPD2    C411142   4.242   1.999  13.289  0.4625  0.0553  0.7732
  754MPD2    C511143   4.372   2.038  13.263  0.8664 -1.0120 -0.1783
  754MPD2     H11144   4.288   1.666  13.332 -0.2378  0.1721 -0.6702
  754MPD2    H111145   4.167   2.077  13.286  0.6896  0.2337 -0.2103
  754MPD2    H211146   4.565   1.993  13.313  0.9505 -2.0684  0.3406
  754MPD2    H311147   4.384   2.144  13.243 -0.5578 -0.8803 -0.3374
  754MPD2     N11148   4.074   1.827  13.328 -0.1749  0.4073 -0.0283
  754MPD2    H511149   4.011   1.906  13.318 -0.5820  0.1355  0.3678
  754MPD2    N111150   4.554   1.738  13.371 -0.1188  0.3181  0.2963
  754MPD2    H711151   4.643   1.781  13.345 -1.0220  0.3850 -2.6714
  755MPD2     C11152   3.460   2.400  13.423 -0.8527 -0.0689  0.1982
  755MPD2    C111153   3.395   2.298  13.487  0.7578 -0.1249  0.4479
  755MPD2    C211154   3.458   2.171  13.484 -0.1169  0.8934  0.4288
  755MPD2    C311155   3.572   2.146  13.405 -0.0356 -0.1272 -0.5830
  755MPD2    C411156   3.623   2.254  13.335  1.2187 -0.2609 -0.8250
  755MPD2    C511157   3.570   2.378  13.352  0.1008  0.3579  0.2607
  755MPD2     H11158   3.404   2.091  13.534 -0.5669 -0.1527 -1.7293
  755MPD2    H111159   3.717   2.247  13.281  1.5683 -1.6665 -0.0331
  755MPD2    H211160   3.423   2.501  13.432 -0.3252 -0.0777  2.5227
  755MPD2    H311161   3.617   2.463  13.303 -0.1693 -0.9698 -2.3217
  755MPD2     N11162   3.632   2.018  13.384 -0.0875  0.3664 -0.3883
  755MPD2    H511163   3.723   2.005  13.342  0.8078  0.8437  1.3840
  755MPD2    N111164   3.280   2.323  13.570 -0.3569  0.3500  0.7343
  755MPD2    H711165   3.237   2.246  13.621  0.1322 -0.0436  0.5591
  756MPD2     C11166   4.209   1.653   9.801  1.1110  0.4100  0.1183
  756MPD2    C111167   4.185   1.741   9.903  0.7510  0.3451  0.5248
  756MPD2    C211168   4.059   1.744   9.958  0.2461  0.2661 -0.4937
  756MPD2    C311169   3.956   1.671   9.899  0.4718 -0.1546  0.4205
  756MPD2    C411170   3.981   1.586   9.792 -0.3881 -0.1753  0.3626
  756MPD2    C511171   4.105   1.573   9.751  0.9375 -0.3155 -0.7075
  756MPD2     H11172   4.036   1.802  10.046  0.3169 -0.1339 -0.2134
  756MPD2    H111173   3.900   1.532   9.744  1.5350 -2.8494  0.0791
  756MPD2    H211174   4.311   1.639   9.768  1.9024  1.3437  2.1815
  756MPD2    H311175   4.134   1.501   9.676 -0.8337  0.7535 -2.4114
  756MPD2     N11176   3.823   1.697   9.953 -0.2055  0.2822 -0.2608
  756MPD2    H511177   3.815   1.761  10.032 -0.4517 -0.8990  0.6677
  756MPD2    N111178   4.289   1.816   9.966  0.1661  0.1867 -0.0021
  756MPD2    H711179   4.274   1.854  10.059 -0.0665 -2.2747  0.9635
  757MPD2     C11180   2.992   1.156  10.194 -0.2348 -0.4560  0.2651
  757MPD2    C111181   3.030   1.168  10.068  0.5945 -0.1491  0.3923
  757MPD2    C211182   3.110   1.282  10.033 -0.4180  0.6298 -0.0620
  757MPD2    C311183   3.168   1.359  10.123 -0.4340  0.5272  0.5645
  757MPD2    C411184   3.127   1.342  10.257 -0.0007 -0.6812  0.1636
  757MPD2    C511185   3.037   1.241  10.286 -0.2769  0.0245 -0.6113
  757MPD2     H11186   3.115   1.319   9.931  0.3326  2.5518  0.6782
  757MPD2    H111187   3.174   1.391  10.341  1.7701  0.7020 -1.6389
  757MPD2    H211188   2.911   1.092  10.227 -0.3815 -0.1648  0.4718
  757MPD2    H311189   2.998   1.221  10.385  0.3296  1.4142 -0.0964
  757MPD2     N11190   3.261   1.459  10.085  0.0996  0.3680  0.4780
  757MPD2    H511191   3.281   1.471   9.986 -0.8684  1.0246  0.3600
  757MPD2    N111192   2.952   1.097   9.976  0.0402 -0.2426 -0.5430
  757MPD2    H711193   2.901   1.018  10.014  0.6764  0.0703  0.9662
  758MPD2     C11194   4.595   2.070  16.160 -0.0392  0.1778  0.9239
  758MPD2    C111195   4.668   1.994  16.250  0.6868  0.7984 -0.2255
  758MPD2    C211196   4.597   1.900  16.325 -0.1484 -0.1153 -0.4677
  758MPD2    C311197   4.457   1.879  16.311  0.1745 -0.7670  0.3861
  758MPD2    C411198   4.394   1.952  16.215  0.0528 -0.3906 -0.1267
  758MPD2    C511199   4.463   2.047  16.146 -0.7771  0.2735 -0.4983
  758MPD2     H11200   4.654   1.834  16.389  1.0537  1.3354 -0.0563
  758MPD2    H111201   4.288   1.940  16.194 -0.2269 -0.8646  1.5884
  758MPD2    H211202   4.642   2.148  16.102  1.0811 -0.4950  0.9490
  758MPD2    H311203   4.400   2.108  16.081  2.0725  2.3309 -1.2885
  758MPD2     N11204   4.385   1.780  16.379  0.3604  0.2753  1.2860
  758MPD2    H511205   4.291   1.761  16.346  1.4852 -1.7702 -0.6472
  758MPD2    N111206   0.081   1.995  16.253 -0.7657 -0.1740 -0.0289
  758MPD2    H711207   0.129   2.028  16.170 -1.7891  0.1030 -0.5064
  759MPD2     C11208   4.100   4.270  10.404  0.2342  0.0728 -0.4008
  759MPD2    C111209   4.004   4.178  10.376  0.5849  0.2307 -0.6796
  759MPD2    C211210   3.893   4.213  10.305  0.5766 -0.0235 -0.3223
  759MPD2    C311211   3.876   4.348  10.268  0.4546 -0.1123  0.4741
  759MPD2    C411212   3.968   4.448  10.311 -0.6519 -0.1651 -0.1324
  759MPD2    C511213   4.079   4.398  10.374 -0.6476 -0.4705  0.4473
  759MPD2     H11214   3.811   4.145  10.287  0.6776 -0.4390  0.8373
  759MPD2    H111215   3.965   4.553  10.286 -0.5394 -0.5224 -1.6730
  759MPD2    H211216   4.191   4.239  10.456 -0.5994 -0.8659  0.5008
  759MPD2    H311217   4.147   4.478  10.402 -1.3140  0.1326  0.3377
  759MPD2     N11218   3.764   4.399  10.195 -0.2123  0.6767 -0.6624
  759MPD2    H511219   3.762   4.500  10.199 -0.6627  0.7398 -2.3084
  759MPD2    N111220   4.008   4.037  10.414  0.2713  0.7650  0.3442
  759MPD2    H711221   3.925   3.980  10.400  1.6456 -0.5618 -2.3356
  760MPD2     C11222   2.505   2.295  12.019 -0.1071  0.4703 -0.4414
  760MPD2    C111223   2.629   2.311  12.084 -0.5206  0.0733 -0.8294
  760MPD2    C211224   2.688   2.191  12.139 -0.2699  0.4534 -0.9558
  760MPD2    C311225   2.628   2.063  12.138  0.2096 -0.4200 -0.3444
  760MPD2    C411226   2.505   2.061  12.080  0.8864  0.1500  0.5160
  760MPD2    C511227   2.448   2.169  12.017  1.0370 -0.2293 -0.0357
  760MPD2     H11228   2.790   2.199  12.175 -0.4868 -0.7223 -0.0753
  760MPD2    H111229   2.457   1.964  12.073  3.5687 -1.0297 -1.6848
  760MPD2    H211230   2.455   2.367  11.956 -2.1949  1.0132  1.8194
  760MPD2    H311231   2.360   2.163  11.954 -0.0031 -0.0677  1.4157
  760MPD2     N11232   2.691   1.941  12.175 -0.8298 -0.2699  0.4491
  760MPD2    H511233   2.637   1.857  12.155  1.6521 -1.4723 -1.2822
  760MPD2    N111234   2.713   2.422  12.068  0.2407  0.2540 -0.1782
  760MPD2    H711235   2.810   2.401  12.090  0.3322 -1.6765 -2.2749
  761MPD2     C11236   4.277   1.076  11.041  0.0458 -0.5860  0.0463
  761MPD2    C111237   4.318   1.021  10.921 -0.5739  0.0372  0.4763
  761MPD2    C211238   4.420   1.090  10.857 -0.7841  0.0317  0.2488
  761MPD2    C311239   4.477   1.206  10.906 -0.2260  0.2327 -0.2163
  761MPD2    C411240   4.425   1.253  11.020  0.4947 -0.0276 -0.1739
  761MPD2    C511241   4.331   1.190  11.091  0.2958  0.5052  0.1707
  761MPD2     H11242   4.446   1.067  10.754  0.5680 -0.0234  0.5954
  761MPD2    H111243   4.461   1.344  11.066 -4.2002  2.5101 -1.5511
  761MPD2    H211244   4.209   1.023  11.107  1.7394 -2.3889  0.3361
  761MPD2    H311245   4.283   1.233  11.178  3.0477  2.8466  0.5287
  761MPD2     N11246   4.581   1.280  10.847 -0.0394  0.6663  0.3090
  761MPD2    H511247   4.624   1.353  10.902 -0.2164  1.3926 -0.5258
  761MPD2    N111248   4.266   0.897  10.867  0.1295  0.2476  0.1045
  761MPD2    H711249   4.198   0.844  10.921  1.1260 -0.8591  0.2927
  762MPD2     C11250   4.554   0.571  10.189 -0.7470 -0.6234  0.7306
  762MPD2    C111251   4.521   0.483  10.288 -0.1489  0.2082 -0.2166
  762MPD2    C211252   4.602   0.371  10.307  0.3422  0.0265 -0.4374
  762MPD2    C311253   4.695   0.338  10.213 -0.7697  0.2093  0.4031
  762MPD2    C411254   4.717   0.424  10.104  0.0534 -0.2732  0.2643
  762MPD2    C511255   4.647   0.543  10.094 -0.2788  0.4478  0.1917
  762MPD2     H11256   4.601   0.301  10.390 -1.0513  1.8903  1.1369
  762MPD2    H111257   0.084   0.417  10.052  0.7806  0.8789  1.4327
  762MPD2    H211258   4.502   0.666  10.180  0.3279 -0.3604 -2.6503
  762MPD2    H311259   4.686   0.623  10.032 -0.2556  0.2250 -0.0839
  762MPD2     N11260   0.048   0.221  10.244  0.0239 -0.6222  0.2234
  762MPD2    H511261   0.040   0.185  10.338  1.2795 -0.7064  0.3058
  762MPD2    N111262   4.416   0.521  10.377  0.8278 -0.0147  0.6122
  762MPD2    H711263   4.375   0.611  10.351  2.1158  0.5208  0.3991
  763MPD2     C11264   1.475   1.563  16.211 -0.8894  0.2497  0.7872
  763MPD2    C111265   1.355   1.606  16.252 -0.2734  1.4445  0.3454
  763MPD2    C211266   1.346   1.720  16.332 -0.0327  0.5073 -0.1112
  763MPD2    C311267   1.462   1.777  16.390 -0.8307 -0.1150  0.3529
  763MPD2    C411268   1.576   1.714  16.364  0.1765  0.1996 -0.4592
  763MPD2    C511269   1.587   1.604  16.278  0.4462 -0.2972  0.3552
  763MPD2     H11270   1.249   1.769  16.337 -0.3639 -0.2422  0.8137
  763MPD2    H111271   1.663   1.762  16.407 -0.5296  1.0283  0.0491
  763MPD2    H211272   1.484   1.487  16.133  0.2749  3.5298 -2.2429
  763MPD2    H311273   1.687   1.565  16.266 -0.4603 -1.8048 -2.2391
  763MPD2     N11274   1.479   1.884  16.483 -0.3336 -0.5959  0.7641
  763MPD2    H511275   1.576   1.900  16.507 -0.2983  0.3692 -0.0035
  763MPD2    N111276   1.235   1.561  16.184 -0.0503 -0.4845 -0.1264
  763MPD2    H711277   1.149   1.594  16.226 -0.5779 -1.2121 -0.6347
  764MPD2     C11278   3.848   3.219   0.728 -0.2979  0.3606 -0.4719
  764MPD2    C111279   3.852   3.211   0.588  0.7859  0.1728  0.1366
  764MPD2    C211280   3.855   3.084   0.529  1.1711  0.0959 -0.0352
  764MPD2    C311281   3.894   2.975   0.598  0.0335 -0.2055  0.3082
  764MPD2    C411282   3.898   2.987   0.734  0.3056  0.2665 -0.4048
  764MPD2    C511283   3.855   3.100   0.793  0.0840  0.0140  0.9403
  764MPD2     H11284   3.850   3.079   0.421  0.8250  1.9984 -0.1110
  764MPD2    H111285   3.909   2.903   0.802  1.5870 -1.1892 -2.4133
  764MPD2    H211286   3.831   3.312   0.781 -2.3184  0.4485 -1.2967
  764MPD2    H311287   3.853   3.101   0.901 -0.0547 -3.3454  0.9613
  764MPD2     N11288   3.936   2.860   0.533 -0.3673  0.1349 -0.2120
  764MPD2    H511289   3.915   2.860   0.434 -0.0521  1.6681 -0.2776
  764MPD2    N111290   3.845   3.328   0.502 -0.0983  0.1968 -0.2888
  764MPD2    H711291   3.837   3.311   0.402  1.4105 -1.6714 -0.0981
  765MPD2     C11292   3.658   0.758  16.165 -0.3199 -0.3912  0.1188
  765MPD2    C111293   3.672   0.862  16.076  0.7726 -0.1694  0.9653
  765MPD2    C211294   3.791   0.869  15.996 -0.2042 -0.0195 -0.3068
  765MPD2    C311295   3.885   0.772  15.996  0.1853 -0.5307 -0.6354
  765MPD2    C411296   3.864   0.667  16.084 -0.6548  0.1181  0.1186
  765MPD2    C511297   3.756   0.663  16.172 -0.4979  0.4927 -0.4018
  765MPD2     H11298   3.802   0.947  15.921  0.6969  0.6751  0.5553
  765MPD2    H111299   3.932   0.583  16.093 -0.3741  0.3317 -0.0611
  765MPD2    H211300   3.576   0.758  16.236 -0.0381 -1.1596  0.4466
  765MPD2    H311301   3.746   0.579  16.240 -1.4945 -1.3516 -2.8720
  765MPD2     N11302   3.990   0.782  15.902 -0.1435  0.2306  0.1118
  765MPD2    H511303   4.008   0.871  15.856 -0.7194  1.0074  1.3994
  765MPD2    N111304   3.576   0.964  16.077  0.2964  0.2703  0.1446
  765MPD2    H711305   3.478   0.946  16.094  0.0814  2.2528  0.9968
  766MPD2     C11306   3.071   1.047  15.486 -0.4042  0.5120  0.3831
  766MPD2    C111307   3.194   1.109  15.482  0.1766  0.6965  0.1170
  766MPD2    C211308   3.265   1.135  15.363 -0.0964 -0.1507  0.5388
  766MPD2    C311309   3.201   1.098  15.244  0.4300  0.4586  0.2446
  766MPD2    C411310   3.077   1.046  15.245 -0.2559  0.3960  0.0395
  766MPD2    C511311   3.013   1.020  15.363 -0.5724  0.1142 -0.0337
  766MPD2     H11312   3.356   1.193  15.362 -1.3006  1.7119 -0.2406
  766MPD2    H111313   3.025   1.023  15.153  1.4184 -0.2985 -0.7255
  766MPD2    H211314   3.015   1.026  15.576 -1.0174 -1.5444 -0.4759
  766MPD2    H311315   2.912   0.981  15.364 -0.6000  0.2355  1.2961
  766MPD2     N11316   3.245   1.138  15.115  0.0496 -0.5190  0.1642
  766MPD2    H511317   3.194   1.098  15.037 -0.0406  0.3742 -0.2377
  766MPD2    N111318   3.253   1.151  15.601  0.0133  0.3133  0.0248
  766MPD2    H711319   3.320   1.227  15.589  0.5711 -0.5126 -2.1535
  767MPD2     C11320   2.899   1.298  15.136 -0.0126 -0.0561  0.2533
  767MPD2    C111321   2.998   1.381  15.088 -0.7685  0.1299 -0.3350
  767MPD2    C211322   3.019   1.372  14.952  0.1657  0.4786 -0.0508
  767MPD2    C311323   2.925   1.310  14.868  0.1201  0.8343  0.2486
  767MPD2    C411324   2.825   1.244  14.923  0.0899 -0.1825 -0.5843
  767MPD2    C511325   2.811   1.232  15.057  0.3205 -0.4054  0.2691
  767MPD2     H11326   3.097   1.427  14.900  0.0370  0.1291 -0.6018
  767MPD2    H111327   2.768   1.180  14.856 -1.2800 -1.2729  1.6301
  767MPD2    H211328   2.898   1.280  15.242  1.5642 -0.1872  0.2551
  767MPD2    H311329   2.731   1.177  15.104  1.1232 -0.0590  2.0349
  767MPD2     N11330   2.948   1.312  14.726 -0.4392 -0.5983  0.1458
  767MPD2    H511331   3.042   1.337  14.697 -0.4881  2.6898  2.7334
  767MPD2    N111332   3.074   1.446  15.179  0.3153  0.6333  0.3818
  767MPD2    H711333   3.037   1.457  15.273  0.4545  0.1695  0.4908
  768MPD2     C11334   4.096   4.218  10.737 -0.2295  0.7227  1.0893
  768MPD2    C111335   4.079   4.166  10.859  0.4776  0.1530 -0.8479
  768MPD2    C211336   4.167   4.203  10.960  0.7976  0.4171 -0.4091
  768MPD2    C311337   4.276   4.283  10.937  0.1425 -0.8252  0.2713
  768MPD2    C411338   4.290   4.330  10.808  0.2831 -0.4171 -0.1893
  768MPD2    C511339   4.192   4.313  10.715  1.1668  0.2049  0.2817
  768MPD2     H11340   4.145   4.164  11.059  0.3710 -2.6486 -1.7017
  768MPD2    H111341   4.374   4.395  10.787  0.3723 -1.0851 -1.8955
  768MPD2    H211342   4.032   4.204  10.650  1.4578 -0.0629 -0.0414
  768MPD2    H311343   4.195   4.370  10.622 -1.9462  2.1085  1.3395
  768MPD2     N11344   4.381   4.302  11.029  0.0948  1.0200  0.0496
  768MPD2    H511345   4.457   4.366  11.009 -0.2929  1.1312 -1.0532
  768MPD2    N111346   3.969   4.088  10.900  0.0813  0.8049 -0.6500
  768MPD2    H711347   3.960   4.068  10.999  1.3063  0.1479 -0.6660
  769MPD2     C11348   0.142   2.659  15.057  0.8266 -0.8555 -0.1664
  769MPD2    C111349   0.059   2.681  15.169 -0.4124 -0.0098  0.1237
  769MPD2    C211350   0.103   2.683  15.302  0.5430  0.4771 -0.9694
  769MPD2    C311351   0.233   2.653  15.316 -0.6678  0.1864 -0.5769
  769MPD2    C411352   0.314   2.611  15.215  0.8327 -0.5945 -0.4056
  769MPD2    C511353   0.271   2.611  15.085 -0.2936 -0.0074  0.4044
  769MPD2     H11354   0.033   2.701  15.383  1.7819  1.3515 -0.0766
  769MPD2    H111355   0.414   2.570  15.231  0.8215 -0.4494  0.0402
  769MPD2    H211356   0.103   2.645  14.957  2.1489 -0.5290 -0.7406
  769MPD2    H311357   0.335   2.591  15.000  0.0764 -0.5646  0.8182
  769MPD2     N11358   0.271   2.664  15.451  0.8408  0.3430 -0.5893
  769MPD2    H511359   0.200   2.693  15.517 -0.3460 -0.4531 -1.5160
  769MPD2    N111360   4.652   2.698  15.137 -0.4034 -0.0159  0.1490
  769MPD2    H711361   4.631   2.675  15.040  0.2033  2.1024 -0.4892
  770MPD2     C11362   4.088   2.187  15.680 -0.5338  0.0560  0.2856
  770MPD2    C111363   4.161   2.141  15.570 -0.2224  0.5535 -0.2587
  770MPD2    C211364   4.175   2.221  15.456 -0.0625  0.0884 -0.2418
  770MPD2    C311365   4.130   2.354  15.462 -0.7046 -0.3840  0.9576
  770MPD2    C411366   4.065   2.407  15.576  0.0949  0.1211  0.1270
  770MPD2    C511367   4.039   2.317  15.679  0.6414  0.1080 -0.2775
  770MPD2     H11368   4.234   2.190  15.370  3.6417  1.6225  1.7088
  770MPD2    H111369   4.040   2.512  15.580  0.4025  0.1237  1.7591
  770MPD2    H211370   4.074   2.126  15.768  0.0174  0.4194  0.6223
  770MPD2    H311371   4.002   2.352  15.774 -0.6212  0.5727 -0.9426
  770MPD2     N11372   4.163   2.460  15.367  0.4642 -0.3449 -0.2321
  770MPD2    H511373   4.117   2.548  15.384  0.3340 -0.6419  0.9842
  770MPD2    N111374   4.214   2.014  15.574 -0.7319  0.4498  0.4258
  770MPD2    H711375   4.174   1.949  15.640  0.7623 -1.3667 -0.4709
  771MPD2     C11376   1.225   0.736  14.272 -0.3720  0.0498  0.5392
  771MPD2    C111377   1.116   0.804  14.213 -0.1793 -0.4784 -0.6009
  771MPD2    C211378   1.032   0.737  14.127  0.6532 -0.0317 -0.8807
  771MPD2    C311379   1.056   0.608  14.095  0.4067 -0.0874 -0.0280
  771MPD2    C411380   1.160   0.546  14.156 -0.4564  0.4239 -0.7156
  771MPD2    C511381   1.247   0.602  14.241  0.1748  0.1827  0.4286
  771MPD2     H11382   0.947   0.788  14.082  0.2346  1.2245  1.3633
  771MPD2    H111383   1.181   0.443  14.130  0.0213  0.3210  0.0659
  771MPD2    H211384   1.306   0.792  14.316  0.5078 -1.2777  0.6019
  771MPD2    H311385   1.336   0.546  14.270  0.6244  0.3748 -0.5798
  771MPD2     N11386   0.969   0.537  14.017 -0.1665 -0.0536  0.6424
  771MPD2    H511387   0.885   0.582  13.981  0.8534  0.4964 -1.0288
  771MPD2    N111388   1.081   0.935  14.237 -0.1530 -0.3640 -0.2103
  771MPD2    H711389   1.024   0.982  14.167 -2.5994 -0.1426  1.9354
  772MPD2     C11390   0.766   1.310  13.785 -0.0388 -0.3288 -0.7796
  772MPD2    C111391   0.740   1.317  13.920 -0.1217 -0.2316  0.2167
  772MPD2    C211392   0.613   1.313  13.968  0.3250 -0.5392 -0.3726
  772MPD2    C311393   0.510   1.290  13.881 -0.0034 -0.1390  0.1249
  772MPD2    C411394   0.533   1.292  13.741 -1.0826  0.4543  0.6271
  772MPD2    C511395   0.662   1.302  13.700 -0.0341 -0.0183 -1.2716
  772MPD2     H11396   0.585   1.318  14.073  1.7284 -1.0423  0.0200
  772MPD2    H111397   0.461   1.276  13.662 -1.8366  0.3804  1.3325
  772MPD2    H211398   0.863   1.295  13.739  0.6395  1.9417 -0.0992
  772MPD2    H311399   0.677   1.301  13.592  0.8764  0.1991 -1.1533
  772MPD2     N11400   0.376   1.255  13.918  0.0114 -0.1038 -0.9222
  772MPD2    H511401   0.306   1.253  13.845 -2.1827 -0.5139  1.1985
  772MPD2    N111402   0.844   1.325  14.024  0.5068  0.3522 -0.1906
  772MPD2    H711403   0.816   1.321  14.122  0.4414 -1.7868 -0.2840
  773MPD2     C11404   0.455   1.517   0.409  0.4685  0.1366  0.4539
  773MPD2    C111405   0.351   1.542   0.491  0.8427  0.2791  0.0620
  773MPD2    C211406   0.302   1.456   0.589 -0.6918 -0.3225 -0.5288
  773MPD2    C311407   0.376   1.341   0.610  0.2690 -0.3146  0.0477
  773MPD2    C411408   0.496   1.319   0.530  1.2042 -0.1363 -0.2511
  773MPD2    C511409   0.526   1.397   0.422 -0.2589  1.0369 -0.0538
  773MPD2     H11410   0.215   1.472   0.652 -0.0872 -2.9748  0.9715
  773MPD2    H111411   0.559   1.231   0.533  1.5629  0.1271  0.0308
  773MPD2    H211412   0.478   1.582   0.326  1.0202  0.8636  1.1825
  773MPD2    H311413   0.621   1.385   0.372 -0.8433 -0.6427 -0.7378
  773MPD2     N11414   0.339   1.233   0.707  0.0176  0.5855  0.0517
  773MPD2    H511415   0.411   1.161   0.710  0.0066  0.5742  0.0407
  773MPD2    N111416   0.274   1.665   0.482  0.1839  0.4002 -0.0095
  773MPD2    H711417   0.186   1.673   0.532  0.4009  1.6642  0.1617
  774MPD2     C11418   3.936   0.864  13.294 -0.1030 -0.2957  0.4976
  774MPD2    C111419   3.929   0.899  13.431  0.3388 -0.1354  0.3605
  774MPD2    C211420   4.002   1.004  13.473  0.2282  0.9731  0.1851
  774MPD2    C311421   4.088   1.076  13.390  0.1671  0.8801 -0.8502
  774MPD2    C411422   4.089   1.037  13.257  0.2517 -0.3682  0.1443
  774MPD2    C511423   4.013   0.935  13.208  0.9273  0.1198  0.2661
  774MPD2     H11424   4.015   1.037  13.576  1.0882  2.1251 -0.2851
  774MPD2    H111425   4.145   1.098  13.188  1.5030 -0.5830  0.9663
  774MPD2    H211426   3.900   0.769  13.256 -3.2080  1.5139 -1.0980
  774MPD2    H311427   4.004   0.905  13.104 -1.2117 -2.3464  1.1591
  774MPD2     N11428   4.166   1.173  13.453  0.2552 -0.1910  0.5003
  774MPD2    H511429   4.142   1.192  13.550  1.8224  0.3740  0.7936
  774MPD2    N111430   3.855   0.832  13.530  0.6326 -0.1696 -0.0729
  774MPD2    H711431   3.860   0.867  13.625 -0.9417  1.0037 -0.4213
  775MPD2     C11432   0.817   2.625  16.124  0.3852  0.0663  0.5822
  775MPD2    C111433   0.746   2.749  16.116  0.0887  0.1277  0.5899
  775MPD2    C211434   0.820   2.864  16.075  0.1443  0.4716  0.4294
  775MPD2    C311435   0.954   2.853  16.051  0.6592 -0.3538  0.0427
  775MPD2    C411436   1.013   2.725  16.038  0.3184 -0.4542  0.1866
  775MPD2    C511437   0.952   2.607  16.080  0.1721 -0.6641 -0.3399
  775MPD2     H11438   0.772   2.961  16.070 -1.2420 -0.2673 -0.6806
  775MPD2    H111439   1.118   2.711  16.016  0.6170  0.7638  0.8055
  775MPD2    H211440   0.764   2.538  16.161  0.0677 -0.4498 -1.1098
  775MPD2    H311441   1.001   2.511  16.082 -0.5469 -0.9818  2.7628
  775MPD2     N11442   1.038   2.961  16.037 -0.3995 -0.3601 -0.5440
  775MPD2    H511443   1.134   2.947  16.006 -0.4236  1.1509 -1.3170
  775MPD2    N111444   0.611   2.749  16.154  0.0643  0.4710 -0.2156
  775MPD2    H711445   0.577   2.662  16.193  0.9935  0.1013 -0.2255
  776MPD2     C11446   0.560   2.276  11.003  0.2848 -0.5079  0.0875
  776MPD2    C111447   0.541   2.306  11.133  0.1970 -0.0339  0.5026
  776MPD2    C211448   0.624   2.397  11.195  0.6313 -1.1651  0.4813
  776MPD2    C311449   0.735   2.457  11.138  0.4393 -0.5006 -0.2219
  776MPD2    C411450   0.760   2.406  11.009 -0.0567  0.2130  0.1877
  776MPD2    C511451   0.674   2.323  10.945  0.1829  0.4904  0.5700
  776MPD2     H11452   0.597   2.431  11.295  0.8731 -0.6462  0.3683
  776MPD2    H111453   0.840   2.448  10.949  0.7448 -1.0496  0.3790
  776MPD2    H211454   0.508   2.200  10.947  1.2876  0.4187 -2.1121
  776MPD2    H311455   0.691   2.296  10.841 -1.9208  1.4484 -0.0212
  776MPD2     N11456   0.812   2.549  11.217 -0.0269  0.0100  0.1394
  776MPD2    H511457   0.900   2.580  11.178 -1.5974  1.1405 -2.5426
  776MPD2    N111458   0.425   2.257  11.190 -0.5417  0.3095  0.0274
  776MPD2    H711459   0.379   2.185  11.136  1.6600 -1.1805  0.1426
  777MPD2     C11460   4.599   0.132   1.122 -0.5320 -0.3128 -0.2952
  777MPD2    C111461   4.511   0.045   1.167 -0.6720 -0.4130  0.7455
  777MPD2    C211462   4.423   4.722   1.082 -0.6828 -0.1553  0.3702
  777MPD2    C311463   4.437   0.025   0.942 -0.2617 -0.4559 -0.3556
  777MPD2    C411464   4.529   0.116   0.894  0.2080 -0.7712 -0.3288
  777MPD2    C511465   4.615   0.171   0.993  0.4533  0.4056 -0.0924
  777MPD2     H11466   4.349   4.652   1.119  0.8321 -1.2524  1.3339
  777MPD2    H111467   4.528   0.159   0.795 -1.9347 -2.5475 -1.0826
  777MPD2    H211468   4.648   0.189   1.200  0.4652 -2.2483  0.4947
  777MPD2    H311469   4.675   0.251   0.953 -1.0856  1.2571 -0.6723
  777MPD2     N11470   4.334   4.703   0.853  0.0869 -0.4156 -0.2629
  777MPD2    H511471   4.268   4.638   0.895  0.7421 -1.0768 -0.2490
  777MPD2    N111472   4.521   0.013   1.302  0.1336 -0.0215  0.0084
  777MPD2    H711473   4.596   0.060   1.352 -1.7452  1.0112  1.8473
  778MPD2     C11474   0.996   0.725  15.204 -0.3815 -0.2436 -0.5727
  778MPD2    C111475   1.010   0.658  15.086 -0.0685  0.3496 -0.2364
  778MPD2    C211476   1.068   0.722  14.976  0.4490  0.4262 -0.6417
  778MPD2    C311477   1.104   0.854  14.990 -0.5201  0.5634  0.0463
  778MPD2    C411478   1.083   0.924  15.107  0.2658 -0.5027  0.3007
  778MPD2    C511479   1.023   0.858  15.208  0.1700 -0.2383  0.5598
  778MPD2     H11480   1.078   0.675  14.879  2.8623  0.1370 -0.2546
  778MPD2    H111481   1.108   1.029  15.116 -0.4744 -0.1709 -1.5731
  778MPD2    H211482   0.947   0.681  15.290 -0.0652 -0.5714 -0.5621
  778MPD2    H311483   1.006   0.907  15.303  3.4685 -0.2124  1.1647
  778MPD2     N11484   1.179   0.910  14.878  0.1637  0.2686  1.0373
  778MPD2    H511485   1.190   0.851  14.796  1.1916  0.6915  0.8758
  778MPD2    N111486   0.970   0.530  15.063 -0.3020 -0.7092 -0.0875
  778MPD2    H711487   0.949   0.507  14.967  1.6835  0.1997 -0.7567
  779MPD2     C11488   1.092   4.202  13.997 -0.3005 -1.0399 -0.2155
  779MPD2    C111489   1.049   4.198  14.127 -0.2624 -0.5024  0.2607
  779MPD2    C211490   1.032   4.314  14.200 -0.4788 -0.0094  0.5796
  779MPD2    C311491   1.034   4.432  14.131  0.3546  0.1278  0.2498
  779MPD2    C411492   1.055   4.430  13.996 -0.6656  0.5133 -0.4996
  779MPD2    C511493   1.078   4.315  13.927  0.3481 -0.9388  0.0323
  779MPD2     H11494   1.015   4.312  14.307  1.4999  0.7753  0.9102
  779MPD2    H111495   1.061   4.520  13.936 -1.0346  0.3470 -0.7856
  779MPD2    H211496   1.139   4.112  13.962 -1.2888 -1.3234 -0.8218
  779MPD2    H311497   1.085   4.323  13.819  1.3719  3.8954  0.4661
  779MPD2     N11498   1.018   4.548  14.210 -0.0279  0.6574 -0.5681
  779MPD2    H511499   1.026   4.545  14.311 -0.7242 -4.4820 -0.6954
  779MPD2    N111500   1.033   4.072  14.195  0.3356  0.1513  0.7562
  779MPD2    H711501   0.995   4.077  14.289  0.7650 -1.6774  1.0399
  780MPD2     C11502   4.159   3.779   0.804  0.0575 -0.3167 -0.0518
  780MPD2    C111503   4.230   3.719   0.705  0.7688 -0.3046 -0.5877
  780MPD2    C211504   4.326   3.790   0.635  0.0101  0.0374 -0.3164
  780MPD2    C311505   4.346   3.924   0.657  0.6755  1.1922  0.0357
  780MPD2    C411506   4.274   3.984   0.758  0.0890 -0.1841 -0.0023
  780MPD2    C511507   4.176   3.914   0.825  0.0312 -0.2478 -0.1330
  780MPD2     H11508   4.383   3.743   0.556  0.8553 -2.4797  1.7921
  780MPD2    H111509   4.286   4.090   0.777  2.9711 -0.1539 -1.9415
  780MPD2    H211510   4.086   3.727   0.865 -1.4124  2.5175  0.6253
  780MPD2    H311511   4.116   3.964   0.900  1.2411  4.0492 -2.0718
  780MPD2     N11512   4.445   3.991   0.574 -0.1656  0.4980 -0.0641
  780MPD2    H511513   4.503   3.925   0.523  0.7514  0.9876  0.3458
  780MPD2    N111514   4.193   3.581   0.684 -0.3536 -0.7107 -0.1129
  780MPD2    H711515   4.119   3.544   0.743 -2.2435  0.1381 -1.9306
  781MPD2     C11516   1.932   0.925  12.294  0.0445 -0.5135  0.1189
  781MPD2    C111517   2.062   0.886  12.314  0.1863  0.3463 -0.7385
  781MPD2    C211518   2.148   0.881  12.206 -0.2064 -0.2807  0.0049
  781MPD2    C311519   2.102   0.922  12.081 -0.4549  0.3175 -0.5800
  781MPD2    C411520   1.975   0.970  12.070 -0.0416 -0.1332 -0.8279
  781MPD2    C511521   1.897   0.978  12.177  0.0374  0.2654 -0.1177
  781MPD2     H11522   2.249   0.844  12.217 -0.0741  0.4442  1.3509
  781MPD2    H111523   1.946   1.014  11.975 -0.1668  0.4564 -0.5157
  781MPD2    H211524   1.860   0.938  12.374 -0.4248 -0.9386 -0.2343
  781MPD2    H311525   1.801   1.029  12.170  0.7635  1.6489  0.1023
  781MPD2     N11526   2.181   0.921  11.964 -0.0237  0.0206  0.0352
  781MPD2    H511527   2.136   0.945  11.877 -0.4728  1.6033  0.7096
  781MPD2    N111528   2.109   0.846  12.443  0.1014 -0.9528  0.0980
  781MPD2    H711529   2.209   0.851  12.461  0.2930  0.9996 -1.5382
  782MPD2     C11530   0.407   1.658  10.262 -0.4749 -0.0968 -0.1083
  782MPD2    C111531   0.508   1.738  10.227 -0.1502  0.0448 -0.3488
  782MPD2    C211532   0.620   1.730  10.313  0.3652  0.4088 -0.6194
  782MPD2    C311533   0.627   1.641  10.420  0.7840  0.0717  0.0599
  782MPD2    C411534   0.528   1.550  10.442 -0.1344 -0.0976  0.9044
  782MPD2    C511535   0.418   1.565  10.360 -0.6952  0.7226 -0.0939
  782MPD2     H11536   0.705   1.796  10.299 -1.6251  3.0419 -0.3087
  782MPD2    H111537   0.535   1.466  10.510 -0.1928 -1.3809 -0.6824
  782MPD2    H211538   0.311   1.665  10.213  0.3730  1.5018 -1.5288
  782MPD2    H311539   0.348   1.482  10.370  1.4941 -1.2624 -1.1934
  782MPD2     N11540   0.739   1.647  10.511 -0.3137  0.2910  0.7300
  782MPD2    H511541   0.825   1.687  10.475 -0.8070  0.9197  0.2437
  782MPD2    N111542   0.519   1.817  10.111 -0.8156  0.0853 -0.4356
  782MPD2    H711543   0.607   1.864  10.093 -2.2566  3.0004  0.1408
  783MPD2     C11544   0.021   1.259  10.035  0.5649 -0.0358 -0.7156
  783MPD2    C111545   0.055   1.369  10.115  0.4396 -0.6567 -0.0574
  783MPD2    C211546   0.126   1.465  10.046  0.8457 -0.2373 -0.2556
  783MPD2    C311547   0.175   1.447   9.917 -0.1849 -0.0069  0.3554
  783MPD2    C411548   0.133   1.337   9.842 -0.5290 -0.4335 -0.2992
  783MPD2    C511549   0.052   1.245   9.899 -0.1821  0.0892 -0.4447
  783MPD2     H11550   0.165   1.550  10.101 -1.1823  0.8775 -0.5587
  783MPD2    H111551   0.159   1.319   9.738  0.8675 -0.3644  0.0409
  783MPD2    H211552   4.686   1.187  10.087 -1.3354  1.0923 -1.4376
  783MPD2    H311553   0.009   1.159   9.848  0.7415 -0.7375  0.1630
  783MPD2     N11554   0.265   1.540   9.865 -0.1636  0.2223 -0.1584
  783MPD2    H511555   0.290   1.618   9.926  0.0115 -1.3419  1.7502
  783MPD2    N111556   0.012   1.383  10.250 -0.0790 -0.1360  0.3175
  783MPD2    H711557   4.690   1.304  10.290 -1.1904  0.5800  0.3459
  784MPD2     C11558   1.977   2.452   0.510 -0.3254 -0.4195 -0.1723
  784MPD2    C111559   1.928   2.399   0.630  0.2646 -0.1630  0.0139
  784MPD2    C211560   1.798   2.353   0.634  0.9011 -0.3611 -0.4485
  784MPD2    C311561   1.715   2.374   0.529  0.1410  0.2147  0.0215
  784MPD2    C411562   1.759   2.425   0.411 -0.5320  0.3006  0.5497
  784MPD2    C511563   1.893   2.468   0.404 -1.0007  0.0186 -0.5474
  784MPD2     H11564   1.761   2.295   0.718 -0.3556 -0.0091 -0.7605
  784MPD2    H111565   1.690   2.436   0.327  1.0486  0.5302 -0.7149
  784MPD2    H211566   2.079   2.486   0.498 -1.2403  2.4488 -0.0203
  784MPD2    H311567   1.921   2.519   0.312 -3.2462  0.5992 -0.9070
  784MPD2     N11568   1.576   2.346   0.537  0.3892  0.0324  0.3573
  784MPD2    H511569   1.539   2.323   0.445  0.5886  1.6554 -0.1265
  784MPD2    N111570   2.006   2.381   0.744 -0.4317  0.4601 -0.4666
  784MPD2    H711571   1.958   2.348   0.828 -2.3942 -1.4202 -2.3239
  785MPD2     C11572   3.276   0.316  10.513 -0.6099 -0.0989  0.2555
  785MPD2    C111573   3.275   0.426  10.594 -0.5523  0.3169  0.3302
  785MPD2    C211574   3.256   0.400  10.729  0.7381 -0.2833  0.0661
  785MPD2    C311575   3.213   0.277  10.773  0.5019 -0.2024  0.2241
  785MPD2    C411576   3.204   0.171  10.684  0.2254 -0.7443  0.3346
  785MPD2    C511577   3.250   0.190  10.555  0.4140  0.0117 -0.6416
  785MPD2     H11578   3.263   0.478  10.805 -0.1202 -0.0187 -0.1170
  785MPD2    H111579   3.177   0.074  10.724  2.7421 -2.2269 -1.5199
  785MPD2    H211580   3.312   0.325  10.411 -2.7129 -1.8833 -0.6420
  785MPD2    H311581   3.263   0.103  10.492  0.2128 -1.1332  0.9034
  785MPD2     N11582   3.170   0.269  10.912 -0.1968  0.4790  0.5927
  785MPD2    H511583   3.188   0.347  10.974  1.0060 -0.4161  1.3476
  785MPD2    N111584   3.290   0.559  10.554  0.2245 -0.1437  0.2660
  785MPD2    H711585   3.298   0.624  10.631 -1.8809  2.0288 -1.3295
  786MPD2     C11586   0.995   3.461  14.930 -0.2350  0.0565  0.2482
  786MPD2    C111587   1.102   3.383  14.908  0.0405  0.2400 -0.0358
  786MPD2    C211588   1.200   3.385  15.002  0.0610 -0.4025  0.1163
  786MPD2    C311589   1.206   3.465  15.110  0.2087 -0.1072 -0.6287
  786MPD2    C411590   1.090   3.541  15.135  0.0782 -0.0406 -0.4911
  786MPD2    C511591   0.988   3.539  15.046  0.7263  0.2355  0.4166
  786MPD2     H11592   1.277   3.316  14.968  0.8838 -0.1456  1.4489
  786MPD2    H111593   1.085   3.592  15.231  2.2562 -0.7710  0.0003
  786MPD2    H211594   0.908   3.455  14.865 -0.8738  1.8326  0.9380
  786MPD2    H311595   0.902   3.604  15.059  0.5658  0.2725 -0.8498
  786MPD2     N11596   1.301   3.457  15.213 -1.0146 -0.0944 -0.0764
  786MPD2    H511597   1.273   3.501  15.300 -1.6968 -1.0170  0.1716
  786MPD2    N111598   1.126   3.298  14.792 -0.2478  0.0772 -0.3813
  786MPD2    H711599   1.216   3.252  14.789 -0.4343 -0.3626  0.6111
  787MPD2     C11600   1.078   2.492  14.741  0.2801  0.4940 -0.6186
  787MPD2    C111601   1.176   2.587  14.718 -0.2796 -0.2624 -0.1984
  787MPD2    C211602   1.303   2.553  14.738  0.6182  0.0524  0.2462
  787MPD2    C311603   1.334   2.422  14.782 -1.0156  0.0730  0.0742
  787MPD2    C411604   1.245   2.326  14.799 -0.2025  0.1358  0.0727
  787MPD2    C511605   1.112   2.366  14.781  0.7257  0.1325  0.5747
  787MPD2     H11606   1.389   2.613  14.711 -0.9140  1.9279 -0.4157
  787MPD2    H111607   1.268   2.226  14.832  1.1732  0.0650 -1.1159
  787MPD2    H211608   0.975   2.522  14.723  0.3539 -0.0552 -1.9787
  787MPD2    H311609   1.024   2.306  14.801  0.4751 -0.5698 -2.5772
  787MPD2     N11610   1.473   2.396  14.801 -0.0502 -0.1789  0.2529
  787MPD2    H511611   1.537   2.466  14.764  0.4083  0.2476  1.8118
  787MPD2    N111612   1.136   2.720  14.670 -0.0746  0.0701 -0.6142
  787MPD2    H711613   1.038   2.739  14.656 -0.8856 -2.7001  1.3197
  788MPD2     C11614   3.534   1.269   0.955 -0.0809  0.1167  0.2651
  788MPD2    C111615   3.410   1.250   0.896  0.4179 -0.1912  0.3888
  788MPD2    C211616   3.358   1.356   0.827  0.4013  0.0111  0.3264
  788MPD2    C311617   3.420   1.480   0.834  0.5033  0.5406 -0.4810
  788MPD2    C411618   3.536   1.497   0.898  0.4250 -0.2132  0.3714
  788MPD2    C511619   3.597   1.390   0.963  0.0466 -0.4680  0.3864
  788MPD2     H11620   3.270   1.350   0.765  2.1510 -1.6683 -2.0149
  788MPD2    H111621   3.575   1.598   0.904 -0.0754  0.0574 -0.7997
  788MPD2    H211622   3.580   1.182   1.000 -3.0227 -0.1674  2.7061
  788MPD2    H311623   3.696   1.393   1.007 -0.8009 -1.6439  2.3765
  788MPD2     N11624   3.368   1.590   0.765 -0.0861 -0.0414  0.3385
  788MPD2    H511625   3.422   1.676   0.772 -1.1856  0.6894 -0.1608
  788MPD2    N111626   3.349   1.127   0.909  0.1904  0.4763  0.3015
  788MPD2    H711627   3.402   1.045   0.936 -0.0126  0.8633  1.8310
  789MPD2     C11628   3.888   1.372  16.264  0.4330 -0.2559  0.1776
  789MPD2    C111629   3.824   1.292  16.355 -0.3750 -0.3593  0.2176
  789MPD2    C211630   3.722   1.345  16.428 -0.5115 -0.0632  1.0685
  789MPD2    C311631   3.676   1.478  16.402  0.2558 -0.1804 -1.2251
  789MPD2    C411632   3.732   1.548  16.301  0.4134 -0.2007 -0.1213
  789MPD2    C511633   3.847   1.501  16.242  0.0852  0.1095  0.2244
  789MPD2     H11634   3.675   1.288  16.507 -1.7175 -1.4473 -0.6545
  789MPD2    H111635   3.694   1.647  16.277  1.0948  0.1306  0.1744
  789MPD2    H211636   3.985   1.351  16.220 -0.0819 -0.5495 -0.8066
  789MPD2    H311637   3.909   1.571  16.187 -1.9220 -0.4403 -2.6700
  789MPD2     N11638   3.573   1.550  16.465 -0.3449 -0.2187 -0.5833
  789MPD2    H511639   3.554   1.645  16.436  1.6868  0.1516 -0.6475
  789MPD2    N111640   3.871   1.158  16.379 -0.3662 -0.2933  0.0058
  789MPD2    H711641   3.823   1.110  16.453 -0.5893  0.5417  0.4046
  790MPD2     C11642   4.571   3.358  13.668 -0.4023 -0.2345 -0.1175
  790MPD2    C111643   4.644   3.241  13.670  0.1169 -0.8404 -0.1547
  790MPD2    C211644   4.632   3.162  13.557  0.1142  0.4211  0.3730
  790MPD2    C311645   4.565   3.193  13.440 -0.5727  0.3610  0.2529
  790MPD2    C411646   4.502   3.316  13.440  0.5593  0.4188  0.0836
  790MPD2    C511647   4.496   3.384  13.559 -0.2639 -0.2250 -0.7725
  790MPD2     H11648   4.674   3.063  13.565 -1.0720 -0.3694 -2.8557
  790MPD2    H111649   4.444   3.352  13.356 -0.8483  0.5260  1.1044
  790MPD2    H211650   4.560   3.414  13.760  3.7457  0.4193 -0.0547
  790MPD2    H311651   4.428   3.469  13.563  0.3135  0.2514 -1.0611
  790MPD2     N11652   4.561   3.098  13.334  0.1273  0.3024 -0.2799
  790MPD2    H511653   4.600   3.005  13.349  0.8043  0.2507 -2.4041
  790MPD2    N111654   4.714   3.212  13.786  0.3835 -0.1017  0.1402
  790MPD2    H711655   4.711   3.284  13.858  1.7974  1.0967 -0.9837
  791MPD2     C11656   3.914   2.944  12.940  0.2910 -0.0494  0.2025
  791MPD2    C111657   4.004   2.837  12.945 -0.3920 -0.1753 -1.2006
  791MPD2    C211658   3.951   2.708  12.944 -0.2690  0.6073  0.3835
  791MPD2    C311659   3.823   2.680  12.926 -0.1715  0.5840  0.4199
  791MPD2    C411660   3.738   2.785  12.912  0.5231 -0.2679 -0.9468
  791MPD2    C511661   3.781   2.916  12.923  0.4631  0.8297 -0.2915
  791MPD2     H11662   4.024   2.630  12.961  1.5752  1.7143 -2.4454
  791MPD2    H111663   3.633   2.766  12.890  0.6889 -1.6454 -0.5218
  791MPD2    H211664   3.945   3.047  12.950  0.5376 -0.3218  2.2600
  791MPD2    H311665   3.712   2.999  12.920 -0.2598  0.2597  0.5775
  791MPD2     N11666   3.779   2.548  12.928 -0.5688  0.2559  0.1920
  791MPD2    H511667   3.848   2.475  12.944 -2.9997 -2.2040 -0.3934
  791MPD2    N111668   4.137   2.862  12.975 -0.9679 -0.3302 -0.6693
  791MPD2    H711669   4.163   2.958  12.996 -0.7557 -0.4065 -0.5750
  792MPD2     C11670   0.159   2.575  11.518  0.4652 -0.3640 -0.0606
  792MPD2    C111671   0.150   2.592  11.379  0.1789  0.5331  0.4786
  792MPD2    C211672   0.034   2.558  11.308  0.0337 -0.6707 -0.0118
  792MPD2    C311673   4.660   2.499  11.374 -0.1340  0.1602  0.3054
  792MPD2    C411674   4.666   2.497  11.516  0.7840  0.2513  0.1387
  792MPD2    C511675   0.049   2.529  11.587 -0.3338 -0.3294  0.3986
  792MPD2     H11676   0.035   2.556  11.200  0.8495 -0.7579  0.0007
  792MPD2    H111677   4.577   2.458  11.564 -0.4688  0.5479 -1.9195
  792MPD2    H211678   0.243   2.610  11.576  1.1951 -0.2291 -1.2097
  792MPD2    H311679   0.044   2.528  11.696 -0.1141 -1.3019  0.3956
  792MPD2     N11680   4.546   2.441  11.311 -0.1718  0.1378 -0.6330
  792MPD2    H511681   4.475   2.385  11.357  0.1378 -0.5956 -1.0525
  792MPD2    N111682   0.264   2.638  11.310  0.1090  0.1774  0.5367
  792MPD2    H711683   0.345   2.651  11.370  0.7378 -1.8181  0.1480
  793MPD2     C11684   4.362   2.529  10.292  0.6844 -0.1881  0.1335
  793MPD2    C111685   4.377   2.403  10.338  0.4156 -0.5130 -0.8443
  793MPD2    C211686   4.353   2.371  10.472  0.3329 -0.3788 -0.5941
  793MPD2    C311687   4.310   2.472  10.556  0.4027  0.2009  0.3676
  793MPD2    C411688   4.292   2.601  10.510  0.1476  0.3885 -0.9545
  793MPD2    C511689   4.310   2.623  10.376 -0.1056  0.0550  0.0284
  793MPD2     H11690   4.370   2.273  10.516 -0.2306 -0.7756 -1.2610
  793MPD2    H111691   4.252   2.676  10.578  1.7601 -0.3328  0.7752
  793MPD2    H211692   4.392   2.566  10.195 -0.3619 -1.8665 -0.8264
  793MPD2    H311693   4.280   2.720  10.339 -0.6029  0.0797  0.4971
  793MPD2     N11694   4.312   2.432  10.698 -0.6154 -0.2889 -0.8349
  793MPD2    H511695   4.335   2.336  10.721  2.7882  1.0099  1.2425
  793MPD2    N111696   4.427   2.305  10.248 -0.7380 -0.2486  0.4212
  793MPD2    H711697   4.447   2.333  10.152 -1.4751  0.5750  0.5063
  794MPD2     C11698   0.200   2.522   0.251  0.3561  0.1197 -0.4447
  794MPD2    C111699   0.093   2.446   0.216 -0.2540 -0.8594  0.0029
  794MPD2    C211700   4.716   2.500   0.151  0.0635 -0.4297 -0.4077
  794MPD2    C311701   4.705   2.636   0.123 -0.2987 -0.0602 -0.2594
  794MPD2    C411702   0.075   2.718   0.177  0.4104  0.1614  0.1192
  794MPD2    C511703   0.193   2.659   0.227  0.4266  0.0484 -0.7189
  794MPD2     H11704   4.638   2.429   0.126  0.8706 -1.5877  0.3699
  794MPD2    H111705   0.082   2.819   0.140  2.1169 -0.4599 -1.2581
  794MPD2    H211706   0.286   2.487   0.307 -1.1034 -2.3110  0.3126
  794MPD2    H311707   0.268   2.735   0.244 -0.3309  0.9263 -1.3387
  794MPD2     N11708   4.600   2.691   0.048 -0.4630 -0.3938 -0.3694
  794MPD2    H511709   4.613   2.788   0.020 -1.8357 -0.2368 -0.4665
  794MPD2    N111710   0.096   2.307   0.248 -0.1370 -0.3925  0.1188
  794MPD2    H711711   0.018   2.250   0.217 -0.5428  0.2506 -0.0568
  795MPD2     C11712   2.174   4.652  13.670  0.2709  0.2448  0.0366
  795MPD2    C111713   2.131   4.534  13.610 -1.0411  0.1991 -0.3307
  795MPD2    C211714   2.217   4.431  13.588 -0.0218 -0.1758 -0.0283
  795MPD2    C311715   2.353   4.446  13.622  0.5165 -0.3139 -0.1637
  795MPD2    C411716   2.395   4.562  13.679  0.5878  0.5364  0.2970
  795MPD2    C511717   2.305   4.659  13.707 -0.6905  0.2638  0.0775
  795MPD2     H11718   2.175   4.345  13.538 -2.6221  0.2214  1.5037
  795MPD2    H111719   2.498   4.585  13.702  1.0848  0.3863 -1.7447
  795MPD2    H211720   2.096   4.722  13.701 -0.3831 -0.0229 -1.0074
  795MPD2    H311721   2.347   0.016  13.762 -3.4208  1.5885  0.1060
  795MPD2     N11722   2.438   4.335  13.585  0.4755 -0.0478  0.7981
  795MPD2    H511723   2.390   4.260  13.535 -2.9373  0.8289  2.7647
  795MPD2    N111724   2.000   4.520  13.567 -0.0639 -0.3451  0.1067
  795MPD2    H711725   1.978   4.425  13.537  2.3428 -0.6267 -0.7985
  796MPD2     C11726   1.686   1.376  15.716  0.1423 -0.1900  0.6095
  796MPD2    C111727   1.715   1.385  15.850  0.5747  0.3059  0.1680
  796MPD2    C211728   1.705   1.511  15.913  0.0049  0.7957 -0.0179
  796MPD2    C311729   1.669   1.620  15.841  0.5651  0.0625 -0.3473
  796MPD2    C411730   1.629   1.605  15.711 -0.4610 -0.3180 -0.3391
  796MPD2    C511731   1.656   1.490  15.647  0.0850 -0.6453 -0.5775
  796MPD2     H11732   1.724   1.523  16.019  0.2732 -0.5668  0.0819
  796MPD2    H111733   1.591   1.687  15.650 -1.3953 -1.2244 -0.9714
  796MPD2    H211734   1.696   1.282  15.664 -0.0994 -0.4038  0.9495
  796MPD2    H311735   1.628   1.476  15.543 -1.4613 -1.6612 -0.0280
  796MPD2     N11736   1.661   1.743  15.916 -0.1455  0.7273 -0.0491
  796MPD2    H511737   1.726   1.757  15.992 -1.6290  0.3432  1.2884
  796MPD2    N111738   1.746   1.268  15.920 -0.4201  0.1225  0.4743
  796MPD2    H711739   1.732   1.181  15.870  0.5789  0.8898 -1.1227
  797MPD2     C11740   2.387   0.468  17.512  0.2845  0.1443  0.1017
  797MPD2    C111741   2.473   0.579  17.499 -0.3603 -0.1151 -0.5963
  797MPD2    C211742   2.426   0.679  17.423 -0.0574 -0.6051  0.0591
  797MPD2    C311743   2.302   0.684  17.359 -0.7187  0.0724 -0.7455
  797MPD2    C411744   2.226   0.569  17.364  0.4106 -0.5258 -0.2126
  797MPD2    C511745   2.271   0.461  17.445 -0.5376  0.2922 -0.9240
  797MPD2     H11746   2.483   0.771  17.413 -0.3924 -0.5158 -1.1456
  797MPD2    H111747   2.131   0.572  17.313 -0.1083  0.0927  0.7866
  797MPD2    H211748   2.416   0.378  17.564  0.9075  0.6756  0.6705
  797MPD2    H311749   2.221   0.365  17.456 -0.5658  0.3068 -0.9264
  797MPD2     N11750   2.272   0.802  17.289 -0.2880 -0.0862 -0.6373
  797MPD2    H511751   2.342   0.874  17.305 -0.1567 -0.0573 -1.3504
  797MPD2    N111752   2.601   0.594  17.556 -0.5245 -0.1161 -0.6673
  797MPD2    H711753   2.653   0.673  17.520 -2.7978  1.1926 -1.1157
  798MPD2     C11754   2.744   1.311  17.373  0.1852 -0.8465  0.0846
  798MPD2    C111755   2.668   1.197  17.357  0.0446 -0.3303 -0.0496
  798MPD2    C211756   2.706   1.091  17.435 -0.2552 -0.0157 -0.3554
  798MPD2    C311757   2.806   1.093  17.527  0.4210  0.6404  0.2746
  798MPD2    C411758   2.881   1.208  17.547  0.9306 -0.7315 -0.2883
  798MPD2    C511759   2.853   1.315  17.459 -0.5754  0.2046 -0.8710
  798MPD2     H11760   2.652   1.000  17.412 -0.9043  0.6432 -1.4322
  798MPD2    H111761   2.960   1.215  17.621  1.3444  2.0564 -0.9950
  798MPD2    H211762   2.712   1.408  17.339  0.5822 -0.5231  0.6437
  798MPD2    H311763   2.902   1.408  17.484  3.4450 -1.6961 -1.6605
  798MPD2     N11764   2.821   0.975  17.596  0.4587  0.0053  0.0399
  798MPD2    H511765   2.763   0.898  17.566  0.7369  0.1024 -0.7488
  798MPD2    N111766   2.554   1.198  17.276 -0.3886  0.7126 -0.1737
  798MPD2    H711767   2.547   1.271  17.206 -1.7264  1.0733  0.3322
  799MPD2     C11768   1.295   2.724  14.226 -0.5423 -0.3181  0.6941
  799MPD2    C111769   1.243   2.604  14.190  0.6481  0.8344  0.7533
  799MPD2    C211770   1.160   2.588  14.084 -0.0593  0.3872  0.0133
  799MPD2    C311771   1.122   2.700  14.010 -0.1255  0.9146  0.0941
  799MPD2    C411772   1.166   2.825  14.054  0.8295 -0.5012 -0.4397
  799MPD2    C511773   1.248   2.837  14.160 -0.3215  0.1256 -0.5099
  799MPD2     H11774   1.131   2.487  14.059 -1.9124  0.6445  1.1268
  799MPD2    H111775   1.141   2.911  13.993 -0.6433  0.8946  2.0895
  799MPD2    H211776   1.350   2.731  14.319  0.4810  2.4655 -0.1273
  799MPD2    H311777   1.283   2.930  14.203 -0.2738  0.5333 -1.4227
  799MPD2     N11778   1.055   2.696  13.884 -0.2021 -0.8722  0.0038
  799MPD2    H511779   1.052   2.785  13.836  0.2512 -1.0250 -0.3110
  799MPD2    N111780   1.265   2.486  14.271  0.0619  0.0862 -0.0334
  799MPD2    H711781   1.207   2.404  14.258  0.2407 -0.2721  1.3538
  800MPD2     C11782   1.835   3.815  13.846  0.7191  0.7189  0.4653
  800MPD2    C111783   1.937   3.838  13.758  0.3327  0.2593 -0.0049
  800MPD2    C211784   1.943   3.748  13.653  0.0835  0.0476 -0.4914
  800MPD2    C311785   1.876   3.630  13.642 -0.6266  0.2473 -0.1995
  800MPD2    C411786   1.774   3.611  13.731  0.2694  0.4238 -0.1675
  800MPD2    C511787   1.756   3.710  13.833 -0.4012 -1.0419 -0.0344
  800MPD2     H11788   2.011   3.769  13.572 -0.3317 -2.1181 -1.4111
  800MPD2    H111789   1.723   3.515  13.730 -0.8083  0.9954  0.4345
  800MPD2    H211790   1.813   3.881  13.929 -0.1011  1.4596 -0.3396
  800MPD2    H311791   1.680   3.685  13.905 -0.9629  4.2671  1.2595
  800MPD2     N11792   1.909   3.536  13.539  0.0525  0.0970 -0.6173
  800MPD2    H511793   1.988   3.568  13.484  1.7703 -0.6624  1.4423
  800MPD2    N111794   2.029   3.939  13.785 -0.2864 -0.5186  0.2019
  800MPD2    H711795   2.018   3.995  13.869 -0.8040 -1.5847  0.8448
  801MPD2     C11796   2.443   4.576  14.176 -0.4502 -0.3849 -0.2056
  801MPD2    C111797   2.335   4.492  14.164  0.6715  0.1285 -0.0539
  801MPD2    C211798   2.244   4.492  14.266 -0.0516  0.2700  0.3964
  801MPD2    C311799   2.256   4.579  14.378  0.5271 -0.4557 -0.0204
  801MPD2    C411800   2.370   4.660  14.381  0.0014 -0.7752 -0.6114
  801MPD2    C511801   2.458   4.668  14.276 -0.1593 -0.4459  0.2833
  801MPD2     H11802   2.164   4.419  14.263 -0.9427  1.3639 -2.5879
  801MPD2    H111803   2.389   4.720  14.470  2.1513 -1.9989 -0.2547
  801MPD2    H211804   2.518   4.578  14.097 -0.5429 -0.1371 -0.2879
  801MPD2    H311805   2.543   0.001  14.305 -0.6684  0.2559  0.2870
  801MPD2     N11806   2.155   4.584  14.481  0.1299  0.5817  0.2391
  801MPD2    H511807   2.165   4.655  14.552  2.5286  0.9642 -0.4674
  801MPD2    N111808   2.344   4.409  14.042 -0.5052 -0.2366 -0.0937
  801MPD2    H711809   2.421   4.419  13.976  1.2084 -0.0095  1.9044
  802MPD2     C11810   1.106   3.578   0.228 -0.5854  0.5945  0.5907
  802MPD2    C111811   1.133   3.698   0.165  0.1983  0.1772  0.5566
  802MPD2    C211812   1.179   3.698   0.036 -0.1083 -0.1323  0.2542
  802MPD2    C311813   1.185   3.584  17.672  0.2324  0.3871 -0.2660
  802MPD2    C411814   1.160   3.460   0.019  0.0958  0.5983  0.3537
  802MPD2    C511815   1.128   3.465   0.154  0.0391  0.0087  0.0901
  802MPD2     H11816   1.198   3.793  17.699 -1.6022 -0.8671 -1.7727
  802MPD2    H111817   1.161   3.366  17.676 -1.2439  0.1116  1.1762
  802MPD2    H211818   1.107   3.561   0.335 -0.7764  0.4390  0.5674
  802MPD2    H311819   1.105   3.373   0.208  0.0309 -0.1845 -0.2444
  802MPD2     N11820   1.218   3.599  17.534 -0.5200 -0.0621  0.1732
  802MPD2    H511821   1.240   3.695  17.508  0.7208 -0.4672 -0.2377
  802MPD2    N111822   1.131   3.825   0.229 -1.1784 -0.2320  0.7747
  802MPD2    H711823   1.166   3.904   0.175 -1.0361 -0.4369  0.5719
  803MPD2     C11824   2.696   2.630  12.394 -1.0176  0.3264 -0.5462
  803MPD2    C111825   2.792   2.593  12.487 -0.2312 -0.6993 -0.0484
  803MPD2    C211826   2.782   2.471  12.560  0.1930  0.1450  0.4916
  803MPD2    C311827   2.672   2.392  12.548  0.0027  0.1662  0.0195
  803MPD2    C411828   2.572   2.435  12.464  0.3738 -0.1789  0.4830
  803MPD2    C511829   2.589   2.548  12.386  0.0472 -0.4230 -0.5786
  803MPD2     H11830   2.869   2.456  12.624  0.3017 -1.7587 -0.1185
  803MPD2    H111831   2.476   2.385  12.459  0.2670  0.3415 -2.4171
  803MPD2    H211832   2.700   2.721  12.335  0.0500  1.6042  1.4823
  803MPD2    H311833   2.514   2.565  12.309  1.6181  0.8001 -1.8280
  803MPD2     N11834   2.646   2.272  12.619  0.2008  0.3674 -0.4135
  803MPD2    H511835   2.547   2.249  12.614  0.4071 -0.5134 -0.5088
  803MPD2    N111836   2.911   2.664  12.512 -0.2399  0.1734 -0.3202
  803MPD2    H711837   2.985   2.630  12.573  0.6994 -0.9618 -2.0975
  804MPD2     C11838   1.897   4.239  17.090 -0.6618  0.0249 -0.1201
  804MPD2    C111839   1.910   4.119  17.159  0.0380  0.7098  0.2867
  804MPD2    C211840   2.030   4.099  17.230  0.0180 -0.3074  0.5223
  804MPD2    C311841   2.135   4.178  17.217  0.6084  0.2852  0.3821
  804MPD2    C411842   2.124   4.294  17.133 -0.8238  0.5890  0.3881
  804MPD2    C511843   2.003   4.329  17.073 -0.1154  0.1320  0.6054
  804MPD2     H11844   2.039   4.007  17.286 -1.2211  0.4608  1.9758
  804MPD2    H111845   2.211   4.359  17.127  0.7471 -1.6781 -1.4130
  804MPD2    H211846   1.805   4.258  17.035 -1.0977  0.7834  0.8862
  804MPD2    H311847   1.994   4.419  17.014 -0.2206  0.2142  0.7474
  804MPD2     N11848   2.242   4.138  17.297  0.3287 -0.4412 -0.2556
  804MPD2    H511849   2.239   4.049  17.345 -0.3883 -0.5254 -0.4721
  804MPD2    N111850   1.810   4.014  17.153  0.7390  0.5570 -0.0017
  804MPD2    H711851   1.835   3.928  17.199  1.9909  0.7633 -0.2698
  805MPD2     C11852   1.082   2.366  15.787  0.2932 -0.2079 -0.7780
  805MPD2    C111853   1.114   2.497  15.777  0.4312 -0.1291 -0.3060
  805MPD2    C211854   1.239   2.534  15.812  0.0128  0.2706 -0.2666
  805MPD2    C311855   1.339   2.449  15.863  0.0125 -0.0069  0.9824
  805MPD2    C411856   1.309   2.315  15.883 -0.0372 -0.8493 -0.8016
  805MPD2    C511857   1.176   2.281  15.850 -0.1617 -0.4672 -0.5955
  805MPD2     H11858   1.266   2.633  15.776 -0.1572  0.4653  0.1482
  805MPD2    H111859   1.375   2.234  15.911  1.8012  0.9368  0.0207
  805MPD2    H211860   0.991   2.318  15.752  1.4831 -2.2710 -1.0032
  805MPD2    H311861   1.149   2.176  15.859 -0.4355 -0.1915  1.7888
  805MPD2     N11862   1.466   2.509  15.878 -0.0202  0.3846  0.0793
  805MPD2    H511863   1.481   2.605  15.849 -0.5075  0.3815 -0.1785
  805MPD2    N111864   1.034   2.583  15.703 -0.1125 -0.0028 -0.3194
  805MPD2    H711865   1.069   2.675  15.680 -0.8438  0.5069  0.6337
  806MPD2     C11866   1.408   1.671   0.233 -0.1404 -0.0920  0.3816
  806MPD2    C111867   1.473   1.791   0.262  0.2128 -0.0706  0.4106
  806MPD2    C211868   1.544   1.850   0.154  0.3080 -0.7810 -0.0634
  806MPD2    C311869   1.559   1.783   0.030 -0.1935 -0.2380  0.8195
  806MPD2    C411870   1.504   1.657   0.010  0.4773  0.8261  0.0264
  806MPD2    C511871   1.435   1.596   0.120 -0.6381 -0.1969  0.3161
  806MPD2     H11872   1.574   1.954   0.159  1.7261 -1.2135  0.6931
  806MPD2    H111873   1.514   1.605  17.626 -1.0641 -0.4561  0.5756
  806MPD2    H211874   1.344   1.627   0.309  1.8896 -0.0156  2.1515
  806MPD2    H311875   1.388   1.499   0.104 -0.8038  0.0899 -1.0138
  806MPD2     N11876   1.627   1.850  17.638 -0.0467  0.2923 -0.7516
  806MPD2    H511877   1.665   1.942  17.658 -1.8650  0.5118  1.7755
  806MPD2    N111878   1.469   1.839   0.394  0.2305  0.0872  0.1407
  806MPD2    H711879   1.404   1.797   0.460  0.5030 -1.4735 -0.5809
  807MPD2     C11880   1.222   1.668   1.085  0.2056 -1.0362  0.3781
  807MPD2    C111881   1.346   1.640   1.032 -0.1922  0.4698 -0.2175
  807MPD2    C211882   1.418   1.531   1.082 -0.5839  0.2437  0.8577
  807MPD2    C311883   1.366   1.450   1.188  0.0552  0.6687  0.5363
  807MPD2    C411884   1.250   1.488   1.246  0.3931 -0.4884 -0.0611
  807MPD2    C511885   1.179   1.599   1.194 -0.5486 -0.3791  0.5939
  807MPD2     H11886   1.513   1.509   1.035  0.7748  1.8902  2.8318
  807MPD2    H111887   1.208   1.443   1.335 -1.7149 -2.1064 -1.8944
  807MPD2    H211888   1.166   1.754   1.051  0.8030 -1.3324 -1.3847
  807MPD2    H311889   1.082   1.630   1.232 -0.8257 -1.7042  0.9562
  807MPD2     N11890   1.447   1.352   1.245 -0.5934  0.9220 -0.2008
  807MPD2    H511891   1.542   1.348   1.211 -1.2731  0.0312 -2.0098
  807MPD2    N111892   1.403   1.724   0.932 -0.2674 -1.0959 -0.0584
  807MPD2    H711893   1.501   1.705   0.915  0.3276 -0.3338  2.4019
  808MPD2     C11894   2.603   3.467   9.549  0.2111  0.4758  0.7736
  808MPD2    C111895   2.664   3.390   9.645  0.2453  0.3649  0.0302
  808MPD2    C211896   2.778   3.429   9.704  0.0116  0.4505  0.0451
  808MPD2    C311897   2.849   3.537   9.662  0.6993 -0.7136 -0.1493
  808MPD2    C411898   2.790   3.613   9.562 -0.3507 -0.2673  0.1961
  808MPD2    C511899   2.676   3.571   9.504 -0.6117 -0.5658  0.0144
  808MPD2     H11900   2.819   3.365   9.781  0.6826 -0.1520 -0.8198
  808MPD2    H111901   2.847   3.695   9.520  0.7875 -2.4368 -2.4752
  808MPD2    H211902   2.516   3.441   9.490 -0.3760  1.2406  1.3014
  808MPD2    H311903   2.647   3.621   9.412  2.2470  0.0035 -0.5856
  808MPD2     N11904   2.968   3.584   9.717 -0.1513  0.3545 -0.5062
  808MPD2    H511905   3.013   3.663   9.671  0.6711 -0.7480 -1.5748
  808MPD2    N111906   2.598   3.277   9.705 -0.6506  0.0122  0.3727
  808MPD2    H711907   2.654   3.235   9.779 -0.5071 -0.7430 -0.1690
  809MPD2     C11908   3.444   3.787   9.081 -0.7233 -0.3514  0.1632
  809MPD2    C111909   3.541   3.722   9.161 -0.1542  0.3519  0.2741
  809MPD2    C211910   3.519   3.707   9.299 -0.1264 -0.7800 -0.5294
  809MPD2    C311911   3.398   3.757   9.346  0.3240  0.1720  0.2613
  809MPD2    C411912   3.301   3.809   9.268  0.2908 -0.0134  0.0484
  809MPD2    C511913   3.327   3.830   9.135 -0.3862  0.5965  0.5879
  809MPD2     H11914   3.598   3.655   9.353  1.0327  1.1169 -0.3924
  809MPD2    H111915   3.204   3.842   9.304 -0.2408 -0.9887 -0.4942
  809MPD2    H211916   3.458   3.818   8.978  1.7975 -1.5817  0.1348
  809MPD2    H311917   3.250   3.880   9.078  0.5093  1.1059 -0.1603
  809MPD2     N11918   3.354   3.730   9.480  0.2036  1.0155 -0.1742
  809MPD2    H511919   3.258   3.748   9.508  0.1313 -1.7724  1.4829
  809MPD2    N111920   3.649   3.646   9.102  0.5936  0.1565 -0.1291
  809MPD2    H711921   3.734   3.634   9.156  0.0944  0.5580  0.7534
  810MPD2     C11922   2.369   1.934  10.805  0.2756  0.4523  0.2568
  810MPD2    C111923   2.346   2.044  10.727  0.3632 -0.0810 -0.1265
  810MPD2    C211924   2.417   2.161  10.746  0.0998  0.0666  0.1451
  810MPD2    C311925   2.514   2.160  10.848  0.2159  0.2912  0.2047
  810MPD2    C411926   2.551   2.045  10.910 -0.2119 -0.0313  0.4299
  810MPD2    C511927   2.470   1.936  10.896 -0.0720  0.5141  0.3039
  810MPD2     H11928   2.394   2.250  10.688  2.0334  1.8126  2.0516
  810MPD2    H111929   2.627   2.038  10.987  0.6628 -0.1014 -0.4419
  810MPD2    H211930   2.315   1.841  10.792 -3.0900  1.9150  3.7528
  810MPD2    H311931   2.491   1.847  10.953  1.8317  0.7487 -0.0243
  810MPD2     N11932   2.587   2.276  10.887 -0.2240 -0.3501 -0.4383
  810MPD2    H511933   2.674   2.264  10.938 -0.2335  0.6867 -0.1790
  810MPD2    N111934   2.237   2.025  10.638 -0.5409 -0.0410  0.0256
  810MPD2    H711935   2.170   1.954  10.667 -0.2968  0.5620  2.0914
  811MPD2     C11936   1.588   2.285  10.072 -0.0235  0.1470 -0.0869
  811MPD2    C111937   1.662   2.354  10.163  0.2465 -0.7540 -0.1512
  811MPD2    C211938   1.664   2.495  10.155  0.7860  0.6460  0.2972
  811MPD2    C311939   1.600   2.561  10.058 -0.3696  0.6860  0.3083
  811MPD2    C411940   1.535   2.490   9.957  0.6810  0.3397  0.6723
  811MPD2    C511941   1.528   2.353   9.968  0.1850 -0.5113  0.2406
  811MPD2     H11942   1.734   2.541  10.224 -0.3656 -1.9167  3.1361
  811MPD2    H111943   1.484   2.547   9.880 -0.5408  0.8337  1.8463
  811MPD2    H211944   1.588   2.177  10.065  0.7352 -0.0367  3.0420
  811MPD2    H311945   1.483   2.297   9.886 -2.0179 -3.3114  3.3602
  811MPD2     N11946   1.602   2.702  10.058 -0.3367  0.1164 -0.0806
  811MPD2    H511947   1.666   2.745  10.124  0.4324 -0.1841 -0.6246
  811MPD2    N111948   1.748   2.280  10.239  0.5764  0.3278 -0.3011
  811MPD2    H711949   1.728   2.181  10.251  1.9239 -0.0657 -1.3816
  812MPD2     C11950   0.601   2.373  12.556 -0.2891  1.3892 -0.1570
  812MPD2    C111951   0.496   2.451  12.584 -0.2094 -0.5154 -0.6258
  812MPD2    C211952   0.405   2.414  12.673  0.5589 -0.2594  0.1714
  812MPD2    C311953   0.422   2.298  12.750  0.9841  0.0429  0.5047
  812MPD2    C411954   0.526   2.217  12.723 -0.0913  0.1768 -0.2907
  812MPD2    C511955   0.612   2.251  12.621 -0.2003 -0.3110 -0.5601
  812MPD2     H11956   0.320   2.477  12.698 -0.5213 -2.6382  2.5008
  812MPD2    H111957   0.550   2.132  12.786  1.7446  0.5826 -0.4323
  812MPD2    H211958   0.664   2.396  12.471 -0.7908 -0.2169 -0.9639
  812MPD2    H311959   0.698   2.185  12.615  0.8262  0.9457  0.1725
  812MPD2     N11960   0.325   2.272  12.852 -0.7392 -0.1395 -0.1783
  812MPD2    H511961   0.255   2.342  12.878  0.4164  0.4035  1.4467
  812MPD2    N111962   0.503   2.572  12.513 -0.3177  0.6722 -0.1788
  812MPD2    H711963   0.584   2.582  12.453  0.2099 -1.2181  0.2265
  813MPD2     C11964   3.712   4.507  12.945  0.2434  0.1204 -0.0035
  813MPD2    C111965   3.792   4.613  12.947 -0.2184 -0.4640  0.7128
  813MPD2    C211966   3.810   4.678  13.074 -0.1521  0.1102 -0.1178
  813MPD2    C311967   3.760   4.631  13.192 -0.0277 -0.0330 -0.1841
  813MPD2    C411968   3.682   4.522  13.189 -0.0110  0.0020 -0.3150
  813MPD2    C511969   3.665   4.454  13.067  0.9444  0.0007  0.2318
  813MPD2     H11970   3.868   0.042  13.076  0.2864 -0.2480  2.6252
  813MPD2    H111971   3.650   4.469  13.278  1.5480 -2.1836 -1.0418
  813MPD2    H211972   3.696   4.447  12.856  1.5742 -1.2239  0.6583
  813MPD2    H311973   3.617   4.357  13.066 -0.4801  0.7031  1.0915
  813MPD2     N11974   3.799   4.691  13.308  0.0273 -0.1761  0.4063
  813MPD2    H511975   3.874   0.031  13.294 -1.0390  0.7391 -0.7643
  813MPD2    N111976   3.871   4.655  12.835  0.4107 -0.6410 -0.1497
  813MPD2    H711977   3.883   4.590  12.758 -1.0334  0.0587 -0.9694
  814MPD2     C11978   0.324   1.377  12.389 -0.1030  0.0091  0.6348
  814MPD2    C111979   0.337   1.418  12.260  0.7417  0.1577  1.0067
  814MPD2    C211980   0.429   1.517  12.234  0.2290 -0.9249  0.0844
  814MPD2    C311981   0.508   1.570  12.333  0.5334  0.1789  0.0496
  814MPD2    C411982   0.502   1.518  12.460 -0.0642  0.1803  0.2732
  814MPD2    C511983   0.405   1.425  12.493 -0.3757 -0.2337 -0.0734
  814MPD2     H11984   0.438   1.546  12.130 -0.6416 -0.2413  0.2028
  814MPD2    H111985   0.580   1.543  12.531  2.4273  0.6662 -2.6238
  814MPD2    H211986   0.247   1.306  12.418 -1.0413  1.0857  0.7840
  814MPD2    H311987   0.407   1.382  12.593 -1.8561  0.7609  0.3877
  814MPD2     N11988   0.615   1.658  12.308 -0.4269 -0.0796  0.0809
  814MPD2    H511989   0.669   1.685  12.390  1.4331  0.2486 -1.2479
  814MPD2    N111990   0.264   1.368  12.154 -0.8959 -0.4689  0.0380
  814MPD2    H711991   0.271   1.421  12.068  0.5354 -0.3565  0.2375
  815MPD2     C11992   0.918   4.456  11.730  0.9050 -0.3587 -0.0248
  815MPD2    C111993   0.856   4.343  11.694 -0.1484  0.3876  0.0982
  815MPD2    C211994   0.750   4.289  11.767 -0.5783 -0.1202  1.1976
  815MPD2    C311995   0.701   4.352  11.882 -0.8286  0.0982  0.3981
  815MPD2    C411996   0.763   4.468  11.913 -0.1983 -0.1724  0.2282
  815MPD2    C511997   0.867   4.521  11.845  0.2269  0.2443 -1.1890
  815MPD2     H11998   0.704   4.194  11.742  0.0058  0.6301 -2.8228
  815MPD2    H111999   0.725   4.512  12.004  0.5451 -2.6405  1.7206
  815MPD2    H212000   1.011   4.486  11.683  1.5830 -1.7621  0.4287
  815MPD2    H312001   0.907   4.615  11.883  1.8471 -1.8696  2.4057
  815MPD2     N12002   0.601   4.298  11.953 -0.4629  0.2970 -0.5764
  815MPD2    H512003   0.559   4.216  11.911 -0.1953 -0.8260  1.3376
  815MPD2    N112004   0.899   4.292  11.566 -0.4349 -0.8083 -0.5335
  815MPD2    H712005   0.991   4.318  11.533  0.6989 -1.5873  1.9483
  816MPD2     C12006   4.709   3.512  17.049 -0.8593  0.4226  0.6313
  816MPD2    C112007   0.069   3.620  17.054  0.3103  0.5443 -0.0854
  816MPD2    C212008   0.199   3.608  17.016 -0.3507  0.5497  0.2475
  816MPD2    C312009   0.244   3.487  16.975  0.2826  0.0416 -0.0258
  816MPD2    C412010   0.173   3.370  16.984  0.4749  0.7219 -0.1317
  816MPD2    C512011   0.041   3.392  17.023  0.4150 -0.4221  0.3435
  816MPD2     H12012   0.265   3.694  17.014  1.7586 -1.1113 -2.9357
  816MPD2    H112013   0.203   3.267  16.967 -0.9443  0.2176  0.4044
  816MPD2    H212014   4.604   3.514  17.078 -1.3884  1.9574 -1.4125
  816MPD2    H312015   4.702   3.306  17.030 -1.5493  1.0288 -0.6623
  816MPD2     N12016   0.377   3.483  16.925  0.1546 -0.5101 -0.2631
  816MPD2    H512017   0.422   3.574  16.922 -1.3947  0.3131  1.2357
  816MPD2    N112018   0.013   3.736  17.103 -0.5275 -0.2555  1.4624
  816MPD2    H712019   4.639   3.742  17.110 -0.6012  0.4237 -0.0796
  817MPD2     C12020   0.345   4.546   9.622 -0.1305  0.1834  0.6757
  817MPD2    C112021   0.302   4.486   9.503 -0.1068  0.2433  0.3262
  817MPD2    C212022   0.185   4.539   9.441 -0.1205 -0.3476 -0.3924
  817MPD2    C312023   0.130   4.661   9.484  0.2532  0.5718 -0.1462
  817MPD2    C412024   0.178   4.713   9.603  0.4787 -0.6002  0.9184
  817MPD2    C512025   0.282   4.653   9.668 -0.5636 -0.7132  0.1204
  817MPD2     H12026   0.144   4.496   9.351  3.6150  0.2628 -2.4245
  817MPD2    H112027   0.124   0.063   9.656  0.8064 -0.4448  1.0246
  817MPD2    H212028   0.425   4.509   9.684  0.1876 -0.6309 -0.2180
  817MPD2    H312029   0.304   4.689   9.768  1.8318  1.4063 -1.1580
  817MPD2     N12030   0.009   4.705   9.419 -0.1986 -0.0089 -0.2436
  817MPD2    H512031   4.704   4.642   9.346 -0.2905 -0.2762  0.0311
  817MPD2    N112032   0.364   4.373   9.440 -0.3428  0.0164  0.1501
  817MPD2    H712033   0.329   4.336   9.353  0.8109 -0.2006 -0.2276
  818MPD2     C12034   3.596   0.147   9.922  0.0288 -0.1402  0.2091
  818MPD2    C112035   3.669   0.095  10.031 -0.4362 -0.0616  0.7838
  818MPD2    C212036   3.769   0.004  10.008 -1.2613 -0.3356  0.3602
  818MPD2    C312037   3.809   4.688   9.887 -0.3766  0.9304  1.1647
  818MPD2    C412038   3.725   0.004   9.778  0.0237  0.0687  0.0841
  818MPD2    C512039   3.628   0.098   9.799 -0.0976  1.1969 -0.1629
  818MPD2     H12040   3.822   4.686  10.091  0.0859  0.4699 -0.0483
  818MPD2    H112041   3.744   4.694   9.678 -0.3535 -1.0255  0.4243
  818MPD2    H212042   3.512   0.217   9.925 -0.0341 -0.2457  1.0631
  818MPD2    H312043   3.572   0.130   9.712 -1.0321  0.3229  0.1187
  818MPD2     N12044   3.911   4.592   9.871 -0.3019 -0.3106 -0.0308
  818MPD2    H512045   3.909   4.534   9.788  0.1878  0.0682 -0.3087
  818MPD2    N112046   3.639   0.138  10.165  0.3446 -0.2230 -0.1724
  818MPD2    H712047   3.669   0.087  10.247  1.8548 -0.6996 -1.0188
  819MPD2     C12048   2.000   2.480  15.716  0.6270 -0.9411 -0.9272
  819MPD2    C112049   1.970   2.348  15.711 -0.3363 -0.6011 -0.6469
  819MPD2    C212050   2.064   2.248  15.743 -0.2556 -0.1064 -0.0421
  819MPD2    C312051   2.171   2.287  15.817 -0.4311  0.5480 -0.1656
  819MPD2    C412052   2.203   2.421  15.823  0.2382 -0.4036 -0.0965
  819MPD2    C512053   2.123   2.516  15.763  0.5384 -0.1986 -0.2464
  819MPD2     H12054   2.040   2.142  15.732  2.7481 -0.7103 -0.7822
  819MPD2    H112055   2.298   2.458  15.862  1.0701 -0.3639 -2.1885
  819MPD2    H212056   1.931   2.546  15.664  0.5435  0.1035  0.5148
  819MPD2    H312057   2.150   2.621  15.763 -1.2821  0.2761 -1.2232
  819MPD2     N12058   2.262   2.185  15.864  0.2790 -0.1733  0.1781
  819MPD2    H512059   2.237   2.090  15.842  1.3515 -0.7259  1.3444
  819MPD2    N112060   1.838   2.311  15.678 -0.2263  0.5325 -0.9588
  819MPD2    H712061   1.781   2.383  15.635 -1.9472 -0.4758 -0.4106
  820MPD2     C12062   1.148   2.722  15.194 -0.2926 -0.1836 -0.1328
  820MPD2    C112063   1.173   2.748  15.329 -0.3201  0.5945 -0.7168
  820MPD2    C212064   1.228   2.641  15.398 -0.2495 -0.1832 -0.6754
  820MPD2    C312065   1.254   2.520  15.340  0.3348  0.6240  0.1771
  820MPD2    C412066   1.224   2.499  15.206 -0.2116  0.4650 -1.0189
  820MPD2    C512067   1.176   2.601  15.132 -0.3716  0.1994 -0.0233
  820MPD2     H12068   1.249   2.657  15.503  0.0802 -0.2571 -0.7283
  820MPD2    H112069   1.240   2.404  15.155  1.2217  0.3409 -0.3336
  820MPD2    H212070   1.102   2.800  15.135  2.0381  2.5023  1.5852
  820MPD2    H312071   1.140   2.573  15.033  0.4320 -1.2393  0.1045
  820MPD2     N12072   1.326   2.422  15.405 -0.5386 -0.1898  0.8129
  820MPD2    H512073   1.339   2.330  15.363  2.8750  1.1174 -0.9339
  820MPD2    N112074   1.110   2.862  15.391 -0.1210  0.3934  0.5106
  820MPD2    H712075   1.045   2.918  15.337 -0.1338 -2.8664 -2.8778
  821MPD2     C12076   1.724   3.218  12.927  0.8224 -0.1184  0.4737
  821MPD2    C112077   1.825   3.202  13.021 -0.0297  0.9834 -0.8515
  821MPD2    C212078   1.927   3.298  13.018 -0.3810 -0.6732 -0.3856
  821MPD2    C312079   1.936   3.393  12.918  0.3197  0.2404  0.1232
  821MPD2    C412080   1.844   3.395  12.815  0.0846  0.4853 -0.1429
  821MPD2    C512081   1.739   3.302  12.826  0.0209 -0.3984  0.6682
  821MPD2     H12082   2.004   3.292  13.094 -0.5837 -0.0268 -0.1285
  821MPD2    H112083   1.877   3.438  12.721  3.2166 -1.2209  0.1661
  821MPD2    H212084   1.644   3.148  12.910 -0.3471  2.0214 -2.8297
  821MPD2    H312085   1.666   3.300  12.746 -1.4040  0.3852  1.9341
  821MPD2     N12086   2.054   3.464  12.889  0.4933 -0.2987  0.4074
  821MPD2    H512087   2.047   3.533  12.815  0.9898 -0.5147  0.1580
  821MPD2    N112088   1.818   3.089  13.106  0.6454 -0.4959 -0.2712
  821MPD2    H712089   1.736   3.030  13.092 -0.2350  0.4286  0.9864
  822MPD2     C12090   2.569   3.551  15.669 -0.2300  0.2604 -0.1292
  822MPD2    C112091   2.590   3.531  15.804  0.4588  0.3230 -0.9567
  822MPD2    C212092   2.512   3.611  15.887 -0.9827 -0.1051  0.2611
  822MPD2    C312093   2.447   3.717  15.836  0.8723 -0.0587  0.5740
  822MPD2    C412094   2.427   3.734  15.701 -0.0371 -0.2217 -0.1615
  822MPD2    C512095   2.492   3.649  15.619  0.4870 -0.1782 -0.4003
  822MPD2     H12096   2.524   3.596  15.994  0.6975  0.2990  0.1261
  822MPD2    H112097   2.359   3.807  15.660  0.1642 -0.6867 -1.3122
  822MPD2    H212098   2.623   3.497  15.592 -0.9882 -1.1349  0.3130
  822MPD2    H312099   2.485   3.660  15.511  1.9309  0.1926 -0.4614
  822MPD2     N12100   2.398   3.813  15.931 -0.4371 -0.3666 -0.2216
  822MPD2    H512101   2.395   3.784  16.028 -1.9629  0.5001  0.0048
  822MPD2    N112102   2.680   3.435  15.857  0.3564 -0.4136 -0.7681
  822MPD2    H712103   2.698   3.426  15.957  0.1287 -0.8753 -0.7676
  823MPD2     C12104   1.805   3.934  16.520  0.2580 -0.9817  0.0765
  823MPD2    C112105   1.900   3.870  16.447  0.5453 -0.3197 -0.3179
  823MPD2    C212106   1.972   3.772  16.510 -0.3381  0.0439  0.2803
  823MPD2    C312107   1.948   3.728  16.635  0.1344 -0.7630  0.1883
  823MPD2    C412108   1.842   3.781  16.699 -1.2568 -0.5972 -0.1227
  823MPD2    C512109   1.770   3.880  16.639  0.0806  0.6734  0.1079
  823MPD2     H12110   2.047   3.724  16.448  2.2513  1.6591  2.1831
  823MPD2    H112111   1.818   3.742  16.797 -3.3305 -3.0215 -1.5864
  823MPD2    H212112   1.745   4.014  16.477  0.6195 -0.8132 -0.1186
  823MPD2    H312113   1.686   3.926  16.691 -1.8029 -1.8615 -0.7479
  823MPD2     N12114   2.020   3.628  16.702  0.1176 -0.0619 -0.0270
  823MPD2    H512115   1.991   3.599  16.795 -1.2271 -2.0316 -1.0784
  823MPD2    N112116   1.948   3.928  16.332 -0.0725 -0.0869  0.1225
  823MPD2    H712117   1.920   4.023  16.311  0.4393  0.4833  2.1173
  824MPD2     C12118   2.884   2.575  15.797  0.1591  0.5410  0.4110
  824MPD2    C112119   2.994   2.660  15.800 -0.0506  1.0576 -0.3624
  824MPD2    C212120   3.120   2.608  15.780 -0.4945 -0.9037  0.4712
  824MPD2    C312121   3.145   2.473  15.749  0.3118 -0.1874 -0.2598
  824MPD2    C412122   3.035   2.392  15.741  0.0793  0.0880  0.4003
  824MPD2    C512123   2.906   2.443  15.771 -0.4444 -0.7143  0.2480
  824MPD2     H12124   3.201   2.679  15.763 -1.5583  0.4878  1.2599
  824MPD2    H112125   3.047   2.286  15.720 -0.4893 -0.0139  0.5769
  824MPD2    H212126   2.780   2.605  15.804  0.1378  0.7316 -0.5965
  824MPD2    H312127   2.825   2.371  15.766 -1.0287 -0.1308  1.4608
  824MPD2     N12128   3.280   2.435  15.717 -0.4100 -1.0360 -0.2956
  824MPD2    H512129   3.348   2.509  15.734  0.1311 -1.2560 -1.4845
  824MPD2    N112130   2.982   2.793  15.843 -0.2573 -0.5302 -0.2888
  824MPD2    H712131   3.067   2.834  15.880  0.7933 -0.3436 -2.9083
  825MPD2     C12132   3.841   2.437  15.128  0.3675 -0.7370 -0.2980
  825MPD2    C112133   3.794   2.514  15.234  0.7789  0.5751 -0.1098
  825MPD2    C212134   3.793   2.655  15.224  0.3633  0.0794 -0.1198
  825MPD2    C312135   3.832   2.712  15.108  0.2814 -0.3376 -0.4402
  825MPD2    C412136   3.868   2.629  15.001  0.5134  0.2194 -0.4173
  825MPD2    C512137   3.869   2.494  15.010  0.6297 -0.1437  0.5013
  825MPD2     H12138   3.783   2.707  15.319 -1.6460  1.9878 -1.3796
  825MPD2    H112139   3.901   2.679  14.910  3.1277  1.4461  1.2257
  825MPD2    H212140   3.865   2.333  15.141 -1.3254 -0.8700  1.8791
  825MPD2    H312141   3.902   2.431  14.928 -4.3336 -0.5860 -1.1897
  825MPD2     N12142   3.854   2.857  15.095  1.0145  0.1317 -0.0349
  825MPD2    H512143   3.890   2.883  15.004 -0.1012  3.7054  0.5719
  825MPD2    N112144   3.767   2.454  15.354  0.0158  0.4424  0.1232
  825MPD2    H712145   3.796   2.356  15.353 -5.3590 -1.1329 -0.5509
  826MPD2     C12146   3.491   2.523  13.958  0.2775  0.2259 -0.2275
  826MPD2    C112147   3.509   2.577  13.830  0.5489  0.1513  0.5641
  826MPD2    C212148   3.425   2.676  13.779  0.4743  0.0587 -0.1636
  826MPD2    C312149   3.324   2.717  13.865 -0.1223 -0.0132  0.2090
  826MPD2    C412150   3.305   2.661  13.990 -0.6838  0.9597 -1.0489
  826MPD2    C512151   3.391   2.572  14.039  0.0434 -0.8958 -0.6767
  826MPD2     H12152   3.438   2.728  13.685  1.2652  0.1652  0.0066
  826MPD2    H112153   3.213   2.677  14.046  0.0783 -0.0415  0.4669
  826MPD2    H212154   3.561   2.450  13.997 -1.7515 -1.9202 -0.5900
  826MPD2    H312155   3.377   2.531  14.139 -0.6078 -0.8849 -0.7620
  826MPD2     N12156   3.228   2.814  13.837  0.4669 -0.2240  0.1364
  826MPD2    H512157   3.145   2.829  13.894 -0.0414 -0.8804 -0.4248
  826MPD2    N112158   3.619   2.531  13.756 -0.1182 -0.3375  0.3182
  826MPD2    H712159   3.663   2.444  13.784  0.0905  0.3307  2.0694
  827MPD2     C12160   4.716   3.514   9.984 -0.1053 -0.1066 -0.0339
  827MPD2    C112161   4.716   3.428  10.092  0.0786  0.7643  0.0469
  827MPD2    C212162   0.012   3.295  10.073  0.1624  0.1686  0.0371
  827MPD2    C312163   0.039   3.243   9.946  0.0753 -0.3518 -0.2454
  827MPD2    C412164   0.054   3.333   9.836  0.5268  0.5403 -0.1886
  827MPD2    C512165   0.021   3.466   9.861 -0.6626  0.3231  0.3028
  827MPD2     H12166   0.013   3.230  10.159 -4.1406  0.3877  0.2920
  827MPD2    H112167   0.095   3.295   9.743 -1.6587  0.5792 -1.1980
  827MPD2    H212168   4.686   3.618   9.989 -0.4163 -0.3424  2.9889
  827MPD2    H312169   0.030   3.530   9.774  1.5412  0.8029  0.9039
  827MPD2     N12170   0.046   3.098   9.939 -0.2538 -0.2832 -0.7038
  827MPD2    H512171   0.029   3.045  10.024  1.6232 -0.9323 -0.7327
  827MPD2    N112172   4.676   3.474  10.222  0.4618 -0.0891  0.3999
  827MPD2    H712173   4.640   3.568  10.232 -1.5978 -0.9835  1.3393
  828MPD2     C12174   2.736   3.418  12.669  0.8543 -0.4370  0.3037
  828MPD2    C112175   2.738   3.518  12.575  0.1950 -0.7751 -0.6532
  828MPD2    C212176   2.850   3.550  12.504  0.2849  0.2292 -0.5818
  828MPD2    C312177   2.960   3.466  12.516  0.1799  0.4840  0.3616
  828MPD2    C412178   2.958   3.366  12.614  0.2758  0.1344 -0.3904
  828MPD2    C512179   2.845   3.342  12.688 -0.3254 -0.4883 -0.1801
  828MPD2     H12180   2.843   3.634  12.435 -1.1135  0.2495 -0.4175
  828MPD2    H112181   3.040   3.297  12.632 -0.3394 -1.2580 -2.8928
  828MPD2    H212182   2.657   3.416  12.743  1.2433 -3.4447  0.6424
  828MPD2    H312183   2.846   3.272  12.770 -1.1798 -1.7822 -1.2713
  828MPD2     N12184   3.084   3.492  12.448 -0.1158 -0.0960 -0.6254
  828MPD2    H512185   3.158   3.422  12.452  1.2853  1.4945  0.8360
  828MPD2    N112186   2.623   3.597  12.553 -0.4979  0.2648  0.4351
  828MPD2    H712187   2.634   3.674  12.488  2.9493 -0.4297  0.1600
  829MPD2     C12188   2.670   3.906  11.830 -0.2512 -0.3886 -0.2182
  829MPD2    C112189   2.531   3.905  11.830  0.3457  0.2921 -0.6538
  829MPD2    C212190   2.467   3.867  11.945  0.3961  0.5499 -0.4684
  829MPD2    C312191   2.539   3.844  12.060  0.2612 -0.3300  0.6637
  829MPD2    C412192   2.674   3.856  12.053 -0.2311 -0.3823  0.3650
  829MPD2    C512193   2.741   3.879  11.937  0.1572 -0.2570 -0.2516
  829MPD2     H12194   2.359   3.865  11.960  0.4568 -1.9672 -0.3970
  829MPD2    H112195   2.718   3.858  12.152  1.6648  0.6836 -0.5033
  829MPD2    H212196   2.728   3.924  11.740  0.1734 -0.4091  0.0535
  829MPD2    H312197   2.848   3.867  11.927  0.1535 -2.5000  2.3217
  829MPD2     N12198   2.489   3.839  12.194  0.3432 -0.2361  0.3625
  829MPD2    H512199   2.569   3.834  12.257  0.9012 -0.2996 -0.3470
  829MPD2    N112200   2.466   3.951  11.712 -0.0290 -0.0375  0.6113
  829MPD2    H712201   2.526   3.967  11.632  1.5664  0.4250  1.9018
  830MPD2     C12202   2.989   1.810  15.851  0.2037  0.0274  0.3810
  830MPD2    C112203   2.876   1.868  15.797  1.0129  0.5045 -0.6953
  830MPD2    C212204   2.897   1.962  15.692  0.2407  0.1705  0.1883
  830MPD2    C312205   3.023   2.017  15.670 -0.3762 -0.6700 -0.0710
  830MPD2    C412206   3.130   1.963  15.744 -0.0575  0.1921  0.1637
  830MPD2    C512207   3.115   1.851  15.820 -0.0588  0.4282  0.0804
  830MPD2     H12208   2.813   2.012  15.644  1.9185  1.5114 -1.3405
  830MPD2    H112209   3.234   1.980  15.721 -0.0665 -0.2680 -0.2118
  830MPD2    H212210   2.985   1.727  15.920 -0.4931 -0.2753 -0.0188
  830MPD2    H312211   3.199   1.794  15.856 -0.6340 -0.0565  0.6517
  830MPD2     N12212   3.052   2.098  15.556  0.3299 -0.0571 -0.2099
  830MPD2    H512213   3.148   2.132  15.561 -0.2564  1.6139 -0.4563
  830MPD2    N112214   2.748   1.835  15.852 -0.0332 -0.1436 -0.0987
  830MPD2    H712215   2.741   1.761  15.921 -2.5376  0.3505  0.1658
  831MPD2     C12216   2.557   3.893  16.308  0.3217 -0.5268  0.8399
  831MPD2    C112217   2.604   3.777  16.256 -0.7387 -0.4149  0.1340
  831MPD2    C212218   2.511   3.677  16.241  0.6025 -0.4971 -0.3293
  831MPD2    C312219   2.383   3.680  16.295 -0.2618 -0.5682  0.6166
  831MPD2    C412220   2.344   3.793  16.359 -0.1645 -0.3089  0.9517
  831MPD2    C512221   2.431   3.899  16.369  0.3224 -0.2240 -0.4779
  831MPD2     H12222   2.553   3.589  16.194 -2.3159 -2.1254  0.0672
  831MPD2    H112223   2.253   3.800  16.418 -1.1998 -0.3955 -0.6231
  831MPD2    H212224   2.615   3.983  16.326 -1.2797  0.4929  0.8279
  831MPD2    H312225   2.393   3.984  16.425 -0.5309 -0.5336 -0.5922
  831MPD2     N12226   2.291   3.576  16.279  0.0859  0.2005 -0.0602
  831MPD2    H512227   2.205   3.591  16.331 -0.0453 -0.7818 -0.0021
  831MPD2    N112228   2.733   3.772  16.199  0.1469  0.2997  0.6338
  831MPD2    H712229   2.785   3.859  16.210 -1.1059  1.3201 -1.5206
  832MPD2     C12230   1.073   4.535  17.261  0.3170  0.7518  0.8068
  832MPD2    C112231   1.070   4.668  17.240 -0.3468 -0.0418 -0.2984
  832MPD2    C212232   0.971   4.718  17.156  0.0321  0.2948 -0.2738
  832MPD2    C312233   0.882   4.625  17.098 -0.0788 -0.4246 -0.4122
  832MPD2    C412234   0.890   4.489  17.116  0.1763 -0.3126 -0.3390
  832MPD2    C512235   0.985   4.453  17.201  0.0915  0.4655  0.2532
  832MPD2     H12236   0.947   0.096  17.148 -0.7821  0.0110 -1.6520
  832MPD2    H112237   0.843   4.413  17.055  4.1694 -2.1786 -1.1308
  832MPD2    H212238   1.144   4.494  17.332  2.1743  2.7630  0.0791
  832MPD2    H312239   0.993   4.347  17.222  0.7394  0.4881  0.1240
  832MPD2     N12240   0.769   4.662  17.024  0.4579 -0.1179  0.4291
  832MPD2    H512241   0.706   4.593  16.985  1.2050 -2.5417  3.5089
  832MPD2    N112242   1.176   0.026  17.306  0.4915  0.1947  0.3885
  832MPD2    H712243   1.249   4.708  17.359  1.3713  0.4440 -0.6053
  833MPD2     C12244   3.444   1.274  12.655  0.1155 -0.1461 -0.0937
  833MPD2    C112245   3.493   1.399  12.654 -0.0844  0.1863  0.3506
  833MPD2    C212246   3.571   1.443  12.548  0.1881 -0.2965 -0.1291
  833MPD2    C312247   3.612   1.357  12.445 -0.7820 -0.4535 -0.5157
  833MPD2    C412248   3.564   1.226  12.446 -0.0303  0.0870  0.6584
  833MPD2    C512249   3.484   1.191  12.551 -0.6411 -0.2138  0.2680
  833MPD2     H12250   3.595   1.547  12.532  2.1883 -0.4744  1.7177
  833MPD2    H112251   3.580   1.157  12.363  2.0479  1.0900  0.2405
  833MPD2    H212252   3.384   1.240  12.739 -2.4388  1.2766 -1.3261
  833MPD2    H312253   3.440   1.091  12.548 -2.8281  0.7820 -1.1157
  833MPD2     N12254   3.688   1.393  12.332  0.3199  0.3858  0.0084
  833MPD2    H512255   3.684   1.335  12.248 -0.2667 -0.7421  0.8134
  833MPD2    N112256   3.445   1.491  12.748 -0.0225  0.0207  0.5413
  833MPD2    H712257   3.368   1.451  12.801  0.6471  0.7343  2.0451
  834MPD2     C12258   3.673   1.483  11.380  0.2252 -0.5809  0.3552
  834MPD2    C112259   3.639   1.381  11.467 -0.3315  0.0608  0.2126
  834MPD2    C212260   3.638   1.428  11.597  0.5333 -0.5980  0.5410
  834MPD2    C312261   3.660   1.561  11.642  0.1580  0.0137  0.2540
  834MPD2    C412262   3.679   1.661  11.550 -0.3979  0.1807 -0.5578
  834MPD2    C512263   3.692   1.612  11.424  0.1704  0.6451 -0.0975
  834MPD2     H12264   3.628   1.348  11.669 -0.2593 -0.9878  0.0014
  834MPD2    H112265   3.691   1.768  11.566 -0.2579 -0.3570  2.8694
  834MPD2    H212266   3.685   1.459  11.275 -0.0618  1.8249 -0.2153
  834MPD2    H312267   3.705   1.687  11.346 -0.0583  0.8864  0.0981
  834MPD2     N12268   3.670   1.602  11.777  0.3937 -0.5809  0.4599
  834MPD2    H512269   3.696   1.699  11.794 -0.7836 -0.3579  0.9787
  834MPD2    N112270   3.625   1.252  11.414 -0.2661 -0.6586  1.1131
  834MPD2    H712271   3.640   1.228  11.316 -1.9031 -1.4100  1.0491
  835MPD2     C12272   3.707   3.683  11.085  0.7819  0.3291 -0.2293
  835MPD2    C112273   3.582   3.731  11.065 -0.0426  0.1824 -0.2090
  835MPD2    C212274   3.507   3.768  11.177  0.6619  0.1725 -0.0378
  835MPD2    C312275   3.544   3.734  11.303 -0.4979  0.2323 -0.4924
  835MPD2    C412276   3.678   3.704  11.319 -0.1237 -0.3723  0.2661
  835MPD2    C512277   3.758   3.687  11.212  0.2635  0.3810 -0.0881
  835MPD2     H12278   3.413   3.819  11.160 -0.2992 -1.1087  1.5313
  835MPD2    H112279   3.720   3.701  11.418 -0.3417 -0.0389  0.3688
  835MPD2    H212280   3.773   3.651  11.005  2.6677  1.5217  0.8474
  835MPD2    H312281   3.865   3.676  11.225  0.0864 -0.1758  0.8628
  835MPD2     N12282   3.464   3.762  11.419  0.9586 -0.0328  0.1644
  835MPD2    H512283   3.503   3.744  11.511 -1.8472 -4.7568  0.3985
  835MPD2    N112284   3.537   3.753  10.934 -0.4105  0.1713  0.2862
  835MPD2    H712285   3.453   3.808  10.923 -0.1985  0.4312 -0.0221
  836MPD2     C12286   2.832   4.277  11.456 -0.3965 -0.0533  0.3298
  836MPD2    C112287   2.847   4.194  11.567 -0.0409 -1.3148  0.5948
  836MPD2    C212288   2.760   4.214  11.670  0.2603 -0.5811  0.1282
  836MPD2    C312289   2.673   4.322  11.669  0.5694 -0.3461  0.6950
  836MPD2    C412290   2.663   4.403  11.558 -0.0939  0.6889 -0.6255
  836MPD2    C512291   2.741   4.377  11.452  0.0374  0.2414 -0.8898
  836MPD2     H12292   2.767   4.148  11.756  4.9187 -1.7146 -1.0976
  836MPD2    H112293   2.591   4.484  11.559 -0.0284  0.7281  1.6751
  836MPD2    H212294   2.889   4.262  11.365  1.0801 -0.1842  1.2850
  836MPD2    H312295   2.742   4.420  11.353  0.0594  0.2086 -0.9039
  836MPD2     N12296   2.584   4.345  11.780  0.2709 -0.3938  0.0458
  836MPD2    H512297   2.502   4.403  11.766 -0.2479 -1.0099  0.5118
  836MPD2    N112298   2.960   4.107  11.574  0.1740 -0.4231 -0.4401
  836MPD2    H712299   3.013   4.093  11.488 -1.8479 -1.2106 -1.5579
  837MPD2     C12300   1.895   3.274  10.461 -0.1690 -0.2641 -0.1675
  837MPD2    C112301   1.803   3.338  10.376  0.2030  0.5758  0.1647
  837MPD2    C212302   1.832   3.466  10.336  0.3213 -0.0415  0.0406
  837MPD2    C312303   1.940   3.534  10.383 -0.3612 -0.2092  0.0964
  837MPD2    C412304   2.032   3.472  10.468 -0.5332 -1.4119  0.1388
  837MPD2    C512305   2.007   3.343  10.507  0.7508  0.8599 -0.0372
  837MPD2     H12306   1.776   3.525  10.264 -0.8634 -2.2189 -0.8137
  837MPD2    H112307   2.125   3.522  10.493 -0.5911 -0.8262 -0.8389
  837MPD2    H212308   1.890   3.170  10.491  0.4315 -0.3867 -0.4967
  837MPD2    H312309   2.074   3.283  10.567 -1.5798  0.5499  2.2739
  837MPD2     N12310   1.963   3.663  10.322 -0.2667 -0.1122 -0.1161
  837MPD2    H512311   1.902   3.681  10.243  1.1293  0.3567 -1.0911
  837MPD2    N112312   1.711   3.271  10.290 -0.5757  0.4707  0.2378
  837MPD2    H712313   1.659   3.326  10.222 -2.2438 -1.0990  0.2554
  838MPD2     C12314   4.582   1.437  11.306 -0.1238 -0.4443 -0.2845
  838MPD2    C112315   4.534   1.571  11.318 -0.1539  0.6295 -0.3651
  838MPD2    C212316   4.409   1.596  11.365 -0.2285  0.1357 -0.0141
  838MPD2    C312317   4.334   1.493  11.396 -0.6991  0.3081  0.4222
  838MPD2    C412318   4.378   1.364  11.378 -0.9344  0.1974 -0.0575
  838MPD2    C512319   4.504   1.330  11.337 -0.1261 -0.8581 -0.5453
  838MPD2     H12320   4.375   1.697  11.385 -2.4921 -0.2452 -1.9545
  838MPD2    H112321   4.317   1.280  11.410 -0.8347  0.1121 -0.0906
  838MPD2    H212322   4.687   1.416  11.289  0.1770 -0.3315  1.4096
  838MPD2    H312323   4.547   1.232  11.327 -1.9430 -1.5574 -1.4964
  838MPD2     N12324   4.209   1.521  11.463 -0.6394  0.4704 -0.3016
  838MPD2    H512325   4.183   1.618  11.476  1.2433  1.0370 -0.6956
  838MPD2    N112326   4.613   1.686  11.291 -0.2523  0.5241  0.6261
  838MPD2    H712327   4.559   1.768  11.317  0.0752  1.7554 -2.5537
  839MPD2     C12328   4.556   1.520  11.947 -0.1311 -0.5225  0.0587
  839MPD2    C112329   4.546   1.483  11.815 -0.3686 -0.1081  0.9176
  839MPD2    C212330   4.631   1.546  11.722 -0.3510 -0.6133 -0.0807
  839MPD2    C312331   4.705   1.644  11.757  0.3251  0.0914 -0.5971
  839MPD2    C412332   4.713   1.689  11.890  0.2505  0.6337  0.1102
  839MPD2    C512333   4.643   1.617  11.989  0.2413  0.1851  0.1197
  839MPD2     H12334   4.634   1.511  11.619  0.2330 -0.7861 -0.0063
  839MPD2    H112335   0.052   1.773  11.908 -0.5646  1.3392 -0.1724
  839MPD2    H212336   4.502   1.463  12.021  1.2943 -1.3193  0.4895
  839MPD2    H312337   4.657   1.631  12.095 -0.9822  1.6165  0.0909
  839MPD2     N12338   0.050   1.700  11.649  0.2970 -0.2451  0.3081
  839MPD2    H512339   0.030   1.666  11.556 -0.7374 -0.4595  0.6077
  839MPD2    N112340   4.475   1.376  11.770 -0.0504 -0.2371  0.1580
  839MPD2    H712341   4.479   1.369  11.668  0.8907 -1.8066  0.2987
  840MPD2     C12342   0.020   4.119  10.352  0.2503 -0.0830  0.1129
  840MPD2    C112343   0.063   4.028  10.452 -0.3956  0.1650  0.4093
  840MPD2    C212344   0.173   4.060  10.531 -0.6554  0.7047 -0.6476
  840MPD2    C312345   0.223   4.188  10.526  0.1639 -0.0256  0.7571
  840MPD2    C412346   0.179   4.279  10.433  0.7099 -0.0517  0.0840
  840MPD2    C512347   0.080   4.243  10.349 -0.2717  0.0885 -0.0192
  840MPD2     H12348   0.214   3.985  10.598 -2.3685 -0.5117 -0.9475
  840MPD2    H112349   0.221   4.379  10.432 -0.1282  0.2763 -2.1604
  840MPD2    H212350   4.663   4.094  10.289  0.6360  1.5445 -1.0312
  840MPD2    H312351   0.053   4.311  10.269 -1.6668  0.3784  0.7018
  840MPD2     N12352   0.331   4.230  10.609  0.6892 -0.2114  0.2844
  840MPD2    H512353   0.366   4.324  10.595  3.0413 -1.2072 -0.4193
  840MPD2    N112354   4.722   3.903  10.467  0.0281 -0.1335 -0.3727
  840MPD2    H712355   4.661   3.872  10.391 -0.5223 -1.1395  0.4871
  841MPD2     C12356   4.221   4.085  14.934  0.3181 -0.3057  0.4388
  841MPD2    C112357   4.262   4.001  14.834 -0.3009  0.0313  0.9237
  841MPD2    C212358   4.341   4.048  14.733 -0.3701 -0.5713  0.1076
  841MPD2    C312359   4.398   4.175  14.734 -0.1914  0.2148  0.0672
  841MPD2    C412360   4.352   4.267  14.834 -0.1565 -0.5871  0.3738
  841MPD2    C512361   4.258   4.220  14.926  0.1183  0.2790 -0.1447
  841MPD2     H12362   4.367   3.981  14.652 -1.9894 -1.4783  0.3547
  841MPD2    H112363   4.395   4.366  14.842 -2.1208  0.2660  0.4053
  841MPD2    H212364   4.158   4.058  15.018 -0.1845  0.0741  0.1840
  841MPD2    H312365   4.215   4.288  14.999 -0.4222 -0.2157 -0.0021
  841MPD2     N12366   4.482   4.221  14.630  0.2791  0.4896  0.4925
  841MPD2    H512367   4.482   4.165  14.545 -1.7954 -0.2549  0.9787
  841MPD2    N112368   4.235   3.862  14.828 -0.1073  0.1666 -0.1263
  841MPD2    H712369   4.278   3.824  14.744  0.8313 -0.2644  0.5509
  842MPD2     C12370   0.517   0.341  17.140 -0.0060  0.6198 -0.8683
  842MPD2    C112371   0.407   0.262  17.115  0.4847 -0.1734 -0.2567
  842MPD2    C212372   0.390   0.147  17.191  0.6193  0.2956  0.6538
  842MPD2    C312373   0.488   0.105  17.281  0.3061 -0.6078  0.6037
  842MPD2    C412374   0.599   0.183  17.294  0.2335  0.8449  0.0459
  842MPD2    C512375   0.611   0.303  17.232 -0.3069 -0.4854  0.7333
  842MPD2     H12376   0.303   0.083  17.190  1.6759 -1.1506  0.1209
  842MPD2    H112377   0.675   0.161  17.368  0.8556  6.7388  1.1814
  842MPD2    H212378   0.536   0.435  17.091 -0.0562  0.6753 -0.7804
  842MPD2    H312379   0.695   0.366  17.262 -0.2069 -0.4806  0.4453
  842MPD2     N12380   0.475   4.716  17.366  0.6658  0.6999  0.0347
  842MPD2    H512381   0.562   4.673  17.393  0.9203  1.9191  1.1248
  842MPD2    N112382   0.327   0.308  17.016 -0.1227  0.9879  0.3858
  842MPD2    H712383   0.360   0.387  16.962 -2.0219  1.4821 -0.0187
  843MPD2     C12384   1.939   0.715   0.031  0.0625  0.0805  0.0274
  843MPD2    C112385   1.969   0.701   0.161 -0.0003  0.5239  0.3247
  843MPD2    C212386   2.096   0.737   0.208  0.1116 -0.0539 -0.5017
  843MPD2    C312387   2.191   0.782   0.116  1.2227 -0.4481 -0.0429
  843MPD2    C412388   2.161   0.789  17.694 -0.5642 -0.3671  0.0043
  843MPD2    C512389   2.032   0.753  17.651  0.2973  1.2258  0.1078
  843MPD2     H12390   2.109   0.732   0.315 -0.6926  0.6465 -0.3758
  843MPD2    H112391   2.243   0.819  17.629 -0.9427  0.8912  0.1080
  843MPD2    H212392   1.840   0.690  17.704  1.0034 -1.0081 -1.7066
  843MPD2    H312393   2.004   0.748  17.546  0.6928 -0.1439  0.0629
  843MPD2     N12394   2.320   0.831   0.154 -0.1308 -0.1396  0.0746
  843MPD2    H512395   2.378   0.868   0.080 -0.2848  1.5055  0.7750
  843MPD2    N112396   1.866   0.637   0.241  0.6450 -0.5564  0.3632
  843MPD2    H712397   1.778   0.620   0.194  0.0743  1.1988  0.8205
  844MPD2     C12398   0.738   4.573  16.338 -0.1111  0.1653 -0.8329
  844MPD2    C112399   0.860   4.501  16.350 -0.5065  0.6449 -0.3174
  844MPD2    C212400   0.933   4.512  16.461 -0.3013  0.0009 -0.3960
  844MPD2    C312401   0.910   4.603  16.557  0.4558 -0.6786  0.4498
  844MPD2    C412402   0.808   4.696  16.530 -0.1194  0.1190 -0.4685
  844MPD2    C512403   0.727   4.682  16.418 -0.4099  0.1032 -0.1417
  844MPD2     H12404   1.012   4.441  16.481 -0.1725  0.6599  1.3921
  844MPD2    H112405   0.790   0.053  16.595  0.2514 -0.6903  0.6847
  844MPD2    H212406   0.676   4.556  16.251  0.4761  0.3852 -1.2958
  844MPD2    H312407   0.653   0.027  16.383 -0.2057 -1.8793 -4.6284
  844MPD2     N12408   0.985   4.610  16.672 -0.1783 -0.0304  0.0920
  844MPD2    H512409   1.053   4.536  16.689  0.2786  0.9784  2.5705
  844MPD2    N112410   0.890   4.394  16.257 -0.1428  0.3066  0.3409
  844MPD2    H712411   0.964   4.332  16.290  0.6436  0.5072 -1.0230
  845MPD2     C12412   1.551   0.636  17.024 -0.2582 -0.4846  1.0719
  845MPD2    C112413   1.429   0.609  17.083 -0.1539  0.3037  0.0755
  845MPD2    C212414   1.357   0.493  17.054  0.3165 -0.1298  0.1193
  845MPD2    C312415   1.425   0.391  16.983 -0.7084  0.2599 -0.0648
  845MPD2    C412416   1.545   0.423  16.928  0.0309  0.6467  0.2571
  845MPD2    C512417   1.608   0.542  16.949 -0.1983  0.0508 -1.0962
  845MPD2     H12418   1.258   0.471  17.091 -0.0204 -1.8327 -1.7913
  845MPD2    H112419   1.587   0.350  16.859  0.7566  1.8345 -0.5543
  845MPD2    H212420   1.604   0.729  17.040 -1.0314  0.3029 -1.0240
  845MPD2    H312421   1.702   0.565  16.899  1.0276  0.1883  1.2626
  845MPD2     N12422   1.353   0.268  16.963  0.6931  0.3527  0.6885
  845MPD2    H512423   1.253   0.275  16.980  1.0163 -0.1266  2.7314
  845MPD2    N112424   1.377   0.704  17.170 -0.7286 -0.1102  0.0556
  845MPD2    H712425   1.433   0.786  17.189 -0.2518 -0.9978  2.6171
  846MPD2     C12426   2.768   0.923  14.014  0.0519 -0.1882 -0.0763
  846MPD2    C112427   2.715   1.050  14.021  0.7284  0.2195 -0.1387
  846MPD2    C212428   2.679   1.100  14.149  0.1550  0.5411  0.0970
  846MPD2    C312429   2.701   1.021  14.260 -0.0164  0.3031  0.1713
  846MPD2    C412430   2.777   0.900  14.251 -0.2920  0.3703  0.0973
  846MPD2    C512431   2.801   0.845  14.124 -0.6290 -0.0489  0.2775
  846MPD2     H12432   2.614   1.187  14.154 -1.3482 -0.6437  0.9922
  846MPD2    H112433   2.789   0.832  14.334 -0.3614 -0.2899 -0.4269
  846MPD2    H212434   2.796   0.867  13.926 -1.9428 -3.3425  1.2936
  846MPD2    H312435   2.827   0.741  14.108 -0.1085  0.0587  0.4171
  846MPD2     N12436   2.646   1.069  14.384 -0.3145 -0.1082 -0.9063
  846MPD2    H512437   2.592   1.154  14.382  0.7080  0.5967  1.4149
  846MPD2    N112438   2.676   1.118  13.900 -0.2320 -0.6540  0.2808
  846MPD2    H712439   2.622   1.203  13.910  1.1957 -0.0665  2.9888
  847MPD2     C12440   2.466   1.848  14.302  0.5920 -0.6749 -0.2169
  847MPD2    C112441   2.581   1.926  14.281 -0.1862 -0.1291 -0.6062
  847MPD2    C212442   2.692   1.883  14.349  0.2008  0.7333  0.7443
  847MPD2    C312443   2.697   1.774  14.437 -0.4833  0.0420 -0.4129
  847MPD2    C412444   2.582   1.704  14.459 -0.1721  0.2504  0.6812
  847MPD2    C512445   2.468   1.740  14.389 -0.2751 -0.1620 -0.4259
  847MPD2     H12446   2.783   1.938  14.331 -1.3736  2.7901 -0.8587
  847MPD2    H112447   2.571   1.620  14.526 -0.7814  1.4103  2.0567
  847MPD2    H212448   2.366   1.870  14.267  0.9342  1.0849 -0.0676
  847MPD2    H312449   2.380   1.678  14.401  0.3349 -0.3966  2.8305
  847MPD2     N12450   2.820   1.736  14.491 -0.3824  0.2286  0.3772
  847MPD2    H512451   2.902   1.788  14.462  1.7765 -1.8185  2.8705
  847MPD2    N112452   2.596   2.029  14.187 -0.8946  0.0397  0.3356
  847MPD2    H712453   2.682   2.082  14.182  0.3416 -1.7738  2.2895
  848MPD2     C12454   0.470   0.385  16.380 -0.8628  0.7577 -0.3444
  848MPD2    C112455   0.524   0.433  16.498 -0.5120  0.3262 -0.6793
  848MPD2    C212456   0.568   0.562  16.499 -0.2165  0.1982  0.1579
  848MPD2    C312457   0.570   0.637  16.384 -0.2298  0.2042 -0.4038
  848MPD2    C412458   0.518   0.593  16.269 -0.1487 -0.0208 -0.7179
  848MPD2    C512459   0.467   0.466  16.270  0.2340 -0.2702  0.6337
  848MPD2     H12460   0.600   0.606  16.593 -1.0495 -0.5211  0.7805
  848MPD2    H112461   0.525   0.661  16.185  2.2391 -0.2425 -0.6796
  848MPD2    H212462   0.420   0.291  16.361 -2.3563  1.5173 -0.1596
  848MPD2    H312463   0.450   0.419  16.174 -0.2808  1.6072 -0.1935
  848MPD2     N12464   0.602   0.778  16.380 -0.6118 -0.2764  0.4134
  848MPD2    H512465   0.586   0.823  16.290  0.3393 -0.9198 -0.0756
  848MPD2    N112466   0.526   0.355  16.617  0.1673 -0.3065  0.7771
  848MPD2    H712467   0.552   0.392  16.707 -1.1296  2.6290 -0.0535
  849MPD2     C12468   4.370   0.072  14.383  0.0124  0.3242 -0.1419
  849MPD2    C112469   4.466   0.099  14.284  0.0640 -0.7128 -0.3477
  849MPD2    C212470   4.595   0.069  14.298  0.0412 -1.1949 -0.0012
  849MPD2    C312471   4.639   0.036  14.424  0.1482 -0.8254 -0.5196
  849MPD2    C412472   4.550   0.025  14.531  0.1529 -0.2617 -0.7617
  849MPD2    C512473   4.418   0.045  14.505 -0.2052  0.1446 -0.4698
  849MPD2     H12474   4.668   0.107  14.227 -0.0050  1.6245  1.4893
  849MPD2    H112475   4.583   0.000  14.631 -4.9283  1.3978  1.3316
  849MPD2    H212476   4.267   0.099  14.364  0.0111 -0.4131 -1.1568
  849MPD2    H312477   4.353   0.045  14.592  0.9735  2.9483  0.4028
  849MPD2     N12478   0.047   0.031  14.454 -0.0194 -0.3330  0.4095
  849MPD2    H512479   0.066   0.020  14.553 -1.1400  3.6180  1.0470
  849MPD2    N112480   4.440   0.152  14.159 -0.2291  0.4672 -0.9146
  849MPD2    H712481   4.517   0.142  14.093  0.8523  0.1910  0.4006
  850MPD2     C12482   2.673   2.998  14.495 -0.1265  0.4496 -0.5264
  850MPD2    C112483   2.597   3.030  14.611  0.2853  0.2400  0.0919
  850MPD2    C212484   2.663   3.085  14.719 -0.2197  0.0496  0.0184
  850MPD2    C312485   2.807   3.097  14.718  0.5123  0.5251  0.1315
  850MPD2    C412486   2.872   3.071  14.595  0.2361  0.2053  0.8225
  850MPD2    C512487   2.804   3.030  14.484 -0.3100  0.3536 -0.4077
  850MPD2     H12488   2.617   3.109  14.814 -0.2035  2.6993 -0.6339
  850MPD2    H112489   2.978   3.091  14.589 -0.1870  1.5708 -2.2655
  850MPD2    H212490   2.630   2.939  14.415  0.4480 -1.8160  0.8254
  850MPD2    H312491   2.861   3.013  14.394 -0.9280  1.2216 -0.9656
  850MPD2     N12492   2.883   3.135  14.826  0.3114  0.2752  1.0950
  850MPD2    H512493   2.983   3.120  14.821 -0.1288 -2.4248  0.2417
  850MPD2    N112494   2.459   2.995  14.608 -0.7027 -0.1454 -0.2383
  850MPD2    H712495   2.432   2.988  14.510  1.1123  0.7156 -0.7905
  851MPD2     C12496   2.815   2.879  15.371 -0.8709  0.0004 -0.1501
  851MPD2    C112497   2.773   2.811  15.260 -0.9608 -0.2180  0.0148
  851MPD2    C212498   2.847   2.701  15.219 -0.2242 -0.6922  0.7404
  851MPD2    C312499   2.960   2.657  15.290 -0.0598 -0.9358  0.3804
  851MPD2    C412500   2.992   2.723  15.405  0.3443  0.5529  0.1951
  851MPD2    C512501   2.925   2.835  15.443 -0.0118 -0.4770 -0.5153
  851MPD2     H12502   2.824   2.635  15.136 -0.7064 -0.8893  1.0334
  851MPD2    H112503   3.067   2.684  15.474 -0.7518 -0.1577  0.9889
  851MPD2    H212504   2.776   2.977  15.399 -0.6612  0.3015 -0.9209
  851MPD2    H312505   2.965   2.883  15.531 -1.3194  1.2586 -0.8727
  851MPD2     N12506   3.026   2.539  15.254 -0.5127 -0.3776  0.3875
  851MPD2    H512507   2.981   2.482  15.183 -0.7221  0.0772  0.1549
  851MPD2    N112508   2.658   2.861  15.193 -0.5351  0.0887  0.6291
  851MPD2    H712509   2.602   2.935  15.234 -1.1893 -0.2364  0.3314
  852MPD2     C12510   2.564   0.487  11.286 -0.5085  0.1072  0.2445
  852MPD2    C112511   2.648   0.509  11.179 -0.0303  0.5345  0.0454
  852MPD2    C212512   2.612   0.588  11.078  0.8951  0.7702 -0.0628
  852MPD2    C312513   2.490   0.660  11.076 -0.1925 -0.2561  0.1246
  852MPD2    C412514   2.405   0.631  11.183  1.1497  0.4463  0.0255
  852MPD2    C512515   2.438   0.541  11.289  0.5993  0.2677  0.5894
  852MPD2     H12516   2.683   0.600  10.997 -0.5473 -1.1243 -1.6026
  852MPD2    H112517   2.308   0.676  11.196  1.7087  1.2151  1.5393
  852MPD2    H212518   2.597   0.425  11.369 -1.2330 -0.3288  0.2084
  852MPD2    H312519   2.369   0.526  11.371  1.4761  0.0886  1.2910
  852MPD2     N12520   2.466   0.751  10.974  0.0304 -0.3204  0.6681
  852MPD2    H512521   2.534   0.769  10.901 -1.1390  0.9695 -0.1197
  852MPD2    N112522   2.772   0.447  11.170 -0.8105  0.4008  0.1166
  852MPD2    H712523   2.816   0.444  11.079  0.0688  0.2094  0.5475
  853MPD2     C12524   4.342   0.399  12.402 -0.3477  0.0243  0.6871
  853MPD2    C112525   4.210   0.445  12.369 -0.2653  0.3051 -0.7944
  853MPD2    C212526   4.174   0.470  12.235 -0.4861 -0.3358  0.0640
  853MPD2    C312527   4.273   0.445  12.136  0.4196  0.3480 -0.5395
  853MPD2    C412528   4.392   0.386  12.171  0.5393  0.6438 -0.0066
  853MPD2    C512529   4.426   0.367  12.302  0.3116  0.1981  0.0781
  853MPD2     H12530   4.073   0.503  12.213  0.2829  2.7771  1.1648
  853MPD2    H112531   4.462   0.363  12.091  0.9818 -1.0589  0.8649
  853MPD2    H212532   4.369   0.367  12.502 -1.4907 -3.4871 -0.1380
  853MPD2    H312533   4.517   0.310  12.320 -0.1790 -1.0559 -1.4957
  853MPD2     N12534   4.257   0.455  11.997 -0.3171  1.2838 -0.1628
  853MPD2    H512535   4.342   0.440  11.943  0.3172 -2.4026  1.8394
  853MPD2    N112536   4.121   0.472  12.478  0.1951  0.7455 -0.2213
  853MPD2    H712537   4.166   0.449  12.566  2.6071 -0.0419 -1.6225
  854MPD2     C12538   1.061   0.534  13.140 -0.0648  0.2179  0.4334
  854MPD2    C112539   1.121   0.597  13.029 -0.0126  0.8178  0.3342
  854MPD2    C212540   1.254   0.565  13.003 -0.0715 -0.1806  0.5875
  854MPD2    C312541   1.320   0.471  13.076  0.4317  0.1408  0.1993
  854MPD2    C412542   1.255   0.422  13.192 -0.1164 -0.5899  0.3299
  854MPD2    C512543   1.128   0.455  13.224 -0.3355 -0.5821 -0.8476
  854MPD2     H12544   1.301   0.611  12.917 -0.7878  0.0017  0.2946
  854MPD2    H112545   1.312   0.355  13.255  1.2341 -0.7814 -1.0927
  854MPD2    H212546   0.962   0.566  13.169  0.6734  1.0782  2.0315
  854MPD2    H312547   1.078   0.420  13.313  0.4752  2.2381  0.7150
  854MPD2     N12548   1.459   0.432  13.059 -0.2393 -0.6156 -0.2032
  854MPD2    H512549   1.501   0.387  13.140  2.1364  2.2724  0.1490
  854MPD2    N112550   1.044   0.698  12.956  0.8063 -0.2290 -0.1852
  854MPD2    H712551   0.946   0.703  12.983 -0.0751 -1.9361 -3.0604
  855MPD2     C12552   2.257   0.341  13.610  0.3905  0.5684  0.9734
  855MPD2    C112553   2.122   0.330  13.634  0.2630  0.2252  0.0979
  855MPD2    C212554   2.031   0.331  13.532 -0.1712  0.6080  0.0613
  855MPD2    C312555   2.074   0.353  13.401 -0.3365 -0.5559  0.2324
  855MPD2    C412556   2.209   0.375  13.379  0.1422 -0.2806  0.2843
  855MPD2    C512557   2.300   0.366  13.482  0.2864  0.3267  0.3453
  855MPD2     H12558   1.926   0.315  13.554  0.0297 -0.9529 -0.0964
  855MPD2    H112559   2.237   0.402  13.278  1.1397  3.1178  1.4768
  855MPD2    H212560   2.328   0.334  13.691  1.4809  2.2282  0.1684
  855MPD2    H312561   2.405   0.388  13.466 -0.2259  2.8650  0.4194
  855MPD2     N12562   1.991   0.345  13.288  0.3355 -0.7151 -0.3878
  855MPD2    H512563   2.030   0.367  13.197  1.7740  0.7175  0.5695
  855MPD2    N112564   2.081   0.297  13.764  0.7188 -0.2918 -0.4538
  855MPD2    H712565   1.986   0.267  13.782  0.8585 -1.3863 -1.4774
  856MPD2     C12566   3.835   1.316  13.665 -0.2733  0.3598  0.0754
  856MPD2    C112567   3.830   1.345  13.801 -0.2334 -0.0112  0.6782
  856MPD2    C212568   3.744   1.439  13.857 -0.0481  0.1934 -0.3046
  856MPD2    C312569   3.658   1.510  13.773  0.7643 -0.5642 -0.5392
  856MPD2    C412570   3.647   1.465  13.642  0.0294 -0.9744 -0.2959
  856MPD2    C512571   3.734   1.369  13.586  0.5844  0.0414  0.1400
  856MPD2     H12572   3.753   1.466  13.961  0.8472 -1.5441  0.0642
  856MPD2    H112573   3.575   1.518  13.580 -1.4057 -3.0270 -0.4000
  856MPD2    H212574   3.916   1.261  13.621 -0.0194 -1.0285  2.2588
  856MPD2    H312575   3.727   1.347  13.481  0.9165  1.1081 -0.1073
  856MPD2     N12576   3.570   1.612  13.822  0.2796 -0.3473 -0.1043
  856MPD2    H512577   3.498   1.651  13.762  1.2872  0.1437 -1.0100
  856MPD2    N112578   3.931   1.307  13.892 -0.0084 -0.1734  0.1046
  856MPD2    H712579   3.915   1.339  13.987  0.9312 -0.0301  0.2141
  857MPD2     C12580   0.391   3.607  12.706 -0.6023 -0.3189 -0.4377
  857MPD2    C112581   0.523   3.586  12.720  0.2118  0.2655 -0.9312
  857MPD2    C212582   0.607   3.692  12.763  0.0716 -0.4819  0.0400
  857MPD2    C312583   0.560   3.819  12.777  0.5938 -0.3859  0.2445
  857MPD2    C412584   0.420   3.838  12.758 -0.1598 -0.1690 -0.3721
  857MPD2    C512585   0.341   3.732  12.726  0.1067 -0.5093  0.1139
  857MPD2     H12586   0.713   3.679  12.782  0.2096 -0.4330 -0.6980
  857MPD2    H112587   0.369   3.932  12.775 -0.0826 -0.0970 -0.5349
  857MPD2    H212588   0.328   3.524  12.674  1.7990 -2.4537  0.3630
  857MPD2    H312589   0.234   3.739  12.710  0.6244  2.0652 -2.1808
  857MPD2     N12590   0.631   3.918  12.847  0.1597 -0.6705  0.5260
  857MPD2    H512591   0.728   3.906  12.876  0.1669 -0.2562  0.6772
  857MPD2    N112592   0.580   3.461  12.692  0.1031 -0.7325  0.6691
  857MPD2    H712593   0.519   3.381  12.677  0.4614 -0.8705 -0.0357
  858MPD2     C12594   0.961   2.426  16.786 -0.9281  0.4734 -0.1457
  858MPD2    C112595   1.092   2.442  16.821  0.5553  0.6600  0.4724
  858MPD2    C212596   1.118   2.553  16.903  0.2392  0.1555 -1.3749
  858MPD2    C312597   1.021   2.628  16.960  0.0482  0.6382 -0.4446
  858MPD2    C412598   0.894   2.613  16.914  0.0759 -0.1689 -0.2468
  858MPD2    C512599   0.863   2.511  16.828  0.4821 -0.5796 -0.5037
  858MPD2     H12600   1.216   2.592  16.928 -0.1727 -1.1668  2.3327
  858MPD2    H112601   0.816   2.678  16.951 -1.5261 -1.2561 -1.7057
  858MPD2    H212602   0.915   2.339  16.741 -1.4469  1.9959 -2.5742
  858MPD2    H312603   0.760   2.498  16.797 -0.5562  0.3802  2.5462
  858MPD2     N12604   1.038   2.726  17.062  0.6723  1.0365  0.1037
  858MPD2    H512605   0.955   2.772  17.097  0.1437  0.4587 -0.4038
  858MPD2    N112606   1.191   2.357  16.763 -0.0358  0.0846  0.1444
  858MPD2    H712607   1.161   2.283  16.700  0.0332  1.2727 -1.2669
  859MPD2     C12608   4.118   0.051  15.166  0.3285 -0.2982  0.3853
  859MPD2    C112609   4.244   0.034  15.206 -0.4982  0.2306  0.4278
  859MPD2    C212610   4.289   4.632  15.227  0.2760 -0.2543 -0.9828
  859MPD2    C312611   4.198   4.527  15.223 -0.0894 -0.6040  0.8614
  859MPD2    C412612   4.070   4.547  15.194 -0.0719 -0.0256 -0.2397
  859MPD2    C512613   4.030   4.671  15.158 -0.5460  0.3987 -0.4767
  859MPD2     H12614   4.393   4.616  15.253 -0.1453 -0.7749  0.4108
  859MPD2    H112615   3.997   4.468  15.180  0.7947 -0.7741 -0.5122
  859MPD2    H212616   4.083   0.148  15.132 -0.3901  0.4261  3.1831
  859MPD2    H312617   3.926   4.691  15.135 -1.2640 -0.5490  1.8879
  859MPD2     N12618   4.231   4.392  15.243 -0.2702 -0.3963  0.3364
  859MPD2    H512619   4.152   4.334  15.269 -1.3926  0.2586 -1.5840
  859MPD2    N112620   4.330   0.150  15.209  0.1457 -0.0313 -0.1005
  859MPD2    H712621   4.277   0.236  15.198  2.4417  1.5689  1.3773
  860MPD2     C12622   2.458   0.403  11.656  0.3126 -0.7355  0.2742
  860MPD2    C112623   2.494   0.428  11.787 -0.1539  0.3470 -0.6355
  860MPD2    C212624   2.449   0.341  11.884  0.0723 -0.2616 -0.2655
  860MPD2    C312625   2.363   0.234  11.857 -0.6729 -1.0137  0.7811
  860MPD2    C412626   2.307   0.224  11.727 -0.0036 -0.1252  0.1334
  860MPD2    C512627   2.357   0.306  11.627  0.3161 -0.0733  0.3819
  860MPD2     H12628   2.479   0.348  11.988  2.0777 -1.2805 -0.7734
  860MPD2    H112629   2.240   0.145  11.693  0.6442 -0.3339 -0.6474
  860MPD2    H212630   2.485   0.458  11.567  1.9242 -0.7901  0.7334
  860MPD2    H312631   2.326   0.276  11.528  0.1613  1.6333 -0.0885
  860MPD2     N12632   2.332   0.155  11.965  0.3535 -0.3891  0.0055
  860MPD2    H512633   2.387   0.181  12.047 -1.2993  0.5483  0.8151
  860MPD2    N112634   2.560   0.545  11.830  0.3391 -0.8047  0.4825
  860MPD2    H712635   2.580   0.547  11.930 -2.8270 -0.1238  1.0830
  861MPD2     C12636   1.392   3.047  10.832  0.3198 -0.1502  0.2694
  861MPD2    C112637   1.335   3.161  10.899 -0.2273 -0.7857 -0.1666
  861MPD2    C212638   1.208   3.204  10.866 -0.1810  0.2844  0.2853
  861MPD2    C312639   1.135   3.145  10.763  1.4295 -0.1235 -0.7314
  861MPD2    C412640   1.191   3.033  10.701 -0.5468  0.5539  0.3152
  861MPD2    C512641   1.314   2.981  10.737 -0.5734 -0.0539 -0.0875
  861MPD2     H12642   1.171   3.291  10.920  0.8797  0.1153  1.2849
  861MPD2    H112643   1.145   2.977  10.619  0.6159 -0.4991  0.3863
  861MPD2    H212644   1.492   3.017  10.858  0.8127 -1.4444 -3.1871
  861MPD2    H312645   1.366   2.903  10.683 -0.1154  0.3597 -0.2437
  861MPD2     N12646   1.007   3.183  10.719 -0.1052  0.5126  0.3930
  861MPD2    H512647   0.972   3.131  10.639  2.6708  1.2758 -1.3087
  861MPD2    N112648   1.399   3.220  11.015  0.1726 -0.2296 -0.5898
  861MPD2    H712649   1.357   3.301  11.059 -1.0128 -1.2324  0.1105
  862MPD2     C12650   0.746   3.248  10.056 -0.2645 -0.0628 -0.4352
  862MPD2    C112651   0.753   3.173  10.167  0.3491 -0.4209 -0.6346
  862MPD2    C212652   0.767   3.037  10.153  0.0105 -0.1319  0.0711
  862MPD2    C312653   0.783   2.979  10.028 -0.1401  0.7255 -0.4999
  862MPD2    C412654   0.764   3.058   9.916  0.2812  0.1852 -0.4269
  862MPD2    C512655   0.748   3.197   9.931 -0.0829  0.2749 -0.8139
  862MPD2     H12656   0.775   2.980  10.245  1.1030 -0.9155 -0.5108
  862MPD2    H112657   0.780   3.025   9.814  0.0648 -0.7662 -0.1495
  862MPD2    H212658   0.726   3.354  10.062 -0.7546 -0.0980 -1.4520
  862MPD2    H312659   0.733   3.250   9.837  0.8164 -0.0796 -1.1652
  862MPD2     N12660   0.812   2.843  10.013 -0.5958 -0.0593  0.2617
  862MPD2    H512661   0.824   2.810   9.918 -0.0777  1.8738 -0.3420
  862MPD2    N112662   0.763   3.220  10.297 -0.2301  0.2765 -0.0620
  862MPD2    H712663   0.764   3.146  10.367 -1.2949 -0.5783 -0.9512
  863MPD2     C12664   4.405   1.055  16.941  0.1661 -0.4470 -0.1193
  863MPD2    C112665   4.412   1.192  16.958 -0.0476 -0.2493  0.5580
  863MPD2    C212666   4.505   1.233  17.060  0.9591  0.1578 -0.1447
  863MPD2    C312667   4.562   1.143  17.144 -0.2520 -1.1668  0.5941
  863MPD2    C412668   4.545   1.006  17.126  0.2130 -0.1131  0.1079
  863MPD2    C512669   4.462   0.965  17.024 -0.1695  0.2329  0.5308
  863MPD2     H12670   4.524   1.339  17.063 -0.9170  0.5024 -0.0323
  863MPD2    H112671   4.595   0.929  17.184  0.4922  1.5024  2.0261
  863MPD2    H212672   4.353   1.002  16.861 -2.9696  2.1136  0.2028
  863MPD2    H312673   4.434   0.860  17.019 -2.4416  0.8219  0.8023
  863MPD2     N12674   4.647   1.196  17.247  0.4649 -0.8799 -0.1761
  863MPD2    H512675   4.641   1.297  17.239  2.2554 -0.6471  1.4145
  863MPD2    N112676   4.355   1.277  16.858  0.5002  0.4638  0.9299
  863MPD2    H712677   4.306   1.241  16.776 -0.0964 -1.4468  2.1314
  864MPD2     C12678   4.248   3.090  17.094  0.2999  0.7334  0.4311
  864MPD2    C112679   4.323   3.003  17.023  0.6548 -0.1110  0.2602
  864MPD2    C212680   4.409   3.053  16.933  0.1987 -0.1422 -0.0252
  864MPD2    C312681   4.430   3.193  16.919 -0.2159  0.1380 -0.5236
  864MPD2    C412682   4.360   3.281  16.998  1.2531 -0.5721 -0.7068
  864MPD2    C512683   4.259   3.225  17.078 -0.5042 -0.4952  0.3052
  864MPD2     H12684   4.473   2.980  16.883  1.4685  2.4438 -2.1447
  864MPD2    H112685   4.372   3.388  16.995  1.9571 -0.6971 -2.2160
  864MPD2    H212686   4.180   3.051  17.169 -2.0654  0.4515 -1.8691
  864MPD2    H312687   4.194   3.287  17.139  1.0573  0.8050  0.6515
  864MPD2     N12688   4.520   3.253  16.821 -0.2279 -1.0669  0.0029
  864MPD2    H512689   4.532   3.354  16.820 -1.5342 -0.9142  0.7688
  864MPD2    N112690   4.321   2.866  17.055 -0.1961 -0.8198 -0.2297
  864MPD2    H712691   4.273   2.836  17.138  0.7574  1.8197  1.2792
  865MPD2     C12692   0.128   3.336  16.037  0.7126  0.2007  0.3876
  865MPD2    C112693   0.100   3.278  16.160  0.9121 -0.5782 -0.4227
  865MPD2    C212694   0.050   3.358  16.266 -0.5317 -0.5076  0.6240
  865MPD2    C312695   0.038   3.493  16.242  0.0766 -0.2847 -0.0781
  865MPD2    C412696   0.069   3.552  16.122  0.0460  0.2698  0.3009
  865MPD2    C512697   0.113   3.475  16.023  0.1435 -0.2117  0.1452
  865MPD2     H12698   0.050   3.313  16.365 -1.4640 -2.7707 -0.4020
  865MPD2    H112699   0.050   3.656  16.102  0.1606  0.2784  0.2367
  865MPD2    H212700   0.151   3.275  15.950 -3.1950 -0.4151 -0.1905
  865MPD2    H312701   0.133   3.521  15.927 -2.7147  2.0266  0.6321
  865MPD2     N12702   0.004   3.589  16.343 -0.1279 -0.4303 -0.0151
  865MPD2    H512703   4.720   3.681  16.303  2.7246  0.2865  0.7639
  865MPD2    N112704   0.145   3.142  16.175 -0.3998 -0.1750  0.1422
  865MPD2    H712705   0.186   3.092  16.098  0.4881  0.1986  0.3767
  866MPD2     C12706   1.821   3.721  11.159 -0.6114 -0.2743 -0.6234
  866MPD2    C112707   1.761   3.642  11.065  0.3883  0.7633 -0.2936
  866MPD2    C212708   1.633   3.674  11.026 -0.6812 -0.1045 -0.7737
  866MPD2    C312709   1.569   3.788  11.075  0.0669  0.0950 -0.1051
  866MPD2    C412710   1.641   3.875  11.149 -0.1650  0.0293  0.2940
  866MPD2    C512711   1.770   3.847  11.189 -0.9227  0.1476  0.1185
  866MPD2     H12712   1.586   3.619  10.946  0.9743  0.6284 -2.2659
  866MPD2    H112713   1.592   3.966  11.184 -0.0900  0.0843  0.2570
  866MPD2    H212714   1.924   3.712  11.189 -0.6905 -0.2300 -0.3362
  866MPD2    H312715   1.819   3.922  11.250 -0.7299 -0.4548  0.6993
  866MPD2     N12716   1.435   3.832  11.041  0.7091 -0.6786 -0.5451
  866MPD2    H512717   1.391   3.908  11.091  2.2969 -0.0045 -0.1658
  866MPD2    N112718   1.843   3.534  11.024  0.1289  0.3942 -0.5288
  866MPD2    H712719   1.941   3.549  11.044  0.4736 -0.9824 -1.2163
  867MPD2     C12720   4.534   3.304  17.663 -0.1788  0.2902 -0.2594
  867MPD2    C112721   4.410   3.242  17.673  0.3876 -0.3277 -0.3124
  867MPD2    C212722   4.302   3.306   0.025 -0.1646 -0.3202  0.2244
  867MPD2    C312723   4.315   3.445   0.059 -0.5154 -0.0570 -0.4307
  867MPD2    C412724   4.435   3.507   0.049  1.4111  0.0510 -0.7524
  867MPD2    C512725   4.541   3.436  17.696  0.5990 -0.2802  1.0075
  867MPD2     H12726   4.209   3.253   0.041  0.4014 -1.5072 -0.4382
  867MPD2    H112727   4.438   3.608   0.088 -0.2740  0.9020 -2.7848
  867MPD2    H212728   4.623   3.250  17.633  0.0892 -0.3838  1.7909
  867MPD2    H312729   4.639   3.481  17.701 -0.5489  2.4290 -0.5189
  867MPD2     N12730   4.209   3.516   0.125 -0.8189 -0.5426  0.5520
  867MPD2    H512731   4.238   3.606   0.161  1.0142 -0.7133 -0.4799
  867MPD2    N112732   4.398   3.113  17.628 -0.4379 -0.0689  0.4456
  867MPD2    H712733   4.484   3.059  17.619  1.5643  3.1078  0.5426
  868MPD2     C12734   0.641   1.062  13.257  0.7789 -0.5025 -0.1544
  868MPD2    C112735   0.720   1.167  13.254 -0.2003 -0.0649 -0.4383
  868MPD2    C212736   0.673   1.295  13.285  0.5798 -1.5672  0.0502
  868MPD2    C312737   0.534   1.308  13.312  0.7746  0.4356 -0.2180
  868MPD2    C412738   0.452   1.200  13.307 -0.6038  0.2325 -0.6598
  868MPD2    C512739   0.507   1.078  13.276 -0.5119  0.6958 -0.1797
  868MPD2     H12740   0.733   1.384  13.276  0.1962 -1.1751  1.3036
  868MPD2    H112741   0.344   1.210  13.317 -0.6126  0.9925 -1.5195
  868MPD2    H212742   0.682   0.965  13.231 -0.5227 -0.4175 -2.6042
  868MPD2    H312743   0.438   0.995  13.283 -0.8883  0.9771 -0.5595
  868MPD2     N12744   0.487   1.435  13.363  1.0033 -0.7604 -0.6652
  868MPD2    H512745   0.557   1.508  13.364 -0.1731  0.3831 -1.5353
  868MPD2    N112746   0.856   1.144  13.212  0.3185 -0.4327 -0.4645
  868MPD2    H712747   0.891   1.048  13.210  1.8748  0.1427 -0.5973
  869MPD2     C12748   2.236   4.002   1.527  0.1490  0.2918  0.7016
  869MPD2    C112749   2.106   3.970   1.551 -0.3890  0.1093 -0.2301
  869MPD2    C212750   2.008   4.042   1.479 -0.2124  0.5799 -0.4423
  869MPD2    C312751   2.045   4.155   1.404 -0.7180  0.2211 -0.3423
  869MPD2    C412752   2.177   4.186   1.385 -0.2817  0.2062  0.5705
  869MPD2    C512753   2.267   4.102   1.444  0.3238 -0.3148  0.5409
  869MPD2     H12754   1.906   4.012   1.501  0.3775 -2.3645 -1.7916
  869MPD2    H112755   2.213   4.268   1.323 -0.5435 -0.9947 -1.1632
  869MPD2    H212756   2.321   3.946   1.565  1.2067  0.2161 -1.7871
  869MPD2    H312757   2.372   4.123   1.424  0.1856 -2.2268 -2.3121
  869MPD2     N12758   1.947   4.239   1.356  0.1728 -0.4697  0.4351
  869MPD2    H512759   1.977   4.323   1.308  1.8706 -0.8960  0.7320
  869MPD2    N112760   2.078   3.868   1.647 -0.2388  0.1343 -0.0437
  869MPD2    H712761   2.149   3.796   1.660  0.0726  0.1288 -1.7711
  870MPD2     C12762   0.777   3.678   1.456  0.5950 -0.2408  0.2784
  870MPD2    C112763   0.909   3.674   1.436 -0.1669 -0.8824 -0.4084
  870MPD2    C212764   0.964   3.748   1.334  0.0466  0.0882  0.0265
  870MPD2    C312765   0.884   3.842   1.266  0.7261  0.1505  0.2627
  870MPD2    C412766   0.752   3.843   1.292 -0.8856  0.0043 -0.1643
  870MPD2    C512767   0.701   3.749   1.374  0.2860  0.5043 -0.5135
  870MPD2     H12768   1.071   3.750   1.319 -0.2834  2.0604 -2.0625
  870MPD2    H112769   0.673   3.899   1.243  0.4719  1.3847 -0.7703
  870MPD2    H212770   0.734   3.605   1.523  2.5618 -1.0214  0.6909
  870MPD2    H312771   0.594   3.732   1.380  0.3396  1.2697  2.6817
  870MPD2     N12772   0.941   3.914   1.158  0.4511  0.0232  0.0524
  870MPD2    H512773   1.039   3.895   1.138  0.1366  0.8221 -2.2215
  870MPD2    N112774   0.987   3.598   1.529  0.1245 -0.7110 -0.4364
  870MPD2    H712775   0.947   3.568   1.618 -2.7187  0.5231 -1.2968
  871MPD2     C12776   2.583   3.265  16.335 -0.2728 -0.2753  0.3953
  871MPD2    C112777   2.557   3.185  16.446 -0.8477 -0.0871  0.3661
  871MPD2    C212778   2.587   3.050  16.446  0.1442 -0.4274  1.2142
  871MPD2    C312779   2.636   2.985  16.334 -0.9557 -0.0352  0.5343
  871MPD2    C412780   2.658   3.062  16.224  0.1008  0.5267  0.3427
  871MPD2    C512781   2.633   3.202  16.227 -0.9060  0.4396 -0.4401
  871MPD2     H12782   2.558   2.986  16.529 -1.9684 -1.5964 -0.4278
  871MPD2    H112783   2.701   3.015  16.136 -0.6513 -1.6844  1.1617
  871MPD2    H212784   2.555   3.369  16.328 -0.5250 -0.3774 -0.0952
  871MPD2    H312785   2.647   3.269  16.142 -1.7550 -0.2407 -1.1142
  871MPD2     N12786   2.669   2.851  16.343 -0.6556 -0.1190 -0.1549
  871MPD2    H512787   2.633   2.801  16.424 -1.0701 -1.4269 -1.1421
  871MPD2    N112788   2.500   3.248  16.561 -1.0499 -0.3511  0.5840
  871MPD2    H712789   2.496   3.350  16.562  3.3905 -0.1240 -1.5451
  872MPD2     C12790   3.299   0.867  13.912 -0.8977 -0.8462  0.2498
  872MPD2    C112791   3.386   0.789  13.987  0.0716 -0.0340 -0.6585
  872MPD2    C212792   3.348   0.739  14.109 -0.0533  0.2098  0.6527
  872MPD2    C312793   3.218   0.779  14.165 -0.2701  0.4167 -0.4605
  872MPD2    C412794   3.139   0.863  14.090  0.9617  0.0721 -0.2268
  872MPD2    C512795   3.181   0.913  13.965 -0.6612  1.0054 -0.5173
  872MPD2     H12796   3.420   0.690  14.174  2.5396  0.9022 -1.7435
  872MPD2    H112797   3.046   0.902  14.130 -0.8490 -0.3926 -3.9560
  872MPD2    H212798   3.329   0.896  13.812  1.5932  1.3328  1.6300
  872MPD2    H312799   3.121   0.984  13.910 -0.1469  1.5717 -0.3385
  872MPD2     N12800   3.169   0.733  14.291  0.1728  0.0616 -0.2448
  872MPD2    H512801   3.073   0.756  14.315  0.6074  0.9075  0.6996
  872MPD2    N112802   3.502   0.749  13.920  0.3688 -0.1245  0.1462
  872MPD2    H712803   3.503   0.775  13.822  1.7457 -0.0341  0.1708
  873MPD2     C12804   0.324   0.224   1.165 -0.2495  0.0657  0.2418
  873MPD2    C112805   0.223   0.183   1.257 -0.3332 -0.4397  0.3687
  873MPD2    C212806   0.157   0.060   1.239  0.6631 -0.3262  0.6512
  873MPD2    C312807   0.187   4.711   1.120 -1.0828 -0.5879 -0.1954
  873MPD2    C412808   0.271   0.038   1.019 -0.0442  0.8349  0.6668
  873MPD2    C512809   0.351   0.149   1.051  0.3383 -0.1630  0.4554
  873MPD2     H12810   0.085   0.022   1.310  0.7118  2.9043  2.4412
  873MPD2    H112811   0.300   4.710   0.930  0.7099 -0.6500  1.8287
  873MPD2    H212812   0.389   0.307   1.190  1.1474 -1.1765  0.7892
  873MPD2    H312813   0.431   0.175   0.982  0.4119 -1.6507 -0.0177
  873MPD2     N12814   0.122   4.588   1.092 -0.0753  1.0060 -0.1098
  873MPD2    H512815   0.138   4.542   1.003 -1.5871  0.1078  0.0828
  873MPD2    N112816   0.197   0.268   1.364 -0.7107  0.0321 -0.4121
  873MPD2    H712817   0.255   0.351   1.373  1.9854 -1.7998 -0.9430
  874MPD2     C12818   4.717   0.844  16.421 -0.6037 -0.2395  0.1087
  874MPD2    C112819   0.089   0.813  16.507 -0.1567  0.5414  0.1775
  874MPD2    C212820   0.210   0.885  16.506  0.3287 -0.5262 -0.5610
  874MPD2    C312821   0.226   0.986  16.419  0.6907  0.3224 -0.5891
  874MPD2    C412822   0.130   1.016  16.325  0.3260 -0.1461 -0.2238
  874MPD2    C512823   0.018   0.939  16.328  0.7247 -0.0100  0.0692
  874MPD2     H12824   0.290   0.870  16.577  0.7516 -2.1624 -1.3829
  874MPD2    H112825   0.139   1.103  16.260 -0.8454  0.6137  0.6243
  874MPD2    H212826   4.624   0.788  16.418 -0.6639 -0.1201 -0.2892
  874MPD2    H312827   4.666   0.970  16.260  0.1175  0.4470  0.9883
  874MPD2     N12828   0.347   1.063  16.433 -0.0110 -0.2384 -0.2828
  874MPD2    H512829   0.403   1.046  16.516  2.0238  0.2466 -1.5561
  874MPD2    N112830   0.067   0.693  16.590  0.3575  0.0617 -0.9259
  874MPD2    H712831   4.702   0.651  16.591 -0.2182  1.3952  1.1582
  875MPD2     C12832   1.291   3.577  14.706  0.3189  0.5326 -0.0459
  875MPD2    C112833   1.239   3.701  14.690 -0.1221  0.7201 -0.2542
  875MPD2    C212834   1.257   3.800  14.782  0.8901  0.0171  0.4891
  875MPD2    C312835   1.342   3.784  14.891 -0.0287 -0.7951 -0.2783
  875MPD2    C412836   1.408   3.664  14.901  0.4740 -0.0479 -0.0053
  875MPD2    C512837   1.381   3.566  14.809  0.2669 -0.0652 -0.2980
  875MPD2     H12838   1.213   3.899  14.773 -0.9913 -0.6624  2.1636
  875MPD2    H112839   1.479   3.642  14.980  0.4128 -1.9266 -0.4652
  875MPD2    H212840   1.283   3.482  14.655 -0.5204  1.0578 -0.8894
  875MPD2    H312841   1.429   3.470  14.823 -1.0141 -0.4546  1.3160
  875MPD2     N12842   1.343   3.880  14.994  0.1408  0.5542 -0.2370
  875MPD2    H512843   1.279   3.958  14.987 -0.7928 -0.1349  0.6136
  875MPD2    N112844   1.160   3.727  14.571 -0.2981  0.5163  0.8545
  875MPD2    H712845   1.117   3.815  14.546 -0.9291  0.6681  2.4140
  876MPD2     C12846   0.048   0.398  16.258  0.1657  0.5453  0.8835
  876MPD2    C112847   0.137   0.344  16.165  0.1433  0.6143  0.2126
  876MPD2    C212848   0.193   0.216  16.201  0.0477 -0.0977  0.7810
  876MPD2    C312849   0.166   0.142  16.313  0.6323 -0.6591  0.1278
  876MPD2    C412850   0.073   0.197  16.398 -0.4614  0.0404 -0.0199
  876MPD2    C512851   0.015   0.315  16.370 -0.6850 -0.2268 -0.0206
  876MPD2     H12852   0.247   0.161  16.124 -0.0401 -1.0364  1.3909
  876MPD2    H112853   0.035   0.154  16.490  0.1336  1.4518  0.8918
  876MPD2    H212854   0.006   0.497  16.246  0.7364  0.4874 -1.7446
  876MPD2    H312855   4.667   0.343  16.442  1.6678 -0.3674  2.4922
  876MPD2     N12856   0.236   0.028  16.330 -0.5951 -0.2704  0.4974
  876MPD2    H512857   0.314   0.017  16.266 -2.8339 -0.6476 -2.1672
  876MPD2    N112858   0.171   0.417  16.044  0.0733  0.5991  0.2386
  876MPD2    H712859   0.130   0.508  16.031 -0.3183  0.6209  1.6378
  877MPD2     C12860   4.712   0.776  15.408 -0.4652 -0.3965  0.0567
  877MPD2    C112861   0.119   0.792  15.419  0.1466  0.5204  0.1486
  877MPD2    C212862   0.190   0.843  15.315 -0.8386 -0.1102 -0.0950
  877MPD2    C312863   0.131   0.904  15.204  1.4784  0.1347  0.3072
  877MPD2    C412864   4.726   0.885  15.186  0.1410  0.5186 -0.0286
  877MPD2    C512865   4.655   0.827  15.289  0.1616 -0.2880  0.8569
  877MPD2     H12866   0.298   0.837  15.322 -0.9058 -1.3331 -0.1776
  877MPD2    H112867   4.675   0.920  15.096 -0.4739  0.4374  0.2913
  877MPD2    H212868   4.647   0.730  15.482  1.3631 -0.6707  1.4726
  877MPD2    H312869   4.549   0.819  15.267 -0.0328  2.2058  0.8670
  877MPD2     N12870   0.199   0.980  15.107  0.2235  0.2555  0.2362
  877MPD2    H512871   0.144   1.016  15.030  0.1027 -0.6606 -0.1083
  877MPD2    N112872   0.194   0.750  15.528  0.0794  0.1646 -0.0428
  877MPD2    H712873   0.293   0.772  15.519  0.1906 -0.2374  0.1861
  878MPD2     C12874   4.080   4.465  13.288  0.7808  0.1836 -0.2570
  878MPD2    C112875   4.177   4.551  13.252 -0.4756  0.4143  0.0061
  878MPD2    C212876   4.247   4.633  13.345  0.1142  0.4106  0.3260
  878MPD2    C312877   4.216   4.630  13.482 -0.3763  0.5918 -0.0446
  878MPD2    C412878   4.127   4.529  13.516 -0.2443 -0.3815 -0.6772
  878MPD2    C512879   4.060   4.459  13.422  0.0157  0.4036 -0.2973
  878MPD2     H12880   4.309   4.718  13.322 -0.5202  1.0177  0.8709
  878MPD2    H112881   4.083   4.526  13.615 -0.4382 -3.4122 -0.8838
  878MPD2    H212882   4.010   4.410  13.227 -1.5168 -1.8854  4.1913
  878MPD2    H312883   3.983   4.394  13.463  2.0660 -3.4466 -2.6194
  878MPD2     N12884   4.280   4.724  13.574 -0.2930  0.1853 -0.2361
  878MPD2    H512885   4.347   0.063  13.537  0.3420 -0.3415 -0.0262
  878MPD2    N112886   4.188   4.566  13.111 -0.4957 -0.5872 -0.2107
  878MPD2    H712887   4.129   4.509  13.050  0.1187 -1.6260  0.1814
  879MPD2     C12888   0.483   1.373  17.513  0.3336  0.0140 -0.9067
  879MPD2    C112889   0.462   1.239  17.515  0.4135 -0.3527  0.1640
  879MPD2    C212890   0.388   1.186  17.416  0.1276 -0.9013  0.1538
  879MPD2    C312891   0.345   1.258  17.309 -0.2682  0.0128  0.7144
  879MPD2    C412892   0.368   1.392  17.303 -0.5949 -0.2349  0.2608
  879MPD2    C512893   0.429   1.456  17.408 -0.3921  0.2472 -0.5280
  879MPD2     H12894   0.365   1.080  17.422  2.0248 -1.4123 -1.3266
  879MPD2    H112895   0.332   1.460  17.227  1.9274  0.2099 -0.5260
  879MPD2    H212896   0.538   1.424  17.591  1.6002 -1.8489 -0.5854
  879MPD2    H312897   0.443   1.563  17.403 -0.5701  0.3091  0.3448
  879MPD2     N12898   0.293   1.198  17.194  0.6917  0.6438 -0.2952
  879MPD2    H512899   0.253   1.260  17.124 -1.3506  0.9937  1.1678
  879MPD2    N112900   0.515   1.160  17.620  0.8340 -0.1684 -0.1293
  879MPD2    H712901   0.594   1.201  17.670 -0.2153  1.5072  0.1358
  880MPD2     C12902   1.784   3.211   0.810 -0.1815  0.1046 -0.4092
  880MPD2    C112903   1.731   3.157   0.698  0.3630  0.7124 -0.0957
  880MPD2    C212904   1.677   3.026   0.693 -0.0980 -0.2834  0.0708
  880MPD2    C312905   1.694   2.937   0.804 -0.8165 -0.4574 -0.6431
  880MPD2    C412906   1.756   2.986   0.915 -0.2661  0.4543 -0.3318
  880MPD2    C512907   1.788   3.121   0.923 -0.2625  0.1462 -0.2279
  880MPD2     H12908   1.626   2.997   0.601  1.5145 -1.2098 -0.5283
  880MPD2    H112909   1.782   2.933   1.006 -2.4796 -2.0506 -1.2001
  880MPD2    H212910   1.826   3.310   0.822 -0.8677  0.3399  0.0292
  880MPD2    H312911   1.818   3.170   1.015 -2.9052 -2.4746  2.0158
  880MPD2     N12912   1.651   2.804   0.787 -0.3289  0.3537  0.1655
  880MPD2    H512913   1.593   2.788   0.705  0.2117  0.1611 -0.1808
  880MPD2    N112914   1.705   3.250   0.594  0.8385 -0.0027 -0.4794
  880MPD2    H712915   1.724   3.349   0.606 -1.3098  0.5610 -1.7055
  881MPD2     C12916   1.444   3.252  17.283  0.2217  0.2461  0.0352
  881MPD2    C112917   1.498   3.371  17.319 -0.3396  0.3826  0.1687
  881MPD2    C212918   1.535   3.385  17.454  1.0101 -0.2418  0.5461
  881MPD2    C312919   1.505   3.286  17.548  0.2522  0.1371  0.1096
  881MPD2    C412920   1.425   3.176  17.508  0.0885  0.4299  0.3199
  881MPD2    C512921   1.403   3.162  17.376  0.0762 -0.4217  0.3084
  881MPD2     H12922   1.594   3.471  17.486 -0.6938  0.8680  0.7076
  881MPD2    H112923   1.389   3.101  17.578  4.4032 -1.1428  0.8652
  881MPD2    H212924   1.400   3.239  17.185 -0.2702 -1.1733  0.4419
  881MPD2    H312925   1.343   3.073  17.357 -0.9711  0.3426  0.0403
  881MPD2     N12926   1.517   3.309  17.688 -0.9699 -0.4910 -0.1809
  881MPD2    H512927   1.485   3.232   0.035 -0.6284  0.8757  1.8747
  881MPD2    N112928   1.536   3.472  17.226 -0.5532 -0.4033 -0.2400
  881MPD2    H712929   1.529   3.440  17.130  0.6800  1.9359 -1.1086
  882MPD2     C12930   0.221   0.924  14.304 -0.7354  0.5076 -0.1173
  882MPD2    C112931   0.174   0.947  14.431 -0.2032 -0.1922 -0.3279
  882MPD2    C212932   0.063   0.878  14.476 -0.6429  0.1931 -0.0883
  882MPD2    C312933   4.718   0.804  14.379 -0.0338 -0.1624 -0.0157
  882MPD2    C412934   0.024   0.807  14.246  0.5606  0.5457  0.8608
  882MPD2    C512935   0.143   0.861  14.215 -0.4710 -0.6843 -0.6383
  882MPD2     H12936   0.031   0.895  14.578 -0.5359  1.4657 -0.2629
  882MPD2    H112937   4.692   0.755  14.172  1.1640 -0.2136  0.9080
  882MPD2    H212938   0.315   0.970  14.276  0.3732 -1.4508  0.4108
  882MPD2    H312939   0.167   0.849  14.110  0.7195  0.2670 -0.4753
  882MPD2     N12940   4.607   0.722  14.421  0.0760  0.1626  0.6094
  882MPD2    H512941   4.535   0.700  14.353  0.0694  0.2992  0.5734
  882MPD2    N112942   0.268   1.002  14.522  0.1841  0.4944 -0.1002
  882MPD2    H712943   0.355   1.034  14.482  0.3647 -0.1359 -0.2082
  883MPD2     C12944   2.303   0.610  16.802 -0.2166 -0.2133  0.5680
  883MPD2    C112945   2.396   0.639  16.702 -0.2251  0.8154 -0.0299
  883MPD2    C212946   2.519   0.696  16.737  0.0382  0.0461  0.0518
  883MPD2    C312947   2.558   0.705  16.869  0.3143 -0.4189  0.4360
  883MPD2    C412948   2.469   0.670  16.965  0.0230  0.4729 -0.1851
  883MPD2    C512949   2.345   0.617  16.932  0.3847  0.3008 -0.2390
  883MPD2     H12950   2.593   0.723  16.663 -2.1096  0.2898 -2.0214
  883MPD2    H112951   2.483   0.677  17.072  1.4951 -1.2167 -0.2508
  883MPD2    H212952   2.209   0.559  16.785  0.7062 -0.7140 -3.0094
  883MPD2    H312953   2.274   0.591  17.010  0.7106 -0.6067 -0.2463
  883MPD2     N12954   2.689   0.754  16.897  0.0874  0.2309 -0.0997
  883MPD2    H512955   2.749   0.755  16.816 -0.0447 -1.5435 -0.2205
  883MPD2    N112956   2.361   0.642  16.568  0.1445  0.6229  0.5436
  883MPD2    H712957   2.431   0.677  16.503 -0.5017  0.1063 -0.4381
  884MPD2     C12958   3.934   1.347  15.585 -0.0980  0.4275  0.1632
  884MPD2    C112959   3.931   1.467  15.519 -0.6408  0.0997 -0.3013
  884MPD2    C212960   3.813   1.523  15.488 -0.2096  0.8449 -0.3764
  884MPD2    C312961   3.692   1.459  15.513 -0.8572 -0.4895  0.3490
  884MPD2    C412962   3.695   1.346  15.592 -0.0094 -0.2509 -0.6272
  884MPD2    C512963   3.815   1.291  15.629 -0.8696  0.0236  0.3095
  884MPD2     H12964   3.813   1.612  15.425  0.1376 -0.1883 -1.8539
  884MPD2    H112965   3.607   1.299  15.633 -0.5652  0.2904 -1.2002
  884MPD2    H212966   4.025   1.297  15.614 -1.1146 -2.5032 -1.7105
  884MPD2    H312967   3.815   1.199  15.687  1.0123  0.6120  1.2576
  884MPD2     N12968   3.567   1.533  15.492 -0.3810  0.2149  0.5706
  884MPD2    H512969   3.572   1.626  15.452 -1.3885  1.2422  2.8804
  884MPD2    N112970   4.047   1.541  15.487  0.6141 -0.8202  0.4831
  884MPD2    H712971   4.025   1.635  15.454  0.8406 -1.1061 -0.4675
  885MPD2     C12972   2.110   1.945   0.070  0.3364  0.7566 -0.3787
  885MPD2    C112973   2.221   1.879   0.038 -0.0099  0.7491  0.0864
  885MPD2    C212974   2.270   1.883  17.619  0.3312 -1.0195 -0.0834
  885MPD2    C312975   2.200   1.950  17.514 -0.6524  0.0758 -0.0401
  885MPD2    C412976   2.084   2.013  17.550  0.7290 -0.4483 -0.2979
  885MPD2    C512977   2.037   2.009  17.677 -0.6744 -0.0882  0.3730
  885MPD2     H12978   2.362   1.834  17.588 -0.3680 -3.7622  2.1556
  885MPD2    H112979   2.025   2.072  17.481 -0.2518  1.2954  2.0499
  885MPD2    H212980   2.069   1.963   0.169 -0.7565  1.1838 -0.9046
  885MPD2    H312981   1.933   2.030  17.700 -0.5845 -1.7216  2.2155
  885MPD2     N12982   2.270   1.975  17.390  0.0276 -0.0741  0.0151
  885MPD2    H512983   2.356   1.922  17.376  2.4787  3.7233  0.7415
  885MPD2    N112984   2.294   1.824   0.144 -0.3544  0.2188  0.0370
  885MPD2    H712985   2.260   1.846   0.237  4.5937  1.2349  1.6333
  886MPD2     C12986   3.522   4.605  15.181 -0.6589 -0.1971  1.1445
  886MPD2    C112987   3.626   4.672  15.240  0.2984  0.1383  0.6982
  886MPD2    C212988   3.633   0.077  15.210  0.4385 -0.3412  0.3489
  886MPD2    C312989   3.535   0.152  15.142  0.3544 -0.2638  0.1645
  886MPD2    C412990   3.427   0.082  15.095  0.1535 -0.1586 -0.2232
  886MPD2    C512991   3.426   4.671  15.115 -0.2359 -0.7018  0.5829
  886MPD2     H12992   3.720   0.130  15.248  1.3924 -0.3592 -1.8262
  886MPD2    H112993   3.353   0.128  15.031 -0.9885 -2.0776 -0.3096
  886MPD2    H212994   3.507   4.500  15.201 -0.3777 -1.0249 -2.9695
  886MPD2    H312995   3.355   4.607  15.064 -0.5935 -0.5588  0.8982
  886MPD2     N12996   3.554   0.296  15.131 -0.0597 -0.1368 -0.0493
  886MPD2    H512997   3.641   0.332  15.167 -0.7858  0.0424  1.5204
  886MPD2    N112998   3.721   4.616  15.326 -0.0778  0.1873 -0.0465
  886MPD2    H712999   3.782   4.677  15.378 -0.1848 -0.1909  0.5191
  887MPD2     C13000   4.391   0.008  15.576  0.2792  0.5162  0.0366
  887MPD2    C113001   4.261   0.055  15.556 -0.6640  0.2115 -0.3390
  887MPD2    C213002   4.250   0.193  15.552 -0.6150 -0.9785  0.5095
  887MPD2    C313003   4.355   0.279  15.555 -0.0329 -0.5349 -0.1852
  887MPD2    C413004   4.478   0.231  15.565  0.5477 -1.0861  0.2191
  887MPD2    C513005   4.497   0.093  15.579 -0.0793  0.6122  0.8149
  887MPD2     H13006   4.151   0.238  15.545 -0.5887 -0.5339  2.9272
  887MPD2    H113007   4.572   0.284  15.572  1.4714 -2.5435 -1.0205
  887MPD2    H213008   4.410   4.629  15.583  1.7637  0.9847  3.1572
  887MPD2    H313009   4.598   0.059  15.594  0.2415  1.6372  0.9902
  887MPD2     N13010   4.327   0.417  15.563  0.5225 -0.0831  0.3935
  887MPD2    H513011   4.227   0.438  15.562  0.9454  1.9592  3.2280
  887MPD2    N113012   4.151   4.697  15.541 -1.0561  0.3962 -0.7649
  887MPD2    H713013   4.060   0.014  15.535 -1.9681 -1.2091  1.1999
  888MPD2     C13014   1.161   0.236  14.974  0.3434  0.1857  0.5553
  888MPD2    C113015   1.210   0.241  15.106  0.3114 -0.5881  0.3563
  888MPD2    C213016   1.290   0.346  15.141  0.5082 -0.4935 -0.7753
  888MPD2    C313017   1.329   0.445  15.043 -0.0451  0.6490  0.0192
  888MPD2    C413018   1.284   0.427  14.908  0.1803  0.2618  0.0928
  888MPD2    C513019   1.211   0.322  14.875  0.2228 -0.0163 -0.5206
  888MPD2     H13020   1.328   0.355  15.242  1.1285  0.8384 -1.1285
  888MPD2    H113021   1.310   0.494  14.826  3.8188 -1.5610 -0.2524
  888MPD2    H213022   1.107   0.151  14.932  0.4058  0.6636 -0.4954
  888MPD2    H313023   1.189   0.307  14.770 -0.2652  0.2632 -0.4607
  888MPD2     N13024   1.381   0.563  15.092 -0.2296 -0.1793  0.4560
  888MPD2    H513025   1.390   0.576  15.192 -0.3339 -2.3672  0.7518
  888MPD2    N113026   1.183   0.144  15.208 -0.1365  0.1348 -0.3480
  888MPD2    H713027   1.238   0.154  15.292  0.4785 -0.6591 -0.6554
  889MPD2     C13028   0.809   0.026  13.087 -0.4358 -0.2636 -0.2608
  889MPD2    C113029   0.751   4.659  13.175 -0.1001  0.1150 -0.0443
  889MPD2    C213030   0.738   4.697  13.306  0.1456  0.1821  0.4592
  889MPD2    C313031   0.794   0.094  13.352  0.5639  0.5399 -0.0271
  889MPD2    C413032   0.837   0.192  13.259  0.3506 -0.0100  0.0555
  889MPD2    C513033   0.838   0.155  13.125  0.3767  0.5943 -0.8592
  889MPD2     H13034   0.696   4.639  13.388  1.1317  0.1274  0.9326
  889MPD2    H113035   0.858   0.295  13.282  2.1973 -0.8198  1.9721
  889MPD2    H213036   0.813   4.726  12.982  2.2234  1.3224 -0.5578
  889MPD2    H313037   0.879   0.231  13.059  1.2455 -0.0465 -1.0606
  889MPD2     N13038   0.791   0.119  13.486  0.6965  0.1024  0.0960
  889MPD2    H513039   0.739   0.051  13.541  0.3035  0.1239 -0.2476
  889MPD2    N113040   0.749   4.519  13.139  0.4518 -0.6962  0.0234
  889MPD2    H713041   0.751   4.446  13.208 -0.3710 -0.6611  0.0804
  890MPD2     C13042   0.469   1.487  14.746 -0.6152  0.5473  0.1840
  890MPD2    C113043   0.438   1.548  14.867  0.6613 -0.7674 -0.7623
  890MPD2    C213044   0.474   1.482  14.980 -1.1407 -0.8121  0.3323
  890MPD2    C313045   0.550   1.367  14.990 -0.4735 -0.3990  0.7512
  890MPD2    C413046   0.597   1.319  14.870  0.3456  0.6473  0.0477
  890MPD2    C513047   0.552   1.372  14.748 -0.6080 -0.4832  0.1376
  890MPD2     H13048   0.439   1.530  15.071  1.2677  1.2244  0.2071
  890MPD2    H113049   0.663   1.234  14.864  0.5697  1.0225 -2.9036
  890MPD2    H213050   0.438   1.528  14.651  1.4879 -1.0803 -1.2099
  890MPD2    H313051   0.588   1.326  14.656 -0.0304  1.3323 -0.5422
  890MPD2     N13052   0.578   1.297  15.112 -0.0111 -0.2762  0.5076
  890MPD2    H513053   0.650   1.225  15.113 -0.5990 -0.8452  1.7307
  890MPD2    N113054   0.384   1.682  14.868 -0.4494 -0.0371  0.4763
  890MPD2    H713055   0.363   1.729  14.780  0.3063 -0.0152  0.3078
  891MPD2     C13056   3.031   0.000  16.505 -0.1152 -0.3773 -0.0638
  891MPD2    C113057   2.964   4.721  16.628  0.1014  0.4240  0.0775
  891MPD2    C213058   3.037   4.675  16.735  0.1514  0.2993 -0.1776
  891MPD2    C313059   3.176   4.649  16.721 -0.6945  0.2859  0.3984
  891MPD2    C413060   3.238   4.664  16.596  0.3776 -0.7676  0.2385
  891MPD2    C513061   3.161   4.695  16.487 -0.0192  0.0036 -0.7322
  891MPD2     H13062   2.994   4.661  16.834  1.2207  2.6543  0.6037
  891MPD2    H113063   3.344   4.645  16.583  0.6968  0.1955  1.4148
  891MPD2    H213064   2.973   0.031  16.419  0.6259  1.9388  0.2755
  891MPD2    H313065   3.196   4.702  16.384  0.1535 -1.4432 -0.7824
  891MPD2     N13066   3.260   4.626  16.837  0.3187 -0.0484  0.4960
  891MPD2    H513067   3.203   4.602  16.917 -1.6962  1.5170 -0.4662
  891MPD2    N113068   2.833   0.037  16.631 -0.0581  0.1282  0.3064
  891MPD2    H713069   2.795   0.067  16.542 -0.3607  0.1338  0.4353
  892MPD2     C13070   3.990   1.325  14.612 -0.2195 -0.0003 -0.3022
  892MPD2    C113071   3.931   1.213  14.664 -0.3135 -0.3518  0.2719
  892MPD2    C213072   3.993   1.089  14.660  0.3316  0.2909 -0.1162
  892MPD2    C313073   4.119   1.076  14.604  0.1402  0.1202 -0.1578
  892MPD2    C413074   4.183   1.194  14.561  0.1390 -0.0556 -0.2177
  892MPD2    C513075   4.117   1.314  14.565 -0.4412  0.3708 -0.5771
  892MPD2     H13076   3.942   1.002  14.698 -0.6139  0.5004 -0.8977
  892MPD2    H113077   4.281   1.196  14.514  0.2771  0.3799  0.0902
  892MPD2    H213078   3.944   1.423  14.611  1.6451  0.8945  0.8201
  892MPD2    H313079   4.166   1.404  14.531  0.2769  0.5227  0.8433
  892MPD2     N13080   4.186   0.948  14.571 -0.0280  0.2337 -0.5990
  892MPD2    H513081   4.287   0.960  14.561  0.1130 -0.3482  0.1082
  892MPD2    N113082   3.806   1.243  14.722 -0.5809  0.6597  0.3356
  892MPD2    H713083   3.771   1.338  14.722 -2.9262 -0.1830  0.7767
  893MPD2     C13084   0.555   3.713   1.932 -0.0665  0.2710  0.0836
  893MPD2    C113085   0.535   3.798   1.825  0.6618  0.8358 -0.6057
  893MPD2    C213086   0.412   3.828   1.780 -0.2064  0.2636  0.4705
  893MPD2    C313087   0.304   3.775   1.837 -0.7951  0.1657 -0.3572
  893MPD2    C413088   0.324   3.683   1.940  0.3012 -0.0524 -0.1107
  893MPD2    C513089   0.445   3.651   1.992 -0.5345 -0.6418 -0.7420
  893MPD2     H13090   0.396   3.911   1.711  0.3863 -0.0477 -0.0479
  893MPD2    H113091   0.242   3.639   1.996 -0.4569  2.2644  0.5896
  893MPD2    H213092   0.654   3.711   1.976  0.0562  1.4710 -0.1268
  893MPD2    H313093   0.456   3.577   2.070  0.9291  0.4709  0.1142
  893MPD2     N13094   0.172   3.811   1.809 -0.0314 -0.4184 -0.7584
  893MPD2    H513095   0.097   3.784   1.872  0.1815  0.3144 -0.1839
  893MPD2    N113096   0.648   3.864   1.773  0.1925  0.5600 -0.2874
  893MPD2    H713097   0.733   3.822   1.809  0.3373  1.6012  0.5945
  894MPD2     C13098   3.452   1.409   1.531  0.0312 -0.1736 -0.1125
  894MPD2    C113099   3.419   1.485   1.421 -0.0745 -0.4058  0.7404
  894MPD2    C213100   3.529   1.525   1.341  0.5677 -0.0675 -0.3064
  894MPD2    C313101   3.665   1.488   1.369 -0.9130  0.0865 -0.7221
  894MPD2    C413102   3.684   1.418   1.484 -0.4377  0.0824 -0.3191
  894MPD2    C513103   3.581   1.380   1.566 -0.7232 -0.3154  0.6632
  894MPD2     H13104   3.512   1.590   1.256 -0.8161 -0.4392 -0.3220
  894MPD2    H113105   3.778   1.400   1.536 -0.3382 -1.5365 -1.0453
  894MPD2    H213106   3.379   1.388   1.609  2.0900 -2.4924  1.1750
  894MPD2    H313107   3.605   1.329   1.659  2.4948 -1.0453 -0.5641
  894MPD2     N13108   3.769   1.543   1.298  0.1851 -0.0248  0.6566
  894MPD2    H513109   3.742   1.627   1.248  2.1705 -0.2760 -0.8331
  894MPD2    N113110   3.295   1.530   1.388 -0.7713 -0.1739 -0.1774
  894MPD2    H713111   3.275   1.562   1.294  0.2692 -2.0095 -1.0268
  895MPD2     C13112   3.567   0.369  13.522 -0.2988  0.3580 -0.0315
  895MPD2    C113113   3.440   0.316  13.504 -0.2743  0.3357  0.7496
  895MPD2    C213114   3.412   0.220  13.409  0.0707 -0.1893  1.3011
  895MPD2    C313115   3.502   0.194  13.308  0.5010 -1.0545 -0.1301
  895MPD2    C413116   3.633   0.246  13.325  0.0375 -0.4393 -0.5044
  895MPD2    C513117   3.664   0.337  13.429  0.2835  0.0340  0.2261
  895MPD2     H13118   3.309   0.191  13.394 -0.0447  1.3829 -0.9602
  895MPD2    H113119   3.712   0.225  13.254  0.6058  1.6713 -0.4834
  895MPD2    H213120   3.593   0.445  13.595 -3.4368 -1.3402  2.8583
  895MPD2    H313121   3.758   0.390  13.432  0.1174  0.2259  1.6600
  895MPD2     N13122   3.471   0.124  13.191  0.1879 -0.3094  0.3878
  895MPD2    H513123   3.540   0.127  13.117  0.1233 -4.8295  0.1653
  895MPD2    N113124   3.327   0.347  13.583 -0.3694  0.0822 -0.8590
  895MPD2    H713125   3.243   0.309  13.539  0.5173 -4.2477  1.2393
  896MPD2     C13126   0.497   2.186   1.578  0.3962 -0.1031 -0.4569
  896MPD2    C113127   0.475   2.168   1.443 -0.6323  0.3778 -0.2604
  896MPD2    C213128   0.401   2.063   1.399 -0.1878  0.3127 -0.0698
  896MPD2    C313129   0.346   1.976   1.494  0.2031 -0.1922  0.0576
  896MPD2    C413130   0.368   1.996   1.626  0.3412  0.1637 -0.4922
  896MPD2    C513131   0.453   2.095   1.665 -0.4590  0.3942  0.5349
  896MPD2     H13132   0.388   2.037   1.294  1.4707  0.6577 -0.3467
  896MPD2    H113133   0.321   1.939   1.706  0.7813  1.7392  0.8990
  896MPD2    H213134   0.546   2.275   1.615  1.2135 -0.2355 -1.2223
  896MPD2    H313135   0.459   2.112   1.772  0.7951 -0.3991  0.5951
  896MPD2     N13136   0.270   1.870   1.447  0.4643 -0.2726  0.2409
  896MPD2    H513137   0.255   1.863   1.347  0.3771 -1.8848  0.3674
  896MPD2    N113138   0.544   2.261   1.362 -0.4487  0.2939 -0.0905
  896MPD2    H713139   0.595   2.326   1.421  1.2235 -1.8551  0.8071
  897MPD2     C13140   1.790   3.733  10.661  0.1279 -0.6810  0.1546
  897MPD2    C113141   1.843   3.836  10.726  0.3939  0.2944  0.1367
  897MPD2    C213142   1.760   3.933  10.777  0.1979  0.2983  0.1912
  897MPD2    C313143   1.621   3.930  10.751 -0.0748  0.2343 -0.0100
  897MPD2    C413144   1.568   3.829  10.671 -0.1629 -0.6462 -0.0293
  897MPD2    C513145   1.657   3.734  10.625  0.7271  0.1802  0.0818
  897MPD2     H13146   1.786   4.012  10.846 -0.1716  1.8347 -1.4369
  897MPD2    H113147   1.462   3.816  10.650 -0.0515 -0.9732 -0.3858
  897MPD2    H213148   1.857   3.660  10.619  1.3555  0.0578  0.8350
  897MPD2    H313149   1.612   3.664  10.555 -0.0074  0.0631  0.6620
  897MPD2     N13150   1.541   4.027  10.813 -0.0391 -0.1402  0.1949
  897MPD2    H513151   1.588   4.098  10.869  2.2918 -0.6787 -1.0758
  897MPD2    N113152   1.979   3.844  10.744  0.1109  0.3558 -0.1328
  897MPD2    H713153   2.029   3.762  10.712  1.9523 -0.7632  5.5716
  898MPD2     C13154   4.217   0.265  17.560  0.7107 -0.7107 -0.4771
  898MPD2    C113155   4.190   0.398  17.580 -0.7713  0.1325 -0.8315
  898MPD2    C213156   4.062   0.446  17.558  0.2160  0.6277 -0.1927
  898MPD2    C313157   3.961   0.355  17.521 -0.0148  0.6302 -0.3283
  898MPD2    C413158   3.998   0.220  17.491  0.3925 -0.3648  0.4626
  898MPD2    C513159   4.125   0.176  17.515  0.3218  0.5736  0.3383
  898MPD2     H13160   4.036   0.551  17.569 -1.6793 -0.1558  2.5074
  898MPD2    H113161   3.926   0.142  17.468  1.6626 -1.3254 -0.1741
  898MPD2    H213162   4.315   0.222  17.575  0.1163 -1.3599  1.6635
  898MPD2    H313163   4.150   0.074  17.488 -0.6094  0.2188  0.8332
  898MPD2     N13164   3.826   0.401  17.508 -0.1900 -0.0996 -0.2640
  898MPD2    H513165   3.807   0.500  17.497  1.0667  0.0938 -0.7660
  898MPD2    N113166   4.286   0.485  17.629 -0.5514  0.3805  0.2740
  898MPD2    H713167   4.252   0.578  17.652  1.9976  1.4604 -0.3773
  899MPD2     C13168   0.120   0.859   0.248  0.1469 -0.6604  0.2107
  899MPD2    C113169   0.047   0.972   0.223 -0.0043 -0.1761  0.2321
  899MPD2    C213170   4.660   1.002   0.303 -0.0944 -0.4078 -0.0230
  899MPD2    C313171   4.627   0.916   0.405  0.4803 -0.3874 -0.3077
  899MPD2    C413172   4.704   0.810   0.432 -0.0731 -0.2612  0.6194
  899MPD2    C513173   0.086   0.790   0.356  0.1546  0.1101 -0.0357
  899MPD2     H13174   4.609   1.097   0.294  0.6147  0.1451  1.8367
  899MPD2    H113175   4.672   0.735   0.504  1.4365 -2.2227 -0.7689
  899MPD2    H213176   0.206   0.826   0.192 -0.2849 -2.0607  0.3753
  899MPD2    H313177   0.139   0.695   0.356 -0.9102 -0.4849 -0.6037
  899MPD2     N13178   4.520   0.938   0.493 -0.0274  0.3700 -0.4705
  899MPD2    H513179   4.505   0.881   0.575 -1.6896  1.8531  0.2622
  899MPD2    N113180   0.086   1.049   0.112  0.3878  0.4328  0.3804
  899MPD2    H713181   0.163   1.015   0.055 -1.6911 -0.5133 -1.8806
  900MPD2     C13182   4.510   2.837  12.606 -0.7391  0.4550 -0.4151
  900MPD2    C113183   4.426   2.727  12.606 -0.1957  0.3117  0.4921
  900MPD2    C213184   4.291   2.749  12.588 -0.6170 -0.0921 -0.6996
  900MPD2    C313185   4.236   2.876  12.575  0.2138 -0.0177  0.3289
  900MPD2    C413186   4.318   2.984  12.561  0.1879  0.2511 -0.1594
  900MPD2    C513187   4.450   2.958  12.579  0.9656  0.0821  0.4352
  900MPD2     H13188   4.215   2.672  12.588  0.1460 -0.8501  1.2808
  900MPD2    H113189   4.284   3.086  12.546 -1.5817 -0.6614 -2.4942
  900MPD2    H213190   4.617   2.832  12.623 -1.2425 -1.1979  2.3312
  900MPD2    H313191   4.514   3.045  12.566 -0.3973  0.8428 -1.1572
  900MPD2     N13192   4.093   2.889  12.580 -0.2974 -0.2779 -0.1329
  900MPD2    H513193   4.041   2.803  12.596  2.2608 -2.1004 -1.4987
  900MPD2    N113194   4.481   2.595  12.614  0.2440  0.0131 -0.3136
  900MPD2    H713195   4.580   2.591  12.631  0.1772  1.9781  0.5498
  901MPD2     C13196   4.625   1.560  12.960  0.1774  0.6757  0.4582
  901MPD2    C113197   4.604   1.551  12.826 -0.3961  0.5240  0.3448
  901MPD2    C213198   4.592   1.669  12.748  0.4325 -0.2620 -0.4206
  901MPD2    C313199   4.580   1.790  12.809  0.2299 -0.2146  0.3016
  901MPD2    C413200   4.610   1.802  12.949  0.5709 -0.4879 -0.6388
  901MPD2    C513201   4.624   1.683  13.020 -0.3495  0.3602 -0.3196
  901MPD2     H13202   4.575   1.669  12.641 -0.4026  0.7971 -0.2776
  901MPD2    H113203   4.608   1.893  13.008 -0.2744  0.0260 -1.4516
  901MPD2    H213204   4.625   1.477  13.029 -0.1195 -0.1756 -0.5753
  901MPD2    H313205   4.612   1.684  13.127 -1.4131  0.7368 -0.4478
  901MPD2     N13206   4.553   1.906  12.734 -0.2246  0.2444  0.6512
  901MPD2    H513207   4.545   1.898  12.633  2.0727  1.0399  0.4051
  901MPD2    N113208   4.583   1.420  12.785 -0.4386  0.0875  0.1548
  901MPD2    H713209   4.579   1.347  12.855 -2.3860 -0.9774 -1.0854
  902MPD2     C13210   3.598   0.541  13.133  0.3670  0.3198  0.2080
  902MPD2    C113211   3.491   0.512  13.056  0.0715  0.2319 -0.8556
  902MPD2    C213212   3.488   0.404  12.963  0.0196 -0.8480 -0.1361
  902MPD2    C313213   3.607   0.336  12.933 -0.5929  0.0443 -0.7738
  902MPD2    C413214   3.715   0.371  13.012 -0.4005 -0.4131  0.6660
  902MPD2    C513215   3.706   0.463  13.115  0.3545  1.2042 -0.4092
  902MPD2     H13216   3.399   0.378  12.906  0.6228  0.0339 -1.4924
  902MPD2    H113217   3.813   0.328  12.996  0.2916  0.6636  2.0241
  902MPD2    H213218   3.591   0.604  13.221 -0.4136  0.1723  0.2504
  902MPD2    H313219   3.793   0.464  13.179  0.2583 -0.2166 -0.2439
  902MPD2     N13220   3.627   0.243  12.828 -0.3459  0.9419 -0.3289
  902MPD2    H513221   3.725   0.215  12.825 -0.3665  0.6592  1.6114
  902MPD2    N113222   3.381   0.590  13.081 -0.4464 -0.2824 -0.2244
  902MPD2    H713223   3.389   0.647  13.165 -1.9114 -2.2349  1.2561
  903MPD2     C13224   3.558   0.486  11.942  0.5010 -0.4554  0.8420
  903MPD2    C113225   3.476   0.463  12.054  1.0933 -0.4749  0.2404
  903MPD2    C213226   3.345   0.500  12.050  0.4335 -0.2698 -0.5667
  903MPD2    C313227   3.295   0.570  11.939 -0.4975 -0.2364 -0.2005
  903MPD2    C413228   3.376   0.597  11.834 -0.2147 -0.1143  0.4842
  903MPD2    C513229   3.510   0.548  11.832  0.1369 -0.4931  0.2034
  903MPD2     H13230   3.276   0.473  12.129 -0.1405 -1.7860 -1.5949
  903MPD2    H113231   3.342   0.646  11.743 -0.8925 -1.2033  0.1461
  903MPD2    H213232   3.657   0.443  11.933  0.1424 -1.3836  1.2940
  903MPD2    H313233   3.574   0.558  11.746  1.4718 -0.0430  1.2531
  903MPD2     N13234   3.153   0.615  11.943 -0.2831 -0.2064  0.0533
  903MPD2    H513235   3.096   0.578  12.019 -0.8562 -2.1215 -1.3279
  903MPD2    N113236   3.535   0.400  12.166 -0.6910 -0.3993 -0.7970
  903MPD2    H713237   3.634   0.383  12.151 -0.0992  0.4632  2.1574
  904MPD2     C13238   3.124   4.064  13.996 -1.1727 -0.5115 -0.3625
  904MPD2    C113239   3.163   4.195  14.042 -0.3500 -0.6170 -0.1011
  904MPD2    C213240   3.276   4.196  14.118 -0.0500  0.4082 -0.2499
  904MPD2    C313241   3.347   4.083  14.150  0.9891  0.5197 -0.0713
  904MPD2    C413242   3.313   3.962  14.105  0.5804  0.1741 -0.5471
  904MPD2    C513243   3.201   3.956  14.025  0.5010 -0.0393 -0.0462
  904MPD2     H13244   3.303   4.289  14.166  2.4731 -0.4033 -0.0657
  904MPD2    H113245   3.368   3.874  14.132 -1.1207 -1.1359 -1.3401
  904MPD2    H213246   3.037   4.046  13.934 -1.6462  1.1255 -0.1948
  904MPD2    H313247   3.179   3.860  13.981  3.2592 -0.0360 -1.4281
  904MPD2     N13248   3.459   4.098  14.237  0.1442  0.9400 -0.1437
  904MPD2    H513249   3.487   4.188  14.275 -1.2650  1.1397  0.3927
  904MPD2    N113250   3.104   4.321  14.012  0.0577 -0.2098  0.1039
  904MPD2    H713251   3.150   4.402  14.052  2.3748 -0.6381 -1.7475
  905MPD2     C13252   2.720   4.562  13.354  0.5080 -0.3266  0.2207
  905MPD2    C113253   2.845   4.618  13.390 -0.1680 -0.2109 -0.1393
  905MPD2    C213254   2.925   4.681  13.294  0.2240  0.1997  0.6534
  905MPD2    C313255   2.910   4.655  13.158 -0.0121 -0.3216 -0.1365
  905MPD2    C413256   2.795   4.589  13.124  0.5496  0.2994  0.4656
  905MPD2    C513257   2.697   4.550  13.216  0.4449 -0.1935  0.3484
  905MPD2     H13258   3.016   0.010  13.315 -0.1382  1.7197 -1.8293
  905MPD2    H113259   2.772   4.570  13.020 -1.0696 -1.9272  1.2174
  905MPD2    H213260   2.651   4.534  13.433  0.5431 -0.0134  0.3640
  905MPD2    H313261   2.607   4.497  13.185 -0.0153  0.7480  0.0667
  905MPD2     N13262   3.001   4.708  13.067  0.1636 -0.3148  0.5951
  905MPD2    H513263   3.071   0.038  13.113 -0.4959  0.2716  0.8719
  905MPD2    N113264   2.876   4.611  13.525  0.8227  0.4393  0.2005
  905MPD2    H713265   2.807   4.558  13.578  2.1923  0.2157  1.7659
  906MPD2     C13266   0.389   4.418  11.395  0.5402  0.3995 -0.7746
  906MPD2    C113267   0.391   4.303  11.312  1.1403  0.1780  0.2424
  906MPD2    C213268   0.361   4.182  11.366  0.5922  0.0365  0.7229
  906MPD2    C313269   0.333   4.163  11.501  0.0502 -0.5664  0.3007
  906MPD2    C413270   0.330   4.274  11.583 -0.6064 -0.5343 -0.3876
  906MPD2    C513271   0.356   4.398  11.529 -0.0167  0.0570  0.5286
  906MPD2     H13272   0.368   4.101  11.294  1.3974  0.0272  0.8202
  906MPD2    H113273   0.317   4.259  11.690 -0.2975 -2.3177 -0.6018
  906MPD2    H213274   0.406   4.517  11.356 -0.1310  1.3324  1.3139
  906MPD2    H313275   0.344   4.489  11.587 -0.7093 -1.0512  2.1426
  906MPD2     N13276   0.299   4.039  11.563 -0.1444  0.0932 -0.4178
  906MPD2    H513277   0.288   4.036  11.664 -0.0874 -1.0976 -0.4439
  906MPD2    N113278   0.411   4.305  11.172  0.2974  0.5245  0.4519
  906MPD2    H713279   0.388   4.228  11.110 -0.2339  2.3834 -1.6588
  907MPD2     C13280   3.858   3.652  15.501 -0.4326 -0.1302 -0.7099
  907MPD2    C113281   3.869   3.511  15.519 -0.8212 -0.4954 -0.0666
  907MPD2    C213282   3.880   3.467  15.655  0.1171 -0.4486  0.2974
  907MPD2    C313283   3.885   3.550  15.766 -0.3005 -0.1902  0.0268
  907MPD2    C413284   3.879   3.687  15.745  0.2916 -0.2687  0.1033
  907MPD2    C513285   3.864   3.734  15.617  0.5957 -0.1445  0.0189
  907MPD2     H13286   3.880   3.360  15.676  0.3136 -0.1835  1.6310
  907MPD2    H113287   3.881   3.761  15.824  1.2709 -2.0246  1.7410
  907MPD2    H213288   3.850   3.698  15.403 -0.3233 -0.8027 -1.0345
  907MPD2    H313289   3.865   3.842  15.612 -2.1207 -0.0125  2.1296
  907MPD2     N13290   3.894   3.479  15.892  0.4205  0.7636  0.3731
  907MPD2    H513291   3.916   3.380  15.888  1.1316  0.9796 -0.8670
  907MPD2    N113292   3.869   3.418  15.413 -0.4984  0.1910  0.2691
  907MPD2    H713293   3.854   3.320  15.437  0.1137 -0.2831 -1.3004
  908MPD2     C13294   2.519   3.991  10.089  0.4656 -0.5413 -0.1984
  908MPD2    C113295   2.439   3.882  10.113 -0.1718  0.0647 -0.4537
  908MPD2    C213296   2.410   3.864  10.244 -0.8003  0.4477 -0.7210
  908MPD2    C313297   2.452   3.950  10.353 -0.1885 -0.3942 -0.9242
  908MPD2    C413298   2.532   4.059  10.319 -0.7224 -0.4299  0.3053
  908MPD2    C513299   2.559   4.072  10.188  0.7245  0.3669 -0.4081
  908MPD2     H13300   2.352   3.777  10.273 -0.7146  0.6317  0.0065
  908MPD2    H113301   2.584   4.130  10.382  1.8591 -1.9850 -0.0809
  908MPD2    H213302   2.555   4.007   9.988 -2.0738  0.5992 -0.9315
  908MPD2    H313303   2.620   4.157  10.160 -1.3539  1.6889 -0.9607
  908MPD2     N13304   2.409   3.917  10.487 -0.4727 -0.7157 -0.0364
  908MPD2    H513305   2.336   3.847  10.493  1.5332 -2.8869 -1.0734
  908MPD2    N113306   2.397   3.793  10.014 -0.0271  0.5075  0.3484
  908MPD2    H713307   2.347   3.711  10.048  2.0739 -0.8269  0.2409
  909MPD2     C13308   1.755   2.171  11.676  0.9009  0.5844 -0.7192
  909MPD2    C113309   1.798   2.300  11.656 -0.2534  0.3234 -0.0346
  909MPD2    C213310   1.724   2.411  11.707  1.2814  0.7911  0.1807
  909MPD2    C313311   1.625   2.386  11.807  0.3282  0.0647  0.2175
  909MPD2    C413312   1.586   2.254  11.831 -0.0211 -0.2703  0.3246
  909MPD2    C513313   1.646   2.148  11.760 -0.2486  0.2614  0.3573
  909MPD2     H13314   1.754   2.514  11.689 -0.4371  1.6072  1.9475
  909MPD2    H113315   1.518   2.217  11.907 -0.3977  1.1641  0.6853
  909MPD2    H213316   1.798   2.090  11.618  1.4011  0.6522 -0.4328
  909MPD2    H313317   1.602   2.049  11.760  1.3021 -0.4317 -1.0165
  909MPD2     N13318   1.574   2.499  11.880 -0.4117 -0.2206 -0.8588
  909MPD2    H513319   1.605   2.587  11.842 -1.2095  0.8653  0.9958
  909MPD2    N113320   1.917   2.324  11.586 -0.0079 -0.0287 -0.6079
  909MPD2    H713321   1.986   2.250  11.583  1.1634  1.1295 -1.7659
  910MPD2     C13322   3.082   4.102  15.696  0.2714 -0.1949 -0.5563
  910MPD2    C113323   3.173   4.002  15.665  0.2920 -0.2591  0.8050
  910MPD2    C213324   3.173   3.964  15.533  0.5491  0.1642 -0.6135
  910MPD2    C313325   3.086   4.011  15.436  0.6286  0.4744 -0.1143
  910MPD2    C413326   2.996   4.108  15.472 -0.1337  0.3862 -0.1498
  910MPD2    C513327   3.003   4.159  15.598  0.5820  0.3852 -0.3904
  910MPD2     H13328   3.248   3.890  15.509  0.8062  0.0177  0.6343
  910MPD2    H113329   2.912   4.143  15.414  1.5632 -0.4535 -3.1344
  910MPD2    H213330   3.080   4.157  15.790 -0.9138  2.0581 -1.8879
  910MPD2    H313331   2.930   4.232  15.631 -0.2570  0.4264 -2.3830
  910MPD2     N13332   3.083   3.968  15.300  0.4790 -0.0335 -0.2609
  910MPD2    H513333   3.021   4.013  15.234 -0.8807 -1.6319 -0.0816
  910MPD2    N113334   3.262   3.940  15.753  0.4586 -0.2927 -0.0847
  910MPD2    H713335   3.337   3.883  15.714  0.7998  1.2296 -1.6187
  911MPD2     C13336   1.213   4.596  16.228 -0.5795  0.4969 -0.7541
  911MPD2    C113337   1.226   4.690  16.334  0.0975  0.4280  0.2874
  911MPD2    C213338   1.142   0.067  16.355  0.2172 -0.0474 -0.1969
  911MPD2    C313339   1.046   0.083  16.261 -0.4006  0.2387  0.1016
  911MPD2    C413340   1.043   4.727  16.154  0.0692  0.3102 -0.2209
  911MPD2    C513341   1.118   4.619  16.135  0.3712  0.0699 -0.3919
  911MPD2     H13342   1.146   0.138  16.437  0.1351 -1.5303  1.0867
  911MPD2    H113343   0.966   0.010  16.079 -0.8721 -1.9565  0.4337
  911MPD2    H213344   1.277   4.509  16.216  0.7726  1.3614  0.1833
  911MPD2    H313345   1.092   4.558  16.049  0.5348  0.1560 -0.5044
  911MPD2     N13346   0.949   0.182  16.268  0.0327 -0.2009 -0.4034
  911MPD2    H513347   0.888   0.175  16.187  0.3206 -0.5288 -0.5918
  911MPD2    N113348   1.328   4.648  16.419  0.1683 -0.3388  0.0189
  911MPD2    H713349   1.354   4.550  16.406 -1.5241 -0.9177  0.9405
  912MPD2     C13350   0.757   0.106  15.656  0.1912 -0.8965  0.4836
  912MPD2    C113351   0.746   0.085  15.789  0.7442 -0.5873  0.6130
  912MPD2    C213352   0.768   4.685  15.830 -0.4615  0.5736 -0.7883
  912MPD2    C313353   0.783   4.580  15.738  0.1419  0.3297  0.2107
  912MPD2    C413354   0.776   4.603  15.603 -0.3832 -0.1875  0.1131
  912MPD2    C513355   0.766   0.008  15.555  0.1182 -0.0908  0.2030
  912MPD2     H13356   0.783   4.664  15.935  0.8128  3.3347 -0.4208
  912MPD2    H113357   0.784   4.520  15.534  0.1755 -1.1407  1.3247
  912MPD2    H213358   0.746   0.207  15.617 -3.7699 -2.3821 -2.2735
  912MPD2    H313359   0.756   0.030  15.449  0.7475 -0.7616 -0.0031
  912MPD2     N13360   0.801   4.456  15.794 -0.8286 -0.2011  0.6374
  912MPD2    H513361   0.791   4.451  15.895 -0.7078 -3.6463  0.4973
  912MPD2    N113362   0.727   0.198  15.877 -0.1824 -0.5193  0.3856
  912MPD2    H713363   0.715   0.287  15.830  0.3708 -0.4090  0.4594
  913MPD2     C13364   2.038   1.204  10.912 -0.8948  0.1675  0.1902
  913MPD2    C113365   2.173   1.223  10.887 -0.3733  0.0183  0.0180
  913MPD2    C213366   2.209   1.264  10.761  0.7360 -0.1328 -0.2475
  913MPD2    C313367   2.110   1.266  10.655  0.6632 -0.3023 -0.6254
  913MPD2    C413368   1.976   1.255  10.689  0.7166 -0.6125 -0.0422
  913MPD2    C513369   1.945   1.213  10.811  0.0521  0.6148  0.1178
  913MPD2     H13370   2.312   1.291  10.738  1.7441 -1.5820  2.5119
  913MPD2    H113371   1.899   1.273  10.615  2.2244  0.2176 -1.3959
  913MPD2    H213372   2.003   1.176  11.011  0.2995  1.7049  1.0613
  913MPD2    H313373   1.842   1.212  10.843  0.2300 -4.2393  0.4927
  913MPD2     N13374   2.127   1.298  10.520 -0.1411 -0.1018 -0.1521
  913MPD2    H513375   2.038   1.300  10.472  0.7752 -1.0414 -1.9041
  913MPD2    N113376   2.260   1.216  10.995  0.3399  0.1026  0.1200
  913MPD2    H713377   2.224   1.195  11.088 -0.8266  0.8595 -0.1520
  914MPD2     C13378   3.875   1.128  12.104  0.7275  0.4945  0.3692
  914MPD2    C113379   3.979   1.216  12.089 -0.2594 -0.0644 -1.0338
  914MPD2    C213380   4.085   1.219  12.183  0.2416 -0.4113  0.9102
  914MPD2    C313381   4.085   1.129  12.285 -0.7694 -0.4142 -0.5316
  914MPD2    C413382   3.982   1.042  12.300  0.6070  0.2798  0.5128
  914MPD2    C513383   3.874   1.048  12.216 -0.3497  0.5772  0.6177
  914MPD2     H13384   4.172   1.284  12.188  0.6392 -0.9211  0.6635
  914MPD2    H113385   3.972   0.977  12.386 -1.2534  0.9900  0.8483
  914MPD2    H213386   3.791   1.120  12.036  0.4327  1.4131  0.6323
  914MPD2    H313387   3.796   0.975  12.231  1.9760 -2.2765 -0.9807
  914MPD2     N13388   4.195   1.141  12.378 -0.5472  0.4716 -0.3917
  914MPD2    H513389   4.259   1.217  12.358 -1.6791  1.1309 -1.5079
  914MPD2    N113390   3.977   1.306  11.975 -0.0995  0.3276  0.1076
  914MPD2    H713391   3.910   1.290  11.901  0.3257 -0.8292 -0.0269
  915MPD2     C13392   2.312   1.109  15.474 -0.5493  0.0201 -1.2604
  915MPD2    C113393   2.243   1.230  15.459  0.0878 -0.5201 -1.1047
  915MPD2    C213394   2.209   1.310  15.571 -0.2941 -0.7517  0.3339
  915MPD2    C313395   2.256   1.275  15.695  0.2852  0.4973 -0.6449
  915MPD2    C413396   2.331   1.156  15.712 -0.3507  0.0721 -0.3017
  915MPD2    C513397   2.349   1.073  15.603  0.4787 -0.0786 -0.4271
  915MPD2     H13398   2.146   1.397  15.556 -0.7510 -1.3571 -1.1907
  915MPD2    H113399   2.377   1.131  15.807  0.4626  1.8688 -0.2213
  915MPD2    H213400   2.326   1.043  15.389 -1.6205 -1.3145 -0.4121
  915MPD2    H313401   2.403   0.980  15.619  1.2380  0.2619 -1.0067
  915MPD2     N13402   2.223   1.365  15.805  1.1052  0.0664  0.2757
  915MPD2    H513403   2.157   1.439  15.784 -1.7519 -3.2920 -2.6235
  915MPD2    N113404   2.187   1.251  15.329 -0.1421  0.0524  0.3406
  915MPD2    H713405   2.171   1.173  15.266 -2.3534  0.9776 -0.2519
  916MPD2     C13406   0.422   4.529  15.813  0.4393 -0.5054 -0.0890
  916MPD2    C113407   0.435   4.421  15.896 -0.4660 -0.4936 -0.9469
  916MPD2    C213408   0.446   4.292  15.845  0.2928 -0.1779 -0.1070
  916MPD2    C313409   0.449   4.272  15.705 -0.1094  0.1564  0.1742
  916MPD2    C413410   0.440   4.387  15.622  0.7395 -0.0241 -0.2023
  916MPD2    C513411   0.416   4.506  15.675 -0.2070 -0.1246  0.5794
  916MPD2     H13412   0.443   4.206  15.911  1.4534 -1.4257 -1.6890
  916MPD2    H113413   0.442   4.382  15.514 -0.0988 -0.1734 -0.2160
  916MPD2    H213414   0.403   4.630  15.847  0.6999 -0.3603 -0.3730
  916MPD2    H313415   0.415   4.586  15.602  2.1210 -2.3098 -1.8625
  916MPD2     N13416   0.469   4.146  15.646 -0.1194 -0.0675  0.7668
  916MPD2    H513417   0.486   4.071  15.713 -0.0268  0.2251  1.0720
  916MPD2    N113418   0.449   4.438  16.039  0.3353 -0.3588 -0.9481
  916MPD2    H713419   0.439   4.536  16.063 -0.8292 -0.5956 -0.4201
  917MPD2     C13420   1.501   1.692  11.500  0.2392 -0.1180  0.8002
  917MPD2    C113421   1.377   1.720  11.457 -0.0866 -0.1402  0.6437
  917MPD2    C213422   1.359   1.786  11.342  0.0599 -0.4812  0.0743
  917MPD2    C313423   1.460   1.827  11.262  0.3634 -0.4784  0.0508
  917MPD2    C413424   1.588   1.795  11.298 -0.6777  0.0556  0.1978
  917MPD2    C513425   1.606   1.726  11.413 -0.0921  0.3431  0.0970
  917MPD2     H13426   1.256   1.799  11.312  0.1759 -0.0018 -0.1186
  917MPD2    H113427   1.681   1.832  11.256 -1.5302  0.5367 -1.2422
  917MPD2    H213428   1.527   1.643  11.593  1.3661 -0.2122  0.4375
  917MPD2    H313429   1.708   1.703  11.441 -0.2237 -1.7495 -1.2048
  917MPD2     N13430   1.438   1.923  11.161  0.0505  0.1342  0.3724
  917MPD2    H513431   1.519   1.976  11.129  0.2525 -0.5740 -0.3121
  917MPD2    N113432   1.275   1.684  11.549  0.0524 -0.2519  0.4455
  917MPD2    H713433   1.293   1.682  11.648  1.2973  2.4684  0.2490
  918MPD2     C13434   1.281   2.016  12.317  0.0162 -0.5920  0.8473
  918MPD2    C113435   1.353   1.919  12.249 -0.9294 -0.3781 -0.4062
  918MPD2    C213436   1.289   1.855  12.142 -0.3834  0.0646 -0.7789
  918MPD2    C313437   1.168   1.893  12.095 -0.1203  0.0983 -0.6508
  918MPD2    C413438   1.103   2.001  12.153  0.4082 -0.2730  0.3410
  918MPD2    C513439   1.162   2.055  12.264 -0.4579 -0.1912 -0.2932
  918MPD2     H13440   1.342   1.769  12.102 -1.2906 -0.9492  0.1783
  918MPD2    H113441   1.005   2.040  12.130  0.0591 -0.5613  1.3347
  918MPD2    H213442   1.317   2.062  12.409 -0.4599 -0.4053  0.9397
  918MPD2    H313443   1.113   2.144  12.303  1.0110  0.0356  1.0216
  918MPD2     N13444   1.107   1.820  11.988 -0.0448  0.1274  0.7774
  918MPD2    H513445   1.167   1.743  11.959  0.6565  0.6796  0.7720
  918MPD2    N113446   1.474   1.869  12.296 -0.5062 -0.5112  0.1744
  918MPD2    H713447   1.502   1.777  12.266 -0.9104 -1.2315  1.9803
  919MPD2     C13448   1.564   0.963  12.039  0.4294  0.5678  0.1109
  919MPD2    C113449   1.604   0.836  12.027 -0.0621 -0.3657  0.1141
  919MPD2    C213450   1.613   0.766  11.904  0.7734 -0.2164  0.0046
  919MPD2    C313451   1.590   0.834  11.790 -0.1159 -0.0578  0.1730
  919MPD2    C413452   1.551   0.962  11.798  0.7798 -0.1453 -0.3004
  919MPD2    C513453   1.534   1.028  11.922 -0.5225 -0.6858  0.5316
  919MPD2     H13454   1.627   0.659  11.892 -2.0690 -0.9422  3.2592
  919MPD2    H113455   1.529   1.017  11.707  0.6520  1.7759  0.8956
  919MPD2    H213456   1.560   1.018  12.132  1.1600  2.3862 -0.9435
  919MPD2    H313457   1.515   1.135  11.921 -0.8127 -0.7395 -0.7094
  919MPD2     N13458   1.599   0.772  11.661 -0.2836  0.7453 -0.1674
  919MPD2    H513459   1.548   0.825  11.591 -0.4082  0.3347 -0.3852
  919MPD2    N113460   1.611   0.757  12.147 -0.1333  0.1380  0.5838
  919MPD2    H713461   1.610   0.657  12.129 -2.1670  0.3985 -0.7396
  920MPD2     C13462   1.438   0.932  10.700  0.0473 -0.0175  0.3736
  920MPD2    C113463   1.376   0.810  10.733  0.5596  0.2758  0.1987
  920MPD2    C213464   1.410   0.741  10.847 -0.4891 -0.3693 -0.1893
  920MPD2    C313465   1.510   0.785  10.928  0.3487  1.3252 -0.0872
  920MPD2    C413466   1.578   0.902  10.891  0.4933 -0.2089 -0.3999
  920MPD2    C513467   1.541   0.966  10.776  0.0878  0.2209 -0.5229
  920MPD2     H13468   1.347   0.660  10.881 -1.7608 -0.2150 -2.1663
  920MPD2    H113469   1.658   0.939  10.953 -0.1106  1.1585 -0.4263
  920MPD2    H213470   1.405   1.005  10.626  1.6737  1.4010  1.0549
  920MPD2    H313471   1.595   1.059  10.758  2.3368 -1.1440 -0.7990
  920MPD2     N13472   1.526   0.707  11.041 -0.2790  0.5458  0.5567
  920MPD2    H513473   1.475   0.619  11.040  1.3482 -0.4106 -1.0209
  920MPD2    N113474   1.256   0.774  10.667  0.3039  0.2285 -0.2034
  920MPD2    H713475   1.193   0.701  10.700  1.5511 -0.6181  0.3161
  921MPD2     C13476   2.035   0.364  17.027  0.7688  0.7928 -0.0080
  921MPD2    C113477   2.101   0.266  16.949 -0.1450  0.1734  0.4229
  921MPD2    C213478   2.013   0.176  16.893 -0.4967  0.2319  0.4125
  921MPD2    C313479   1.873   0.168  16.905 -0.2295 -0.3423 -0.1402
  921MPD2    C413480   1.823   0.258  16.996  0.2477  0.3334 -0.1141
  921MPD2    C513481   1.903   0.350  17.061  1.1519 -0.1197  0.0893
  921MPD2     H13482   2.054   0.092  16.839 -0.0907  0.2499  0.6862
  921MPD2    H113483   1.716   0.253  17.012  0.3352  0.5705  0.5424
  921MPD2    H213484   2.109   0.435  17.064  1.7665 -1.5251  2.4154
  921MPD2    H313485   1.862   0.425  17.127 -1.1696  1.4230 -3.1593
  921MPD2     N13486   1.786   0.076  16.835  0.5594  0.0497  0.9824
  921MPD2    H513487   1.687   0.091  16.847  0.4911 -0.4982  1.0860
  921MPD2    N113488   2.238   0.264  16.929  0.2864 -0.0060 -0.2497
  921MPD2    H713489   2.292   0.339  16.971  1.6671 -1.3579  0.4106
  922MPD2     C13490   3.155   2.265  17.449  0.5620 -0.5108 -0.1122
  922MPD2    C113491   3.159   2.329  17.327  0.3627 -0.2745 -0.4125
  922MPD2    C213492   3.052   2.408  17.289 -0.1579  0.4115 -0.1469
  922MPD2    C313493   2.943   2.416  17.370 -0.3134 -0.5410  0.5433
  922MPD2    C413494   2.940   2.357  17.494 -0.1439  0.3338 -0.1853
  922MPD2    C513495   3.048   2.282  17.529  0.8612 -0.5460 -0.6881
  922MPD2     H13496   3.058   2.439  17.186 -1.1849 -0.6505 -0.5264
  922MPD2    H113497   2.857   2.373  17.561 -0.4656  0.4305 -0.6057
  922MPD2    H213498   3.230   2.197  17.487  0.9472  0.7485  1.3656
  922MPD2    H313499   3.060   2.237  17.627 -0.3467  0.9900  0.1571
  922MPD2     N13500   2.829   2.478  17.309 -0.0612  0.4449  0.8550
  922MPD2    H513501   2.849   2.513  17.216  2.0093 -1.6388  0.5283
  922MPD2    N113502   3.272   2.327  17.241 -0.4220 -0.5636  0.7332
  922MPD2    H713503   3.272   2.395  17.165  0.6707  0.1786  1.3932
  923MPD2     C13504   4.539   3.971   9.016  0.5461 -0.1236  0.5086
  923MPD2    C113505   4.483   4.071   9.097 -0.4544 -0.1431  0.8219
  923MPD2    C213506   4.564   4.108   9.206 -0.3854 -0.0913  0.2664
  923MPD2    C313507   4.680   4.052   9.242 -0.7872  0.2101  0.2819
  923MPD2    C413508   4.724   3.950   9.165 -0.1616  0.9893 -0.1116
  923MPD2    C513509   4.660   3.913   9.055 -0.1730  0.2497 -0.3145
  923MPD2     H13510   4.525   4.186   9.270 -2.5731  0.6895 -2.0142
  923MPD2    H113511   0.088   3.894   9.182 -0.3467  0.9523  0.7922
  923MPD2    H213512   4.494   3.916   8.934  0.8662  0.1306  0.1616
  923MPD2    H313513   4.703   3.833   8.997 -2.3950 -0.3589 -1.1327
  923MPD2     N13514   0.029   4.085   9.360  0.0730  0.0465  0.0206
  923MPD2    H513515   0.114   4.031   9.372 -1.3311 -1.9102  1.1243
  923MPD2    N113516   4.354   4.125   9.075  0.2546  0.2762 -0.4515
  923MPD2    H713517   4.321   4.107   8.980 -4.2451  1.5762  0.8594
  924MPD2     C13518   4.250   2.719  16.113 -0.1595 -0.2602 -0.1588
  924MPD2    C113519   4.170   2.750  16.222 -0.7109 -0.5884  0.1005
  924MPD2    C213520   4.132   2.880  16.234  0.0469  0.3213  0.1227
  924MPD2    C313521   4.171   2.981  16.141 -0.3373 -0.1807 -0.2100
  924MPD2    C413522   4.250   2.944  16.040  0.3894  0.3836 -0.3414
  924MPD2    C513523   4.293   2.812  16.026  0.3904  0.1422 -0.7208
  924MPD2     H13524   4.071   2.906  16.320  1.6536  1.3794  0.9398
  924MPD2    H113525   4.296   3.015  15.972  2.3055  0.6398  1.2446
  924MPD2    H213526   4.286   2.617  16.110 -0.2652 -0.4069  3.7285
  924MPD2    H313527   4.372   2.784  15.958  0.9514  1.1692 -0.5004
  924MPD2     N13528   4.121   3.110  16.150 -0.3819 -0.2867  0.5438
  924MPD2    H513529   4.133   3.169  16.068 -0.4324 -1.5265 -0.3415
  924MPD2    N113530   4.120   2.651  16.308  0.0365  0.2515  0.3237
  924MPD2    H713531   4.169   2.563  16.317 -0.9068 -0.2089  0.9485
  925MPD2     C13532   3.118   0.044  14.828 -0.1307 -0.0158  0.0232
  925MPD2    C113533   3.069   0.155  14.887 -0.0206  0.0339  0.6535
  925MPD2    C213534   2.982   0.134  14.995 -0.5110  0.3014  0.0544
  925MPD2    C313535   2.952   0.011  15.051 -0.0957  0.3449 -0.0262
  925MPD2    C413536   2.994   4.627  14.981 -0.5499  0.2808  0.0850
  925MPD2    C513537   3.076   4.645  14.872  0.1384  0.1635  0.0274
  925MPD2     H13538   2.936   0.224  15.034  1.7615  0.4873  2.3169
  925MPD2    H113539   2.957   4.526  14.996 -0.5175  0.6226  2.5410
  925MPD2    H213540   3.191   0.052  14.748 -0.7962 -0.2343 -0.6020
  925MPD2    H313541   3.107   4.550  14.832 -1.5500 -0.5007  0.2737
  925MPD2     N13542   2.873   4.719  15.165 -0.0096 -0.3364 -0.0058
  925MPD2    H513543   2.840   4.627  15.195  0.3844 -0.0452  1.3114
  925MPD2    N113544   3.076   0.285  14.839 -0.0459 -0.1570 -0.4688
  925MPD2    H713545   3.036   0.360  14.895 -0.8319 -0.8490 -0.1143
  926MPD2     C13546   1.508   3.629  13.449 -0.4537 -0.4187 -0.1905
  926MPD2    C113547   1.564   3.749  13.502 -0.4972 -0.2375 -0.3022
  926MPD2    C213548   1.667   3.805  13.433 -0.2976  0.2295  0.2909
  926MPD2    C313549   1.724   3.746  13.327  0.4703  0.3591 -0.0784
  926MPD2    C413550   1.669   3.624  13.281 -0.6160 -0.3720 -0.7482
  926MPD2    C513551   1.568   3.570  13.346 -0.7576  0.2768 -0.5380
  926MPD2     H13552   1.703   3.899  13.475 -2.3850  1.5698 -0.9119
  926MPD2    H113553   1.695   3.571  13.190 -1.0999  0.0689 -1.1438
  926MPD2    H213554   1.424   3.579  13.496  0.3765 -0.9407  0.7319
  926MPD2    H313555   1.526   3.474  13.318 -0.4982  0.7285 -2.4418
  926MPD2     N13556   1.811   3.810  13.244  0.3003  0.2057 -0.1887
  926MPD2    H513557   1.814   3.767  13.152  1.9097  0.0292 -0.0628
  926MPD2    N113558   1.510   3.817  13.609 -0.6901  0.2845  0.0064
  926MPD2    H713559   1.544   3.911  13.625  1.3671 -0.5331  0.3082
  927MPD2     C13560   1.804   1.653   0.262  0.0406  0.2976 -0.0413
  927MPD2    C113561   1.787   1.519   0.284  0.6925 -0.1542  0.2843
  927MPD2    C213562   1.856   1.427   0.201  0.8250 -0.6707 -1.0645
  927MPD2    C313563   1.932   1.468   0.089 -0.6892 -0.9785  0.2278
  927MPD2    C413564   1.951   1.602   0.076 -0.5419  0.0658  0.0394
  927MPD2    C513565   1.884   1.690   0.155  0.6464  0.2742 -0.3112
  927MPD2     H13566   1.853   1.321   0.223  1.1173 -0.5915 -0.6418
  927MPD2    H113567   2.016   1.636  17.706  0.0550  1.1200  0.9588
  927MPD2    H213568   1.748   1.725   0.320  1.4025  0.5974  0.9162
  927MPD2    H313569   1.900   1.795   0.137  1.2700 -0.0288 -1.4636
  927MPD2     N13570   1.992   1.364   0.016 -0.1264  0.4348  0.1950
  927MPD2    H513571   1.961   1.271   0.041 -1.0729  0.8717  0.6648
  927MPD2    N113572   1.700   1.482   0.386  0.4040 -0.2071 -0.0286
  927MPD2    H713573   1.672   1.560   0.445  0.3729 -1.0446  1.0664
  928MPD2     C13574   3.397   0.155   0.730  0.0702  0.0727 -0.6030
  928MPD2    C113575   3.455   0.072   0.822  0.0319 -0.0221 -0.0511
  928MPD2    C213576   3.580   0.031   0.796 -0.0578 -0.4581 -0.0046
  928MPD2    C313577   3.645   0.048   0.674 -0.7758 -0.0367 -0.4571
  928MPD2    C413578   3.574   0.128   0.584 -0.7865  0.8278 -0.4562
  928MPD2    C513579   3.456   0.188   0.613  0.3186 -0.0842  0.5094
  928MPD2     H13580   3.628   4.706   0.878  0.3447 -1.5182 -0.9173
  928MPD2    H113581   3.620   0.158   0.490  2.4819  0.4087  1.0519
  928MPD2    H213582   3.298   0.188   0.759  0.5209  1.2219 -0.3218
  928MPD2    H313583   3.417   0.266   0.549  1.8897  1.1252  1.0092
  928MPD2     N13584   3.779   4.726   0.644  0.0472  0.1450  0.1711
  928MPD2    H513585   3.828   0.033   0.562 -0.0628 -1.0642 -0.4006
  928MPD2    N113586   3.391   0.048   0.948  0.0298  0.4642  0.1372
  928MPD2    H713587   3.315   0.113   0.965 -0.6565 -0.2161 -0.3683
  929MPD2     C13588   4.553   4.569  10.556 -0.1614  0.1805  0.3122
  929MPD2    C113589   4.534   4.437  10.528  0.4468  0.7212  0.4394
  929MPD2    C213590   4.479   4.400  10.407  1.2191  0.3034 -0.2468
  929MPD2    C313591   4.463   4.500  10.308 -0.0917  0.4040 -0.4162
  929MPD2    C413592   4.483   4.631  10.342  0.1915 -1.1814  0.5532
  929MPD2    C513593   4.535   4.663  10.461  1.2292 -0.1196  0.4393
  929MPD2     H13594   4.469   4.294  10.385 -1.2031  0.5860 -0.5410
  929MPD2    H113595   4.472   4.710  10.269  0.0838 -0.0849  1.7636
  929MPD2    H213596   4.607   4.601  10.645  1.6976 -2.9995  0.3320
  929MPD2    H313597   4.551   0.042  10.473 -0.6693  0.1946  0.2371
  929MPD2     N13598   4.407   4.468  10.179 -0.0836  0.5594  0.4780
  929MPD2    H513599   4.392   4.548  10.119 -0.6262  1.3738  1.6991
  929MPD2    N113600   4.576   4.351  10.629  0.2332  0.5269 -0.1469
  929MPD2    H713601   4.617   4.400  10.708  2.3296  1.2993 -1.6897
  930MPD2     C13602   0.855   2.155  13.891 -0.0608 -0.4638 -0.2093
  930MPD2    C113603   0.971   2.115  13.817  0.8924  0.6814  0.0925
  930MPD2    C213604   0.986   1.981  13.789 -0.1460  0.5717  0.1793
  930MPD2    C313605   0.883   1.893  13.816  0.4347 -0.1847  0.5211
  930MPD2    C413606   0.768   1.938  13.876  0.0022  0.8905 -0.0625
  930MPD2    C513607   0.757   2.064  13.911  0.0395  0.2968  0.2617
  930MPD2     H13608   1.071   1.945  13.732  0.1750 -0.7763  1.5259
  930MPD2    H113609   0.684   1.873  13.899  1.5265 -0.7813  0.7642
  930MPD2    H213610   0.837   2.258  13.917 -1.2898 -0.3728 -1.4702
  930MPD2    H313611   0.660   2.083  13.956  0.4464  1.9965  0.3955
  930MPD2     N13612   0.893   1.760  13.780  0.2807  0.6303  0.1333
  930MPD2    H513613   0.804   1.712  13.777  0.1739  0.9547 -1.6678
  930MPD2    N113614   1.069   2.208  13.787 -0.0872 -0.1878 -0.5961
  930MPD2    H713615   1.078   2.293  13.843 -0.2929 -0.2922 -0.4079
  931MPD2     C13616   1.748   0.970   0.951 -0.1477 -0.3047  0.1687
  931MPD2    C113617   1.617   0.992   0.929  0.1140 -0.7477  0.3500
  931MPD2    C213618   1.522   0.925   0.999 -0.0684  0.2564  0.3066
  931MPD2    C313619   1.548   0.828   1.090  0.2253 -0.2256 -0.0691
  931MPD2    C413620   1.681   0.801   1.110 -0.4618  0.5667  0.1916
  931MPD2    C513621   1.777   0.877   1.042  0.1421 -0.2601  0.0360
  931MPD2     H13622   1.419   0.941   0.968  0.0192  0.1718 -0.0278
  931MPD2    H113623   1.708   0.740   1.196 -2.0403 -0.2356  0.1208
  931MPD2    H213624   1.829   1.028   0.908 -2.1512  2.6390  0.3884
  931MPD2    H313625   1.882   0.862   1.066  0.4506 -0.6770 -1.6037
  931MPD2     N13626   1.443   0.755   1.157  0.0533 -0.1533  0.0779
  931MPD2    H513627   1.476   0.679   1.216  0.0155 -0.9754 -0.9588
  931MPD2    N113628   1.584   1.089   0.833 -0.4188 -0.2810 -0.1969
  931MPD2    H713629   1.661   1.108   0.770  1.0106  0.5878  1.8158
  932MPD2     C13630   3.412   0.395  11.473  0.0197  0.4319 -0.0708
  932MPD2    C113631   3.547   0.422  11.471  0.2290 -0.3274  0.0055
  932MPD2    C213632   3.630   0.314  11.483 -0.0490  0.0254  0.0079
  932MPD2    C313633   3.582   0.184  11.498  1.0038  0.2403 -0.2528
  932MPD2    C413634   3.448   0.163  11.502 -0.4886  0.3959  0.6755
  932MPD2    C513635   3.366   0.270  11.498 -0.0489  0.0404  0.3700
  932MPD2     H13636   3.738   0.323  11.488  0.0371 -1.2450  0.3996
  932MPD2    H113637   3.397   0.069  11.518  0.1755 -0.7684 -3.9867
  932MPD2    H213638   3.342   0.476  11.457  0.6514  1.1780  0.8784
  932MPD2    H313639   3.259   0.250  11.505  0.0107  0.1224  1.5976
  932MPD2     N13640   3.665   0.071  11.521 -0.6848  0.0090  0.0749
  932MPD2    H513641   3.618   4.711  11.544  1.8122 -1.0755  1.0883
  932MPD2    N113642   3.604   0.549  11.452  0.5036 -1.6631  0.3255
  932MPD2    H713643   3.706   0.554  11.453  0.5572 -2.2774 -1.5733
  933MPD2     C13644   2.823   0.262   1.085 -0.3048 -0.6445  0.1996
  933MPD2    C113645   2.924   0.303   1.169  0.7385 -0.0719 -0.4131
  933MPD2    C213646   2.914   0.432   1.219 -0.0326  0.7026 -0.5192
  933MPD2    C313647   2.816   0.521   1.176 -0.4587 -0.0996 -0.0251
  933MPD2    C413648   2.706   0.468   1.103 -0.6471 -0.7908 -0.7077
  933MPD2    C513649   2.703   0.332   1.077 -0.7567  0.8589 -0.7049
  933MPD2     H13650   2.988   0.480   1.281 -0.7248  2.2157 -0.8509
  933MPD2    H113651   2.633   0.539   1.067  0.2115  0.9561  1.0037
  933MPD2    H213652   2.815   0.160   1.049 -0.0424 -0.7779  0.5165
  933MPD2    H313653   2.618   0.280   1.034 -0.0778 -0.7267 -0.1491
  933MPD2     N13654   2.825   0.658   1.206  0.0918  0.0775  0.4115
  933MPD2    H513655   2.914   0.685   1.248 -0.3842 -0.2418  1.6286
  933MPD2    N113656   3.029   0.212   1.203 -0.3454 -0.1738  0.4214
  933MPD2    H713657   3.027   0.117   1.168  0.4344  0.7106 -2.0286
  934MPD2     C13658   0.462   2.030   2.476  0.2122  0.0959  0.0331
  934MPD2    C113659   0.463   2.076   2.353 -0.5025 -0.7540 -0.3739
  934MPD2    C213660   0.384   2.003   2.261  0.0205 -0.1172  0.2337
  934MPD2    C313661   0.324   1.883   2.295  0.5092 -0.7308  0.6775
  934MPD2    C413662   0.345   1.829   2.422 -0.3963 -0.2411 -0.3592
  934MPD2    C513663   0.403   1.911   2.517  0.4199 -0.3209 -0.6286
  934MPD2     H13664   0.360   2.037   2.161  0.7471  0.1365  0.1457
  934MPD2    H113665   0.313   1.726   2.437 -0.6917 -0.2451 -1.0347
  934MPD2    H213666   0.523   2.077   2.553  0.7960 -3.7139  1.8669
  934MPD2    H313667   0.411   1.877   2.620 -0.9514 -0.7659 -0.6785
  934MPD2     N13668   0.274   1.790   2.197  0.6207  0.2042 -0.7868
  934MPD2    H513669   0.246   1.702   2.238 -0.8736  1.9360  1.9989
  934MPD2    N113670   0.536   2.184   2.305 -0.2565  0.8013 -0.2293
  934MPD2    H713671   0.521   2.210   2.208 -0.9240 -0.0374 -0.3576
  935MPD2     C13672   4.681   0.907   1.915 -0.3385  0.2671  0.0855
  935MPD2    C113673   0.069   0.979   1.877 -0.4314  0.0210  1.0547
  935MPD2    C213674   0.083   1.108   1.927  0.2455 -1.1353  0.1302
  935MPD2    C313675   4.714   1.164   2.012 -0.1248 -0.3739 -0.1312
  935MPD2    C413676   4.607   1.088   2.056  0.2093 -0.5288  0.5040
  935MPD2    C513677   4.592   0.964   1.999  0.0994  0.3435  0.7040
  935MPD2     H13678   0.180   1.149   1.902 -0.4193  0.5043  0.2584
  935MPD2    H113679   4.527   1.128   2.116  1.1314  0.0298  1.3569
  935MPD2    H213680   4.661   0.802   1.893  1.2955  0.3196 -1.6507
  935MPD2    H313681   4.505   0.905   2.026  0.6569 -0.9219 -0.3018
  935MPD2     N13682   4.721   1.296   2.047  0.0194  0.2433  0.1515
  935MPD2    H513683   4.632   1.325   2.086 -1.3454 -2.2436 -1.1293
  935MPD2    N113684   0.167   0.940   1.786  0.5389  0.1646  0.1386
  935MPD2    H713685   0.250   0.997   1.774  1.4364 -1.1077  0.2968
  936MPD2     C13686   3.229   4.517  12.484 -0.0363  0.3379  0.4656
  936MPD2    C113687   3.331   4.440  12.533 -0.0635  0.0398 -0.6086
  936MPD2    C213688   3.462   4.480  12.529  0.5859  0.1808  0.3273
  936MPD2    C313689   3.501   4.590  12.450 -0.2603  0.1320  0.3042
  936MPD2    C413690   3.402   4.654  12.378 -0.6295  0.0716  0.0744
  936MPD2    C513691   3.271   4.622  12.403  0.4077  0.0982 -0.9505
  936MPD2     H13692   3.537   4.429  12.588  0.5503 -0.4170 -0.1443
  936MPD2    H113693   3.428   0.014  12.320 -0.9318  0.0465 -0.0996
  936MPD2    H213694   3.126   4.486  12.490  0.5284 -1.7086 -0.2735
  936MPD2    H313695   3.200   4.683  12.348  1.8628  1.9629 -0.7556
  936MPD2     N13696   3.636   4.628  12.414  0.5952 -0.3867  0.3186
  936MPD2    H513697   3.651   4.672  12.323 -0.4038 -0.2351  0.2265
  936MPD2    N113698   3.309   4.324  12.605  0.1739 -0.1966  0.4230
  936MPD2    H713699   3.391   4.275  12.640 -0.0308 -1.1132 -0.3693
  937MPD2     C13700   1.617   0.049  12.285 -1.3311  0.3929 -0.8122
  937MPD2    C113701   1.664   0.169  12.227  0.3069  0.3766 -0.1645
  937MPD2    C213702   1.739   0.162  12.112 -0.2255  0.6885 -0.0084
  937MPD2    C313703   1.755   0.043  12.045 -0.6419 -0.1828 -0.1613
  937MPD2    C413704   1.719   4.655  12.106 -0.9530  0.1132  0.4176
  937MPD2    C513705   1.654   4.655  12.230 -0.7742 -0.2762 -0.0069
  937MPD2     H13706   1.775   0.249  12.057  0.9174 -1.4636 -2.6460
  937MPD2    H113707   1.730   4.556  12.065  0.5368  0.8892 -1.0629
  937MPD2    H213708   1.544   0.045  12.365  0.7807  0.6677  1.0978
  937MPD2    H313709   1.630   4.556  12.270 -0.1615  0.4262  2.1068
  937MPD2     N13710   1.816   0.033  11.918 -0.1225 -0.1954  0.4165
  937MPD2    H513711   1.850   0.119  11.876  0.3527 -0.1992  0.7996
  937MPD2    N113712   1.607   0.296  12.255  0.1014 -0.0062  0.1488
  937MPD2    H713713   1.634   0.375  12.198 -2.5600 -0.0619 -1.1928
  938MPD2     C13714   3.904   0.346   1.306 -0.5177 -0.3230 -0.3688
  938MPD2    C113715   3.922   0.477   1.337 -0.8896  0.2962 -0.7200
  938MPD2    C213716   3.886   0.519   1.460  0.7279  0.2231  0.4755
  938MPD2    C313717   3.830   0.439   1.553 -0.4177 -0.0057  1.1249
  938MPD2    C413718   3.802   0.313   1.521 -0.5111  0.2245  0.2036
  938MPD2    C513719   3.848   0.264   1.403 -0.4067  0.2348  0.0961
  938MPD2     H13720   3.933   0.615   1.482  0.6897 -0.1602  2.2585
  938MPD2    H113721   3.770   0.243   1.597 -1.2261 -0.3805 -0.6522
  938MPD2    H213722   3.945   0.311   1.212  0.2318  0.5048 -0.3541
  938MPD2    H313723   3.854   0.158   1.383 -0.1109  0.3716 -0.5495
  938MPD2     N13724   3.811   0.479   1.682 -0.8211  0.6258  0.4088
  938MPD2    H513725   3.788   0.409   1.752 -0.1817  2.8347  2.8532
  938MPD2    N113726   4.000   0.566   1.256 -0.1292 -0.2474  0.3072
  938MPD2    H713727   4.021   0.659   1.292  1.4866 -1.1750  1.7313
  939MPD2     C13728   0.425   2.576   0.911  0.3175 -0.5468  0.5878
  939MPD2    C113729   0.435   2.677   1.006 -1.0005 -0.2544 -0.6689
  939MPD2    C213730   0.514   2.779   0.981 -0.5623 -0.8264 -0.0972
  939MPD2    C313731   0.592   2.778   0.865 -0.6199  0.0935  0.2150
  939MPD2    C413732   0.574   2.683   0.770  0.0636 -0.4534  0.1424
  939MPD2    C513733   0.484   2.582   0.789 -0.2075  0.8301 -0.1360
  939MPD2     H13734   0.521   2.853   1.059  0.8589 -0.1216 -0.8897
  939MPD2    H113735   0.620   2.694   0.673 -1.9848 -0.9723 -0.8723
  939MPD2    H213736   0.350   2.498   0.921 -1.5778  1.0550 -1.2521
  939MPD2    H313737   0.467   2.512   0.707  0.9092 -0.8009  1.0229
  939MPD2     N13738   0.692   2.873   0.844 -0.2167  0.2019 -0.3904
  939MPD2    H513739   0.680   2.962   0.893  0.7513  0.8283 -1.2846
  939MPD2    N113740   0.347   2.656   1.116 -0.5253 -0.2535 -0.2470
  939MPD2    H713741   0.286   2.575   1.120  0.9143 -1.3835 -1.3831
  940MPD2     C13742   4.641   4.105  13.485 -0.0033  0.7068 -0.1629
  940MPD2    C113743   4.557   3.992  13.472  0.2426 -0.4643  0.3359
  940MPD2    C213744   4.526   3.959  13.339  0.3540  0.4151 -0.5727
  940MPD2    C313745   4.570   4.025  13.228  0.7283 -0.7347  0.6809
  940MPD2    C413746   4.650   4.138  13.246  0.5162 -0.0598  0.4783
  940MPD2    C513747   4.689   4.169  13.375  0.1976  0.4804 -0.2821
  940MPD2     H13748   4.452   3.881  13.326  0.0835  0.7688 -1.2140
  940MPD2    H113749   4.691   4.200  13.166  1.5285 -1.3179  0.0313
  940MPD2    H213750   4.680   4.139  13.581  1.0723 -0.2314 -0.2622
  940MPD2    H313751   0.035   4.248  13.383  0.8531 -0.2613  1.1239
  940MPD2     N13752   4.521   4.003  13.096  0.2583  0.2226 -0.3664
  940MPD2    H513753   4.535   4.075  13.026  0.5462  0.0851 -0.4494
  940MPD2    N113754   4.516   3.918  13.582  0.2472 -0.1465  0.7120
  940MPD2    H713755   4.446   3.849  13.558 -1.6443  1.4584  1.6270
  941MPD2     C13756   0.046   2.346   9.613  0.9063  0.2589  0.4296
  941MPD2    C113757   0.008   2.387   9.743  0.1101  0.0979  0.8509
  941MPD2    C213758   4.613   2.361   9.792  0.3769  0.5217 -0.0646
  941MPD2    C313759   4.519   2.293   9.718  0.7528 -0.5862  0.2075
  941MPD2    C413760   4.559   2.250   9.593  0.1961  0.1564 -0.3493
  941MPD2    C513761   4.683   2.285   9.539  0.5338  0.1078 -0.4078
  941MPD2     H13762   4.581   2.399   9.889 -0.1457  0.1124 -0.0758
  941MPD2    H113763   4.482   2.207   9.529 -0.4524 -1.6436  1.6420
  941MPD2    H213764   0.141   2.365   9.564 -1.0094  0.2155 -3.3003
  941MPD2    H313765   4.700   2.272   9.432  2.2087 -2.4563  0.1573
  941MPD2     N13766   4.385   2.264   9.758  0.4946 -0.7764 -0.8832
  941MPD2    H513767   4.326   2.205   9.700 -2.2906 -0.3033  1.4411
  941MPD2    N113768   0.099   2.448   9.828 -0.3931 -0.5137  0.3329
  941MPD2    H713769   0.077   2.453   9.927 -1.7974  1.1497 -0.0656
  942MPD2     C13770   3.731   4.008   8.952  0.1875 -0.8263 -0.0174
  942MPD2    C113771   3.747   3.995   9.091  0.5393 -0.2016 -0.4474
  942MPD2    C213772   3.864   3.933   9.140 -0.1223 -0.0613 -0.1530
  942MPD2    C313773   3.958   3.878   9.063 -0.0281  0.1905  0.4533
  942MPD2    C413774   3.942   3.888   8.929  0.0267 -0.5009 -0.0728
  942MPD2    C513775   3.828   3.949   8.874  0.6240  0.3586  0.4418
  942MPD2     H13776   3.889   3.942   9.246  1.2933  0.4672 -0.5225
  942MPD2    H113777   4.018   3.851   8.861  1.3365  0.9021  0.6351
  942MPD2    H213778   3.644   4.057   8.909 -1.5681 -3.2981  0.7292
  942MPD2    H313779   3.830   3.960   8.766  2.1035  1.2069  0.5576
  942MPD2     N13780   4.079   3.822   9.109  0.4960  0.3838 -0.5981
  942MPD2    H513781   4.143   3.785   9.040 -0.5208 -0.8388 -0.8883
  942MPD2    N113782   3.646   4.027   9.192  0.2713 -0.0625 -0.0188
  942MPD2    H713783   3.671   4.028   9.290  3.6275 -1.4799 -0.8679
  943MPD2     C13784   2.675   2.754   9.530 -0.2119 -0.1532  0.0396
  943MPD2    C113785   2.625   2.679   9.636 -0.8056  0.0564  0.1918
  943MPD2    C213786   2.625   2.735   9.766  0.6264  0.1589 -0.3095
  943MPD2    C313787   2.681   2.854   9.785  0.0978 -0.3909  0.4446
  943MPD2    C413788   2.730   2.930   9.681 -0.1094 -0.0292  0.0578
  943MPD2    C513789   2.713   2.887   9.553  0.2814  0.4517  0.1872
  943MPD2     H13790   2.585   2.687   9.855 -0.7241 -0.4842 -1.2637
  943MPD2    H113791   2.756   3.035   9.687 -0.2366 -0.0876  1.6586
  943MPD2    H213792   2.662   2.720   9.428 -3.8787 -0.2798  0.5501
  943MPD2    H313793   2.736   2.952   9.469  0.1513  1.0408  0.6059
  943MPD2     N13794   2.694   2.897   9.919 -0.5965 -0.0593 -0.0901
  943MPD2    H513795   2.657   2.834   9.989  0.0925  0.1531  0.4652
  943MPD2    N113796   2.573   2.553   9.613  0.2823 -0.1988  0.5161
  943MPD2    H713797   2.566   2.508   9.522 -1.3369  0.7796  0.1631
  944MPD2     C13798   2.279   1.574  10.766 -0.4176  0.3372  0.4244
  944MPD2    C113799   2.408   1.580  10.814  0.6859 -0.2804 -0.7324
  944MPD2    C213800   2.415   1.593  10.953 -0.2752  0.1274 -0.2612
  944MPD2    C313801   2.305   1.606  11.041  0.3271  0.2123  0.0468
  944MPD2    C413802   2.179   1.613  10.984 -0.1786 -0.1936 -0.4436
  944MPD2    C513803   2.172   1.594  10.852 -0.1634  0.0254  0.8154
  944MPD2     H13804   2.511   1.584  11.002 -0.5274  1.9730  0.5706
  944MPD2    H113805   2.095   1.594  11.049 -0.6782  1.4561 -0.5952
  944MPD2    H213806   2.251   1.561  10.662 -0.1312 -1.4869  0.5731
  944MPD2    H313807   2.072   1.588  10.812  0.3479 -2.1855 -0.1693
  944MPD2     N13808   2.337   1.606  11.182 -0.0312 -0.3746 -0.0928
  944MPD2    H513809   2.433   1.588  11.207  0.3194  2.4900  0.6059
  944MPD2    N113810   2.522   1.568  10.732  0.6713  0.5214  0.2700
  944MPD2    H713811   2.494   1.544  10.638  0.1416  0.6671  0.3872
    1TCq1    O113812   0.245   2.422  14.134  0.1695  0.1153  0.5227
    1TCq1    C113813   0.167   2.469  14.229 -0.8109 -0.5413 -0.1069
    1TCq1    O213814   0.067   2.536  14.228  0.3819  0.7501 -0.1515
    1TCq1    C213815   0.226   2.442  14.362 -0.4832  0.1996  0.3496
    1TCq1    C313816   0.320   2.343  14.383 -0.0866  0.0749 -0.7136
    1TCq1    C413817   0.390   2.351  14.501 -0.1020  0.7085 -0.1746
    1TCq1    C513818   0.365   2.441  14.600 -0.1092  0.0139  0.2304
    1TCq1    C613819   0.270   2.542  14.571 -0.0510 -0.2497 -0.4519
    1TCq1    C713820   0.206   2.542  14.453 -0.4678 -0.0325 -0.6969
    1TCq1    C813821   0.263   2.654  14.658 -0.3601 -0.0775  0.0952
    1TCq1    O413822   0.317   2.638  14.765 -0.7941 -0.0126  0.2631
    1TCq1    C913823   0.486   2.252  14.529  0.3638 -0.0936  0.2913
    1TCq1    O513824   0.525   2.254  14.646  0.0494 -0.2297 -0.7632
    1TCq1    O613825   0.555   2.200  14.437 -0.1028 -0.0234  0.4045
    1TCq1    H113826   0.327   2.376  14.163  0.4015  0.5270  0.5103
    1TCq1    H213827   0.345   2.265  14.312 -0.2583  0.0641 -0.7614
    1TCq1    H313828   0.416   2.438  14.696  1.2798 -2.3894 -0.5604
    1TCq1    H413829   0.124   2.610  14.432 -1.0549 -0.5390 -0.0865
    2MPD2     C13830   0.281   3.161  14.732 -0.1465  1.2345 -0.7550
    2MPD2    C113831   0.270   3.136  14.597 -0.5119 -0.1390 -0.0495
    2MPD2    C213832   0.246   3.005  14.551 -0.6092 -0.4934 -0.1871
    2MPD2    C313833   0.247   2.902  14.638 -0.4470  0.2946 -0.0508
    2MPD2    C413834   0.260   2.933  14.770  0.6472  0.7570  0.2792
    2MPD2    C513835   0.270   3.060  14.820  0.6800 -0.2019  0.6109
    2MPD2     H13836   0.252   2.978  14.446 -2.7398 -1.4513 -0.0660
    2MPD2    H113837   0.263   2.847  14.835 -1.1763  0.5554  0.1048
    2MPD2    H213838   0.296   3.263  14.764 -0.1628  1.3794 -1.2166
    2MPD2    H313839   0.296   3.082  14.923  0.4424 -0.5441  0.7464
    2MPD2     N13840   0.238   2.770  14.590 -0.3958 -0.1848  0.0058
    2MPD2    H513841   0.233   2.761  14.489 -2.7354  1.5141 -0.0317
    2MPD2    N113842   0.281   3.246  14.506  0.7665 -0.1413  0.2435
    2MPD2    H713843   0.294   3.343  14.535  0.2034  0.5382 -1.8028
    3TMC2    C113844   0.314   3.356  14.293  0.2887  1.1819 -0.0377
    3TMC2    C213845   0.362   3.464  14.366  0.6819  0.0143  0.4204
    3TMC2    C313846   0.419   3.565  14.296 -1.1358 -0.2194 -0.2626
    3TMC2    C413847   0.324   3.345  14.166 -0.2279 -0.3820  0.0436
    3TMC2    C513848   0.371   3.443  14.092  0.7824 -0.3208  0.1698
    3TMC2    C613849   0.416   3.560  14.155 -0.2287 -0.4302 -0.3030
    3TMC2     C13850   0.283   3.234  14.368 -0.7537  0.7798  0.3816
    3TMC2     O13851   0.291   3.133  14.307 -0.0047 -0.4585  0.1698
    3TMC2     H13852   0.348   3.486  14.471 -0.2626  1.7648 -0.0619
    3TMC2    H113853   0.293   3.252  14.120  0.2877 -0.8121  0.5607
    3TMC2    H213854   0.463   3.639  14.098  1.5196 -1.1413  0.1652
    3TMC2    C713855   0.320   3.450  13.954 -0.2140 -0.6039 -0.2779
    3TMC2    C813856   0.447   3.689  14.369 -0.8203  0.1024  0.7196
    3TMC2    O113857   0.270   3.349  13.907  0.3108 -0.3262 -0.2185
    3TMC2    O213858   0.555   3.741  14.358 -0.4666 -0.4187 -0.0218
    3TMC2    O513859   0.329   3.757  14.395  0.0349 -0.1434 -0.4228
    3TMC2    H513860   0.246   3.705  14.382 -0.3549  0.3757 -0.0128
    4MPD2     C13861   4.383   4.412  13.813  0.5352 -0.2532  0.2908
    4MPD2    C113862   4.421   4.392  13.683  0.5868  0.2772 -0.1234
    4MPD2    C213863   4.544   4.437  13.638  0.4235  0.1403 -0.7180
    4MPD2    C313864   4.628   4.494  13.730 -0.2588 -0.5712  0.0247
    4MPD2    C413865   4.591   4.523  13.864  0.1750  0.3226 -0.0054
    4MPD2    C513866   4.466   4.476  13.902  0.2841  0.2764  0.0386
    4MPD2     H13867   4.566   4.430  13.532 -0.1271  1.6731 -0.9336
    4MPD2    H113868   4.660   4.546  13.944 -0.0851 -0.7660  0.5364
    4MPD2    H213869   4.296   4.368  13.861 -0.8662 -0.8253 -2.7128
    4MPD2    H313870   4.435   4.477  14.006  2.8982  1.2895  0.8123
    4MPD2     N13871   0.029   4.515  13.690 -0.3730 -0.2239  0.0259
    4MPD2    H513872   0.055   4.510  13.592  0.3422 -0.7322  0.2432
    4MPD2    N113873   4.360   4.286  13.609 -0.4653  0.8038 -0.7541
    4MPD2    H713874   4.394   4.270  13.514 -1.4763  0.1711 -1.0028
    5TCq2    C113875   0.133   4.476  13.771  0.2955 -0.3846 -0.8448
    5TCq2    O213876   0.144   4.480  13.896  0.2413 -0.7152  0.2597
    5TCq2    C213877   0.239   4.402  13.698 -0.7882  0.1748  0.1888
    5TCq2    C313878   0.252   4.426  13.565  0.3718  0.8725  0.0136
    5TCq2    C413879   0.294   4.327  13.476 -0.3483 -0.6473  0.2617
    5TCq2    C513880   0.307   4.199  13.517 -0.6217  0.1131  0.1748
    5TCq2    C613881   0.283   4.172  13.652 -0.0575 -0.1450  0.3042
    5TCq2    C713882   0.249   4.271  13.741  0.1114  0.5857 -0.0817
    5TCq2    C813883   0.272   4.039  13.701  0.3670 -0.6097  0.2414
    5TCq2    O413884   0.259   4.021  13.818  0.5995  0.4533 -0.1322
    5TCq2    C913885   0.300   4.362  13.335 -0.4394 -0.2065 -0.1156
    5TCq2    O513886   0.235   4.465  13.299  0.1511 -0.2903 -0.2566
    5TCq2    O613887   0.374   4.293  13.260 -0.3813 -0.3613  0.2474
    5TCq2    H213888   0.236   4.526  13.527  3.4682  0.0775 -3.3413
    5TCq2    H313889   0.315   4.123  13.440  0.4375  0.9369 -0.5270
    5TCq2    H413890   0.231   4.253  13.847 -1.7624 -2.0544 -0.8660
    6MPD1     C13891   3.478   4.713  13.856  0.3254  0.9893 -0.6581
    6MPD1    C113892   3.494   4.586  13.910  0.0645 -0.4082  0.8927
    6MPD1    C213893   3.437   4.484  13.842 -0.8886  0.2974  0.0089
    6MPD1    C313894   3.377   4.509  13.715 -0.1660 -0.3411 -0.0020
    6MPD1    C413895   3.373   4.633  13.666  0.5939 -0.2437 -0.1318
    6MPD1    C513896   3.427   0.011  13.734 -0.0430  0.6857 -0.5634
    6MPD1     H13897   3.442   4.381  13.874 -0.0570  0.3121 -0.0925
    6MPD1    H113898   3.326   4.649  13.570 -1.5000  0.7140  1.0434
    6MPD1    H213899   3.508   0.076  13.909  1.2537  0.1957  0.1784
    6MPD1    H313900   3.419   0.109  13.688  0.5259  0.7280 -0.5746
    6MPD1     N13901   3.318   4.405  13.633 -0.2104  0.4279  0.4261
    6MPD1    H513902   3.275   4.435  13.546  2.2497 -0.5227 -1.1290
    6MPD1    N113903   3.532   4.568  14.044  0.2491 -0.6155  0.0891
    6MPD1    H613904   3.603   4.637  14.065 -0.3443  0.9480 -3.0894
    6MPD1    H713905   3.575   4.477  14.063  1.3332 -0.1334 -0.0822
    7MPD2     C13906   3.563   3.691  13.737 -0.0928 -0.3434  0.1689
    7MPD2    C113907   3.584   3.795  13.651 -0.6308 -0.8326 -0.4647
    7MPD2    C213908   3.709   3.829  13.613  0.1512  0.2458  0.0398
    7MPD2    C313909   3.814   3.762  13.669 -0.0348  0.4519 -0.0917
    7MPD2    C413910   3.798   3.668  13.768 -0.0338  0.8154 -0.5083
    7MPD2    C513911   3.674   3.626  13.794  0.3418  0.2615  0.1565
    7MPD2     H13912   3.720   3.921  13.558  0.7481  0.3764  0.3725
    7MPD2    H113913   3.889   3.624  13.808 -0.4013  1.8726  1.5067
    7MPD2    H213914   3.461   3.663  13.763  0.2910 -0.0056  2.0717
    7MPD2    H313915   3.654   3.540  13.858 -0.7214  0.6626  0.3533
    7MPD2     N13916   3.945   3.798  13.643  0.0577  0.2212 -0.1261
    7MPD2    H513917   4.015   3.763  13.708 -0.7887 -1.6027 -0.2072
    7MPD2    N113918   3.478   3.869  13.586  0.3962  0.2730  0.4769
    7MPD2    H713919   3.510   3.931  13.513  1.2313 -0.8138 -0.0938
    8TMC3    C113920   4.126   3.900  13.518  0.2403 -0.9113  0.0544
    8TMC3    C213921   4.152   3.999  13.607  0.4767 -0.1222  0.0905
    8TMC3    C313922   4.205   4.112  13.551  0.0764 -0.0983 -0.3643
    8TMC3    C413923   4.146   3.910  13.384 -0.1842 -0.7668 -0.0169
    8TMC3    C513924   4.207   4.017  13.331 -0.2591 -0.1926 -0.3605
    8TMC3    C613925   4.242   4.122  13.419  0.1743 -0.2897 -0.1801
    8TMC3     C13926   3.984   3.861  13.525  0.2104 -0.1601 -0.3072
    8TMC3     O13927   3.915   3.879  13.424  0.3482 -0.2395 -0.0365
    8TMC3     H13928   4.109   4.002  13.706 -1.3954 -0.3024 -0.7266
    8TMC3    H113929   4.140   3.826  13.315 -1.7578  1.2385 -2.2980
    8TMC3    H213930   4.277   4.218  13.381 -0.1514  0.7193  2.0776
    8TMC3    C713931   4.135   4.053  13.216  0.2468 -0.3330 -0.4135
    8TMC3    C813932   4.251   4.208  13.645 -0.0651  0.4015  0.5186
    8TMC3    O113933   4.166   4.127  13.124  0.2819 -0.5893 -0.4330
    8TMC3    O213934   4.199   4.198  13.754  0.0296  0.1197 -1.0839
    9TMC3    C113935   3.277   4.195  13.549  0.2629  0.5065 -0.9375
    9TMC3    C213936   3.346   4.213  13.429 -0.6642 -1.1988  0.9201
    9TMC3    C313937   3.386   4.104  13.369 -0.0646 -0.1236 -0.3135
    9TMC3    C413938   3.239   4.064  13.592 -0.1716  0.2134  0.0407
    9TMC3    C513939   3.280   3.958  13.521 -0.3201  0.2510  0.2944
    9TMC3    C613940   3.354   3.979  13.404 -0.1533  0.1994 -0.6895
    9TMC3     C13941   3.321   4.270  13.657 -0.7387 -0.0340 -0.9924
    9TMC3     O13942   3.337   4.209  13.763  0.1527  0.2237 -0.3328
    9TMC3     H13943   3.396   4.308  13.410 -1.7037 -1.4066 -2.9614
    9TMC3    H113944   3.200   4.043  13.692 -0.0611  0.6108  0.1653
    9TMC3    H213945   3.394   3.899  13.344  0.3050  0.6768 -1.0124
    9TMC3    C713946   3.340   3.855  13.603 -0.8084 -0.0109  0.3862
    9TMC3    C813947   3.516   4.118  13.324  0.8941  0.1939  0.1289
    9TMC3    O113948   3.285   3.820  13.702  0.2228 -0.1285 -0.3319
    9TMC3    O213949   3.593   4.185  13.395 -0.0732  0.3175  0.0364
   10MPD2     C13950   3.899   4.068  13.019 -0.3952  0.2386  0.0064
   10MPD2    C113951   3.891   4.057  13.154 -0.7682  0.6765  0.3367
   10MPD2    C213952   3.764   4.053  13.209 -0.0988 -0.8115 -0.1789
   10MPD2    C313953   3.652   4.059  13.136 -0.7825  0.3391 -0.3154
   10MPD2    C413954   3.665   4.049  13.001  0.1528  0.8567  0.1754
   10MPD2    C513955   3.787   4.060  12.944 -0.0882 -0.2687 -0.6705
   10MPD2     H13956   3.764   4.045  13.317  0.8966  1.3466 -0.0262
   10MPD2    H113957   3.580   4.024  12.938 -0.3057 -1.2572  1.6104
   10MPD2    H213958   3.993   4.054  12.967  0.4733  1.8498  1.1310
   10MPD2    H313959   3.793   4.058  12.836  0.1384  0.4060 -0.6673
   10MPD2     N13960   3.529   4.061  13.202 -0.1317 -0.2640 -0.4954
   10MPD2    H513961   3.444   4.045  13.150  0.3916 -0.1346 -1.3858
   10MPD2    N113962   4.000   4.035  13.235 -0.0196 -0.2462  0.8251
   10MPD2    H713963   3.966   3.988  13.319  1.7124 -0.9057  1.1487
   11MPD2     C13964   0.189   3.538  13.693  0.1972  0.1085 -0.2937
   11MPD2    C113965   0.261   3.619  13.783 -0.3538  0.1209  0.4273
   11MPD2    C213966   0.280   3.752  13.748 -0.3532 -0.2485 -0.4281
   11MPD2    C313967   0.226   3.802  13.629 -0.1426 -0.5516 -0.2358
   11MPD2    C413968   0.158   3.720  13.546  1.2104  0.0045  0.2005
   11MPD2    C513969   0.135   3.592  13.583  0.1558 -0.7042 -0.6969
   11MPD2     H13970   0.348   3.816  13.803  1.9291 -1.4625 -1.8560
   11MPD2    H113971   0.113   3.762  13.456  1.7396  2.3674  1.0357
   11MPD2    H213972   0.170   3.432  13.704 -0.0948  0.0116 -1.8021
   11MPD2    H313973   0.071   3.535  13.517  1.7042 -4.7466  1.2981
   11MPD2     N13974   0.257   3.937  13.602 -0.1800 -0.8793 -0.6193
   11MPD2    H513975   0.244   3.964  13.505 -0.5018 -3.2562 -1.2373
   11MPD2    N113976   0.319   3.573  13.903  0.3428 -0.6568  0.4789
   11MPD2    H713977   0.395   3.629  13.941 -0.3108 -0.0373  0.8742
    1MPD1     C13978   2.220   4.685  17.310  0.0611  0.4989  0.0091
    1MPD1    C113979   2.186   0.082  17.257 -0.0886  0.0949 -0.5605
    1MPD1    C213980   2.290   0.171  17.238  0.0861 -0.7628 -0.8643
    1MPD1    C313981   2.423   0.147  17.267 -0.2984 -0.1151  0.9191
    1MPD1    C413982   2.455   0.031  17.324 -0.4545  0.3686  0.7035
    1MPD1    C513983   2.354   4.662  17.343  0.0616 -0.3619  0.2028
    1MPD1     H13984   2.259   0.268  17.201 -0.3032 -0.9079 -0.9167
    1MPD1    H113985   2.556   0.006  17.354  0.0861  1.6353 -0.0435
    1MPD1    H213986   2.154   4.606  17.345 -0.7849  1.1657 -0.0687
    1MPD1    H313987   2.385   4.573  17.396 -0.8408 -1.5897 -1.3337
    1MPD1     N13988   2.523   0.241  17.252  0.0125 -0.9810 -0.1466
    1MPD1    H513989   2.612   0.223  17.297 -0.3277  1.8944  1.6988
    1MPD1    N113990   2.052   0.126  17.235  0.0092 -0.0443 -0.3360
    1MPD1    H613991   1.993   0.043  17.233 -0.8492  0.5988 -1.5921
    1MPD1    H713992   2.037   0.164  17.142  1.2696 -1.2898 -1.0621
    2MPD1     C13993   3.251   0.928  17.399  0.0660  0.2433  0.5021
    2MPD1    C113994   3.300   0.854  17.292 -0.0986  0.7773 -0.8986
    2MPD1    C213995   3.226   0.748  17.242  0.4186  0.7237  0.3696
    2MPD1    C313996   3.116   0.704  17.309  0.4121  0.1040 -0.5506
    2MPD1    C413997   3.080   0.767  17.424 -0.0287 -0.5105 -0.1678
    2MPD1    C513998   3.146   0.881  17.468 -0.4234  0.2664  0.0457
    2MPD1     H13999   3.266   0.694  17.157  0.5127 -0.2555  1.0377
    2MPD1    H114000   2.994   0.732  17.479 -0.2674  0.6078  0.1691
    2MPD1    H214001   3.306   1.014  17.438  0.9383  0.2517 -0.7697
    2MPD1    H314002   3.119   0.935  17.558 -0.3254 -0.0664  0.2760
    2MPD1     N14003   3.041   0.598  17.248 -0.0216  0.5381 -0.0747
    2MPD1    H514004   3.066   0.578  17.152 -1.9732 -2.4256  0.0392
    2MPD1    N114005   3.408   0.901  17.215  0.2312 -0.5969  0.5427
    2MPD1    H614006   3.457   0.837  17.152 -1.4128 -2.0727  0.7329
    2MPD1    H714007   3.472   0.939  17.284 -1.4400  4.3535 -0.6254
    3TMC3    C114008   2.855   0.468  17.199 -0.2104  0.0837 -0.3224
    3TMC3    C214009   2.892   0.478  17.068  0.3053 -0.5856 -0.7296
    3TMC3    C314010   2.799   0.462  16.972 -0.4984  0.0625 -0.3282
    3TMC3    C414011   2.731   0.424  17.238  0.2691  1.0560  0.3438
    3TMC3    C514012   2.641   0.410  17.134 -0.0506 -0.2777  0.0517
    3TMC3    C614013   2.671   0.431  17.006  0.2415  0.1013 -0.3609
    3TMC3     C14014   2.930   0.539  17.305 -0.5598 -0.3326 -0.7141
    3TMC3     O14015   2.884   0.541  17.415 -0.2025  0.1121  0.0945
    3TMC3     H14016   2.997   0.495  17.049  0.5537 -1.2671  0.0805
    3TMC3    H114017   2.716   0.404  17.343  1.8368 -0.6621  0.2430
    3TMC3    H214018   2.595   0.432  16.928  0.9504 -0.1174 -1.0613
    3TMC3    C714019   2.516   0.345  17.158  0.8422  0.8430  0.2383
    3TMC3    C814020   2.833   0.437  16.830 -0.3210 -0.3330  0.4591
    3TMC3    O114021   2.436   0.369  17.068 -0.2665  0.3244 -0.0172
    3TMC3    O214022   2.746   0.412  16.750 -0.1358 -0.3866 -0.3092
    4MPD1     C14023   3.153   0.394  16.425 -0.0987  0.1634  0.4875
    4MPD1    C114024   3.227   0.432  16.539  0.3314 -0.5324 -0.7934
    4MPD1    C214025   3.155   0.447  16.655  0.1483  0.0643  0.4454
    4MPD1    C314026   3.022   0.420  16.671  0.5784  0.0937  0.1693
    4MPD1    C414027   2.960   0.366  16.560  0.0609 -0.4585  0.1866
    4MPD1    C514028   3.027   0.350  16.437  0.4679 -0.1070  0.4775
    4MPD1     H14029   3.210   0.483  16.741  0.0396  0.3993  0.3740
    4MPD1    H114030   2.857   0.333  16.565 -0.0316 -0.4558 -1.6786
    4MPD1    H214031   3.203   0.378  16.330 -0.7525  1.8779 -0.1320
    4MPD1    H314032   2.974   0.312  16.351  0.9817  4.5273 -1.9030
    4MPD1     N14033   2.966   0.433  16.797  0.4387 -0.0054  0.2359
    4MPD1    H514034   3.037   0.464  16.862  1.5271 -1.4042 -0.2633
    4MPD1    N114035   3.358   0.489  16.529 -0.2021 -0.5429 -0.0246
    4MPD1    H614036   3.400   0.480  16.621  0.0527 -2.5649 -0.3297
    4MPD1    H714037   3.420   0.438  16.467 -0.2311  0.1692 -0.6416
    1TCq1    O114038   3.928   4.577  10.958 -0.0850  0.5890  0.0877
    1TCq1    C114039   3.934   4.527  10.834  0.7096 -0.6469 -0.1382
    1TCq1    O214040   3.840   4.483  10.770 -0.2461  0.1392  0.1595
    1TCq1    C214041   4.038   4.606  10.768  0.2922  1.2364 -0.2236
    1TCq1    C314042   4.158   4.627  10.832 -0.1238  0.1580  0.3328
    1TCq1    C414043   4.254   4.689  10.753  0.3717  0.1201 -0.4817
    1TCq1    C514044   4.215   0.038  10.644 -0.5395  0.1631  1.0721
    1TCq1    C614045   4.082   0.042  10.610 -0.3053  0.0782 -0.1780
    1TCq1    C714046   3.991   4.691  10.675  0.5131 -0.4295  0.5208
    1TCq1    C814047   4.034   0.088  10.482 -0.3346 -0.1000 -0.1265
    1TCq1    O414048   3.912   0.072  10.462 -0.0251  0.4547 -0.3153
    1TCq1    C914049   4.386   4.720  10.805 -0.1748 -0.1382 -0.1561
    1TCq1    O514050   4.432   4.647  10.894 -0.0743 -0.4992  0.4453
    1TCq1    O614051   4.435   0.106  10.779  0.6101 -0.7077  0.2004
    1TCq1    H114052   4.002   4.633  10.990  0.3911  0.0057  0.0188
    1TCq1    H214053   4.182   4.565  10.918  0.5408  1.4752  1.0883
    1TCq1    H314054   4.293   0.094  10.593 -0.3550 -0.8510  0.2413
    1TCq1    H414055   3.886   4.688  10.646  0.6983  0.8728 -0.3046
    2MPD1     C14056   4.060   0.348  10.035 -0.5616  0.5969  0.0083
    2MPD1    C114057   4.190   0.324  10.078 -0.8445 -0.8518  0.3974
    2MPD1    C214058   4.207   0.266  10.198  0.1317  0.3184 -0.0684
    2MPD1    C314059   4.106   0.210  10.278  0.0325  0.4374  0.4727
    2MPD1    C414060   3.982   0.221  10.220 -0.4818 -0.7563  0.2158
    2MPD1    C514061   3.965   0.300  10.112  0.4414  0.3692 -0.5990
    2MPD1     H14062   4.307   0.256  10.239 -0.8302 -0.2724  2.1393
    2MPD1    H114063   3.885   0.198  10.263 -1.1211  0.3896 -0.6130
    2MPD1    H214064   4.034   0.406   9.948  0.7809  0.8828 -0.2098
    2MPD1    H314065   3.862   0.312  10.081 -0.2195  0.2184  1.5076
    2MPD1     N14066   4.130   0.142  10.400  0.3855 -0.2908  0.2387
    2MPD1    H514067   4.224   0.141  10.437  0.1632  1.7240  0.8635
    2MPD1    N114068   4.303   0.388  10.022  0.2079 -0.9483 -0.1481
    2MPD1    H614069   4.297   0.404   9.921 -2.6188  0.9263  0.2918
    2MPD1    H714070   4.390   0.342  10.047  1.9982  2.2865 -0.4778
    1TCq1    O114071   2.010   0.565   1.063  0.3083  0.5086 -0.3215
    1TCq1    C114072   2.000   0.587   0.933 -0.2465 -0.1162 -0.2217
    1TCq1    O214073   2.079   0.650   0.864  0.7281 -0.0701 -0.3641
    1TCq1    C214074   1.859   0.570   0.888 -0.4660  0.9195  0.1377
    1TCq1    C314075   1.776   0.481   0.951 -0.1672  0.0585  0.2271
    1TCq1    C414076   1.654   0.457   0.888 -0.5364 -0.6426  0.1938
    1TCq1    C514077   1.603   0.547   0.803  0.2549  0.6150 -0.3328
    1TCq1    C614078   1.692   0.637   0.748  0.6150 -0.0992  0.1369
    1TCq1    C714079   1.820   0.651   0.780  0.1135  0.1166 -0.1164
    1TCq1    C814080   1.651   0.724   0.640 -0.0452  0.5369 -0.7267
    1TCq1    O414081   1.727   0.812   0.610  0.5096 -0.3545  0.4877
    1TCq1    C914082   1.554   0.358   0.931 -0.1446 -0.9317  0.7510
    1TCq1    O514083   1.576   0.308   1.038 -0.1178 -0.3776  0.5221
    1TCq1    O614084   1.443   0.357   0.870 -0.0203  0.5897 -0.1141
    1TCq1    H114085   1.925   0.527   1.095 -0.3911  1.6826 -0.7627
    1TCq1    H214086   1.802   0.406   1.025  0.0900 -0.4908 -0.4316
    1TCq1    H314087   1.499   0.543   0.771  0.8066 -0.5445 -1.9911
    1TCq1    H414088   1.892   0.711   0.726 -1.8100  2.0757 -0.4892
    2MPD1     C14089   1.305   0.963   0.343 -0.3128 -0.2869 -0.6624
    2MPD1    C114090   1.261   0.830   0.363  0.0941 -0.1117 -0.3945
    2MPD1    C214091   1.338   0.753   0.445 -0.1229  0.1886 -0.3280
    2MPD1    C314092   1.465   0.789   0.495  0.3289  0.4050  0.5164
    2MPD1    C414093   1.506   0.917   0.466  0.4064 -0.2929  0.3622
    2MPD1    C514094   1.421   1.003   0.397 -0.3474  0.1801  0.0580
    2MPD1     H14095   1.297   0.655   0.469  0.3915  0.1064  0.2178
    2MPD1    H114096   1.600   0.959   0.501 -0.4375  0.6617  1.4968
    2MPD1    H214097   1.260   1.037   0.278 -1.1022 -0.6263 -0.5043
    2MPD1    H314098   1.453   1.106   0.388 -0.1291  0.1804  0.7784
    2MPD1     N14099   1.532   0.700   0.581 -0.4738  0.3200  0.5938
    2MPD1    H514100   1.484   0.616   0.611 -1.2497  0.2724 -0.7649
    2MPD1    N114101   1.134   0.788   0.324  0.8789  0.1751  0.3949
    2MPD1    H614102   1.095   0.848   0.251  1.8954 -0.8193 -0.9646
    2MPD1    H714103   1.136   0.690   0.296 -0.4330  0.1711  0.3088
    1MPD1     C14104   0.500   0.407  12.124 -0.1650 -0.1755  0.8881
    1MPD1    C114105   0.626   0.357  12.088  0.6470  0.4598 -0.1678
    1MPD1    C214106   0.725   0.454  12.057 -0.1020 -1.0453 -0.2435
    1MPD1    C314107   0.705   0.585  12.084 -0.4765 -0.0965 -0.4552
    1MPD1    C414108   0.579   0.636  12.120 -0.1093 -0.5998  1.1987
    1MPD1    C514109   0.481   0.542  12.125  0.3056 -0.0706 -0.1373
    1MPD1     H14110   0.826   0.419  12.039  0.2268  0.2552 -0.9386
    1MPD1    H114111   0.558   0.740  12.140  2.1220 -0.2125  1.4322
    1MPD1    H214112   0.419   0.336  12.135  0.7621 -1.6319 -1.7831
    1MPD1    H314113   0.381   0.572  12.155  0.5285 -0.3796  0.9224
    1MPD1     N14114   0.820   0.673  12.071 -0.5147 -0.8710  0.6979
    1MPD1    H514115   0.911   0.630  12.057 -0.8059 -2.4346  3.5486
    1MPD1    N114116   0.644   0.221  12.067 -0.1352  0.3908  0.4586
    1MPD1    H614117   0.735   0.182  12.090 -0.6739 -1.3717 -0.4364
    1MPD1    H714118   0.566   0.170  12.107  0.3634 -0.5304  0.2444
    2MPD1     C14119   4.560   0.552  11.471  0.1292 -0.9340 -0.4748
    2MPD1    C114120   4.687   0.600  11.469  0.1372  0.4782 -0.0686
    2MPD1    C214121   0.060   0.509  11.444  0.5646  0.2888 -0.9120
    2MPD1    C314122   0.024   0.379  11.406  0.1046  0.3622 -0.3415
    2MPD1    C414123   4.619   0.340  11.401 -0.5470 -0.2274 -0.3053
    2MPD1    C514124   4.523   0.424  11.444  0.4335  0.6215 -1.2395
    2MPD1     H14125   0.166   0.532  11.455  0.7089 -0.8830  0.1430
    2MPD1    H114126   4.591   0.236  11.390 -1.2184 -0.2891  2.1059
    2MPD1    H214127   4.478   0.613  11.507 -2.2370 -3.9845 -0.7573
    2MPD1    H314128   4.419   0.395  11.456  0.8736 -0.4069  0.1814
    2MPD1     N14129   0.116   0.286  11.358  0.7281  0.4218 -0.5797
    2MPD1    H514130   0.083   0.205  11.306  1.3713 -0.4475  0.3509
    2MPD1    N114131   4.714   0.727  11.527  0.0196 -0.2929 -1.1090
    2MPD1    H614132   0.081   0.754  11.498  0.3687  0.5763  0.7913
    2MPD1    H714133   4.648   0.797  11.493 -0.1431 -0.3553 -0.9208
    3MPD1     C14134   0.445   0.427  10.514  0.6270 -0.1889  0.2576
    3MPD1    C114135   0.366   0.486  10.609 -0.2042 -0.5907 -0.3864
    3MPD1    C214136   0.339   0.431  10.734  0.0920 -0.1996 -0.2191
    3MPD1    C314137   0.381   0.304  10.760 -0.9087  0.2355  0.0364
    3MPD1    C414138   0.463   0.243  10.668  0.3443 -0.0742  0.3893
    3MPD1    C514139   0.492   0.303  10.547  0.1236  0.2144 -0.0609
    3MPD1     H14140   0.278   0.493  10.799 -1.3696 -2.6053  0.6915
    3MPD1    H114141   0.505   0.145  10.688  1.2148 -0.0492 -1.3127
    3MPD1    H214142   0.483   0.474  10.424  0.2407  3.3995  1.9638
    3MPD1    H314143   0.569   0.256  10.487  0.9368  0.7877  0.5337
    3MPD1     N14144   0.356   0.247  10.892  0.0073 -0.2112 -0.1113
    3MPD1    H514145   0.297   0.294  10.960  0.0318 -2.2219  1.2798
    3MPD1    N114146   0.308   0.610  10.573  0.8123  0.2172  0.3748
    3MPD1    H614147   0.291   0.681  10.644 -0.7634 -0.0497  0.2630
    3MPD1    H714148   0.352   0.656  10.494  2.7247 -0.0822  1.2816
    4MPD2     C14149   1.187   0.801  11.566  0.0795  0.4521 -0.0743
    4MPD2    C114150   1.245   0.751  11.686  0.1079  0.4861 -0.5596
    4MPD2    C214151   1.303   0.628  11.702  0.6467  0.9519 -0.4661
    4MPD2    C314152   1.307   0.548  11.587 -0.2139  0.0247  0.0049
    4MPD2    C414153   1.256   0.601  11.466  0.1974 -1.1798 -0.5873
    4MPD2    C514154   1.204   0.732  11.449  0.0194 -0.4671 -1.0605
    4MPD2     H14155   1.354   0.602  11.794  0.4094  0.6713 -0.4155
    4MPD2    H114156   1.270   0.532  11.384  0.8581 -0.7456 -0.8381
    4MPD2    H214157   1.133   0.895  11.563  1.1012  1.0653  1.1632
    4MPD2    H314158   1.170   0.764  11.351  0.3785 -1.2018 -1.4363
    4MPD2     N14159   1.357   0.414  11.587 -0.8122  0.6037  0.1522
    4MPD2    H514160   1.374   0.369  11.498  1.7022  0.0346  0.9325
    4MPD2    N114161   1.238   0.815  11.811 -0.0400  0.1015  0.4224
    4MPD2    H714162   1.280   0.761  11.886 -0.4287 -0.1700  0.4417
    5TMC3    C114163   1.134   0.938  11.981  0.0386  0.3393 -0.1168
    5TMC3    C214164   0.999   0.941  12.003 -0.1018  0.2258 -0.4744
    5TMC3    C314165   0.942   0.863  12.108  0.0046 -0.3577  0.2385
    5TMC3    C414166   1.217   0.859  12.049 -0.2151  0.1270 -0.1224
    5TMC3    C514167   1.164   0.779  12.156 -0.4713  0.8249 -0.6223
    5TMC3    C614168   1.022   0.775  12.177 -0.1679  0.1118 -0.4111
    5TMC3     C14169   1.164   0.930  11.839 -0.3274  0.2535 -0.3199
    5TMC3     O14170   1.094   0.997  11.768 -0.0960 -0.0633  0.0018
    5TMC3     H14171   0.931   0.995  11.938  0.3153  1.5476  0.1797
    5TMC3    H114172   1.324   0.875  12.037 -0.0494 -0.2728  0.8168
    5TMC3    H214173   0.974   0.736  12.266 -0.0366  1.4462  0.2318
    5TMC3    C714174   1.241   0.657  12.155 -0.0440  0.4983 -0.1554
    5TMC3    C814175   0.812   0.806  12.080 -0.3752 -0.0268  0.6210
    5TMC3    O114176   1.318   0.644  12.061 -0.2760 -0.3286 -0.1771
    5TMC3    O214177   0.721   0.884  12.077  0.3848 -0.4252  0.2012
    6TMC3    C114178   0.330   0.212  11.289  0.2055  0.0801 -0.0105
    6TMC3    C214179   0.300   0.185  11.157 -0.1562  0.5941 -0.3022
    6TMC3    C314180   0.396   0.118  11.080  0.1651 -0.3497  0.0734
    6TMC3    C414181   0.436   0.149  11.344  0.5052  0.2400 -0.0469
    6TMC3    C514182   0.519   0.074  11.271  0.1195 -0.0502 -0.4725
    6TMC3    C614183   0.511   0.067  11.137 -0.0223 -0.6053 -0.6667
    6TMC3     C14184   0.250   0.296  11.378  0.0910  0.5267  0.5660
    6TMC3     O14185   0.318   0.370  11.447 -0.2568  0.2424  0.6443
    6TMC3     H14186   0.202   0.218  11.126 -0.0360  2.1387  0.9958
    6TMC3    H114187   0.450   0.145  11.451  1.4756  1.9792 -0.1250
    6TMC3    H214188   0.588   0.016  11.079  0.3282 -2.7145  1.6622
    6TMC3    C714189   0.655   0.059  11.328  0.1638  0.2821 -0.4385
    6TMC3    C814190   0.412   0.134  10.941  0.1881 -0.3163  0.3115
    6TMC3    O114191   0.695   0.154  11.398 -0.1081 -0.0350  0.2505
    6TMC3    O214192   0.497   0.059  10.889  0.0597 -0.3345 -0.1620
    7MPD2     C14193   1.260   0.148  12.216 -0.4802  0.2218 -0.6040
    7MPD2    C114194   1.302   0.228  12.116 -0.2465  0.3011  0.2936
    7MPD2    C214195   1.277   0.368  12.126 -0.2917 -0.5690  0.0014
    7MPD2    C314196   1.206   0.425  12.225 -0.3750 -0.6555 -0.2938
    7MPD2    C414197   1.153   0.341  12.321  0.2396 -0.1197  0.2984
    7MPD2    C514198   1.186   0.206  12.315  0.1025  0.0113 -0.5406
    7MPD2     H14199   1.314   0.422  12.039  1.4822 -0.6555  0.6869
    7MPD2    H114200   1.096   0.387  12.400 -2.0866  2.5578 -2.9308
    7MPD2    H214201   1.275   0.040  12.217  1.1503  0.4537 -0.9421
    7MPD2    H314202   1.158   0.151  12.404 -0.2163 -2.6300 -2.2660
    7MPD2     N14203   1.177   0.563  12.234 -0.4815  0.4201 -0.2033
    7MPD2    H514204   1.120   0.592  12.312  0.9305 -0.2538  1.0837
    7MPD2    N114205   1.365   0.176  12.006 -0.2478  0.5723 -0.0670
    7MPD2    H714206   1.376   0.245  11.932  1.0435  2.9866  2.3640
    8TMC3    C114207   1.450   0.037  11.833 -0.5409  0.5935 -0.3613
    8TMC3    C214208   1.378   4.683  11.754 -0.4177  0.6422  1.3821
    8TMC3    C314209   1.313   0.016  11.652 -0.2973 -0.2095 -0.2229
    8TMC3    C414210   1.491   0.155  11.780  0.7084 -0.0373  0.2623
    8TMC3    C514211   1.440   0.213  11.668  0.3719 -0.2082 -0.3610
    8TMC3    C614212   1.334   0.140  11.609 -0.3770  1.3098  0.5212
    8TMC3     C14213   1.394   0.045  11.967  0.2973 -0.2409  0.3626
    8TMC3     O14214   1.372   4.667  12.027 -0.1837  0.1696  0.4088
    8TMC3     H14215   1.361   4.579  11.777 -2.8254  0.7496  0.1017
    8TMC3    H114216   1.569   0.207  11.834  3.4954 -1.7928 -2.0372
    8TMC3    H214217   1.267   0.182  11.535  0.6491 -0.3567 -1.3539
    8TMC3    C714218   1.409   0.350  11.693 -0.3075  0.0837  0.7160
    8TMC3    C814219   1.236   4.654  11.573  0.4944  0.0174 -0.1745
    8TMC3    O114220   1.412   0.391  11.812 -0.2515  0.1473  0.1664
    8TMC3    O214221   1.261   4.536  11.568  0.1140 -0.1017 -0.0587
    9MPD2     C14222   1.102   4.555  11.331  0.4446 -0.4717 -0.5415
    9MPD2    C114223   1.050   4.650  11.418  0.5658  0.1629  0.3575
    9MPD2    C214224   0.927   4.699  11.401  0.0861 -0.3545  0.0149
    9MPD2    C314225   0.842   4.636  11.306  0.1222  0.1626 -0.0516
    9MPD2    C414226   0.886   4.538  11.228  0.3582  0.1255 -0.0127
    9MPD2    C514227   1.022   4.508  11.234 -0.2784  0.1056  0.3471
    9MPD2     H14228   0.899   0.053  11.467  2.6018  0.2643  0.2951
    9MPD2    H114229   0.837   4.512  11.134  2.7813 -1.0118 -0.9634
    9MPD2    H214230   1.196   4.504  11.348  0.7271  0.1779 -0.1661
    9MPD2    H314231   1.060   4.427  11.172 -0.0518  1.3608 -1.1600
    9MPD2     N14232   0.715   4.681  11.276 -0.6063 -0.1230 -0.0046
    9MPD2    H514233   0.665   4.612  11.221 -0.9064 -0.6826  0.9610
    9MPD2    N114234   1.131   4.713  11.510  0.1738 -0.0907 -0.3320
    9MPD2    H714235   1.112   0.078  11.546  4.1111  0.3705  0.5965
    1MPD1     C14236   1.212   4.028  16.350 -0.1539  0.6462  0.0523
    1MPD1    C114237   1.113   4.124  16.343  0.7427  0.1104 -0.1888
    1MPD1    C214238   0.997   4.111  16.421 -0.3512 -0.9951  0.3215
    1MPD1    C314239   0.976   4.004  16.502  0.5424 -1.0885 -0.8329
    1MPD1    C414240   1.080   3.913  16.510 -0.1970 -0.3658 -0.1874
    1MPD1    C514241   1.192   3.921  16.432 -0.1660  0.4341 -0.1914
    1MPD1     H14242   0.929   4.195  16.435  0.9248 -0.0961  1.2439
    1MPD1    H114243   1.083   3.832  16.582  1.5641 -2.7855 -2.9923
    1MPD1    H214244   1.303   4.034  16.292  1.1753 -0.7393  2.0281
    1MPD1    H314245   1.268   3.847  16.453 -0.8918  0.1354  1.3563
    1MPD1     N14246   0.866   3.981  16.580  0.3234  0.1624  0.7908
    1MPD1    H514247   0.875   3.895  16.632 -1.2473  0.2954  1.2672
    1MPD1    N114248   1.142   4.239  16.275 -0.4510  0.1496 -0.2247
    1MPD1    H614249   1.211   4.218  16.203 -0.3653  0.2337 -0.1677
    1MPD1    H714250   1.190   4.304  16.337  0.5243 -0.9529  0.1627
    2MPD1     C14251   4.654   3.894  16.239  0.3732  0.0964 -0.0491
    2MPD1    C114252   0.050   3.910  16.175  0.0447 -0.0475  0.4390
    2MPD1    C214253   0.162   3.891  16.253 -0.1486  0.0883 -0.5284
    2MPD1    C314254   0.153   3.884  16.391 -0.0829 -0.1093  0.0419
    2MPD1    C414255   0.031   3.892  16.451 -0.1637  0.5511  0.0761
    2MPD1    C514256   4.648   3.896  16.370  0.2884  0.0874 -0.1929
    2MPD1     H14257   0.260   3.871  16.211  0.0799 -0.4538  0.2525
    2MPD1    H114258   0.023   3.903  16.558 -0.9405 -1.9435  0.2831
    2MPD1    H214259   4.557   3.885  16.191  0.7709  1.6111 -1.1305
    2MPD1    H314260   4.550   3.891  16.416  0.6905 -0.9360  0.5474
    2MPD1     N14261   0.272   3.860  16.463 -0.5112  0.2603  0.1618
    2MPD1    H514262   0.359   3.856  16.411  0.4360 -1.9312  1.8658
    2MPD1    N114263   0.059   3.898  16.040 -0.3444 -0.6290  0.2165
    2MPD1    H614264   0.137   3.952  16.005 -0.2301 -0.3884  0.8547
    2MPD1    H714265   4.703   3.937  15.995 -0.3199  0.8746  1.4784
    3TCq2    C114266   0.280   3.855  16.601 -0.0081 -0.7175 -0.0692
    3TCq2    O214267   0.199   3.843  16.690 -0.2772  0.5597 -0.3663
    3TCq2    C214268   0.415   3.863  16.639  0.7570  1.0204 -0.2398
    3TCq2    C314269   0.443   3.830  16.769  0.0520  0.2607  0.0807
    3TCq2    C414270   0.566   3.848  16.814  0.1867  0.4229  1.2913
    3TCq2    C514271   0.665   3.915  16.744 -0.0328 -0.0370 -0.5741
    3TCq2    C614272   0.634   3.951  16.613  0.2611 -1.0355 -0.1013
    3TCq2    C714273   0.515   3.924  16.560 -0.2939 -0.1459  1.2511
    3TCq2    C814274   0.739   4.018  16.539 -0.0417 -0.2719  1.0148
    3TCq2    O414275   0.699   4.075  16.440 -0.1702 -0.2642  0.1273
    3TCq2    C914276   0.603   3.797  16.943  0.0260 -0.0089 -0.3172
    3TCq2    O514277   0.510   3.747  17.010  0.2074  0.5358  0.1036
    3TCq2    O614278   0.717   3.836  16.991  0.5627 -0.1311 -0.1713
    3TCq2    H214279   0.374   3.778  16.834 -1.3479  2.2407  0.1751
    3TCq2    H314280   0.752   3.949  16.799 -0.9247  0.5741  0.4463
    3TCq2    H414281   0.503   3.957  16.457 -1.1622 -0.9378  1.1039
    1TCq1    O114282   3.779   3.481  12.640  0.2533  0.0490  0.3385
    1TCq1    C114283   3.875   3.449  12.740 -0.1071  0.6376 -0.6067
    1TCq1    O214284   3.994   3.478  12.738  0.3941 -1.3065 -0.1964
    1TCq1    C214285   3.804   3.401  12.857  0.6386 -0.5453  0.8000
    1TCq1    C314286   3.667   3.419  12.886 -0.4476  0.2730 -0.4696
    1TCq1    C414287   3.622   3.350  12.997  0.3411  0.2911 -0.2781
    1TCq1    C514288   3.709   3.287  13.086 -0.4885 -0.1605 -0.0896
    1TCq1    C614289   3.842   3.284  13.058 -0.4982 -0.0497  0.1416
    1TCq1    C714290   3.888   3.340  12.949 -0.5070 -0.3523 -0.6794
    1TCq1    C814291   3.953   3.246  13.150 -0.4029  0.5406 -0.1182
    1TCq1    O414292   4.070   3.282  13.127 -0.2414  0.4900  0.5846
    1TCq1    C914293   3.477   3.345  13.024 -0.5425  0.5201 -0.2339
    1TCq1    O514294   3.415   3.413  12.939  0.2357 -0.9590  0.1042
    1TCq1    O614295   3.431   3.255  13.102 -0.6567 -0.0522  0.3525
    1TCq1    H114296   3.712   3.410  12.632  1.2821 -1.0282  1.3925
    1TCq1    H214297   3.595   3.477  12.829 -0.4303  3.5906  2.8730
    1TCq1    H314298   3.658   3.248  13.173  1.6694 -2.4911  0.1159
    1TCq1    H414299   3.993   3.331  12.924 -0.5334 -1.3077 -0.4695
    2MPD2     C14300   4.114   3.183  13.387 -0.0952  0.1912 -0.3127
    2MPD2    C114301   3.984   3.138  13.372 -0.5060  0.2440 -0.9315
    2MPD2    C214302   3.926   3.060  13.471 -0.0161  0.1169 -0.3377
    2MPD2    C314303   3.996   3.026  13.585 -0.0523  0.0078  0.6276
    2MPD2    C414304   4.126   3.055  13.598 -0.3769  0.2910  0.1577
    2MPD2    C514305   4.184   3.135  13.498 -0.0444  0.1162 -0.2103
    2MPD2     H14306   3.825   3.020  13.473 -0.3465  1.0366  1.0580
    2MPD2    H114307   4.191   3.036  13.683  2.9563 -2.1889 -2.9765
    2MPD2    H214308   4.163   3.255  13.323  1.0727  0.7888  1.2497
    2MPD2    H314309   4.287   3.161  13.520 -0.1074  0.8721 -0.8111
    2MPD2     N14310   3.934   2.942  13.676  0.0356  0.1918  0.8036
    2MPD2    H514311   3.832   2.948  13.672  0.3090  2.6301 -1.9468
    2MPD2    N114312   3.899   3.175  13.256  0.0533  0.2228 -0.9996
    2MPD2    H714313   3.802   3.147  13.266  0.0218  0.5947 -0.2496
    3TCq1    O114314   3.549   2.947  13.934 -0.3776 -0.8575 -1.1398
    3TCq1    C114315   3.603   2.876  14.036  0.2592  0.7900  0.0688
    3TCq1    O214316   3.552   2.854  14.143  0.1760 -0.0534  0.4840
    3TCq1    C214317   3.730   2.828  14.005 -0.3294 -0.2132 -1.0673
    3TCq1    C314318   3.760   2.706  14.058  0.4243  0.9562  0.4766
    3TCq1    C414319   3.869   2.635  14.027 -0.1742  0.3755 -0.3244
    3TCq1    C514320   3.959   2.692  13.940  0.4856  0.1695 -0.5929
    3TCq1    C614321   3.927   2.819  13.886  0.9346  0.3418  0.8757
    3TCq1    C714322   3.814   2.890  13.918  0.3833  0.3690  0.3574
    3TCq1    C814323   4.004   2.876  13.775 -0.1282  0.4762 -0.1071
    3TCq1    O414324   4.115   2.829  13.765  0.3228 -0.1849 -0.0019
    3TCq1    C914325   3.890   2.500  14.077  0.4546  0.0538 -0.7072
    3TCq1    O514326   3.820   2.477  14.177  0.3860 -0.7316 -0.0496
    3TCq1    O614327   3.929   2.406  14.004  0.2543 -0.3504 -0.0738
    3TCq1    H114328   3.602   2.945  13.851 -0.3801 -0.1484 -1.1572
    3TCq1    H214329   3.704   2.659  14.138  0.4044  0.9951  0.4852
    3TCq1    H314330   4.033   2.633  13.888  2.3385  1.1397  0.8937
    3TCq1    H414331   3.788   2.985  13.872  0.5379 -0.1043 -0.7231
    1MPD2     C14332   2.914   3.535  15.320 -0.3492  0.2104  0.2917
    1MPD2    C114333   2.818   3.560  15.215 -0.0562 -0.2276 -0.8648
    1MPD2    C214334   2.863   3.568  15.087  0.3052  1.2430  0.3337
    1MPD2    C314335   2.998   3.568  15.051  0.0642 -0.6835 -0.0003
    1MPD2    C414336   3.093   3.537  15.148 -0.1403  0.0127  0.2173
    1MPD2    C514337   3.046   3.520  15.280 -0.4798 -0.2584 -0.0281
    1MPD2     H14338   2.796   3.578  15.002  1.4396  1.8482 -0.4874
    1MPD2    H114339   3.196   3.511  15.124 -0.5524 -1.2847 -0.1063
    1MPD2    H214340   2.895   3.517  15.425 -0.3358 -1.7911 -0.0342
    1MPD2    H314341   3.110   3.477  15.356  0.6387  0.1548 -0.7436
    1MPD2     N14342   3.015   3.571  14.917  0.4889 -0.2790 -0.5677
    1MPD2    H514343   2.927   3.572  14.867  0.1547 -1.7732 -0.0180
    1MPD2    N114344   2.681   3.584  15.251  0.3710  0.5747  0.0348
    1MPD2    H714345   2.662   3.581  15.351  0.1039 -0.7425 -0.0610
    2TMC3    C114346   2.451   3.603  15.223  0.4047 -0.4143  0.8646
    2TMC3    C214347   2.396   3.489  15.182  0.0865  0.5409 -0.4891
    2TMC3    C314348   2.266   3.483  15.135 -0.0827 -1.0171 -0.7192
    2TMC3    C414349   2.383   3.720  15.234  0.6446 -0.2847  0.9343
    2TMC3    C514350   2.259   3.719  15.187  0.2519 -0.4355 -0.0640
    2TMC3    C614351   2.193   3.601  15.145 -0.8740  0.2546 -0.0353
    2TMC3     C14352   2.577   3.617  15.162  0.8624  0.1649 -0.2248
    2TMC3     O14353   2.571   3.612  15.040 -0.4882  0.1450 -0.1852
    2TMC3     H14354   2.453   3.397  15.170 -0.9112 -0.1047 -0.2790
    2TMC3    H114355   2.435   3.813  15.250  0.6666  0.0440 -0.9952
    2TMC3    H214356   2.103   3.611  15.084  0.4413  0.7591 -1.9077
    2TMC3    C714357   2.192   3.839  15.141  0.2626  0.0812 -0.3135
    2TMC3    C814358   2.256   3.426  15.002 -0.1207  0.0218  0.3293
    2TMC3    O114359   2.070   3.843  15.159  0.2445  0.2418  0.5266
    2TMC3    O214360   2.145   3.400  14.956 -0.0693  0.0966  0.1629
    3TCq1    O114361   2.757   0.152  14.736  0.0980  0.3039 -0.6996
    3TCq1    C114362   2.664   0.089  14.814 -0.1236  0.2877 -0.0798
    3TCq1    O214363   2.606   0.123  14.913 -0.8138 -0.0408 -0.0448
    3TCq1    C214364   2.657   4.678  14.775 -0.2066 -0.0727 -0.3843
    3TCq1    C314365   2.758   4.611  14.712 -0.4690 -0.1347 -0.7102
    3TCq1    C414366   2.737   4.485  14.677  0.4625 -0.1277 -0.1166
    3TCq1    C514367   2.618   4.427  14.699  0.0100 -0.0575  0.1978
    3TCq1    C614368   2.521   4.492  14.761  0.2333 -0.0807 -0.4241
    3TCq1    C714369   2.538   4.619  14.799 -0.6253  0.2649  0.0961
    3TCq1    C814370   2.393   4.442  14.786 -0.1548 -1.0145 -0.4041
    3TCq1    O414371   2.302   4.526  14.787  0.3734  0.2715  0.2977
    3TCq1    C914372   2.839   4.411  14.607 -0.4006 -0.9487 -0.5555
    3TCq1    O514373   2.955   4.462  14.605  0.3284 -0.4288  0.2276
    3TCq1    O614374   2.815   4.294  14.572 -0.0994 -0.0255 -0.4569
    3TCq1    H114375   2.767   0.116  14.645  1.3581  2.2644 -1.3296
    3TCq1    H214376   2.854   4.659  14.694 -1.5512  1.6548 -1.7548
    3TCq1    H314377   2.601   4.322  14.681 -0.3270  0.2590 -1.3251
    3TCq1    H414378   2.472   4.675  14.864 -0.4735 -2.0767  2.2551
    4MPD2     C14379   2.175   4.292  14.896  1.1682  0.6947 -0.4052
    4MPD2    C114380   2.300   4.249  14.888  0.2379  0.1019 -0.5792
    4MPD2    C214381   2.336   4.125  14.946  0.4933  0.0419  0.3704
    4MPD2    C314382   2.243   4.044  15.003  0.2002  0.3378  0.0774
    4MPD2    C414383   2.114   4.089  15.006 -0.0659  0.1578  0.7716
    4MPD2    C514384   2.082   4.219  14.964 -0.3495 -1.2390  0.5012
    4MPD2     H14385   2.440   4.099  14.937  0.8711  2.0941 -1.0250
    4MPD2    H114386   2.028   4.034  15.045  1.8084 -0.5584  3.9249
    4MPD2    H214387   2.146   4.379  14.840 -1.5206  0.9171  1.3458
    4MPD2    H314388   1.979   4.252  14.973 -0.4308 -1.7569  1.5244
    4MPD2     N14389   2.278   3.918  15.064  0.9394  0.0434 -0.2258
    4MPD2    H514390   2.377   3.896  15.059  1.7952  4.0151 -0.4482
    4MPD2    N114391   2.400   4.314  14.830 -0.1667  0.4537 -0.1411
    4MPD2    H714392   2.490   4.270  14.814  0.0635  1.5357 -1.8814
    5TMC2    C114393   2.922   3.540  14.588  0.2759  0.2909 -0.3456
    5TMC2    C214394   2.984   3.425  14.540  0.6148  1.1572  0.7159
    5TMC2    C314395   3.114   3.400  14.572 -0.0653 -0.1386 -0.1947
    5TMC2    C414396   2.993   3.615  14.679  1.2549 -0.4399  0.3328
    5TMC2    C514397   3.123   3.583  14.710  0.1892 -0.0998 -0.4115
    5TMC2    C614398   3.188   3.480  14.652  0.0953 -0.0010  0.4925
    5TMC2     C14399   2.793   3.513  14.651  0.1609 -0.2528  0.6022
    5TMC2     O14400   2.785   3.577  14.756 -0.6399  0.2208  0.3457
    5TMC2     H14401   2.930   3.366  14.467 -1.1254  0.7001  2.3813
    5TMC2    H114402   2.961   3.712  14.714 -0.5587 -0.9741  0.1386
    5TMC2    H214403   3.293   3.460  14.668  0.3247  1.9696  1.4418
    5TMC2    C714404   3.137   3.568  14.852  0.0147 -0.0626  0.9251
    5TMC2    C814405   3.184   3.313  14.479  0.0771  0.8244 -0.7491
    5TMC2    O114406   3.256   3.559  14.891 -0.1434 -0.8192 -0.3994
    5TMC2    O214407   3.115   3.274  14.386  0.3945  0.7229 -0.1299
    5TMC2    O514408   3.275   3.239  14.548  0.2930  0.4193  0.1046
    5TMC2    H514409   3.292   3.274  14.638  2.0378 -1.8104  0.6416
    6MPD2     C14410   2.310   3.352  14.711  0.0283  0.1445  0.2597
    6MPD2    C114411   2.407   3.392  14.802 -0.4524 -0.5253  0.2844
    6MPD2    C214412   2.531   3.424  14.760 -0.6070  0.4392 -0.2872
    6MPD2    C314413   2.569   3.409  14.627  0.6512  0.1432 -0.2417
    6MPD2    C414414   2.478   3.356  14.542  0.3166  0.5717  0.1841
    6MPD2    C514415   2.349   3.327  14.585 -0.2786  0.0502 -0.6282
    6MPD2     H14416   2.601   3.461  14.834 -0.3669 -0.9368  0.1889
    6MPD2    H114417   2.495   3.335  14.437  0.1427 -0.0666  0.2803
    6MPD2    H214418   2.206   3.339  14.738 -0.1095 -0.0038 -0.3294
    6MPD2    H314419   2.280   3.293  14.509 -0.7938  0.4135 -0.3260
    6MPD2     N14420   2.699   3.442  14.577 -0.2363  0.0925  0.6974
    6MPD2    H514421   2.722   3.419  14.480 -0.1298  1.6278  0.3517
    6MPD2    N114422   2.376   3.428  14.935 -0.1984 -0.0506 -0.3291
    6MPD2    H714423   2.447   3.477  14.988 -0.6083 -1.6617  1.7150
  945NH3     N114424   4.094   1.848  12.953 -0.3426  0.4092  0.2826
  945NH3     H214425   4.052   1.809  13.037  2.3616 -1.1458  0.9425
  945NH3     H314426   4.133   1.940  12.973  0.5358 -0.1613  1.1926
  945NH3     H414427   4.174   1.787  12.939 -0.8466 -0.2179  0.1621
  946SOD     NA14428   2.832   4.232  14.358  0.4008 -0.0438 -0.1429
  947SOD     NA14429   2.049   1.926  15.204 -0.5919 -0.2827  0.4924
  948SOD     NA14430   4.680   1.513  15.088 -0.0503  0.0236 -0.1991
  949SOD     NA14431   3.924   1.822  12.789  0.5614 -0.1966  0.3955
  950SOD     NA14432   3.569   1.249  16.931 -0.0553 -0.1904 -0.0412
  951SOD     NA14433   0.410   3.784  17.192 -0.4696  0.6820  0.4292
  952SOD     NA14434   2.321   0.522   2.375  0.0600  0.0241 -0.3381
  953SOD     NA14435   4.538   3.605  15.250 -0.4527  0.3024 -0.4246
  954SOD     NA14436   3.757   2.025  12.584 -0.3489  0.3041 -0.6292
  955SOD     NA14437   0.457   3.468  15.058  0.4572 -0.0947 -0.1303
  956SOD     NA14438   1.404   2.883   3.105 -0.3672  0.3256  0.0279
  957SOD     NA14439   1.764   3.067  14.926  0.2000 -0.5503 -0.0526
  958SOD     NA14440   2.972   0.303  10.109  0.1347 -0.3786  0.2449
  959SOD     NA14441   3.997   2.754  11.768  0.0242 -0.2003  0.1301
  960SOD     NA14442   4.067   3.865  11.644  0.4347 -0.5191 -0.1869
  961SOD     NA14443   3.030   1.909  11.051 -0.9592 -0.2836  0.1006
  962SOD     NA14444   0.699   2.327  11.868  0.5809 -0.4844 -0.3363
  963SOD     NA14445   2.420   1.180   6.214  0.2269  0.8440 -0.0947
  964SOD     NA14446   3.342   3.321  12.740 -0.1674  0.1819  0.7329
  965SOD     NA14447   4.691   2.679   9.342 -0.1184 -0.2058  0.1457
  966SOD     NA14448   2.790   4.078  14.601 -0.5867  0.0363 -0.7178
  967SOD     NA14449   2.648   2.620   1.996 -0.3771  0.0188  0.0980
  968SOD     NA14450   1.489   2.632  11.183  0.9345  0.3578 -0.0634
  969SOD     NA14451   3.494   3.937   1.050  0.5028  0.0910 -0.1324
  970SOD     NA14452   1.045   4.203  12.741  0.1848 -0.2509  0.4042
  971SOD     NA14453   4.378   2.880  14.672 -0.3272  0.2727 -0.1461
  972SOD     NA14454   0.360   2.438  10.492 -0.2439 -0.2710 -0.7533
  973SOD     NA14455   3.772   3.104   8.717  0.4800 -0.3007  0.3579
  974SOD     NA14456   3.230   1.147  13.391  0.3291  0.3590  0.2078
  975SOD     NA14457   2.135   2.026   7.851 -0.2256  0.0819 -0.0887
  976SOD     NA14458   3.476   4.527  10.495  0.0617  0.1444  0.2455
  977SOD     NA14459   1.126   1.302  15.053  0.3305  0.4446 -0.0596
  978SOD     NA14460   1.077   0.639   5.832  0.3487  0.2631  0.1073
  979SOD     NA14461   1.386   1.602  13.091 -0.3302 -0.2211 -0.2284
  980SOD     NA14462   0.774   2.202  14.429 -0.1297  0.5196 -0.1925
  981SOD     NA14463   2.421   3.254  10.398 -0.1405 -0.6190 -0.4647
  982SOD     NA14464   1.147   1.440   1.794 -0.1204 -0.3017  0.2656
  983SOD     NA14465   0.382   1.364   1.861 -0.2720  0.1175  0.5409
  984SOD     NA14466   0.603   1.345   1.376  0.1069 -0.2853 -0.1427
  985SOD     NA14467   4.287   3.302  13.040 -0.1529 -0.4447  0.1463
  986SOD     NA14468   1.565   3.752   1.352 -0.0204 -0.1939  0.7288
  987SOD     NA14469   1.196   1.026   0.942 -0.9154  0.0193  0.8580
  988SOD     NA14470   1.258   3.431   0.973 -0.6217 -0.0391 -0.0861
  989SOD     NA14471   0.978   0.501  16.821 -0.5323 -0.2649 -0.3655
  990SOD     NA14472   4.383   2.125   0.155  0.3008  0.2140  0.1228
  991SOD     NA14473   4.050   3.066  14.757 -0.2547  0.4271 -0.0755
  992SOD     NA14474   3.045   4.261  14.661  0.3502  0.1132  0.3986
  993SOD     NA14475   2.896   2.576  11.322 -0.3892  0.2316 -0.1850
  994SOD     NA14476   3.285   2.810  13.030  0.0531  0.5764 -0.3412
  995SOD     NA14477   3.724   3.977  15.273 -0.2778 -0.2498  0.1304
  996SOD     NA14478   3.524   4.521   6.631 -0.0840 -0.0891 -0.5072
  997SOD     NA14479   3.222   2.541  10.288 -0.2527  0.2418  0.2161
  998SOD     NA14480   3.392   1.698  10.921  0.3711  0.1656 -0.4221
  999SOD     NA14481   0.561   0.502   4.178  0.1087 -0.0447 -0.3987
 1000SOD     NA14482   4.155   2.270   1.258  0.2359  0.4188 -0.0765
 1001SOD     NA14483   2.694   0.210   1.673 -0.2395  0.1874 -0.1452
 1002SOD     NA14484   1.219   2.597  11.008 -0.0707 -0.3334  0.1398
 1003SOD     NA14485   0.637   3.890  12.278 -0.1986 -0.2907 -0.1536
 1004SOD     NA14486   3.452   4.350  11.950 -0.0206 -0.1875 -0.3021
 1005SOD     NA14487   0.307   0.195  13.256  0.0052 -0.6585 -0.2082
 1006SOD     NA14488   1.300   1.781   8.599 -0.2029  0.3754 -0.1679
 1007SOD     NA14489   1.086   3.419   2.862 -0.0362 -0.0334  0.1063
 1008SOD     NA14490   3.725   3.007  11.810 -0.0363 -0.3808 -0.2314
 1009SOD     NA14491   4.187   3.802  15.804 -0.0011 -0.0461  0.0459
 1010SOD     NA14492   2.750   3.607  10.382 -0.5891 -0.1172  0.0230
 1011SOD     NA14493   1.253   0.134   1.954  0.0161 -0.1664  0.1093
 1012SOL     OW14494   2.159   0.086   4.454 -0.1957 -0.1075 -0.1370
 1012SOL    HW114495   2.231   0.056   4.398 -1.0615 -0.0341 -1.2903
 1012SOL    HW214496   2.089   0.069   4.391 -0.5747  2.2373 -0.3469
 1013SOL     OW14497   4.667   3.739  12.787 -0.0384 -0.4683  0.3058
 1013SOL    HW114498   4.676   3.833  12.778 -0.0414 -0.4457  0.5566
 1013SOL    HW214499   4.704   3.707  12.704 -2.4598 -0.4608 -0.7847
 1014SOL     OW14500   1.227   0.864   2.585  0.4090  0.1530  0.0143
 1014SOL    HW114501   1.311   0.818   2.593  1.0978  1.3810 -0.1832
 1014SOL    HW214502   1.163   0.796   2.606 -0.4313  0.8756 -0.2199
 1015SOL     OW14503   0.569   2.577   5.215  0.1284  0.3743  0.0121
 1015SOL    HW114504   0.593   2.630   5.139  0.6233  1.1707  0.7167
 1015SOL    HW214505   0.660   2.556   5.239 -0.2315 -2.8644 -1.4287
 1016SOL     OW14506   3.879   2.724   6.253  0.2459  0.3480  0.2425
 1016SOL    HW114507   3.931   2.645   6.259 -0.2105  0.0357  0.0765
 1016SOL    HW214508   3.929   2.789   6.303 -0.5334  3.4086 -2.9943
 1017SOL     OW14509   4.366   1.451   1.259  0.2194  0.6822  0.5481
 1017SOL    HW114510   4.308   1.443   1.335 -0.2322  0.6128  0.1921
 1017SOL    HW214511   4.319   1.399   1.194  1.0812 -1.4861  1.6602
 1018SOL     OW14512   1.347   3.075   2.055 -0.1305  0.3305  0.2286
 1018SOL    HW114513   1.293   2.998   2.036  0.5295 -0.2731  0.8330
 1018SOL    HW214514   1.438   3.045   2.060 -0.4573 -0.8830 -1.1308
 1019SOL     OW14515   4.519   3.771  10.168  0.1764  0.2422  0.5224
 1019SOL    HW114516   4.488   3.829  10.237  1.3425  1.7102 -0.2035
 1019SOL    HW214517   4.573   3.825  10.111  1.7693 -0.5651  1.2773
 1020SOL     OW14518   0.446   0.016  12.254 -0.4525  0.0362  0.0052
 1020SOL    HW114519   0.399   4.692  12.188  0.3680  0.4898 -0.9450
 1020SOL    HW214520   0.380   0.035  12.320 -1.0787 -0.3315 -0.5108
 1021SOL     OW14521   2.981   0.508   7.225  0.1523 -0.3433 -0.2946
 1021SOL    HW114522   2.889   0.531   7.217 -0.4976 -2.4686  1.0630
 1021SOL    HW214523   2.967   0.426   7.272 -0.6904  0.8832  1.5937
 1022SOL     OW14524   1.202   4.726   5.889  0.1700 -0.2766 -0.1217
 1022SOL    HW114525   1.146   4.716   5.812 -0.3304 -1.0389  0.3394
 1022SOL    HW214526   1.131   4.708   5.950 -0.5068  1.9186 -0.2697
 1023SOL     OW14527   3.912   2.170   2.017 -0.0565  0.0249 -0.2372
 1023SOL    HW114528   3.939   2.252   2.059 -3.2880 -0.4194  2.7301
 1023SOL    HW214529   3.964   2.172   1.937 -0.9158 -0.7544 -0.8020
 1024SOL     OW14530   1.606   0.571  14.700  0.2342  0.2067  0.1528
 1024SOL    HW114531   1.546   0.610  14.764 -0.1149 -1.2751  0.7212
 1024SOL    HW214532   1.585   0.627  14.625 -0.2878 -0.2887 -0.0686
 1025SOL     OW14533   4.260   4.427   7.904  0.0372  0.2328  0.5352
 1025SOL    HW114534   4.343   4.379   7.904 -1.0588 -1.6745 -0.4709
 1025SOL    HW214535   4.211   4.363   7.852 -0.0300  0.7876 -0.0852
 1026SOL     OW14536   2.947   1.158   3.299  0.5581  0.9301 -0.3816
 1026SOL    HW114537   2.920   1.067   3.310 -2.3689  1.5805 -2.2476
 1026SOL    HW214538   3.018   1.138   3.239  0.1729 -0.7920 -0.2728
 1027SOL     OW14539   4.112   2.095  12.707 -0.8781 -0.0983  0.3083
 1027SOL    HW114540   4.018   2.105  12.722 -0.5340  2.0201  1.1506
 1027SOL    HW214541   4.150   2.088  12.795 -0.1710 -1.8418 -0.1416
 1028SOL     OW14542   1.722   4.285   8.689 -0.0192 -0.0800 -0.0309
 1028SOL    HW114543   1.660   4.301   8.759 -0.3725 -0.5875 -0.2340
 1028SOL    HW214544   1.763   4.372   8.687  0.6627 -0.4125 -0.7245
 1029SOL     OW14545   4.467   1.358   2.170 -0.4251  0.4836 -0.0605
 1029SOL    HW114546   4.398   1.381   2.231 -1.2704 -2.3615  0.0880
 1029SOL    HW214547   4.422   1.304   2.105  1.3703 -1.6619  0.4370
 1030SOL     OW14548   3.045   4.590   0.194  0.5495 -0.1997  0.7294
 1030SOL    HW114549   2.980   4.658   0.178  0.7720 -0.4515 -1.2922
 1030SOL    HW214550   3.004   4.549   0.270 -2.4222  0.2755 -0.6037
 1031SOL     OW14551   1.552   2.309   5.829  0.2875  0.1406  0.0800
 1031SOL    HW114552   1.554   2.341   5.919  0.1387  0.9440 -0.2024
 1031SOL    HW214553   1.459   2.322   5.812 -0.0113 -0.7135  1.1314
 1032SOL     OW14554   3.103   0.622   5.430 -0.1608  0.5903  0.9457
 1032SOL    HW114555   3.070   0.679   5.499 -1.6529  0.4332  0.3831
 1032SOL    HW214556   3.195   0.648   5.435  0.0657  0.3918 -1.7245
 1033SOL     OW14557   2.742   4.540   1.159  0.4563 -0.0594 -0.1137
 1033SOL    HW114558   2.769   4.469   1.218 -1.1977  0.4803  1.2965
 1033SOL    HW214559   2.669   4.571   1.212  1.7287  1.5386  0.6827
 1034SOL     OW14560   0.293   1.100   7.515  0.4503  0.1646  0.7660
 1034SOL    HW114561   0.289   1.109   7.610 -0.5744  1.9092  0.5435
 1034SOL    HW214562   0.325   1.010   7.511 -0.4929 -0.1816  1.0437
 1035SOL     OW14563   4.146   2.258   4.196 -0.2505 -0.0190  0.3754
 1035SOL    HW114564   4.103   2.189   4.246  0.8985 -0.8031  0.2791
 1035SOL    HW214565   4.079   2.326   4.200 -0.9995 -0.9113  2.8153
 1036SOL     OW14566   3.728   2.047   1.011  0.0015 -0.3839 -0.9656
 1036SOL    HW114567   3.760   2.119   0.957  0.6505  1.4212  1.8248
 1036SOL    HW214568   3.645   2.030   0.967 -0.3586  0.0911 -0.4614
 1037SOL     OW14569   1.880   1.002  14.542 -0.1140  0.4365 -0.1600
 1037SOL    HW114570   1.892   1.094  14.566  0.0044  0.8051 -1.6755
 1037SOL    HW214571   1.910   0.961  14.624  1.0653 -0.3678 -0.9864
 1038SOL     OW14572   2.013   2.997   8.029  0.4224 -0.2114  0.4597
 1038SOL    HW114573   2.053   2.977   8.113  0.7742  0.3343  0.4242
 1038SOL    HW214574   2.065   3.076   8.012 -0.7564 -0.1503 -2.9210
 1039SOL     OW14575   2.478   0.256  14.163  0.7704 -0.0895  0.8033
 1039SOL    HW114576   2.478   0.290  14.074  2.6656  0.8454  1.1538
 1039SOL    HW214577   2.555   0.199  14.167  0.3845 -0.5815  1.1724
 1040SOL     OW14578   3.476   4.397  12.179 -0.0244  0.5689 -0.0518
 1040SOL    HW114579   3.403   4.417  12.237 -1.3705  0.7999 -1.8193
 1040SOL    HW214580   3.510   4.310  12.200 -1.0404 -0.5197 -2.8930
 1041SOL     OW14581   0.044   0.356   9.186  0.2139 -0.0434 -0.3330
 1041SOL    HW114582   0.096   0.277   9.173  0.9182  0.4155 -0.2893
 1041SOL    HW214583   0.112   0.420   9.205 -0.5168  0.8005 -0.5884
 1042SOL     OW14584   1.677   2.074   7.269 -0.0938 -0.0766  0.6711
 1042SOL    HW114585   1.744   2.027   7.318  0.6134 -0.7891 -0.9606
 1042SOL    HW214586   1.727   2.105   7.194 -0.9050  1.7026  0.8746
 1043SOL     OW14587   2.082   2.168   2.156 -0.6201  0.2223 -0.0073
 1043SOL    HW114588   2.004   2.205   2.114  0.3259  2.4050  0.1994
 1043SOL    HW214589   2.049   2.117   2.230  0.4048 -0.0442  0.2666
 1044SOL     OW14590   2.719   3.017   8.658  0.5793 -0.1642 -0.5471
 1044SOL    HW114591   2.757   3.040   8.743  1.5328  1.4025 -1.3948
 1044SOL    HW214592   2.638   3.068   8.661  0.8539  0.2852 -0.7564
 1045SOL     OW14593   3.739   3.017   9.336 -0.7835 -0.7584  0.0198
 1045SOL    HW114594   3.757   2.937   9.384  0.9135 -1.1205 -1.2417
 1045SOL    HW214595   3.745   3.086   9.403  1.5808 -1.6738  0.7346
 1046SOL     OW14596   1.340   1.805  13.640  0.1939  0.6368  0.7299
 1046SOL    HW114597   1.268   1.783  13.699 -2.3221  0.8274 -2.2567
 1046SOL    HW214598   1.382   1.875  13.690  1.1346  0.6336 -0.0558
 1047SOL     OW14599   2.766   3.201   6.182  0.3034 -0.7761  0.1271
 1047SOL    HW114600   2.811   3.212   6.266  2.0183 -0.9767 -0.7671
 1047SOL    HW214601   2.680   3.228   6.214  1.0973  1.3398  0.4663
 1048SOL     OW14602   1.501   3.043  16.065  0.2291 -0.4941 -0.4546
 1048SOL    HW114603   1.586   3.003  16.046 -0.4890 -0.6175 -3.3894
 1048SOL    HW214604   1.448   2.965  16.050  1.4740 -1.5867  0.8937
 1049SOL     OW14605   2.896   0.691   1.938  0.4644 -0.0933 -0.1242
 1049SOL    HW114606   2.865   0.601   1.937 -0.9411  0.4001 -1.2219
 1049SOL    HW214607   2.852   0.725   1.860  0.7553  3.7321  1.3553
 1050SOL     OW14608   0.524   3.112   6.475 -0.0186 -0.3017  0.6644
 1050SOL    HW114609   0.604   3.136   6.521  0.3242 -1.8991  0.8931
 1050SOL    HW214610   0.471   3.056   6.531  0.3353 -0.9946  0.3053
 1051SOL     OW14611   2.882   2.195  13.416 -0.1691 -0.0994 -0.0349
 1051SOL    HW114612   2.957   2.217  13.362  0.7666  1.6320  1.9530
 1051SOL    HW214613   2.811   2.209  13.353  0.1720 -1.9383 -0.8074
 1052SOL     OW14614   2.038   3.056   6.305  0.0289  0.3036 -0.5089
 1052SOL    HW114615   2.039   3.150   6.324  0.9707  0.1216  0.3125
 1052SOL    HW214616   2.066   3.025   6.391  0.4033  0.2162 -0.6631
 1053SOL     OW14617   3.046   2.328   9.133 -0.3325 -0.0232  0.5125
 1053SOL    HW114618   3.123   2.332   9.076  1.4745 -0.2555  2.8934
 1053SOL    HW214619   3.086   2.312   9.219  1.7048  0.2591 -0.3696
 1054SOL     OW14620   2.575   4.396   1.740 -0.2636 -0.2179  0.0359
 1054SOL    HW114621   2.544   4.318   1.695  0.6668  0.4436 -1.7349
 1054SOL    HW214622   2.494   4.423   1.782  0.1098 -1.3623  1.5109
 1055SOL     OW14623   3.628   3.837   0.625  0.0429 -0.0404  0.1833
 1055SOL    HW114624   3.555   3.791   0.582  2.0097 -0.3944 -2.7746
 1055SOL    HW214625   3.629   3.928   0.597 -0.4065 -0.7517 -2.1665
 1056SOL     OW14626   3.427   1.409  11.081  0.3553 -0.0887 -0.1814
 1056SOL    HW114627   3.413   1.399  10.987 -0.5224  0.3212 -0.0938
 1056SOL    HW214628   3.385   1.493  11.099 -1.4082 -0.9427 -0.3774
 1057SOL     OW14629   3.238   1.246  12.163 -0.3252 -0.0942  0.2518
 1057SOL    HW114630   3.235   1.340  12.145  0.9252 -0.1493 -0.2076
 1057SOL    HW214631   3.225   1.241  12.258  2.2864  0.3631  0.6454
 1058SOL     OW14632   1.244   4.718   9.249  0.3163 -0.1576 -0.0723
 1058SOL    HW114633   1.246   0.065   9.310 -1.2017 -0.4937  0.3834
 1058SOL    HW214634   1.334   4.717   9.217  0.5557  0.2001  0.5975
 1059SOL     OW14635   0.653   3.717   5.811 -0.0886 -0.1426 -0.2212
 1059SOL    HW114636   0.582   3.692   5.752 -1.3779  0.9646  0.8783
 1059SOL    HW214637   0.684   3.627   5.826  1.2703  0.1075 -1.4996
 1060SOL     OW14638   1.510   2.366   5.554 -0.7494 -0.3845 -0.4225
 1060SOL    HW114639   1.466   2.438   5.598 -0.5105 -0.5055  0.0120
 1060SOL    HW214640   1.546   2.317   5.628  0.8481 -0.0708 -0.9951
 1061SOL     OW14641   0.448   4.240   8.429  0.1952 -0.6168 -0.4574
 1061SOL    HW114642   0.384   4.231   8.500  1.4562 -0.0931  0.7334
 1061SOL    HW214643   0.528   4.265   8.475 -0.9240 -1.8840  2.1544
 1062SOL     OW14644   1.863   0.525   8.194  0.0776 -0.3791  0.2174
 1062SOL    HW114645   1.831   0.567   8.274  3.3430 -0.0588  1.3337
 1062SOL    HW214646   1.890   0.594   8.133 -3.0729 -0.2498 -1.0642
 1063SOL     OW14647   4.075   3.992  17.201 -0.2768 -0.0453  0.3299
 1063SOL    HW114648   4.017   3.980  17.125  1.2736 -0.6314 -0.7451
 1063SOL    HW214649   4.034   3.917  17.244 -1.8187  1.2301  1.0974
 1064SOL     OW14650   4.370   3.246   7.789  0.3935 -0.3844 -0.5947
 1064SOL    HW114651   4.291   3.247   7.842  0.4238 -3.4417 -0.4943
 1064SOL    HW214652   4.341   3.276   7.702 -2.9446 -3.2795 -0.4730
 1065SOL     OW14653   0.147   3.961   6.525 -0.2703 -0.3835  0.5511
 1065SOL    HW114654   0.172   3.871   6.546 -0.9179 -0.6766  0.0663
 1065SOL    HW214655   0.074   3.948   6.465  0.9492  0.4729 -1.1419
 1066SOL     OW14656   2.859   3.683   0.511  0.1806  0.2099  0.5012
 1066SOL    HW114657   2.886   3.664   0.421  0.2644  0.1209  0.5445
 1066SOL    HW214658   2.792   3.750   0.496  0.3578  0.2571 -0.1000
 1067SOL     OW14659   3.297   1.866   7.898  0.1565 -0.0171  0.3673
 1067SOL    HW114660   3.331   1.943   7.853  1.0319 -0.1582  0.7792
 1067SOL    HW214661   3.352   1.861   7.977  0.8146  0.9487 -0.0300
 1068SOL     OW14662   0.168   2.297   4.570 -0.0224  0.2446  0.3772
 1068SOL    HW114663   0.165   2.391   4.589  2.2548  0.2588  0.6945
 1068SOL    HW214664   0.083   2.285   4.528 -1.5395 -0.7307  3.7221
 1069SOL     OW14665   3.928   0.686   4.332  0.4733 -0.1684 -0.2807
 1069SOL    HW114666   3.963   0.775   4.323 -0.0586  0.0644 -0.0559
 1069SOL    HW214667   3.846   0.700   4.284  0.3821  0.7015  0.1342
 1070SOL     OW14668   4.265   3.584   2.436  0.0165  0.1706 -0.1107
 1070SOL    HW114669   4.293   3.527   2.507  0.1591  0.6490  0.2183
 1070SOL    HW214670   4.253   3.663   2.489  0.2604 -0.2083  0.4962
 1071SOL     OW14671   4.706   3.112  12.837  0.0349 -0.3411  0.2855
 1071SOL    HW114672   4.706   3.077  12.748  1.0312 -1.6056  0.7781
 1071SOL    HW214673   0.032   3.192  12.839  0.7612 -0.8386  0.7023
 1072SOL     OW14674   4.561   4.527  11.865  0.0667  0.0088 -0.1050
 1072SOL    HW114675   4.648   4.487  11.864 -0.0414 -0.2286 -0.0346
 1072SOL    HW214676   4.577   4.581  11.943  0.1109  0.5502 -0.4875
 1073SOL     OW14677   0.630   4.314  13.952  0.0545 -0.1044 -0.1884
 1073SOL    HW114678   0.610   4.224  13.926  0.2180 -0.0234 -0.5845
 1073SOL    HW214679   0.682   4.308  14.032 -0.2590 -1.1591 -0.0555
 1074SOL     OW14680   4.414   4.723   6.996  0.2324 -0.0554  0.3648
 1074SOL    HW114681   4.454   0.023   7.079  1.6166  2.0850 -1.0323
 1074SOL    HW214682   4.332   4.682   7.026 -0.0558  0.1589 -0.1386
 1075SOL     OW14683   0.885   4.433   5.605  0.0283  0.3618 -0.7910
 1075SOL    HW114684   0.966   4.460   5.561  0.9864 -2.5780 -0.8024
 1075SOL    HW214685   0.829   4.503   5.572  1.4497  1.8161 -0.0961
 1076SOL     OW14686   3.591   1.480   4.651 -0.2840  0.0266  0.0018
 1076SOL    HW114687   3.651   1.555   4.643 -1.9070  1.0645 -2.6173
 1076SOL    HW214688   3.504   1.520   4.658 -1.0574 -0.9188 -4.1551
 1077SOL     OW14689   2.713   0.169   7.127 -0.1339 -0.6684  0.1136
 1077SOL    HW114690   2.784   0.219   7.086 -2.0627  0.3261 -1.9627
 1077SOL    HW214691   2.763   0.103   7.175 -0.4900 -0.4409  0.7972
 1078SOL     OW14692   2.049   0.342  10.300  0.3292  0.1718 -0.0442
 1078SOL    HW114693   2.140   0.318  10.283  0.1585 -2.2440  2.4181
 1078SOL    HW214694   2.008   0.258  10.318  2.2710 -0.5369  1.0366
 1079SOL     OW14695   1.190   3.874   3.284 -0.1564  0.4652 -0.1209
 1079SOL    HW114696   1.194   3.816   3.208 -0.9560 -0.7772  0.7805
 1079SOL    HW214697   1.253   3.940   3.256  1.0618  0.1094  1.7644
 1080SOL     OW14698   0.915   0.152  17.541 -0.2826  0.2258 -0.0851
 1080SOL    HW114699   0.994   0.120  17.585 -0.2438  1.4081  0.7188
 1080SOL    HW214700   0.876   0.070  17.511 -0.7888  1.3039 -2.4300
 1081SOL     OW14701   2.039   2.744  15.104 -0.8859  0.1053 -0.3241
 1081SOL    HW114702   2.117   2.688  15.110 -1.6342 -0.9109  0.0168
 1081SOL    HW214703   1.991   2.715  15.026 -2.2074  1.2277  0.0657
 1082SOL     OW14704   0.190   4.191   5.335  0.2126 -0.1186 -0.2892
 1082SOL    HW114705   0.271   4.166   5.290  0.3500 -2.1035  1.0779
 1082SOL    HW214706   0.180   4.109   5.382  0.9980 -1.3578 -2.2866
 1083SOL     OW14707   1.533   4.033   6.611 -0.3810 -0.0264 -0.0114
 1083SOL    HW114708   1.474   4.033   6.535 -1.6207 -0.3892  0.9489
 1083SOL    HW214709   1.550   4.124   6.631  0.4906  0.1981 -1.7936
 1084SOL     OW14710   3.778   0.247   6.226  0.2652 -0.0769  0.4023
 1084SOL    HW114711   3.818   0.333   6.238  1.9997 -0.6235 -1.5524
 1084SOL    HW214712   3.755   0.221   6.315 -1.3507 -2.1287 -0.6045
 1085SOL     OW14713   4.463   2.539   0.774  0.2370 -0.4748  0.2853
 1085SOL    HW114714   4.446   2.626   0.811 -1.3419  0.0121 -1.6186
 1085SOL    HW214715   4.528   2.517   0.841 -0.3144 -1.1704  0.5871
 1086SOL     OW14716   2.783   2.514   1.321  0.0724 -0.2235 -0.0160
 1086SOL    HW114717   2.840   2.443   1.293 -1.3728 -1.4605  0.1770
 1086SOL    HW214718   2.840   2.587   1.296  0.0082 -0.4744 -0.8872
 1087SOL     OW14719   4.726   4.438   3.622  0.2952 -0.0514 -0.1425
 1087SOL    HW114720   4.691   4.464   3.536  0.1447  1.3929  0.3534
 1087SOL    HW214721   0.085   4.411   3.592  0.5353 -0.8361  1.2804
 1088SOL     OW14722   1.762   3.184  14.723 -0.3305 -0.3886  0.4442
 1088SOL    HW114723   1.718   3.204  14.640 -1.4781  1.3502  1.4629
 1088SOL    HW214724   1.842   3.141  14.692 -0.4496 -0.8784  0.8155
 1089SOL     OW14725   1.553   0.437   8.980  0.0562  0.4741 -0.4614
 1089SOL    HW114726   1.591   0.518   9.014 -0.2856  0.7772 -0.7965
 1089SOL    HW214727   1.473   0.473   8.942  0.3962  0.4783 -1.1627
 1090SOL     OW14728   3.786   2.138   6.165  0.6791 -0.4056 -0.0731
 1090SOL    HW114729   3.813   2.119   6.255  0.0284  1.4563  0.5211
 1090SOL    HW214730   3.868   2.167   6.124  1.3952 -1.6942  0.4566
 1091SOL     OW14731   0.860   3.762  11.654  0.6018  0.4809 -0.7572
 1091SOL    HW114732   0.917   3.809  11.593 -0.3705 -0.1870 -2.1866
 1091SOL    HW214733   0.777   3.771  11.608 -0.8462 -2.2120  1.3675
 1092SOL     OW14734   4.563   1.552   7.791 -0.3534 -0.0168 -0.7043
 1092SOL    HW114735   4.483   1.531   7.742  0.1944  0.8798 -1.9943
 1092SOL    HW214736   4.590   1.625   7.735  0.0562 -1.8924 -2.9496
 1093SOL     OW14737   0.794   2.266   7.288 -0.2919  0.2867 -0.1985
 1093SOL    HW114738   0.840   2.250   7.371 -2.3176 -0.7107  0.7159
 1093SOL    HW214739   0.870   2.283   7.232  0.2319 -2.1914 -0.2118
 1094SOL     OW14740   4.118   0.391   8.268 -0.1919  0.3230 -0.1706
 1094SOL    HW114741   4.125   0.296   8.263  0.0604  0.3080  0.4915
 1094SOL    HW214742   4.211   0.412   8.276 -0.3407 -0.3415  3.1729
 1095SOL     OW14743   2.628   0.756   3.114  0.0416  0.1601  0.8553
 1095SOL    HW114744   2.622   0.832   3.055  2.7352 -1.0048 -0.9185
 1095SOL    HW214745   2.585   0.685   3.067 -0.8960  1.8628 -0.8784
 1096SOL     OW14746   1.118   4.378   7.677 -0.1957 -0.1330 -0.5728
 1096SOL    HW114747   1.202   4.340   7.704 -0.0407  0.6509  0.0216
 1096SOL    HW214748   1.087   4.424   7.755 -0.5136  0.0206 -0.7901
 1097SOL     OW14749   3.890   0.666   5.620  0.2830 -0.2194  0.3084
 1097SOL    HW114750   3.981   0.641   5.609  0.0089 -1.4205  0.7319
 1097SOL    HW214751   3.879   0.713   5.538 -2.0536  0.5002  1.0199
 1098SOL     OW14752   3.043   0.631  10.970 -0.4019 -0.3440 -0.0001
 1098SOL    HW114753   3.081   0.713  10.937 -0.1832 -0.2038  0.5988
 1098SOL    HW214754   2.998   0.675  11.042 -1.2712 -2.2020  0.6042
 1099SOL     OW14755   0.683   1.077   6.922  0.0904 -0.1893 -0.0102
 1099SOL    HW114756   0.619   1.132   6.967  0.8356  0.9139 -0.3109
 1099SOL    HW214757   0.714   1.131   6.850 -1.1254  1.5073  0.7556
 1100SOL     OW14758   4.322   3.010   3.574  0.2107  0.3211  0.7594
 1100SOL    HW114759   4.350   3.004   3.666  0.0334 -2.4835  0.6316
 1100SOL    HW214760   4.328   3.103   3.550  2.7195 -0.1347 -0.4000
 1101SOL     OW14761   2.635   1.554   8.073  0.4203  0.4066  0.2796
 1101SOL    HW114762   2.715   1.552   8.126 -0.6620  0.6640  1.8886
 1101SOL    HW214763   2.667   1.565   7.983 -0.6365 -3.2099 -0.5321
 1102SOL     OW14764   2.895   2.557   0.972 -0.0064 -0.0128  0.0540
 1102SOL    HW114765   2.817   2.550   0.917  0.0247 -1.0237  0.1409
 1102SOL    HW214766   2.900   2.466   1.002 -0.8000 -0.0077  0.1759
 1103SOL     OW14767   3.026   4.484   9.172 -0.3240 -0.3304  0.1934
 1103SOL    HW114768   3.002   4.504   9.263  0.1450  0.4222  0.1548
 1103SOL    HW214769   2.942   4.503   9.131 -0.2413  0.5526  0.4338
 1104SOL     OW14770   3.307   3.582   2.079  0.3740  0.1554 -0.0591
 1104SOL    HW114771   3.316   3.646   2.008  2.3617 -2.0139 -1.7295
 1104SOL    HW214772   3.322   3.638   2.156 -0.1617  2.4683 -1.6213
 1105SOL     OW14773   3.362   2.636  10.129  0.3290  0.1015  1.1670
 1105SOL    HW114774   3.451   2.599  10.130  0.1888 -0.2410  0.5821
 1105SOL    HW214775   3.345   2.637  10.035  1.2588  2.4150  1.0259
 1106SOL     OW14776   2.288   1.874  13.717  0.4684 -0.2070 -0.3565
 1106SOL    HW114777   2.369   1.902  13.675  0.7048  0.0875  0.2896
 1106SOL    HW214778   2.225   1.849  13.650 -0.8902  3.5661 -0.4374
 1107SOL     OW14779   2.151   1.020   2.666  0.2946  0.3311  0.0298
 1107SOL    HW114780   2.224   0.967   2.633 -0.3619 -0.0790 -0.7476
 1107SOL    HW214781   2.134   0.969   2.745  2.1998  0.7226  0.7026
 1108SOL     OW14782   3.466   4.121   5.725  0.7275  0.0165  0.1727
 1108SOL    HW114783   3.543   4.169   5.693 -0.5121  1.7076 -0.2464
 1108SOL    HW214784   3.408   4.116   5.650 -1.1581  0.0297  1.6388
 1109SOL     OW14785   2.501   3.027  12.392  0.0230  0.3102 -0.1783
 1109SOL    HW114786   2.595   3.041  12.402  0.2001  0.3557 -1.9513
 1109SOL    HW214787   2.457   3.069  12.467 -0.4855  0.9373 -0.8247
 1110SOL     OW14788   0.646   0.225   7.226 -0.3303  0.6974 -0.0443
 1110SOL    HW114789   0.700   0.299   7.199  0.5185 -1.0520 -3.2397
 1110SOL    HW214790   0.715   0.171   7.265 -0.8348  0.3596  0.3807
 1111SOL     OW14791   3.941   4.122   2.920 -0.0778  0.0112  0.1299
 1111SOL    HW114792   3.969   4.056   2.983  0.6414  0.0127 -0.1899
 1111SOL    HW214793   3.894   4.181   2.980 -1.9383  0.5044 -1.8015
 1112SOL     OW14794   3.223   3.251   8.716  0.0155  0.1503  0.0531
 1112SOL    HW114795   3.153   3.316   8.707  0.3644  0.4853 -0.2219
 1112SOL    HW214796   3.199   3.209   8.799  1.7062  0.2896  0.5956
 1113SOL     OW14797   1.307   0.397   8.612 -0.3879 -0.0071 -0.4738
 1113SOL    HW114798   1.328   0.463   8.678  0.7342  1.6973 -2.5313
 1113SOL    HW214799   1.326   0.316   8.660 -0.4374  0.2750  0.0251
 1114SOL     OW14800   1.178   4.566   8.460 -0.4089 -0.0401  0.0796
 1114SOL    HW114801   1.182   4.662   8.458  0.4652 -0.1208 -2.4299
 1114SOL    HW214802   1.222   4.556   8.544 -0.0042  0.5278 -0.0626
 1115SOL     OW14803   3.262   2.644  10.826  0.3816  0.5440  0.0550
 1115SOL    HW114804   3.168   2.662  10.821  0.2112 -1.0828 -2.7517
 1115SOL    HW214805   3.295   2.712  10.767  1.0747 -0.1270 -0.3441
 1116SOL     OW14806   3.737   2.951   6.852 -0.0027 -0.5857 -0.1983
 1116SOL    HW114807   3.692   2.900   6.919  1.5796  0.0100  1.3037
 1116SOL    HW214808   3.683   2.932   6.775  0.8706 -3.9258 -0.0085
 1117SOL     OW14809   1.457   2.717   3.589 -0.6435  0.4208 -0.1146
 1117SOL    HW114810   1.454   2.645   3.652  2.1468  0.1143 -0.3308
 1117SOL    HW214811   1.531   2.692   3.534  1.8798  2.6900  2.3325
 1118SOL     OW14812   4.155   0.745  17.641  0.2693 -0.1608 -0.5244
 1118SOL    HW114813   4.190   0.813  17.699  1.1492 -2.2806  1.4098
 1118SOL    HW214814   4.110   0.793  17.572 -0.2031  1.1661  0.7192
 1119SOL     OW14815   4.348   4.386   8.895  0.2850 -0.2556 -0.9043
 1119SOL    HW114816   4.258   4.411   8.871 -0.2587 -1.9031 -0.5871
 1119SOL    HW214817   4.363   4.440   8.972 -0.0398 -0.7741 -0.4775
 1120SOL     OW14818   4.421   2.735   1.678  0.3586  0.3911 -0.0486
 1120SOL    HW114819   4.418   2.830   1.690 -2.0984 -0.0083  2.6248
 1120SOL    HW214820   4.489   2.719   1.743 -1.3922 -0.8195  1.4666
 1121SOL     OW14821   1.878   4.065   9.453  0.2023 -0.4042 -0.6683
 1121SOL    HW114822   1.946   4.034   9.393  1.7624  0.0676  0.8670
 1121SOL    HW214823   1.935   4.106   9.518 -0.3269 -0.5474 -0.1172
 1122SOL     OW14824   4.605   0.210   7.774  0.4376  0.2302  0.0606
 1122SOL    HW114825   4.614   0.299   7.809  0.4626  0.5113 -0.6602
 1122SOL    HW214826   4.676   0.157   7.810  0.0630 -0.8360 -0.7884
 1123SOL     OW14827   0.923   4.310   2.749  0.1629  0.4467  0.2912
 1123SOL    HW114828   0.991   4.267   2.802  1.2110  1.1723 -0.4948
 1123SOL    HW214829   0.852   4.312   2.814 -0.1581 -0.3151 -0.0297
 1124SOL     OW14830   1.117   3.596   2.437  0.1360 -0.6177 -0.5448
 1124SOL    HW114831   1.177   3.564   2.369  0.6866  1.7957 -1.2107
 1124SOL    HW214832   1.080   3.674   2.395 -0.3412 -1.1462 -1.1159
 1125SOL     OW14833   3.164   0.011   9.116  0.3929  0.3420  0.1029
 1125SOL    HW114834   3.125   0.043   9.197 -0.6492 -0.5478 -0.0317
 1125SOL    HW214835   3.135   4.647   9.124 -0.2304  0.2825 -2.6357
 1126SOL     OW14836   0.532   2.600   0.420 -0.0026 -0.4498 -0.0814
 1126SOL    HW114837   0.441   2.581   0.445 -0.1440  1.1051  0.5786
 1126SOL    HW214838   0.542   2.695   0.427  0.3455 -0.2390 -3.4844
 1127SOL     OW14839   1.729   2.311   3.928  0.4101  0.2000 -0.7636
 1127SOL    HW114840   1.783   2.336   3.853 -0.0807 -1.4797 -1.6743
 1127SOL    HW214841   1.752   2.367   4.003 -1.1241  0.8735 -0.8012
 1128SOL     OW14842   3.722   1.962   3.542 -0.5855 -0.4214  0.5023
 1128SOL    HW114843   3.703   2.022   3.614 -1.4167  0.2983 -0.3124
 1128SOL    HW214844   3.689   2.011   3.467 -0.1432 -1.6082 -0.4868
 1129SOL     OW14845   0.743   2.567  13.150  0.4365  0.4015 -0.2860
 1129SOL    HW114846   0.728   2.619  13.229  1.6735  0.7077 -0.2548
 1129SOL    HW214847   0.739   2.636  13.084 -0.8757  0.5330 -0.0695
 1130SOL     OW14848   3.931   3.219   8.603  0.1284  0.7377  0.1207
 1130SOL    HW114849   3.941   3.313   8.587  0.5516  0.6993  0.1488
 1130SOL    HW214850   3.993   3.180   8.542  0.4121  2.1422 -0.4909
 1131SOL     OW14851   3.120   2.083  11.167  0.3165  0.0282 -0.2374
 1131SOL    HW114852   3.095   2.120  11.251  1.1622 -1.3025  0.6083
 1131SOL    HW214853   3.200   2.128  11.138  0.0061 -0.6245 -2.1497
 1132SOL     OW14854   1.476   1.995   7.629  0.3620  0.1285  0.6301
 1132SOL    HW114855   1.395   2.043   7.644 -0.7391 -1.3602 -0.5470
 1132SOL    HW214856   1.469   1.966   7.538 -0.0448  1.3958  0.2571
 1133SOL     OW14857   3.325   3.790   5.242 -0.1936 -0.5599 -0.5763
 1133SOL    HW114858   3.363   3.872   5.210 -0.8001  0.0268  0.2224
 1133SOL    HW214859   3.239   3.803   5.203 -0.1974 -1.3521 -0.8487
 1134SOL     OW14860   4.346   1.766   7.434  0.2034  0.2594 -0.2574
 1134SOL    HW114861   4.307   1.732   7.354  2.2925 -0.7128 -0.8392
 1134SOL    HW214862   4.395   1.694   7.473  0.2670  0.8206  0.6937
 1135SOL     OW14863   4.556   3.631  13.285 -0.0215 -0.4735  0.0076
 1135SOL    HW114864   4.538   3.700  13.221  1.2031 -0.6789 -0.5469
 1135SOL    HW214865   4.641   3.597  13.259  0.2493  0.6566 -0.5818
 1136SOL     OW14866   4.147   1.404  17.097  0.0051  0.3993  0.1189
 1136SOL    HW114867   4.150   1.312  17.122  0.6142  0.9621  2.1393
 1136SOL    HW214868   4.240   1.416  17.078 -0.4547  0.6358 -1.9944
 1137SOL     OW14869   0.876   2.659  11.758 -0.2052  0.3874 -0.3979
 1137SOL    HW114870   0.957   2.612  11.780 -0.3266  0.1015 -0.5493
 1137SOL    HW214871   0.806   2.599  11.783 -0.0208  0.4335  0.2196
 1138SOL     OW14872   3.493   3.389   4.668  0.1202 -0.0229 -0.3285
 1138SOL    HW114873   3.461   3.410   4.756  1.4337 -0.2008  0.1836
 1138SOL    HW214874   3.409   3.357   4.636  1.0919 -0.9171 -1.9658
 1139SOL     OW14875   3.544   0.789   4.700 -0.0063  0.1263  0.5045
 1139SOL    HW114876   3.613   0.842   4.739 -0.2858  1.7864 -1.2623
 1139SOL    HW214877   3.586   0.768   4.617 -0.6536 -0.5214  0.3443
 1140SOL     OW14878   1.268   2.316  10.254 -0.2984  0.3370 -0.7209
 1140SOL    HW114879   1.182   2.311  10.295 -0.0518  0.3057 -0.1983
 1140SOL    HW214880   1.322   2.371  10.311 -1.4086  2.2374 -1.5057
 1141SOL     OW14881   0.142   2.496   7.131  0.6331 -0.0292  0.3497
 1141SOL    HW114882   0.076   2.497   7.200  0.7841  1.1432  0.4823
 1141SOL    HW214883   0.196   2.573   7.147 -3.8181  3.1308  0.2389
 1142SOL     OW14884   4.536   0.344   4.263 -0.2696  0.5310 -0.3299
 1142SOL    HW114885   4.542   0.350   4.358 -1.3096  1.4467 -0.3283
 1142SOL    HW214886   4.632   0.347   4.255 -0.0931 -1.2357  1.1248
 1143SOL     OW14887   3.551   1.820   0.819 -0.1889 -0.3920  0.2539
 1143SOL    HW114888   3.551   1.916   0.811  1.9180 -0.1464  3.0968
 1143SOL    HW214889   3.646   1.806   0.824 -0.2615 -2.1269 -3.4654
 1144SOL     OW14890   3.396   3.760   2.285 -0.3462  0.5772  0.1792
 1144SOL    HW114891   3.412   3.854   2.297  0.2900  0.4750  0.1506
 1144SOL    HW214892   3.391   3.734   2.376 -0.2863  2.0570  0.6091
 1145SOL     OW14893   3.309   4.062   1.083  0.3938 -0.6488  0.5282
 1145SOL    HW114894   3.253   4.085   1.009  1.3065 -0.8533 -0.2361
 1145SOL    HW214895   3.248   4.037   1.152 -0.8424  0.0366 -0.3277
 1146SOL     OW14896   1.146   1.514   4.837  0.0758  0.0281  0.3509
 1146SOL    HW114897   1.129   1.421   4.819 -0.8906  0.3490 -0.3661
 1146SOL    HW214898   1.241   1.509   4.840  0.0116 -1.5138 -0.0646
 1147SOL     OW14899   2.949   2.656   6.315  0.1244  0.0549  0.3403
 1147SOL    HW114900   2.915   2.632   6.401 -2.5715  1.0731 -0.4512
 1147SOL    HW214901   2.884   2.724   6.298 -1.2354 -1.4166 -0.2914
 1148SOL     OW14902   4.702   1.133   5.312  0.1830 -0.1746  0.2779
 1148SOL    HW114903   4.638   1.180   5.260  1.6558  1.1027 -0.3826
 1148SOL    HW214904   4.715   1.189   5.388 -0.1712  2.2361 -1.4391
 1149SOL     OW14905   3.057   1.575  15.639  0.8057 -0.0218  0.5026
 1149SOL    HW114906   3.034   1.515  15.711 -0.0173  0.3404  0.5444
 1149SOL    HW214907   3.062   1.658  15.687 -0.8292  2.3700 -3.5092
 1150SOL     OW14908   1.724   0.669   8.384 -0.0143  0.1412  0.3122
 1150SOL    HW114909   1.806   0.719   8.381  0.0851 -0.0029  0.5739
 1150SOL    HW214910   1.668   0.745   8.372 -1.7395 -0.9006  1.7650
 1151SOL     OW14911   0.703   0.543   3.693 -0.3443  0.6343  0.2196
 1151SOL    HW114912   0.675   0.567   3.604 -0.5349  0.5826  0.2655
 1151SOL    HW214913   0.734   0.454   3.679 -1.6891  0.2903 -0.5652
 1152SOL     OW14914   3.254   3.103   1.709 -0.1595  0.0560 -0.7465
 1152SOL    HW114915   3.280   3.011   1.711 -0.7966 -0.1808 -3.1388
 1152SOL    HW214916   3.238   3.116   1.802  2.7071  2.6002 -0.5822
 1153SOL     OW14917   0.265   1.351   4.509  0.1457  0.1238 -0.3983
 1153SOL    HW114918   0.321   1.420   4.474 -1.5309  1.1143 -1.1388
 1153SOL    HW214919   0.181   1.380   4.472  1.0403 -1.5005 -3.6855
 1154SOL     OW14920   3.652   1.065  14.034  0.3694  0.4880 -0.6088
 1154SOL    HW114921   3.747   1.066  14.050  0.8458  0.2395 -3.3358
 1154SOL    HW214922   3.637   0.975  14.007 -1.8720  0.5446  0.4334
 1155SOL     OW14923   1.241   3.873  11.715  0.0897 -0.1608 -0.0426
 1155SOL    HW114924   1.235   3.786  11.675 -1.4892  0.7113 -1.7243
 1155SOL    HW214925   1.281   3.919  11.641  0.8379  1.5758  1.4565
 1156SOL     OW14926   3.163   0.961  14.900 -0.0733 -0.6546  0.0119
 1156SOL    HW114927   3.216   0.894  14.857  1.2395 -0.0858  0.7287
 1156SOL    HW214928   3.090   0.903  14.921  0.5701 -1.7709 -0.8996
 1157SOL     OW14929   0.061   1.494   6.164  0.2825  0.1378 -0.6561
 1157SOL    HW114930   4.694   1.483   6.168  0.3486 -0.0728  0.3969
 1157SOL    HW214931   0.070   1.560   6.233  0.0569  0.1770 -0.6660
 1158SOL     OW14932   4.639   2.465  13.855  0.0374 -0.6602  0.3951
 1158SOL    HW114933   4.642   2.384  13.906  0.8506 -1.2102 -0.5443
 1158SOL    HW214934   4.688   2.441  13.777 -0.5265  1.3648 -0.5921
 1159SOL     OW14935   3.044   3.834   9.537  0.2919 -0.0360  0.1250
 1159SOL    HW114936   2.983   3.868   9.472  2.0195  2.0101 -0.4538
 1159SOL    HW214937   3.035   3.897   9.608 -1.4097 -0.3755  0.2073
 1160SOL     OW14938   4.436   0.198   4.017  0.7178  0.3637 -0.6095
 1160SOL    HW114939   4.448   0.227   4.107  0.5398  1.3295 -0.8920
 1160SOL    HW214940   4.461   0.107   4.030  0.0067  0.2716  0.0809
 1161SOL     OW14941   2.227   1.074   6.143  0.1538  0.5871  0.1858
 1161SOL    HW114942   2.160   1.006   6.142  1.3606 -0.6211  0.6637
 1161SOL    HW214943   2.170   1.144   6.174  2.1519  2.8132 -1.1364
 1162SOL     OW14944   2.427   4.015   6.109  0.1553  0.0710 -0.1729
 1162SOL    HW114945   2.405   4.108   6.106  1.1724  0.3106 -0.4904
 1162SOL    HW214946   2.433   4.003   6.204  2.5457  2.4665 -0.0117
 1163SOL     OW14947   2.224   0.986   4.004 -0.8460  0.0645  0.2358
 1163SOL    HW114948   2.182   1.038   3.935 -1.5298 -0.2402  0.4189
 1163SOL    HW214949   2.303   0.953   3.961 -0.2239 -0.8125  2.0555
 1164SOL     OW14950   2.168   4.279  12.573 -0.6091 -0.0160  0.2616
 1164SOL    HW114951   2.191   4.219  12.502 -3.8373 -1.1920  0.2187
 1164SOL    HW214952   2.076   4.299  12.557 -0.6124 -0.1910  0.0556
 1165SOL     OW14953   2.896   3.066   4.252  0.2915 -0.1010 -0.1732
 1165SOL    HW114954   2.804   3.061   4.277  0.6281 -1.8660  0.7008
 1165SOL    HW214955   2.939   3.050   4.336  2.0302  1.7470 -0.7043
 1166SOL     OW14956   0.390   1.741   6.108 -0.5904 -0.3751 -0.1740
 1166SOL    HW114957   0.365   1.799   6.036  1.6000 -0.6446 -1.1648
 1166SOL    HW214958   0.379   1.655   6.066 -0.7901  0.1204 -1.1191
 1167SOL     OW14959   2.606   2.878   2.679 -0.1202 -0.1679 -0.3232
 1167SOL    HW114960   2.589   2.821   2.605  1.7750 -0.5926 -0.4446
 1167SOL    HW214961   2.520   2.915   2.694  0.2444 -0.0906  1.6099
 1168SOL     OW14962   3.077   1.307  16.845 -0.2413  0.0849  0.1202
 1168SOL    HW114963   3.026   1.278  16.921  0.1809  1.9048  1.0981
 1168SOL    HW214964   3.112   1.383  16.892  2.9650 -0.3667 -1.5547
 1169SOL     OW14965   4.088   1.798   5.683  1.1241  0.9965  0.0851
 1169SOL    HW114966   4.077   1.777   5.591 -0.8942  2.1954  0.0692
 1169SOL    HW214967   4.007   1.844   5.705 -0.7471 -2.2701 -0.0041
 1170SOL     OW14968   2.601   2.224   6.117  0.2455 -0.7364  0.4696
 1170SOL    HW114969   2.658   2.225   6.040 -5.0339  0.4775 -3.4378
 1170SOL    HW214970   2.555   2.307   6.104  0.7329 -0.5893 -0.3581
 1171SOL     OW14971   1.766   1.981   2.305 -0.3260 -0.2986 -0.5899
 1171SOL    HW114972   1.712   1.908   2.334 -0.8825  0.3264 -0.0521
 1171SOL    HW214973   1.817   2.001   2.384 -1.9589  2.2646 -0.1899
 1172SOL     OW14974   0.847   3.624  11.925  0.4258 -0.0100  0.3172
 1172SOL    HW114975   0.859   3.585  11.839 -1.3014  0.4485 -0.1464
 1172SOL    HW214976   0.756   3.607  11.952  0.5401  1.6514  1.8010
 1173SOL     OW14977   0.628   0.897   7.427 -0.0764 -0.1583 -0.5123
 1173SOL    HW114978   0.716   0.868   7.402  1.0511  3.0835 -0.3280
 1173SOL    HW214979   0.628   0.843   7.507 -0.1385  1.8529  0.8525
 1174SOL     OW14980   3.002   4.223  12.382  0.4277 -0.1916  0.7823
 1174SOL    HW114981   3.017   4.251  12.472 -1.2748  1.3951  0.5723
 1174SOL    HW214982   3.006   4.127  12.384 -0.4677 -0.2838 -0.8987
 1175SOL     OW14983   0.457   3.332  13.100  0.3901 -0.1468 -0.2157
 1175SOL    HW114984   0.544   3.320  13.063  1.2371  2.8102  0.7958
 1175SOL    HW214985   0.461   3.427  13.112 -0.1819 -0.2325  0.7323
 1176SOL     OW14986   3.830   1.636   3.497  0.2189  0.1117  0.1466
 1176SOL    HW114987   3.773   1.661   3.570 -1.5050 -0.0093 -1.1661
 1176SOL    HW214988   3.873   1.721   3.488 -0.8428  0.6722  0.3939
 1177SOL     OW14989   3.815   4.296   3.112 -0.4474 -0.1470 -0.0863
 1177SOL    HW114990   3.828   4.260   3.199  1.7907  0.0443 -0.3361
 1177SOL    HW214991   3.722   4.315   3.113 -0.1967  1.1981 -1.7387
 1178SOL     OW14992   0.638   3.484  12.016  0.8124 -0.0766 -0.1452
 1178SOL    HW114993   0.617   3.511  12.105 -0.6076 -1.0017 -0.2022
 1178SOL    HW214994   0.579   3.413  11.991  0.5016  0.1275  0.0120
 1179SOL     OW14995   3.781   0.801   4.125 -0.2355  0.0651  0.5807
 1179SOL    HW114996   3.745   0.823   4.040 -0.7681 -2.1048  0.2457
 1179SOL    HW214997   3.874   0.783   4.111 -0.3420  1.5699 -1.9837
 1180SOL     OW14998   3.999   2.584   3.929  0.2572 -0.3962 -0.2813
 1180SOL    HW114999   4.059   2.535   3.985  0.3295 -1.5581 -1.3841
 1180SOL    HW215000   4.057   2.648   3.887  0.1900 -0.6224 -0.7194
 1181SOL     OW15001   3.526   1.225   4.920  0.3493  0.5270  0.1590
 1181SOL    HW115002   3.501   1.150   4.974  0.1355  0.1284 -0.4965
 1181SOL    HW215003   3.557   1.290   4.983  1.2510  0.9836 -0.7590
 1182SOL     OW15004   4.651   0.970   3.012  0.1599  0.3721 -0.0789
 1182SOL    HW115005   4.586   0.900   3.002 -0.7536  1.1633  0.3225
 1182SOL    HW215006   4.628   1.013   2.929  3.1810  2.5820  0.1968
 1183SOL     OW15007   4.518   4.520   0.481  0.0774 -0.1766 -0.2141
 1183SOL    HW115008   4.576   4.581   0.526  1.6100 -1.8332  0.0773
 1183SOL    HW215009   4.579   4.468   0.429 -0.6156 -0.4997 -0.7002
 1184SOL     OW15010   4.603   3.547  12.970  0.6161  0.0994  0.2336
 1184SOL    HW115011   4.623   3.632  12.932  3.7055 -0.6425  0.2239
 1184SOL    HW215012   4.667   3.546  13.041 -0.0940 -1.6771  0.8605
 1185SOL     OW15013   1.864   4.198  16.288  0.4031  0.0424 -0.3132
 1185SOL    HW115014   1.916   4.241  16.356 -0.2525  0.7965 -0.3002
 1185SOL    HW215015   1.809   4.271  16.260  0.4482 -0.3957 -1.5736
 1186SOL     OW15016   1.998   0.044   4.246 -0.1263 -0.0407 -0.6064
 1186SOL    HW115017   2.035   0.091   4.171  1.5450 -2.6561 -1.4035
 1186SOL    HW215018   1.906   0.066   4.238 -0.3255 -0.9332 -0.7121
 1187SOL     OW15019   4.341   1.727  14.835 -0.7827 -0.3343 -0.0094
 1187SOL    HW115020   4.299   1.727  14.749  0.8617  0.3439 -0.8051
 1187SOL    HW215021   4.332   1.819  14.860  0.2296 -0.4967  0.9331
 1188SOL     OW15022   1.139   4.364   9.353  0.3112  0.6207 -0.2139
 1188SOL    HW115023   1.067   4.426   9.338  0.0639  0.3181 -0.2841
 1188SOL    HW215024   1.120   4.298   9.287  0.0197  1.5576 -1.0660
 1189SOL     OW15025   0.741   1.133   6.649 -0.4226  0.0180  0.7200
 1189SOL    HW115026   0.779   1.215   6.680 -1.4886  1.0803 -0.7409
 1189SOL    HW215027   0.673   1.160   6.587 -0.8620 -3.3822 -0.2810
 1190SOL     OW15028   1.229   0.977   9.334  0.4499 -0.0737  0.3823
 1190SOL    HW115029   1.223   1.068   9.307 -0.4283 -0.3571 -0.3468
 1190SOL    HW215030   1.161   0.967   9.400  0.4025  0.9059  0.4823
 1191SOL     OW15031   4.375   4.230   4.000  0.6352  0.1586 -0.6449
 1191SOL    HW115032   4.370   4.274   3.915 -2.2626 -0.5069 -0.8330
 1191SOL    HW215033   4.458   4.190   3.976  1.1666  0.5351  0.5413
 1192SOL     OW15034   2.207   4.327   1.953  0.1607  0.8966  0.1091
 1192SOL    HW115035   2.271   4.395   1.933  1.0324 -0.6225 -2.2751
 1192SOL    HW215036   2.128   4.378   1.969 -0.4175  0.4173 -1.2837
 1193SOL     OW15037   1.387   3.244  14.708  0.2952 -0.7264  0.0712
 1193SOL    HW115038   1.446   3.305  14.664 -1.5227  2.4802  2.1459
 1193SOL    HW215039   1.403   3.168  14.650  0.4729  0.8209 -1.9106
 1194SOL     OW15040   2.617   2.070   7.426 -0.2363  0.0313 -0.3804
 1194SOL    HW115041   2.568   2.011   7.485  2.4211 -0.9813  0.8366
 1194SOL    HW215042   2.700   2.060   7.472  0.1531  0.2662 -1.0411
 1195SOL     OW15043   1.436   4.427   2.110  0.1606  0.2466 -0.1217
 1195SOL    HW115044   1.497   4.497   2.087 -0.1922  0.0322 -1.7131
 1195SOL    HW215045   1.458   4.358   2.048 -2.6949 -0.3527 -0.4738
 1196SOL     OW15046   1.880   2.315   6.797  0.3423  0.3641  0.0828
 1196SOL    HW115047   1.874   2.377   6.725 -0.3413 -0.7478 -0.8311
 1196SOL    HW215048   1.877   2.380   6.867 -2.1025  0.0591  0.2621
 1197SOL     OW15049   0.706   0.326   9.591 -0.0468 -0.2529  0.4733
 1197SOL    HW115050   0.649   0.314   9.667  1.6987  0.3778  1.8703
 1197SOL    HW215051   0.693   0.419   9.574 -2.9141 -0.4722  1.5416
 1198SOL     OW15052   1.838   4.337   5.423 -0.3537 -0.1505 -0.0189
 1198SOL    HW115053   1.815   4.287   5.501  1.7080 -1.2229 -0.0854
 1198SOL    HW215054   1.889   4.269   5.379  0.1978 -1.0755  2.0675
 1199SOL     OW15055   0.965   0.250   2.649 -0.6456 -0.1870  0.1859
 1199SOL    HW115056   0.888   0.248   2.591 -0.2645 -1.4290 -0.2729
 1199SOL    HW215057   1.047   0.264   2.602 -0.3611  1.8293  1.2920
 1200SOL     OW15058   2.934   2.225  11.379  0.1556  0.0574 -0.0403
 1200SOL    HW115059   2.883   2.145  11.393  1.3641 -0.9953 -1.7039
 1200SOL    HW215060   2.870   2.296  11.373  0.6310  0.4501 -0.5157
 1201SOL     OW15061   4.568   4.600   5.963 -0.4941  0.1318  0.1121
 1201SOL    HW115062   4.630   4.668   5.988 -0.5432 -0.2109  1.1439
 1201SOL    HW215063   4.581   4.595   5.868 -0.1305  0.3187  0.1508
 1202SOL     OW15064   0.478   4.347   6.136  0.2857  0.0442  0.0678
 1202SOL    HW115065   0.551   4.285   6.139  0.9665  0.8832  0.9247
 1202SOL    HW215066   0.430   4.324   6.216 -1.8547  1.5718 -0.7922
 1203SOL     OW15067   3.578   1.878   1.736  0.3283  0.0427  0.2603
 1203SOL    HW115068   3.599   1.811   1.670  1.2139 -1.2343  1.8619
 1203SOL    HW215069   3.482   1.868   1.739  0.0854  2.6582  0.7742
 1204SOL     OW15070   4.099   0.471   8.605  0.3814  0.3793  0.1478
 1204SOL    HW115071   4.086   0.478   8.700 -0.0014  0.5408  0.0847
 1204SOL    HW215072   4.015   0.507   8.574  0.1765 -1.1639 -1.0912
 1205SOL     OW15073   4.063   2.858   4.592 -0.2501  0.1411  0.0901
 1205SOL    HW115074   4.020   2.783   4.552 -1.4694  0.4956  0.7359
 1205SOL    HW215075   4.054   2.841   4.685  0.5372 -2.1232 -0.2590
 1206SOL     OW15076   1.468   0.761   6.381 -0.0508  0.0709  0.8572
 1206SOL    HW115077   1.561   0.755   6.401  0.0704  0.2002  0.3328
 1206SOL    HW215078   1.429   0.701   6.444 -0.1119 -2.0903 -1.2161
 1207SOL     OW15079   1.618   3.876   3.026 -0.0879 -0.0933  0.5727
 1207SOL    HW115080   1.573   3.811   3.080 -2.4838  1.4867  0.4594
 1207SOL    HW215081   1.710   3.852   3.041  0.2125  2.3865  2.5794
 1208SOL     OW15082   2.089   0.359   4.291 -0.1072  0.2240 -0.4196
 1208SOL    HW115083   2.080   0.278   4.341  3.1849  1.0771  1.5676
 1208SOL    HW215084   2.069   0.327   4.203  0.9801  1.0661 -0.9676
 1209SOL     OW15085   3.284   0.265   2.576 -0.6246 -0.0662  0.0125
 1209SOL    HW115086   3.317   0.177   2.592  3.9592  2.2014  2.9321
 1209SOL    HW215087   3.190   0.247   2.587 -0.6656 -0.5784 -1.1505
 1210SOL     OW15088   0.367   2.792   8.564  0.0820  0.1742  0.0631
 1210SOL    HW115089   0.401   2.852   8.629  0.3057 -0.7275  0.7842
 1210SOL    HW215090   0.286   2.757   8.601  0.0582  0.6645  0.4645
 1211SOL     OW15091   1.919   0.703  11.830 -0.4433 -0.5748  0.3502
 1211SOL    HW115092   1.937   0.791  11.797  1.0994 -0.8285  0.5438
 1211SOL    HW215093   1.850   0.665  11.775 -1.0289  1.2269 -0.1532
 1212SOL     OW15094   3.651   0.080   3.091  0.2688  0.2537  0.1810
 1212SOL    HW115095   3.582   0.052   3.031 -0.1731  0.4838  0.5870
 1212SOL    HW215096   3.726   0.063   3.035 -0.6439 -0.4263 -0.8252
 1213SOL     OW15097   2.434   3.450  11.135 -0.1468  0.6489 -0.0482
 1213SOL    HW115098   2.384   3.444  11.054 -1.5674 -2.6860  1.0804
 1213SOL    HW215099   2.372   3.411  11.197  1.0150 -0.9275  0.1261
 1214SOL     OW15100   0.735   3.103   7.529  0.4212 -0.3118 -0.2660
 1214SOL    HW115101   0.736   3.071   7.619 -3.0950  1.5240  0.4190
 1214SOL    HW215102   0.805   3.168   7.538  0.5582 -0.2511 -1.6986
 1215SOL     OW15103   1.889   1.943   6.665 -0.1943 -0.1975  0.6446
 1215SOL    HW115104   1.844   2.023   6.637 -0.3966 -1.1917 -1.8957
 1215SOL    HW215105   1.848   1.938   6.751 -0.1089  2.2973  0.8366
 1216SOL     OW15106   2.310   1.961   1.798 -0.0659 -0.0200 -0.1725
 1216SOL    HW115107   2.282   1.869   1.798  1.2819 -0.4448 -0.3634
 1216SOL    HW215108   2.308   1.994   1.887  1.3879  0.8711 -0.4633
 1217SOL     OW15109   3.973   3.827   8.095 -0.0383 -0.3714 -0.1874
 1217SOL    HW115110   4.009   3.817   8.007 -0.4260 -2.2071 -0.1422
 1217SOL    HW215111   3.975   3.739   8.133  1.9904 -0.2781 -0.0651
 1218SOL     OW15112   3.595   1.099   3.631 -0.4348  0.1066 -0.0799
 1218SOL    HW115113   3.667   1.038   3.646 -1.4251 -0.3365  2.8687
 1218SOL    HW215114   3.531   1.068   3.695 -1.5682  1.2859 -0.6207
 1219SOL     OW15115   2.292   3.556   2.998  0.4641  0.1852 -0.1396
 1219SOL    HW115116   2.234   3.576   3.072  0.4130  1.3252 -0.4992
 1219SOL    HW215117   2.375   3.599   3.017  0.1729 -0.0744  1.7393
 1220SOL     OW15118   2.263   0.841  15.324  0.4263 -0.1286 -0.0631
 1220SOL    HW115119   2.290   0.794  15.246 -2.1745 -1.8721  0.0896
 1220SOL    HW215120   2.296   0.785  15.395  0.1968  0.5691  0.5920
 1221SOL     OW15121   4.442   3.762   2.296 -0.4163  0.0801  0.9558
 1221SOL    HW115122   4.426   3.761   2.202  0.5216  1.6540  0.8007
 1221SOL    HW215123   4.386   3.691   2.328 -1.4463  0.9002  0.9749
 1222SOL     OW15124   4.462   0.761   9.167 -0.0357 -0.0137  0.4244
 1222SOL    HW115125   4.521   0.775   9.241 -2.4729  0.1047  2.3832
 1222SOL    HW215126   4.529   0.723   9.110 -0.4113 -0.9881  0.6306
 1223SOL     OW15127   1.924   1.492   8.233  0.5105 -0.0787 -0.3240
 1223SOL    HW115128   1.863   1.466   8.164  0.4705  0.1850 -0.3876
 1223SOL    HW215129   1.978   1.413   8.236  0.6154  0.0231  0.6772
 1224SOL     OW15130   0.881   3.231   3.797 -0.0456 -0.4760  0.3627
 1224SOL    HW115131   0.859   3.319   3.829  0.3188 -0.2180 -0.0967
 1224SOL    HW215132   0.958   3.238   3.742  0.8908 -2.3178  1.4350
 1225SOL     OW15133   4.402   2.553   6.206  0.3586  0.0124  0.2688
 1225SOL    HW115134   4.450   2.604   6.271 -1.3058  0.0797  1.4284
 1225SOL    HW215135   4.442   2.469   6.226  0.6957  0.5883  2.0053
 1226SOL     OW15136   4.368   0.178   7.269 -0.0065 -0.1044  0.0164
 1226SOL    HW115137   4.328   0.099   7.306  2.1239 -2.9140 -3.7563
 1226SOL    HW215138   4.432   0.203   7.336  0.7787  0.0792 -0.8160
 1227SOL     OW15139   0.754   0.354   4.912  0.3081 -0.2910 -0.2509
 1227SOL    HW115140   0.798   0.288   4.859  0.4540  0.0210 -0.5164
 1227SOL    HW215141   0.827   0.396   4.957  0.2738 -1.3108  0.7369
 1228SOL     OW15142   4.123   1.326  15.168  0.0836 -0.3053 -0.2544
 1228SOL    HW115143   4.135   1.420  15.181 -0.4841 -0.4523  1.3871
 1228SOL    HW215144   4.123   1.308  15.074 -1.5758 -0.1953 -0.2653
 1229SOL     OW15145   1.601   2.605  14.180  0.1503  0.2752 -0.4484
 1229SOL    HW115146   1.548   2.574  14.252  0.1269  1.1745 -0.0722
 1229SOL    HW215147   1.662   2.532  14.167 -1.8559 -1.7961  1.8763
 1230SOL     OW15148   3.085   2.377  10.405  0.0169 -0.1874 -0.0211
 1230SOL    HW115149   3.154   2.395  10.470 -1.3841  0.5947  1.2379
 1230SOL    HW215150   3.025   2.333  10.465 -0.3633 -0.8298 -0.8800
 1231SOL     OW15151   4.045   1.957  11.105  1.0831  0.0133 -0.5569
 1231SOL    HW115152   4.138   1.960  11.083  0.4323 -0.6021 -3.4650
 1231SOL    HW215153   4.027   2.049  11.122  0.6975 -0.2648  0.5518
 1232SOL     OW15154   2.004   4.005   7.439  0.3712 -0.2824 -0.5317
 1232SOL    HW115155   1.956   3.963   7.510  0.6259  1.2001  0.4947
 1232SOL    HW215156   1.942   3.978   7.371 -2.1189  0.9607  1.2546
 1233SOL     OW15157   0.054   0.431  12.976 -0.1632  0.2541 -0.5152
 1233SOL    HW115158   4.693   0.466  12.979 -1.4505 -3.1721  0.7966
 1233SOL    HW215159   0.036   0.358  12.917  2.6281 -1.0316  0.2216
 1234SOL     OW15160   3.280   3.938   3.135  0.4285 -0.3939  0.1800
 1234SOL    HW115161   3.331   3.857   3.136  1.1478  0.0672  1.1141
 1234SOL    HW215162   3.204   3.915   3.188 -1.6369  0.2556 -2.4988
 1235SOL     OW15163   0.398   2.635   6.609  0.0319 -0.6423  0.0426
 1235SOL    HW115164   0.483   2.605   6.642  0.8844  0.1299 -1.5019
 1235SOL    HW215165   0.345   2.569   6.654 -0.9054  0.3462  0.3836
 1236SOL     OW15166   4.002   2.186   7.247  0.2229  0.1292  0.7450
 1236SOL    HW115167   4.021   2.093   7.240  0.5492  0.4418 -2.4848
 1236SOL    HW215168   3.942   2.189   7.321  0.0964  0.3038  0.6357
 1237SOL     OW15169   3.720   0.430   7.958  0.2518  0.3223  0.1994
 1237SOL    HW115170   3.716   0.479   7.876  3.2743  0.5182  0.1529
 1237SOL    HW215171   3.769   0.488   8.017 -0.2575 -0.5199  1.4459
 1238SOL     OW15172   2.224   0.214   8.779  0.2255  0.0462 -0.5262
 1238SOL    HW115173   2.304   0.248   8.739 -0.4351  1.5871 -0.5297
 1238SOL    HW215174   2.236   0.252   8.866 -0.6928 -3.0023  0.9301
 1239SOL     OW15175   1.920   1.825  15.683  0.1533 -1.1885  0.0242
 1239SOL    HW115176   1.966   1.832  15.767 -1.7207 -1.1200  1.0457
 1239SOL    HW215177   1.879   1.911  15.678  1.3651 -0.5795  0.4562
 1240SOL     OW15178   3.962   3.638  11.661 -0.5015  0.0317 -0.8491
 1240SOL    HW115179   3.948   3.579  11.587 -0.8175  0.2713 -0.9812
 1240SOL    HW215180   3.971   3.569  11.727  0.4558  0.7400 -0.2211
 1241SOL     OW15181   0.043   3.908   4.342 -0.3939 -0.1172  0.0689
 1241SOL    HW115182   0.116   3.850   4.323 -1.0458 -1.0381  0.3823
 1241SOL    HW215183   4.714   3.887   4.267  1.6758  0.6358 -1.6882
 1242SOL     OW15184   4.325   1.691   7.716  0.4242  0.1082  0.4472
 1242SOL    HW115185   4.403   1.746   7.704  0.5049 -0.2966 -0.8848
 1242SOL    HW215186   4.293   1.713   7.628  1.3347  0.3160  0.1707
 1243SOL     OW15187   3.973   3.703  16.812 -0.2049  0.0402  0.0506
 1243SOL    HW115188   3.970   3.656  16.895  0.6398 -0.8351 -0.4224
 1243SOL    HW215189   3.956   3.790  16.849  1.3788  0.5484 -0.4278
 1244SOL     OW15190   3.843   3.797  17.117  0.3555 -0.4308 -0.0365
 1244SOL    HW115191   3.808   3.711  17.094  0.9244 -0.7373  0.2434
 1244SOL    HW215192   3.932   3.783  17.087  0.7074  0.8673  0.4177
 1245SOL     OW15193   3.194   2.304   5.700 -0.1428  0.3187  0.0948
 1245SOL    HW115194   3.162   2.323   5.612  2.1342 -0.6758 -0.9553
 1245SOL    HW215195   3.220   2.212   5.700  3.2706  1.2766  1.4495
 1246SOL     OW15196   2.725   0.132  10.303  0.2246  0.1032  0.5080
 1246SOL    HW115197   2.649   0.162  10.352 -0.2509 -1.2545  0.5885
 1246SOL    HW215198   2.792   0.116  10.370  0.3520 -0.0524  0.3416
 1247SOL     OW15199   4.593   2.582   8.529  0.3976 -0.4774 -0.0179
 1247SOL    HW115200   4.607   2.506   8.584  0.1384 -0.6768 -0.2260
 1247SOL    HW215201   4.626   2.538   8.450  0.7266 -0.5844  0.1792
 1248SOL     OW15202   3.140   1.657  13.981  0.1037 -0.3982  0.4473
 1248SOL    HW115203   3.198   1.584  13.960 -0.1182 -1.1514  2.4840
 1248SOL    HW215204   3.058   1.627  14.021 -0.0237  0.1787  0.6207
 1249SOL     OW15205   2.520   0.888   5.827 -0.7440 -0.6388 -0.6063
 1249SOL    HW115206   2.437   0.930   5.852 -1.2851 -1.1081 -1.6114
 1249SOL    HW215207   2.552   0.824   5.890 -2.1212 -1.0439 -0.3316
 1250SOL     OW15208   1.887   2.144   1.785  0.0531 -0.8741 -0.0460
 1250SOL    HW115209   1.827   2.197   1.733  0.2760  0.1904  0.7933
 1250SOL    HW215210   1.958   2.120   1.725 -0.1081  0.7887 -0.8974
 1251SOL     OW15211   2.562   1.347  14.361  0.2305 -0.2419 -0.2560
 1251SOL    HW115212   2.526   1.354  14.449  1.3187 -1.8295  0.3063
 1251SOL    HW215213   2.482   1.351  14.308 -1.0383  0.8354  1.7597
 1252SOL     OW15214   0.896   2.474   7.704  0.5645  0.4002 -0.2113
 1252SOL    HW115215   0.991   2.476   7.712  0.5380 -1.4126  0.4437
 1252SOL    HW215216   0.874   2.536   7.774  0.8192 -1.9038  1.9240
 1253SOL     OW15217   0.562   0.832   5.294  0.0078 -0.7232  0.3336
 1253SOL    HW115218   0.475   0.862   5.267  0.1148  1.7415  2.8158
 1253SOL    HW215219   0.595   0.789   5.215  2.7835  0.9637  0.6028
 1254SOL     OW15220   2.932   2.582   6.575 -0.3231  0.3300 -0.3000
 1254SOL    HW115221   2.858   2.558   6.630 -0.3187  0.5080 -0.2145
 1254SOL    HW215222   2.979   2.498   6.577  1.1848  1.1952  0.5034
 1255SOL     OW15223   0.403   1.997  10.448 -0.5439 -0.9180 -0.0930
 1255SOL    HW115224   0.359   1.915  10.471 -0.6310 -1.0035 -0.5734
 1255SOL    HW215225   0.337   2.044  10.398 -1.3557  1.5432  3.2900
 1256SOL     OW15226   2.822   1.048   6.133 -0.2303  0.1826 -1.0097
 1256SOL    HW115227   2.864   1.103   6.067  2.0623  0.3756  0.6353
 1256SOL    HW215228   2.848   0.960   6.104  0.5204  0.0542  0.0601
 1257SOL     OW15229   3.387   4.306   5.112 -0.2192  0.1414 -0.3090
 1257SOL    HW115230   3.376   4.325   5.018 -0.2879  2.3478  0.1530
 1257SOL    HW215231   3.452   4.237   5.101 -1.0982 -1.0459  2.0941
 1258SOL     OW15232   1.330   4.649   1.943 -0.0207  0.2539  0.0793
 1258SOL    HW115233   1.424   4.636   1.959 -0.1892 -2.5595 -1.2656
 1258SOL    HW215234   1.327   4.615   1.854 -0.5582  0.0581  0.1767
 1259SOL     OW15235   0.768   0.798   2.206  0.3491  0.2365  0.3666
 1259SOL    HW115236   0.775   0.703   2.219  1.6094  0.2483 -0.2206
 1259SOL    HW215237   0.680   0.803   2.169 -0.4218 -2.1608  1.8693
 1260SOL     OW15238   3.638   4.676  12.139 -0.8508  0.3115  0.7026
 1260SOL    HW115239   3.639   4.690  12.045 -2.5534 -1.4598  0.4251
 1260SOL    HW215240   3.595   4.592  12.148 -2.6880  1.1976  0.0813
 1261SOL     OW15241   2.443   1.940  15.504 -0.2308 -0.0887  0.6512
 1261SOL    HW115242   2.503   1.975  15.571 -1.1727 -0.6732  1.8071
 1261SOL    HW215243   2.431   1.848  15.528 -1.5250  0.3083  1.5549
 1262SOL     OW15244   1.498   0.456   6.412 -0.0158  0.3172 -0.0260
 1262SOL    HW115245   1.542   0.412   6.485  0.9934  1.6028  0.1548
 1262SOL    HW215246   1.569   0.480   6.353  1.0786 -1.7104  0.4601
 1263SOL     OW15247   3.466   1.880   7.556 -0.1865  0.2432  0.3264
 1263SOL    HW115248   3.458   1.946   7.625  0.0503  1.7426 -1.0795
 1263SOL    HW215249   3.385   1.900   7.510 -0.3518  0.7943  0.8586
 1264SOL     OW15250   1.810   4.340   7.059  0.0759 -0.3673 -0.0960
 1264SOL    HW115251   1.852   4.423   7.037  0.1860 -0.0381  1.3300
 1264SOL    HW215252   1.795   4.358   7.152 -1.4247 -1.0385 -0.2044
 1265SOL     OW15253   4.240   0.270   5.805 -0.2650  0.2168 -0.4295
 1265SOL    HW115254   4.329   0.277   5.772  0.5809 -0.9375  1.5986
 1265SOL    HW215255   4.210   0.179   5.799  0.3971  0.1721 -3.0154
 1266SOL     OW15256   0.864   1.223   4.797 -0.4544  0.1127 -0.2080
 1266SOL    HW115257   0.915   1.193   4.873  0.6277 -1.7042 -1.6388
 1266SOL    HW215258   0.854   1.153   4.732  0.2317 -2.3291  2.2841
 1267SOL     OW15259   4.104   2.041   7.820  0.0866  0.3437  0.1601
 1267SOL    HW115260   4.009   2.055   7.825 -0.0280 -0.2239 -0.5618
 1267SOL    HW215261   4.108   2.020   7.727 -1.5052 -0.2675  0.2261
 1268SOL     OW15262   0.867   1.553  12.504  0.2615  0.5871  0.1666
 1268SOL    HW115263   0.880   1.459  12.513 -0.9774  0.2053 -2.0246
 1268SOL    HW215264   0.923   1.591  12.572  1.6392  1.6139 -1.5150
 1269SOL     OW15265   4.419   1.230  15.288  0.2098 -0.2969  0.1135
 1269SOL    HW115266   4.329   1.260  15.276  0.4643  0.9783  1.2758
 1269SOL    HW215267   4.408   1.148  15.337  1.4041 -0.0772  0.7500
 1270SOL     OW15268   2.329   4.156   3.013  0.0445  0.4133  0.5278
 1270SOL    HW115269   2.266   4.096   2.972 -0.9822  1.2636  0.8712
 1270SOL    HW215270   2.373   4.102   3.079 -1.2307 -1.8898 -0.5217
 1271SOL     OW15271   1.745   2.817   9.270 -0.7725 -0.3457  0.3753
 1271SOL    HW115272   1.793   2.821   9.187  4.0864  1.0372  3.2690
 1271SOL    HW215273   1.659   2.809   9.229 -0.3131 -3.6808  0.0361
 1272SOL     OW15274   3.877   4.530   4.770  0.0846  0.0990  0.2459
 1272SOL    HW115275   3.812   4.597   4.793  0.6649  0.7244  0.0450
 1272SOL    HW215276   3.957   4.581   4.769  0.9957 -1.3239  0.8900
 1273SOL     OW15277   1.055   4.675  10.176  0.3611  0.3574 -0.0404
 1273SOL    HW115278   1.031   0.025  10.126  0.6129  0.7212  0.4044
 1273SOL    HW215279   1.021   4.706  10.260  2.3288 -1.3081  1.3651
 1274SOL     OW15280   3.342   2.803   1.323  0.2228  0.1299  0.6622
 1274SOL    HW115281   3.316   2.894   1.339 -2.0945 -0.2270 -1.1874
 1274SOL    HW215282   3.263   2.759   1.292 -0.6732  1.7927  0.5603
 1275SOL     OW15283   1.390   3.763   7.828  0.5117  0.1825  0.7750
 1275SOL    HW115284   1.333   3.837   7.849  1.0402  1.1339 -1.1025
 1275SOL    HW215285   1.426   3.740   7.913 -1.3559 -0.3922  1.4052
 1276SOL     OW15286   0.062   0.038   7.887 -0.1845  0.0232  0.3570
 1276SOL    HW115287   0.063   0.053   7.981  0.8575  0.4791  0.2695
 1276SOL    HW215288   0.028   4.676   7.875  0.2830 -0.1208  0.0686
 1277SOL     OW15289   0.272   1.010   8.001  0.2035  0.1214  0.6210
 1277SOL    HW115290   0.213   0.998   8.075  0.0622  1.4024  0.7223
 1277SOL    HW215291   0.256   0.925   7.960  1.0424  0.4234 -0.3511
 1278SOL     OW15292   2.361   3.186   6.804  0.0828 -0.3920 -0.1986
 1278SOL    HW115293   2.315   3.234   6.873 -1.0195 -2.6185  0.6473
 1278SOL    HW215294   2.333   3.094   6.806 -1.8404  0.2051 -0.1791
 1279SOL     OW15295   1.620   1.244   9.265 -0.1630 -0.4529 -0.0710
 1279SOL    HW115296   1.691   1.276   9.320  0.1190 -0.1720 -0.5979
 1279SOL    HW215297   1.542   1.262   9.317  0.5053  0.0153  0.7657
 1280SOL     OW15298   3.283   0.892   5.277 -0.0108  0.6505  0.3472
 1280SOL    HW115299   3.322   0.898   5.189 -0.1462  0.5279  0.2778
 1280SOL    HW215300   3.307   0.802   5.300  1.3000  0.6871 -0.8245
 1281SOL     OW15301   2.340   3.443   6.608 -0.7777  0.2634 -0.4371
 1281SOL    HW115302   2.398   3.475   6.678  1.3773 -1.9971 -1.2049
 1281SOL    HW215303   2.269   3.505   6.594  0.8644  2.8404  2.5039
 1282SOL     OW15304   0.841   1.905   1.769 -0.7726 -0.1311 -0.5396
 1282SOL    HW115305   0.890   1.910   1.851 -3.3163 -1.2997  1.0413
 1282SOL    HW215306   0.770   1.841   1.775  0.0610 -1.1286 -1.1642
 1283SOL     OW15307   0.479   3.411   3.129  0.0311  0.3077 -0.0157
 1283SOL    HW115308   0.419   3.348   3.169  1.4401 -1.7825 -1.1769
 1283SOL    HW215309   0.477   3.379   3.039  0.8989 -1.5668  0.6166
 1284SOL     OW15310   1.602   3.427   4.043 -0.2501  0.2404 -0.2215
 1284SOL    HW115311   1.615   3.409   4.136  1.8851  1.5358 -0.2857
 1284SOL    HW215312   1.516   3.388   4.025  0.2907 -1.2743  0.4421
 1285SOL     OW15313   1.677   1.161  10.533  0.1397  0.5942  0.4411
 1285SOL    HW115314   1.610   1.170  10.465 -0.0334  2.3477  0.8320
 1285SOL    HW215315   1.638   1.201  10.611 -0.8959 -0.7771  0.6173
 1286SOL     OW15316   0.728   0.592   6.908 -0.4473 -0.2895 -0.1228
 1286SOL    HW115317   0.788   0.569   6.837  0.2134 -1.2995  0.7625
 1286SOL    HW215318   0.763   0.543   6.982 -0.7838  0.2393  0.3880
 1287SOL     OW15319   0.008   3.411   5.673  0.4487  0.4661  0.2976
 1287SOL    HW115320   0.020   3.429   5.766  0.3905 -1.1905  0.6384
 1287SOL    HW215321   4.641   3.425   5.660  0.4000 -0.4695 -0.3846
 1288SOL     OW15322   3.332   2.670  12.823  0.1042  0.2227  0.0790
 1288SOL    HW115323   3.303   2.630  12.740 -0.6504 -1.5494  1.1947
 1288SOL    HW215324   3.410   2.620  12.844 -0.6795 -1.6358 -1.4390
 1289SOL     OW15325   0.188   1.480  15.156 -0.3289 -0.5065  0.0896
 1289SOL    HW115326   0.239   1.560  15.167  0.0467 -0.8938  1.1118
 1289SOL    HW215327   0.263   1.423  15.174  0.5414  0.3259 -0.9076
 1290SOL     OW15328   4.233   2.518  15.838  0.3272  0.4172 -0.2933
 1290SOL    HW115329   4.208   2.602  15.802 -1.4151 -0.1739 -0.4728
 1290SOL    HW215330   4.323   2.509  15.807  0.0912 -0.5876 -0.6933
 1291SOL     OW15331   1.846   3.887   8.977  0.2739 -0.1097  0.2848
 1291SOL    HW115332   1.760   3.850   8.996  0.1048  0.4687  0.6443
 1291SOL    HW215333   1.823   3.980   8.970 -2.3293 -0.7963 -0.0851
 1292SOL     OW15334   4.189   1.889   9.214 -0.2535 -0.1138 -0.2303
 1292SOL    HW115335   4.192   1.870   9.308 -0.3337  0.7835 -0.0464
 1292SOL    HW215336   4.095   1.902   9.201 -0.6038 -2.0245  0.2965
 1293SOL     OW15337   0.521   1.082   4.063  0.7177 -0.4899 -0.3993
 1293SOL    HW115338   0.596   1.023   4.065 -1.0172 -2.6781  0.2298
 1293SOL    HW215339   0.454   1.014   4.069  0.8307 -0.4425  1.3851
 1294SOL     OW15340   0.032   1.099   9.602 -0.4484  0.7253 -0.4024
 1294SOL    HW115341   0.111   1.058   9.636 -0.8518 -0.1550 -0.5262
 1294SOL    HW215342   0.032   1.073   9.510  1.8766  0.7956 -0.4136
 1295SOL     OW15343   1.160   4.533   5.488  0.1576  0.0777 -0.1118
 1295SOL    HW115344   1.118   4.519   5.403 -0.5282  0.4927  0.1579
 1295SOL    HW215345   1.247   4.499   5.465  0.0916  0.0269 -0.2823
 1296SOL     OW15346   0.006   2.518  15.621  0.0508  0.0317  0.2847
 1296SOL    HW115347   4.640   2.504  15.637 -0.3650  0.9663 -1.3071
 1296SOL    HW215348   0.011   2.613  15.615  0.7342 -0.0733 -0.8558
 1297SOL     OW15349   2.618   1.826   4.160  0.2763 -0.1854  0.3101
 1297SOL    HW115350   2.687   1.875   4.205 -0.3025 -0.5674  1.6356
 1297SOL    HW215351   2.642   1.738   4.189  0.2350  0.3087  1.8731
 1298SOL     OW15352   2.297   2.011   5.586  0.2741 -0.3566 -0.1068
 1298SOL    HW115353   2.212   2.051   5.571  0.3472 -0.6905 -1.3692
 1298SOL    HW215354   2.284   1.918   5.568  0.9217 -0.4013 -0.3283
 1299SOL     OW15355   3.491   2.573   8.656 -0.4341 -0.2341  0.1163
 1299SOL    HW115356   3.413   2.577   8.711 -0.4877  1.3575 -0.0655
 1299SOL    HW215357   3.489   2.484   8.622  2.3345 -0.5086  0.6810
 1300SOL     OW15358   2.306   0.066  11.298 -0.0181 -0.4429 -0.3511
 1300SOL    HW115359   2.374   0.121  11.259  0.1261 -1.1970 -1.1625
 1300SOL    HW215360   2.225   0.091  11.252 -1.2554 -0.8753  1.6065
 1301SOL     OW15361   2.387   2.686   5.797  0.3266 -0.3897 -0.0301
 1301SOL    HW115362   2.378   2.781   5.795  0.1108 -0.3515  3.1120
 1301SOL    HW215363   2.302   2.655   5.829  0.3960 -1.9994 -1.4059
 1302SOL     OW15364   1.299   2.980   4.421 -0.2196 -0.7167  0.5417
 1302SOL    HW115365   1.381   2.935   4.402  0.9072  1.6996 -0.3203
 1302SOL    HW215366   1.276   3.013   4.334  1.3041  0.2790  0.5051
 1303SOL     OW15367   2.282   1.096  14.277  0.7747  0.6863 -0.0822
 1303SOL    HW115368   2.344   1.157  14.238 -0.0947 -0.4034 -3.1678
 1303SOL    HW215369   2.202   1.140  14.246  0.5790 -1.0157 -1.9736
 1304SOL     OW15370   0.610   2.594   0.064 -1.2658  1.0147 -0.2536
 1304SOL    HW115371   0.556   2.519   0.086  2.8194 -1.5967  0.9274
 1304SOL    HW215372   0.655   2.612   0.146 -2.8945  3.1686  0.1606
 1305SOL     OW15373   1.491   0.453   4.055  0.6073  0.0376  0.0146
 1305SOL    HW115374   1.519   0.532   4.009 -2.1400  0.2165 -1.3354
 1305SOL    HW215375   1.550   0.476   4.127  0.7812  0.8379 -0.3789
 1306SOL     OW15376   4.608   1.807   3.850  0.1291  0.2974  0.4822
 1306SOL    HW115377   4.701   1.829   3.847  0.3194 -0.5908 -0.1792
 1306SOL    HW215378   4.584   1.874   3.914  1.2327  0.5622  0.6249
 1307SOL     OW15379   0.536   1.664   2.675  0.4615 -0.8275  0.2071
 1307SOL    HW115380   0.528   1.593   2.739  1.4105  0.0160  1.2658
 1307SOL    HW215381   0.533   1.736   2.739 -0.8368  0.0208 -0.8009
 1308SOL     OW15382   1.396   2.668   6.848 -0.1664  0.5875 -0.0730
 1308SOL    HW115383   1.448   2.639   6.773 -2.3132 -0.3299 -1.1980
 1308SOL    HW215384   1.404   2.610   6.924 -0.4514 -0.1421 -0.5990
 1309SOL     OW15385   1.095   4.525   3.042 -0.3754  0.1611 -0.0059
 1309SOL    HW115386   1.008   4.509   3.006  0.1162 -2.4875 -0.0115
 1309SOL    HW215387   1.133   4.533   2.955 -0.1286 -4.0430 -0.3103
 1310SOL     OW15388   4.707   3.503  15.418 -0.0314 -0.5846  0.5095
 1310SOL    HW115389   0.074   3.498  15.405  0.2413  0.4185  2.1105
 1310SOL    HW215390   4.700   3.569  15.487  1.4980 -1.0148  1.0858
 1311SOL     OW15391   4.271   0.637   8.228 -0.2831  0.1859  0.2838
 1311SOL    HW115392   4.329   0.587   8.285 -0.6517 -0.5988 -0.0346
 1311SOL    HW215393   4.322   0.660   8.151 -0.5251 -0.1731  0.0135
 1312SOL     OW15394   4.007   0.342  14.013  0.2292 -0.1744 -0.3619
 1312SOL    HW115395   4.087   0.324  14.062  1.1631 -0.7542 -2.0883
 1312SOL    HW215396   3.963   0.411  14.062  1.0642  0.2851 -0.2474
 1313SOL     OW15397   4.650   1.654   0.098  0.3097 -0.2857  0.0834
 1313SOL    HW115398   4.604   1.574   0.072  0.3938 -0.3724  0.2003
 1313SOL    HW215399   4.662   1.632   0.191  0.2050 -2.6966 -0.4748
 1314SOL     OW15400   1.239   3.641   4.698 -0.0316 -0.4647  0.2449
 1314SOL    HW115401   1.254   3.615   4.607 -4.3373  1.6127 -1.0677
 1314SOL    HW215402   1.235   3.736   4.684  0.8614 -0.1537  2.1490
 1315SOL     OW15403   3.154   4.597  10.488 -0.2393  0.1468  0.1039
 1315SOL    HW115404   3.216   4.629  10.423  0.7899  1.3935  1.6997
 1315SOL    HW215405   3.204   4.566  10.564  1.6557  0.5263 -1.0006
 1316SOL     OW15406   0.498   4.195   4.768  0.2802 -0.4970 -0.0024
 1316SOL    HW115407   0.406   4.171   4.758  0.9803 -2.5445 -1.5611
 1316SOL    HW215408   0.541   4.112   4.788 -0.9983 -0.9659  0.7653
 1317SOL     OW15409   3.330   4.104   6.005  0.3534 -0.6772 -0.2191
 1317SOL    HW115410   3.391   4.118   5.932 -0.9283 -0.5079 -1.2562
 1317SOL    HW215411   3.379   4.047   6.065  1.2689  0.4585  0.0993
 1318SOL     OW15412   2.086   2.602   5.585 -0.6568  0.2949  0.5295
 1318SOL    HW115413   2.141   2.574   5.658  1.2591 -1.8017 -1.7066
 1318SOL    HW215414   2.129   2.553   5.514  2.2623  2.0105  1.1325
 1319SOL     OW15415   3.553   0.004  15.672  0.7245 -0.1833 -0.6547
 1319SOL    HW115416   3.600   0.081  15.642  0.6357 -0.7839 -2.3298
 1319SOL    HW215417   3.559   0.007  15.767 -0.9902 -1.3595 -0.5152
 1320SOL     OW15418   1.946   0.196   7.414 -0.1827  0.3277 -0.1863
 1320SOL    HW115419   2.011   0.188   7.345  0.3368  2.2431  0.0763
 1320SOL    HW215420   1.967   0.113   7.457  0.4553  0.1748 -0.7986
 1321SOL     OW15421   3.601   3.933   6.776 -0.2839  0.1335  0.1436
 1321SOL    HW115422   3.635   3.846   6.755 -1.4599 -0.0930 -0.7635
 1321SOL    HW215423   3.581   3.974   6.692  1.6639  0.0233 -0.3705
 1322SOL     OW15424   0.748   0.786  11.033  0.6719 -0.2694  0.9965
 1322SOL    HW115425   0.681   0.855  11.038  1.6472  0.7907 -0.2059
 1322SOL    HW215426   0.708   0.719  10.978  0.1933 -0.1075  1.1479
 1323SOL     OW15427   2.889   2.169   8.560  0.3866 -0.1372 -0.1036
 1323SOL    HW115428   2.984   2.179   8.571  0.6232  0.1533 -2.3609
 1323SOL    HW215429   2.901   2.126   8.475  1.0532  0.6900 -0.4353
 1324SOL     OW15430   1.568   0.231  13.480 -0.3734 -0.5126  0.1599
 1324SOL    HW115431   1.647   0.280  13.457 -0.8316 -0.5999 -1.6086
 1324SOL    HW215432   1.560   0.187  13.396  2.5290 -0.5290 -0.0904
 1325SOL     OW15433   1.857   1.925   8.778  0.3959 -0.7794 -0.3418
 1325SOL    HW115434   1.944   1.963   8.790  0.9634 -1.8774 -0.9981
 1325SOL    HW215435   1.812   2.006   8.753 -0.8566 -1.4808 -0.3611
 1326SOL     OW15436   3.854   1.240   4.216  0.1243  0.3072  0.4497
 1326SOL    HW115437   3.891   1.328   4.204 -1.5372  0.8588 -0.6642
 1326SOL    HW215438   3.835   1.243   4.310  3.5881 -0.7634  1.1558
 1327SOL     OW15439   3.117   1.728   9.902  0.3350 -0.3399 -0.2045
 1327SOL    HW115440   3.192   1.669   9.907  1.1755  0.9764  2.4487
 1327SOL    HW215441   3.057   1.718   9.976  2.3677 -0.8005  1.3832
 1328SOL     OW15442   0.055   4.384  11.845 -1.1514 -0.4791 -0.4360
 1328SOL    HW115443   0.138   4.431  11.845 -2.5461  1.9676 -0.4344
 1328SOL    HW215444   0.054   4.342  11.759 -1.3560  3.5447 -2.3794
 1329SOL     OW15445   1.695   3.116   8.346  0.5310  0.4623 -0.1653
 1329SOL    HW115446   1.606   3.127   8.312  0.4182  0.6472  0.1871
 1329SOL    HW215447   1.753   3.107   8.270 -1.0980 -1.0241 -1.2362
 1330SOL     OW15448   2.885   3.620   7.478  0.3852 -0.2959 -0.7117
 1330SOL    HW115449   2.912   3.691   7.537 -0.3959 -0.9543  0.4590
 1330SOL    HW215450   2.906   3.551   7.541 -0.6073  0.2382  0.2147
 1331SOL     OW15451   2.061   1.726   5.180 -0.3310  0.4500 -0.2175
 1331SOL    HW115452   2.057   1.815   5.214 -1.1978  0.7841 -1.1857
 1331SOL    HW215453   2.001   1.729   5.105 -1.3219 -1.3257  0.4911
 1332SOL     OW15454   3.192   3.328   2.114  0.0989  0.2455  0.7953
 1332SOL    HW115455   3.210   3.406   2.062 -1.1083  0.2364  0.3624
 1332SOL    HW215456   3.096   3.324   2.107  0.0482  0.6436  1.2384
 1333SOL     OW15457   1.725   1.551   2.926 -0.1092 -0.0455 -0.2002
 1333SOL    HW115458   1.781   1.585   2.995  0.5024 -0.5316 -0.4623
 1333SOL    HW215459   1.789   1.534   2.857 -1.1505 -0.1246 -1.1661
 1334SOL     OW15460   1.642   4.150   6.280 -0.1824 -0.5353  0.6837
 1334SOL    HW115461   1.575   4.083   6.264 -0.9139  0.2051  0.6406
 1334SOL    HW215462   1.599   4.218   6.333  1.0920  1.2248 -0.5350
 1335SOL     OW15463   2.229   3.860  17.412  0.4548  0.2087  0.2904
 1335SOL    HW115464   2.271   3.829  17.492 -2.2622 -1.8114  0.9493
 1335SOL    HW215465   2.249   3.783  17.359 -1.2088 -0.6895  0.9402
 1336SOL     OW15466   4.467   1.799   9.566 -0.2908 -0.5587 -0.3011
 1336SOL    HW115467   4.457   1.788   9.661  2.0722 -1.0719 -0.1200
 1336SOL    HW215468   4.451   1.707   9.548 -1.5030 -0.1266 -1.4338
 1337SOL     OW15469   4.485   3.233   5.449  0.0490  0.0579  0.1250
 1337SOL    HW115470   4.449   3.221   5.361 -0.2805  1.9182  0.0091
 1337SOL    HW215471   4.459   3.160   5.506  3.3644 -1.9136 -0.8578
 1338SOL     OW15472   1.867   4.531  15.721  0.3788  0.1336  0.0766
 1338SOL    HW115473   1.961   4.524  15.702  0.4629 -0.5494  0.7223
 1338SOL    HW215474   1.839   4.586  15.648  0.6115  0.0067 -0.1095
 1339SOL     OW15475   0.389   1.493   2.506  0.3109  0.1365 -0.8410
 1339SOL    HW115476   0.346   1.467   2.587  1.0617 -0.9705 -0.8025
 1339SOL    HW215477   0.455   1.548   2.549 -0.5530 -0.3363  1.0900
 1340SOL     OW15478   2.726   3.828   5.262 -0.0176 -0.0956 -0.5705
 1340SOL    HW115479   2.685   3.774   5.331 -4.0226  2.7958 -0.6837
 1340SOL    HW215480   2.724   3.916   5.299 -0.1176 -1.3983  2.6275
 1341SOL     OW15481   1.926   2.686  17.326  0.2127  0.2100  0.1047
 1341SOL    HW115482   1.952   2.727  17.408 -1.5059 -0.6759  1.0742
 1341SOL    HW215483   1.831   2.691  17.335  0.0182  2.1421 -3.1252
 1342SOL     OW15484   2.293   1.749   5.503 -0.1865 -0.1666  0.0136
 1342SOL    HW115485   2.361   1.682   5.512 -0.1970  0.2228  3.0586
 1342SOL    HW215486   2.215   1.694   5.515  1.1010 -2.2256 -1.0079
 1343SOL     OW15487   1.855   2.801   6.874  0.1949 -0.4818 -0.0129
 1343SOL    HW115488   1.776   2.847   6.903  1.1192 -0.3124  2.2326
 1343SOL    HW215489   1.842   2.811   6.779  0.1100 -1.9413 -0.1500
 1344SOL     OW15490   3.309   3.880   6.583 -0.0801  0.1052  0.0759
 1344SOL    HW115491   3.285   3.820   6.654  2.7695 -0.3153  0.7253
 1344SOL    HW215492   3.296   3.825   6.506  0.9426  0.0075 -0.0267
 1345SOL     OW15493   4.642   4.221   6.154  0.2316 -0.3330 -0.6278
 1345SOL    HW115494   4.601   4.267   6.228 -2.1975 -1.1010 -1.5198
 1345SOL    HW215495   4.703   4.159   6.195 -1.4296 -2.8599 -1.9830
 1346SOL     OW15496   3.531   2.333   2.991  0.0895  0.5939  0.9900
 1346SOL    HW115497   3.487   2.261   3.036 -0.9868  0.3022 -0.5385
 1346SOL    HW215498   3.571   2.274   2.927  2.2115  1.6461  1.3283
 1347SOL     OW15499   2.025   0.399   1.824  1.0170 -0.0148  0.1433
 1347SOL    HW115500   2.100   0.413   1.883  0.7738 -0.3143  0.5295
 1347SOL    HW215501   1.960   0.458   1.862  0.8038 -0.2831  0.1968
 1348SOL     OW15502   3.700   1.000   6.095 -0.8482 -0.4937  0.4265
 1348SOL    HW115503   3.750   1.078   6.121 -1.9057  0.3205  0.0210
 1348SOL    HW215504   3.668   0.971   6.181 -1.2574 -2.1519 -0.2919
 1349SOL     OW15505   4.283   2.111  12.494 -0.1006 -0.0508 -0.5497
 1349SOL    HW115506   4.216   2.117  12.562  0.7571  0.5488  0.2424
 1349SOL    HW215507   4.327   2.027  12.505 -0.0323  0.0425 -0.0877
 1350SOL     OW15508   0.799   0.224   8.059  0.2503 -0.0071 -0.1021
 1350SOL    HW115509   0.816   0.297   8.119  0.1874 -0.8629  0.9548
 1350SOL    HW215510   0.717   0.187   8.092 -0.0700 -1.2892 -2.3073
 1351SOL     OW15511   1.244   1.971   8.204 -0.0371  0.1177 -0.3759
 1351SOL    HW115512   1.334   1.994   8.227 -0.4118  2.0136 -0.7252
 1351SOL    HW215513   1.197   2.053   8.187 -1.0531 -0.1587  1.1338
 1352SOL     OW15514   1.194   2.760   7.222 -0.4224 -0.3339 -0.2362
 1352SOL    HW115515   1.261   2.764   7.290 -1.5512  2.5782  0.7237
 1352SOL    HW215516   1.159   2.850   7.222 -2.7273 -1.2167 -1.2107
 1353SOL     OW15517   0.224   2.088  10.693 -0.7278  0.4140  0.0524
 1353SOL    HW115518   0.169   2.082  10.771 -2.4995 -2.3904 -1.3981
 1353SOL    HW215519   0.190   2.017  10.638 -1.6994  1.3354 -0.5252
 1354SOL     OW15520   0.135   0.415  10.976  0.5025  0.1662 -0.1923
 1354SOL    HW115521   0.106   0.489  11.029 -0.0455  0.5782 -1.0485
 1354SOL    HW215522   0.060   0.399  10.918  0.0646  1.0171  0.1258
 1355SOL     OW15523   3.565   0.585   2.404 -0.2542 -0.3762  0.0923
 1355SOL    HW115524   3.558   0.495   2.370  0.7051 -0.2654 -0.4150
 1355SOL    HW215525   3.658   0.585   2.424  0.0094  0.5144 -1.1352
 1356SOL     OW15526   4.216   3.976   1.240  0.3106 -0.1667  0.5657
 1356SOL    HW115527   4.261   4.000   1.321 -0.6234  1.5181  0.5778
 1356SOL    HW215528   4.212   4.063   1.199  0.5983 -0.1720  0.5226
 1357SOL     OW15529   0.581   2.114  15.408 -0.6375 -0.4875 -0.0243
 1357SOL    HW115530   0.669   2.084  15.429 -0.7242 -0.3622  0.5198
 1357SOL    HW215531   0.525   2.036  15.408 -1.1461 -0.1289 -0.0483
 1358SOL     OW15532   0.238   4.285   7.960  0.1265 -0.1455  0.2190
 1358SOL    HW115533   0.276   4.372   7.949 -0.5613  0.2099  0.6388
 1358SOL    HW215534   0.319   4.236   7.978 -1.0511 -1.7133  1.2934
 1359SOL     OW15535   4.583   2.829   4.026  0.5295  0.0817 -0.5090
 1359SOL    HW115536   4.506   2.806   4.078  0.9797 -0.8728 -0.2730
 1359SOL    HW215537   4.650   2.850   4.090  0.3134 -3.1772  0.7699
 1360SOL     OW15538   4.188   2.905  15.237 -0.3788 -0.0638  0.0165
 1360SOL    HW115539   4.167   2.871  15.150  1.0102  0.3512 -0.4705
 1360SOL    HW215540   4.227   2.989  15.212  3.7936 -1.9437  0.2306
 1361SOL     OW15541   4.714   2.681   3.053  0.3594  0.4846  0.2191
 1361SOL    HW115542   4.690   2.762   3.008  0.2590 -0.0620 -0.6945
 1361SOL    HW215543   4.722   2.711   3.144 -0.5643 -2.9586  1.4544
 1362SOL     OW15544   2.038   4.711   9.323 -0.0187 -0.0581 -0.1666
 1362SOL    HW115545   1.975   4.685   9.256 -0.2251 -1.9542  0.7635
 1362SOL    HW215546   1.985   0.041   9.378  0.4620 -0.1207  0.3572
 1363SOL     OW15547   4.138   3.001   9.744  0.1125  0.1741 -0.2627
 1363SOL    HW115548   4.092   2.933   9.793 -0.0110  0.3494 -0.1347
 1363SOL    HW215549   4.197   2.956   9.683 -2.6383 -0.5739 -2.3347
 1364SOL     OW15550   3.245   0.133   3.467 -0.4962  0.8679 -0.2651
 1364SOL    HW115551   3.160   0.150   3.428  0.0107 -0.2710 -1.8453
 1364SOL    HW215552   3.306   0.120   3.395 -1.1003 -0.0466 -0.6150
 1365SOL     OW15553   3.073   1.306   8.804 -0.8333 -0.1640 -0.2989
 1365SOL    HW115554   3.018   1.316   8.881 -1.2629 -1.1050 -0.4793
 1365SOL    HW215555   3.037   1.223   8.773 -2.2422 -0.5405  2.3278
 1366SOL     OW15556   4.633   4.578  16.433 -0.1749  0.1536 -0.4646
 1366SOL    HW115557   4.675   4.497  16.404  0.0361 -0.5059  1.7266
 1366SOL    HW215558   4.705   4.620  16.480 -1.5220  2.0944 -0.1295
 1367SOL     OW15559   3.733   3.809   3.580  0.0991  0.6265  0.2395
 1367SOL    HW115560   3.652   3.829   3.534 -0.0180  1.0045  0.6106
 1367SOL    HW215561   3.758   3.724   3.544 -0.6186 -0.5488  2.4720
 1368SOL     OW15562   1.464   0.794   9.707  0.2657  0.6663 -0.5148
 1368SOL    HW115563   1.471   0.884   9.678  4.0141  1.0926  1.6579
 1368SOL    HW215564   1.485   0.741   9.630 -3.2988 -1.5138  0.0285
 1369SOL     OW15565   1.434   2.324   8.370  0.0372  0.0050  0.3261
 1369SOL    HW115566   1.510   2.296   8.421 -0.3464 -0.5147  0.6070
 1369SOL    HW215567   1.366   2.323   8.437 -1.0322  1.1987 -0.7364
 1370SOL     OW15568   2.194   1.041  15.090 -0.4262  0.9482 -0.0834
 1370SOL    HW115569   2.287   1.058  15.100 -0.7021  2.2616  0.2522
 1370SOL    HW215570   2.200   0.949  15.061 -1.6387  0.4129  1.3693
 1371SOL     OW15571   0.556   3.605   7.735  0.4060 -0.9919  0.6558
 1371SOL    HW115572   0.515   3.634   7.817  0.2267  1.3285 -0.2495
 1371SOL    HW215573   0.504   3.528   7.714  0.6811 -0.0671 -3.4016
 1372SOL     OW15574   2.176   4.028   5.484 -0.2367 -0.4721  0.0245
 1372SOL    HW115575   2.261   4.047   5.525 -1.6426  1.7854  1.9242
 1372SOL    HW215576   2.119   4.061   5.554 -1.3114 -2.5699  0.1334
 1373SOL     OW15577   4.106   1.017   2.566 -0.4781 -0.0183 -0.2114
 1373SOL    HW115578   4.111   0.987   2.475 -2.7076  0.2374 -0.4187
 1373SOL    HW215579   4.198   1.041   2.581  0.1631 -2.2127 -0.6968
 1374SOL     OW15580   4.434   1.852   8.840 -0.0873 -0.2007 -0.1099
 1374SOL    HW115581   4.511   1.908   8.847  0.6142 -0.9972 -1.4534
 1374SOL    HW215582   4.455   1.801   8.762 -0.5085  0.9127 -0.9518
 1375SOL     OW15583   2.989   2.940   4.483 -0.0443 -0.4948 -0.1022
 1375SOL    HW115584   3.028   2.989   4.555 -1.3309 -2.6971  2.1169
 1375SOL    HW215585   2.918   2.895   4.529 -0.5123 -1.4032 -1.6736
 1376SOL     OW15586   3.396   4.160   3.041  0.5821 -0.1350 -0.0159
 1376SOL    HW115587   3.475   4.150   3.094  0.6358  1.0765  0.1564
 1376SOL    HW215588   3.356   4.084   3.082 -2.4431  0.0403 -2.6346
 1377SOL     OW15589   0.700   3.033  10.766 -0.3781  0.2916 -0.3876
 1377SOL    HW115590   0.649   3.112  10.745 -0.2653  0.3296 -0.5148
 1377SOL    HW215591   0.698   2.989  10.681 -1.1862  0.1176 -0.2811
 1378SOL     OW15592   2.000   1.718   1.602 -0.3785 -0.0500 -0.3820
 1378SOL    HW115593   2.065   1.788   1.604  0.7667 -1.0769 -1.6439
 1378SOL    HW215594   1.914   1.760   1.596 -0.9520 -0.8115  2.6268
 1379SOL     OW15595   1.936   0.013   6.782 -0.1743 -0.0885  0.1301
 1379SOL    HW115596   1.999   0.025   6.711 -0.2114  0.6372  0.2249
 1379SOL    HW215597   1.870   0.078   6.758 -0.6199  0.0172  1.6488
 1380SOL     OW15598   0.180   1.298  13.734  0.1256  0.5806  0.7378
 1380SOL    HW115599   0.125   1.372  13.760  1.9820  2.7155 -1.3149
 1380SOL    HW215600   0.143   1.272  13.650  0.8031  0.4992  0.4641
 1381SOL     OW15601   0.344   3.118   4.503 -0.1198  0.5386 -0.0089
 1381SOL    HW115602   0.301   3.125   4.418 -0.9733  0.6173  0.4380
 1381SOL    HW215603   0.270   3.134   4.561  1.0966  3.2790  0.7803
 1382SOL     OW15604   1.625   2.580  14.598  0.2010 -0.4190 -0.0623
 1382SOL    HW115605   1.627   2.676  14.599 -1.0663 -0.3757 -0.9723
 1382SOL    HW215606   1.570   2.569  14.520  0.9394  3.2581 -1.1100
 1383SOL     OW15607   3.524   0.086   7.535  0.1438  0.5350 -0.2201
 1383SOL    HW115608   3.590   0.117   7.474 -0.4974  2.4291  0.0193
 1383SOL    HW215609   3.450   0.085   7.474  1.1740  3.3245 -1.5134
 1384SOL     OW15610   2.979   3.536   1.442 -0.3579  0.4312  0.1504
 1384SOL    HW115611   3.039   3.539   1.517 -1.4940  0.1221  1.0825
 1384SOL    HW215612   2.925   3.615   1.444 -1.1633 -0.1938  3.0251
 1385SOL     OW15613   4.633   3.039  14.988  0.2482 -0.8044  0.4184
 1385SOL    HW115614   4.614   3.042  15.082 -0.3915  0.0410  0.2668
 1385SOL    HW215615   4.725   3.065  14.999 -0.1530  0.3057  1.2613
 1386SOL     OW15616   4.178   1.142   8.915 -0.2031 -0.4274 -0.2504
 1386SOL    HW115617   4.262   1.101   8.937  0.2235  0.0535 -0.9626
 1386SOL    HW215618   4.166   1.192   8.995  1.7245 -0.6092  0.1434
 1387SOL     OW15619   1.866   3.259  15.027 -0.0207 -0.1628  0.1275
 1387SOL    HW115620   1.849   3.260  15.122  0.3952 -0.2102  0.2025
 1387SOL    HW215621   1.958   3.284  15.035  0.2456 -1.5059  1.3355
 1388SOL     OW15622   1.083   1.532   5.611 -0.1033  0.0808 -0.0942
 1388SOL    HW115623   1.116   1.622   5.614 -0.6255  0.3057 -1.0427
 1388SOL    HW215624   1.151   1.466   5.604 -1.1066 -0.9563 -0.0380
 1389SOL     OW15625   2.653   2.012  13.335  0.0126 -0.0769 -0.3619
 1389SOL    HW115626   2.638   2.091  13.283 -2.6965 -0.3942 -0.0547
 1389SOL    HW215627   2.748   2.019  13.336  0.1192 -2.0066  2.3152
 1390SOL     OW15628   2.718   3.794   2.855  0.3811 -0.0055 -0.3304
 1390SOL    HW115629   2.785   3.850   2.817 -0.0585 -0.4144 -1.7205
 1390SOL    HW215630   2.714   3.716   2.799  0.9558 -0.1630 -0.1506
 1391SOL     OW15631   0.422   0.100   7.360 -0.1824  0.4413  0.0370
 1391SOL    HW115632   0.498   0.142   7.319 -0.8552  0.0176 -1.6294
 1391SOL    HW215633   0.423   0.013   7.320  0.7234  0.8170 -0.7454
 1392SOL     OW15634   2.458   3.785  16.681 -0.2694  0.0880 -0.1708
 1392SOL    HW115635   2.547   3.820  16.675 -0.5467  0.4545 -2.1773
 1392SOL    HW215636   2.407   3.865  16.666 -1.8879 -0.6777  1.3607
 1393SOL     OW15637   0.327   4.170  14.838  0.3133  0.1970 -0.6245
 1393SOL    HW115638   0.393   4.131  14.781  1.5149  1.1869  0.0828
 1393SOL    HW215639   0.353   4.124  14.918 -0.1472 -0.8676 -1.0848
 1394SOL     OW15640   3.441   1.318   3.052 -0.5688 -0.1256  0.1983
 1394SOL    HW115641   3.438   1.223   3.037  2.0644  0.0281 -1.2421
 1394SOL    HW215642   3.375   1.329   3.120 -0.4615 -0.1673  0.3081
 1395SOL     OW15643   3.190   2.793   6.257 -0.6172  0.2649  0.0371
 1395SOL    HW115644   3.100   2.762   6.264 -0.9187  2.0672  3.8454
 1395SOL    HW215645   3.192   2.855   6.184  0.0768  1.7151  1.2912
 1396SOL     OW15646   2.816   0.710  11.410  0.1390 -0.4952  0.7394
 1396SOL    HW115647   2.796   0.627  11.366 -0.6293  0.3590 -0.5155
 1396SOL    HW215648   2.771   0.693  11.492 -0.8954  1.5250  0.5812
 1397SOL     OW15649   3.237   0.083   1.936 -0.5257  0.6073 -0.0543
 1397SOL    HW115650   3.285   0.166   1.930  0.9835 -0.1417  1.7583
 1397SOL    HW215651   3.158   0.096   1.989 -0.6565  1.8303 -0.5520
 1398SOL     OW15652   2.877   2.007  14.110 -0.0318 -0.1243  0.1193
 1398SOL    HW115653   2.857   1.913  14.107 -2.1293  0.2876  1.0611
 1398SOL    HW215654   2.948   2.017  14.047  1.9387  0.1869  2.3766
 1399SOL     OW15655   1.129   0.004  13.216 -0.3261 -0.2453  0.0056
 1399SOL    HW115656   1.046   4.695  13.249 -1.0747  0.7356 -0.8146
 1399SOL    HW215657   1.155   0.057  13.291  2.2598 -0.4686 -0.7181
 1400SOL     OW15658   1.004   2.715   6.060  0.2565  0.6252 -0.7959
 1400SOL    HW115659   0.978   2.799   6.098 -1.7455 -0.7722  0.8782
 1400SOL    HW215660   0.949   2.653   6.107 -0.3048  0.9009 -1.0917
 1401SOL     OW15661   3.559   4.285   0.175 -0.4257  0.1383  0.1377
 1401SOL    HW115662   3.616   4.362   0.169 -0.5448  0.1323 -1.1511
 1401SOL    HW215663   3.633   4.225   0.169  0.4436  1.3969 -1.7491
 1402SOL     OW15664   4.646   1.400   2.374 -0.0402  0.2618  0.8511
 1402SOL    HW115665   4.593   1.393   2.295  2.4921 -1.0044 -0.6966
 1402SOL    HW215666   4.602   1.467   2.426 -0.5840 -0.6280  1.5323
 1403SOL     OW15667   1.445   3.128   6.598  0.0389  0.7165 -0.0852
 1403SOL    HW115668   1.532   3.135   6.560 -0.0294  1.6472 -0.0658
 1403SOL    HW215669   1.416   3.040   6.572 -1.0656  1.6545 -2.0522
 1404SOL     OW15670   3.989   2.585   4.834 -0.4419  0.1565  0.1113
 1404SOL    HW115671   4.021   2.667   4.871  0.0325 -1.3324  2.9226
 1404SOL    HW215672   4.073   2.540   4.824 -0.4623  0.1368  0.0262
 1405SOL     OW15673   3.848   0.479   4.189 -0.0932 -0.6673 -0.6313
 1405SOL    HW115674   3.932   0.435   4.182  1.5632  2.4626 -0.4293
 1405SOL    HW215675   3.885   0.563   4.215  3.3590 -2.1282 -0.8763
 1406SOL     OW15676   1.923   4.651   1.497  0.9544  0.3717  0.5716
 1406SOL    HW115677   1.962   4.605   1.572 -2.8903 -2.5362  0.8059
 1406SOL    HW215678   1.832   4.666   1.522  1.0835 -1.3220  2.0907
 1407SOL     OW15679   1.975   2.637  12.009  0.0611  0.4608 -0.4523
 1407SOL    HW115680   1.951   2.577  12.080 -2.8774  2.6763  0.4658
 1407SOL    HW215681   2.024   2.702  12.059 -0.4043  1.0443 -0.7528
 1408SOL     OW15682   4.613   4.295  14.188 -0.1271  0.0363  0.1186
 1408SOL    HW115683   4.674   4.369  14.195 -0.6439  0.6815 -2.3096
 1408SOL    HW215684   4.616   4.277  14.094 -0.6778 -1.3033  0.3581
 1409SOL     OW15685   1.865   1.919  13.541 -0.0013 -1.0732  0.4976
 1409SOL    HW115686   1.888   1.923  13.633  2.6603  1.9931 -0.3169
 1409SOL    HW215687   1.821   1.999  13.513  1.0330 -0.2854  1.1333
 1410SOL     OW15688   3.622   1.833   9.635 -0.1013  0.1229 -0.2610
 1410SOL    HW115689   3.698   1.868   9.681 -0.8304  1.9152 -0.4520
 1410SOL    HW215690   3.666   1.763   9.585 -0.3555 -0.0811 -0.2010
 1411SOL     OW15691   1.529   3.226  16.878 -0.0863  0.4017  0.1631
 1411SOL    HW115692   1.549   3.246  16.786  2.6971  0.1540  0.7026
 1411SOL    HW215693   1.455   3.283  16.901  0.4365  0.6913  1.1438
 1412SOL     OW15694   2.024   3.225   8.958 -0.9163  0.0874 -0.0784
 1412SOL    HW115695   2.061   3.255   9.042 -1.5019  1.6647 -0.3776
 1412SOL    HW215696   2.097   3.209   8.898 -1.0118 -1.9413  0.3442
 1413SOL     OW15697   1.760   3.497   3.129 -0.0028 -0.2696 -0.1033
 1413SOL    HW115698   1.665   3.506   3.134  0.0042 -1.5248  2.1395
 1413SOL    HW215699   1.776   3.588   3.102 -0.4456 -1.1014 -3.1078
 1414SOL     OW15700   3.455   2.687  13.208 -0.8339 -0.2107  0.4744
 1414SOL    HW115701   3.444   2.705  13.301  1.7806 -1.4343  0.9929
 1414SOL    HW215702   3.546   2.665  13.189 -1.1262 -2.4479  1.6625
 1415SOL     OW15703   3.218   3.939  17.296  0.6772 -0.0347 -0.4059
 1415SOL    HW115704   3.274   3.926  17.219 -0.3554 -1.6799 -0.8896
 1415SOL    HW215705   3.178   4.024  17.277 -3.4265 -1.2441  2.6772
 1416SOL     OW15706   1.886   1.473   7.093 -0.3526 -0.1663 -0.2979
 1416SOL    HW115707   1.967   1.462   7.043  1.0710 -0.0567  1.9671
 1416SOL    HW215708   1.890   1.401   7.156 -2.5062 -0.3737 -0.4172
 1417SOL     OW15709   2.282   3.597  13.695 -0.1281  0.2571  0.1219
 1417SOL    HW115710   2.201   3.596  13.746  0.2669  2.6311  0.7736
 1417SOL    HW215711   2.295   3.691  13.684  1.2962 -0.0380 -0.6489
 1418SOL     OW15712   0.751   1.841   5.775  0.4843 -0.7057 -0.2827
 1418SOL    HW115713   0.695   1.763   5.766 -1.1157  0.2296  1.8681
 1418SOL    HW215714   0.789   1.824   5.861 -0.9772  1.9605  0.8591
 1419SOL     OW15715   2.636   4.691   6.485  0.6920  0.3835  0.0533
 1419SOL    HW115716   2.707   4.628   6.473  1.0254  0.8211 -0.2831
 1419SOL    HW215717   2.580   4.649   6.550  1.4656 -1.8203 -0.6930
 1420SOL     OW15718   1.774   3.617   3.915 -0.1231  0.4576 -0.0659
 1420SOL    HW115719   1.721   3.695   3.930  0.0988  0.8884 -1.5069
 1420SOL    HW215720   1.710   3.549   3.936  2.7617 -1.9122  1.1854
 1421SOL     OW15721   2.649   0.730  10.765  0.0705 -0.1392 -0.0332
 1421SOL    HW115722   2.741   0.713  10.745  0.3104  1.5915 -0.4046
 1421SOL    HW215723   2.671   0.803  10.823 -2.1104  0.3865  0.1593
 1422SOL     OW15724   2.399   1.392   3.804  0.0739  0.2128  0.3634
 1422SOL    HW115725   2.485   1.427   3.781  1.0866 -1.5702  1.4435
 1422SOL    HW215726   2.336   1.452   3.764 -0.1347 -1.2072 -1.3763
 1423SOL     OW15727   1.576   4.651   7.542  0.3342 -0.1362  0.5887
 1423SOL    HW115728   1.521   4.577   7.566 -0.7014  0.5090  0.2214
 1423SOL    HW215729   1.527   4.711   7.598  1.5300 -0.4606  1.9697
 1424SOL     OW15730   3.172   0.688   7.296 -0.3725  0.4419 -0.8876
 1424SOL    HW115731   3.091   0.643   7.272 -0.9197  0.2383  1.3929
 1424SOL    HW215732   3.165   0.767   7.243 -1.0446 -0.8858 -2.8217
 1425SOL     OW15733   4.294   1.544   5.271 -0.8495  0.6820 -0.2101
 1425SOL    HW115734   4.359   1.500   5.326 -2.5778 -1.1921  0.2954
 1425SOL    HW215735   4.352   1.576   5.202 -0.2445 -0.9378 -0.4384
 1426SOL     OW15736   3.903   1.837   6.018 -0.1638 -0.0902 -0.6755
 1426SOL    HW115737   3.925   1.883   5.937  0.5962 -0.8113 -0.8812
 1426SOL    HW215738   3.812   1.818   5.998  0.5762 -1.3750 -2.9448
 1427SOL     OW15739   1.197   2.456   3.010 -0.2985  0.1381  0.1239
 1427SOL    HW115740   1.161   2.380   3.056  2.6299 -0.8809  0.7116
 1427SOL    HW215741   1.291   2.445   3.023 -0.1434  0.3422 -0.8046
 1428SOL     OW15742   2.125   1.504  16.661  0.2894 -1.2214  0.1616
 1428SOL    HW115743   2.102   1.433  16.602 -0.5541  0.1099 -1.0893
 1428SOL    HW215744   2.167   1.457  16.734  0.1316 -0.4654  0.7451
 1429SOL     OW15745   0.840   2.194  15.595 -0.0689 -0.3039 -0.1646
 1429SOL    HW115746   0.868   2.161  15.680 -1.4482  2.4429  1.3134
 1429SOL    HW215747   0.807   2.283  15.605 -3.1995 -1.3471 -1.1771
 1430SOL     OW15748   4.318   2.910  14.032 -0.6722 -0.1090 -0.5529
 1430SOL    HW115749   4.372   2.867  14.098  1.1266  0.7889 -1.4114
 1430SOL    HW215750   4.245   2.932  14.089 -0.9728  1.0658 -1.3888
 1431SOL     OW15751   3.093   0.853   7.522  0.2379 -0.3327  0.0582
 1431SOL    HW115752   3.053   0.905   7.453  2.2854  1.0264 -0.1144
 1431SOL    HW215753   3.157   0.809   7.466  1.0757  3.3231 -1.8670
 1432SOL     OW15754   2.109   2.229   5.771  0.0634  0.3117 -0.0953
 1432SOL    HW115755   2.050   2.275   5.831  1.5242  0.3751  1.2836
 1432SOL    HW215756   2.151   2.163   5.825  0.6433  1.1569  0.4986
 1433SOL     OW15757   3.839   1.954   5.398  0.1925 -0.0170 -0.3790
 1433SOL    HW115758   3.842   2.029   5.458  0.0663  0.3662 -0.8498
 1433SOL    HW215759   3.929   1.943   5.367 -0.2233 -1.2025 -1.2007
 1434SOL     OW15760   2.010   0.277   4.574 -0.1619 -0.9202 -0.2040
 1434SOL    HW115761   2.086   0.229   4.541 -0.0432 -0.7435 -0.1890
 1434SOL    HW215762   1.954   0.204   4.601 -2.5860  1.1893  0.4975
 1435SOL     OW15763   3.258   0.075   8.097  0.1312 -0.2816 -0.2027
 1435SOL    HW115764   3.267   4.724   8.043 -0.0233 -0.1070 -0.4817
 1435SOL    HW215765   3.326   0.056   8.162 -0.5008 -0.6908  0.3328
 1436SOL     OW15766   1.227   0.752   3.338 -0.2634  0.3404 -0.0244
 1436SOL    HW115767   1.200   0.761   3.429 -1.5529  0.4336 -0.4069
 1436SOL    HW215768   1.202   0.841   3.316 -1.1146 -0.2783 -1.6260
 1437SOL     OW15769   3.549   3.050   7.135 -0.2252  0.0031  0.5183
 1437SOL    HW115770   3.601   2.969   7.131  0.6607  0.5680  0.4713
 1437SOL    HW215771   3.491   3.038   7.210 -0.7148 -0.1925  0.1022
 1438SOL     OW15772   2.537   0.260   4.674 -0.1402  0.0667 -0.9224
 1438SOL    HW115773   2.603   0.192   4.680  0.3491  0.6738  0.6359
 1438SOL    HW215774   2.485   0.236   4.597 -0.8888 -0.1598 -0.3489
 1439SOL     OW15775   0.619   4.368  13.356  0.3242  0.0021 -0.2687
 1439SOL    HW115776   0.608   4.341  13.448 -0.2774 -0.3548 -0.4471
 1439SOL    HW215777   0.533   4.357  13.315  1.1001  0.6869 -2.0465
 1440SOL     OW15778   2.973   0.046   4.809 -0.7738  0.0279 -0.1496
 1440SOL    HW115779   3.066   0.069   4.818 -0.3937 -0.7421 -2.1134
 1440SOL    HW215780   2.957   0.019   4.900 -1.0854 -0.3245 -0.3098
 1441SOL     OW15781   0.357   0.119   6.703 -0.9466 -0.3952 -0.0179
 1441SOL    HW115782   0.312   0.102   6.786 -2.8125  0.2918 -0.8674
 1441SOL    HW215783   0.322   0.048   6.650 -0.5345 -1.7723  1.5657
 1442SOL     OW15784   1.664   0.952   9.221  0.4239  0.3405  1.2381
 1442SOL    HW115785   1.739   0.982   9.170  1.3388 -0.2187  2.2688
 1442SOL    HW215786   1.642   1.033   9.267 -1.2478  0.9009 -0.5205
 1443SOL     OW15787   1.925   0.558   6.575  0.4620 -0.2216 -0.5867
 1443SOL    HW115788   1.896   0.523   6.659 -1.2742  0.2773 -0.9878
 1443SOL    HW215789   1.858   0.617   6.541  1.2365  0.2460 -1.3024
 1444SOL     OW15790   2.945   0.964  13.572 -0.2513  0.1563  0.4024
 1444SOL    HW115791   3.009   0.895  13.588 -0.3199 -0.1839 -0.8829
 1444SOL    HW215792   2.886   0.962  13.647 -1.3540 -1.0468 -0.5102
 1445SOL     OW15793   1.727   3.108  17.057  0.0044  0.1984  0.6558
 1445SOL    HW115794   1.669   3.159  17.000 -0.9499 -0.1398  1.3178
 1445SOL    HW215795   1.792   3.078  16.994 -0.6332  1.0285 -0.3963
 1446SOL     OW15796   0.851   0.273  12.374 -0.6550  0.4823  0.6533
 1446SOL    HW115797   0.901   0.213  12.319  1.4008  0.6136  2.3586
 1446SOL    HW215798   0.781   0.293  12.312  2.9600 -0.2327 -3.6050
 1447SOL     OW15799   3.491   3.056   0.084 -0.5578 -0.2311  0.2532
 1447SOL    HW115800   3.575   3.088   0.050  0.9808 -0.7316  3.5841
 1447SOL    HW215801   3.501   2.961   0.079  1.2754 -0.0265 -0.1165
 1448SOL     OW15802   2.497   4.106   5.179 -0.4703  0.3244  0.1887
 1448SOL    HW115803   2.478   4.012   5.172  0.1205  0.2583 -0.5362
 1448SOL    HW215804   2.496   4.144   5.091 -1.5587 -0.3884 -0.1084
 1449SOL     OW15805   4.392   1.247  14.813  0.6226  0.0365  0.0556
 1449SOL    HW115806   4.406   1.299  14.734 -1.8472  0.4378 -0.1276
 1449SOL    HW215807   4.434   1.166  14.782 -2.9153 -1.5540 -0.5831
 1450SOL     OW15808   2.548   0.301   2.143  0.0069  0.2154  0.2153
 1450SOL    HW115809   2.599   0.236   2.192 -3.5899 -2.5151  0.3185
 1450SOL    HW215810   2.460   0.269   2.126 -0.7635  2.4949 -0.0561
 1451SOL     OW15811   1.476   0.959  11.465 -0.1311 -0.2733  0.5607
 1451SOL    HW115812   1.490   1.054  11.464  0.6297 -0.4102 -0.7263
 1451SOL    HW215813   1.432   0.951  11.380 -1.4305  2.3790  0.9832
 1452SOL     OW15814   4.706   1.871  12.367 -0.0053  0.0814  0.0668
 1452SOL    HW115815   0.027   1.789  12.373  0.6536  0.4328 -0.5142
 1452SOL    HW215816   0.046   1.935  12.346  0.8858 -0.6942  0.6072
 1453SOL     OW15817   0.339   4.299   2.476  0.0333 -0.9014 -0.4715
 1453SOL    HW115818   0.388   4.362   2.422  0.3648 -1.8812 -1.3033
 1453SOL    HW215819   0.255   4.346   2.477  0.5112 -0.1303  3.2559
 1454SOL     OW15820   3.181   3.277   4.281  0.1157  0.5114 -0.3374
 1454SOL    HW115821   3.104   3.298   4.333  0.5337 -0.5654  0.7100
 1454SOL    HW215822   3.147   3.296   4.194 -0.7798 -3.1882 -0.8204
 1455SOL     OW15823   0.540   4.365   9.859 -0.0634  0.0258  0.2425
 1455SOL    HW115824   0.611   4.306   9.882 -0.4088  0.0838  1.4613
 1455SOL    HW215825   0.530   4.333   9.769  0.6985 -0.5519  0.3666
 1456SOL     OW15826   3.707   4.210   6.850  0.0721  0.0093  0.0240
 1456SOL    HW115827   3.669   4.128   6.883  1.0955 -0.1548  0.8010
 1456SOL    HW215828   3.785   4.217   6.905 -1.0780  0.6499  1.5777
 1457SOL     OW15829   0.835   0.883   0.744 -0.0178 -0.1580 -0.2558
 1457SOL    HW115830   0.824   0.802   0.794  0.4542  0.0829  0.2508
 1457SOL    HW215831   0.887   0.856   0.669 -1.1076 -3.1725  0.0811
 1458SOL     OW15832   2.946   3.015   1.775  0.5764 -0.2751  0.3310
 1458SOL    HW115833   2.891   3.083   1.736  2.2769  2.0604  1.9860
 1458SOL    HW215834   3.019   3.059   1.819  0.4437 -1.1925  1.4573
 1459SOL     OW15835   3.421   0.739   6.591 -0.0130 -0.1837 -0.4820
 1459SOL    HW115836   3.329   0.717   6.577  0.2700 -1.9743  0.5762
 1459SOL    HW215837   3.427   0.722   6.685 -0.2576  0.3520 -0.3680
 1460SOL     OW15838   0.253   1.513   5.012 -0.4711 -0.1412  0.4318
 1460SOL    HW115839   0.340   1.530   5.048  0.2051  0.5655 -1.5356
 1460SOL    HW215840   0.205   1.473   5.084  1.2107 -0.1991  1.5201
 1461SOL     OW15841   3.401   3.628  17.707  0.4592 -0.1679 -0.1928
 1461SOL    HW115842   3.342   3.587  17.645 -1.1696  0.4241  0.9748
 1461SOL    HW215843   3.350   3.697   0.039 -0.1045 -1.1019  0.6194
 1462SOL     OW15844   0.647   4.710   1.960  0.4507 -0.1561  0.0874
 1462SOL    HW115845   0.582   4.705   2.030  0.9316  0.7710  0.6131
 1462SOL    HW215846   0.603   4.681   1.880  1.4354 -0.5286 -0.3217
 1463SOL     OW15847   1.657   0.759   3.575 -0.3297 -0.6095  0.5886
 1463SOL    HW115848   1.597   0.737   3.504  0.0099  0.5138 -0.0437
 1463SOL    HW215849   1.627   0.846   3.602 -1.6070 -0.0101 -2.8353
 1464SOL     OW15850   1.451   0.370   9.792 -0.0174 -0.6453  0.3033
 1464SOL    HW115851   1.542   0.361   9.761 -0.2246 -0.9855 -0.2049
 1464SOL    HW215852   1.409   0.410   9.716 -0.3195  1.6336  1.6918
 1465SOL     OW15853   4.093   3.135   3.296 -0.0899 -0.2874  0.1795
 1465SOL    HW115854   4.082   3.081   3.374  0.0584 -1.6145 -0.7275
 1465SOL    HW215855   4.075   3.077   3.223 -0.1929  2.9865 -2.3688
 1466SOL     OW15856   1.617   0.040   3.837  0.0288 -0.2051  0.7225
 1466SOL    HW115857   1.667   0.114   3.871 -0.7671 -1.0115  3.6269
 1466SOL    HW215858   1.661   4.692   3.877 -3.2941 -1.0863  2.7356
 1467SOL     OW15859   3.705   1.235   3.964 -0.2970  0.2652  0.5935
 1467SOL    HW115860   3.718   1.322   3.927  1.2361 -0.4559 -0.5746
 1467SOL    HW215861   3.734   1.257   4.053 -1.2844 -0.5410  1.1104
 1468SOL     OW15862   0.136   3.401   6.177 -0.6225 -0.6763 -0.6057
 1468SOL    HW115863   0.165   3.338   6.243  0.4644 -1.8195 -2.1911
 1468SOL    HW215864   0.218   3.420   6.131  0.1937  1.0793  1.5781
 1469SOL     OW15865   0.811   1.814   0.146  0.1097 -0.5278  0.6200
 1469SOL    HW115866   0.833   1.881   0.081  1.4341 -2.4282 -0.8855
 1469SOL    HW215867   0.774   1.866   0.217 -0.2942  0.7759 -0.5375
 1470SOL     OW15868   0.799   1.416   9.472  0.1776 -0.6494  0.2168
 1470SOL    HW115869   0.747   1.456   9.403  1.1949 -0.4905 -0.4519
 1470SOL    HW215870   0.776   1.323   9.481  3.5890 -1.6831 -1.6589
 1471SOL     OW15871   4.583   4.325   7.141  0.0223 -0.6387  0.2366
 1471SOL    HW115872   4.637   4.272   7.082 -1.1964  0.4774 -1.8834
 1471SOL    HW215873   4.655   4.382   7.171 -1.3141  0.9471  0.4336
 1472SOL     OW15874   2.470   3.099   3.117 -0.4850  0.1605  0.0072
 1472SOL    HW115875   2.510   3.175   3.160  3.0117 -0.6999 -1.7387
 1472SOL    HW215876   2.538   3.036   3.091  1.3406  0.5323  3.9166
 1473SOL     OW15877   0.722   3.592   5.243 -0.2205 -0.6527  0.6495
 1473SOL    HW115878   0.716   3.688   5.247 -3.0354 -0.7581 -1.6354
 1473SOL    HW215879   0.675   3.573   5.324 -1.2732 -1.4184 -0.1492
 1474SOL     OW15880   4.295   3.751   8.641  0.3056 -0.1166 -0.7393
 1474SOL    HW115881   4.233   3.681   8.619  0.0867 -0.3127  0.4868
 1474SOL    HW215882   4.359   3.720   8.577 -0.3320 -3.2878  0.1665
 1475SOL     OW15883   3.825   2.077   6.451  0.1659  0.7311  0.4133
 1475SOL    HW115884   3.886   2.084   6.525 -1.8669 -0.2392  2.1870
 1475SOL    HW215885   3.743   2.085   6.501 -0.7514 -1.7534 -0.6986
 1476SOL     OW15886   3.701   3.219  11.721  0.2688  0.4012  0.1190
 1476SOL    HW115887   3.632   3.236  11.657  0.6101  0.2017 -0.2988
 1476SOL    HW215888   3.721   3.308  11.750  0.4274  0.8022 -1.2345
 1477SOL     OW15889   2.143   3.052   0.767  0.1111  0.2703  0.2427
 1477SOL    HW115890   2.112   2.970   0.728 -1.3773  1.3650 -0.8715
 1477SOL    HW215891   2.235   3.036   0.788 -0.4915 -2.1528  1.0159
 1478SOL     OW15892   4.617   1.886   8.243 -0.3059  0.0561  0.4589
 1478SOL    HW115893   4.622   1.961   8.184  2.7532 -0.5741 -0.0584
 1478SOL    HW215894   4.595   1.820   8.178  1.2708  0.8312 -0.8513
 1479SOL     OW15895   0.607   0.208  12.447  0.7146 -0.2358 -0.4632
 1479SOL    HW115896   0.629   0.123  12.409  2.5072 -0.5261  1.2150
 1479SOL    HW215897   0.694   0.243  12.466  0.7474 -0.5765  0.0197
 1480SOL     OW15898   3.833   4.256  12.636  0.1480 -0.2138 -0.0495
 1480SOL    HW115899   3.833   4.347  12.609  3.2584 -0.7702 -1.8494
 1480SOL    HW215900   3.921   4.234  12.666  0.3012  1.3223  0.6133
 1481SOL     OW15901   0.580   4.056   7.822 -0.4107 -0.4483 -0.5134
 1481SOL    HW115902   0.614   3.984   7.769  1.4225 -0.3519  0.5149
 1481SOL    HW215903   0.659   4.109   7.830 -1.7630  1.2700  1.5452
 1482SOL     OW15904   3.139   3.586   3.883  0.2136 -0.4209 -0.4192
 1482SOL    HW115905   3.046   3.604   3.872  0.1232 -0.0268  0.9679
 1482SOL    HW215906   3.174   3.673   3.903 -0.1186 -0.3841  0.0061
 1483SOL     OW15907   1.295   4.593   3.316  0.5836  0.0312  0.1292
 1483SOL    HW115908   1.223   4.603   3.378  0.8343  1.5879  0.1761
 1483SOL    HW215909   1.254   4.631   3.238  0.8286  1.7764  0.8413
 1484SOL     OW15910   0.377   2.903   0.658 -0.4253 -0.0965  0.1862
 1484SOL    HW115911   0.461   2.908   0.702 -0.3396 -0.5168  0.0714
 1484SOL    HW215912   0.411   2.870   0.574 -1.2478 -2.1242  0.6364
 1485SOL     OW15913   1.082   2.063  11.728  0.4008  0.2593 -0.3777
 1485SOL    HW115914   1.164   2.042  11.773  0.1665 -0.9567 -0.5213
 1485SOL    HW215915   1.110   2.072  11.637 -2.2708  2.1195 -1.0190
 1486SOL     OW15916   1.177   1.006   1.575 -0.1816 -0.6191 -0.1004
 1486SOL    HW115917   1.156   1.080   1.518 -0.0293 -0.3616  0.1860
 1486SOL    HW215918   1.105   0.947   1.552 -1.5666  1.2372 -0.4833
 1487SOL     OW15919   2.148   0.137   6.626 -0.3788 -0.5968  0.9048
 1487SOL    HW115920   2.121   0.229   6.619  0.0544 -0.6481 -1.4475
 1487SOL    HW215921   2.243   0.147   6.627 -0.3671 -0.5084 -0.5875
 1488SOL     OW15922   1.434   2.448   9.112  0.1595  0.4152 -0.4313
 1488SOL    HW115923   1.500   2.493   9.165 -0.4348 -0.1365  0.7759
 1488SOL    HW215924   1.400   2.388   9.179 -1.1378  1.0728 -0.4903
 1489SOL     OW15925   3.392   2.188   6.580 -0.4748  0.5850 -0.0685
 1489SOL    HW115926   3.393   2.229   6.493  2.4796  0.1920 -0.2191
 1489SOL    HW215927   3.348   2.104   6.565 -1.9012  0.9776  1.9543
 1490SOL     OW15928   3.883   1.501   3.035  0.0591 -0.5266  0.3406
 1490SOL    HW115929   3.821   1.428   3.033  0.8264 -1.1258 -2.1955
 1490SOL    HW215930   3.960   1.454   3.066  0.2845 -0.8289 -0.6530
 1491SOL     OW15931   4.233   3.140  15.734 -0.0237 -0.2541  0.1838
 1491SOL    HW115932   4.325   3.140  15.709 -0.0736  1.5624  0.0021
 1491SOL    HW215933   4.187   3.162  15.653  0.0642  1.8875  0.7146
 1492SOL     OW15934   2.798   3.840   8.256  0.1016 -0.0948 -0.1494
 1492SOL    HW115935   2.815   3.749   8.278  4.2087  1.1875  2.0951
 1492SOL    HW215936   2.877   3.885   8.287 -0.3520  0.5514  0.0771
 1493SOL     OW15937   1.483   1.801   8.392  0.1276  0.0829 -0.1966
 1493SOL    HW115938   1.490   1.878   8.337  1.2333  0.7507  0.8633
 1493SOL    HW215939   1.539   1.821   8.467  1.1204 -0.0306 -0.8982
 1494SOL     OW15940   1.391   0.449  10.993  0.3508  0.0984  0.1958
 1494SOL    HW115941   1.312   0.403  11.019  1.1109 -1.8733 -0.9414
 1494SOL    HW215942   1.413   0.406  10.909  0.5054  1.6077 -0.5333
 1495SOL     OW15943   4.143   0.729  11.072  0.0828  0.1072  0.2026
 1495SOL    HW115944   4.224   0.682  11.090  0.5178  1.6501  2.3183
 1495SOL    HW215945   4.145   0.783  11.151 -0.1446 -1.1846  1.0818
 1496SOL     OW15946   2.942   1.489  12.983 -0.3532 -0.3674 -0.4189
 1496SOL    HW115947   2.847   1.477  12.989  0.0757 -3.0294  1.3575
 1496SOL    HW215948   2.954   1.541  12.903  2.7007  0.8396  0.8272
 1497SOL     OW15949   1.691   4.081   3.306 -0.1307 -0.4289 -0.0666
 1497SOL    HW115950   1.623   4.013   3.302  1.4107 -1.7823 -3.0059
 1497SOL    HW215951   1.651   4.139   3.371 -1.5068 -2.9961  1.3832
 1498SOL     OW15952   0.788   4.255   8.299  0.1210 -0.2428  0.4491
 1498SOL    HW115953   0.738   4.324   8.256  0.1518 -0.9611 -0.7250
 1498SOL    HW215954   0.862   4.306   8.332  0.4529 -1.7285  1.9757
 1499SOL     OW15955   0.909   3.529   6.931  0.1827  0.6570  0.1005
 1499SOL    HW115956   0.818   3.556   6.919  0.1683  0.3362 -0.5056
 1499SOL    HW215957   0.917   3.508   6.838  1.4767  1.4920  0.0365
 1500SOL     OW15958   4.337   3.786   3.201 -0.0013  0.5909 -0.4008
 1500SOL    HW115959   4.407   3.764   3.139 -1.0049 -0.0620 -1.2822
 1500SOL    HW215960   4.288   3.704   3.195  0.3179  0.2812  1.0725
 1501SOL     OW15961   3.423   0.009   8.584 -0.8470  0.1864  0.3772
 1501SOL    HW115962   3.379   0.086   8.549 -1.2393  0.5779  1.7243
 1501SOL    HW215963   3.504   4.723   8.534 -1.1370  1.1678 -0.3694
 1502SOL     OW15964   2.799   2.263   5.297  0.0113  0.2288 -0.6256
 1502SOL    HW115965   2.798   2.358   5.293 -3.7536  0.1382 -1.9346
 1502SOL    HW215966   2.724   2.246   5.354 -0.6996 -0.6318 -1.8140
 1503SOL     OW15967   2.942   2.518   6.056  0.3666  0.3664  0.0776
 1503SOL    HW115968   2.931   2.574   6.133 -1.6530  1.2659 -0.8369
 1503SOL    HW215969   2.881   2.568   6.001 -1.5397 -0.0039  1.8668
 1504SOL     OW15970   2.738   4.535   5.585  0.1646 -0.1911  0.5392
 1504SOL    HW115971   2.654   4.530   5.630 -0.5829  0.0268 -0.8290
 1504SOL    HW215972   2.711   4.526   5.493 -0.1920  0.0313  0.6220
 1505SOL     OW15973   3.872   1.209   5.078  0.2643 -0.1255  0.0065
 1505SOL    HW115974   3.858   1.114   5.081  1.8661 -0.3674  0.0594
 1505SOL    HW215975   3.930   1.225   5.003 -0.3326 -3.5172 -1.1804
 1506SOL     OW15976   0.079   0.682   8.067 -0.5366  0.3838  0.1696
 1506SOL    HW115977   0.130   0.659   8.145  0.6286  3.7591  0.4170
 1506SOL    HW215978   4.720   0.684   8.107 -0.7101 -1.1156 -0.1223
 1507SOL     OW15979   1.859   3.612   9.078  0.0376  0.2923 -0.6835
 1507SOL    HW115980   1.858   3.676   9.149 -1.5829 -1.6643  1.0571
 1507SOL    HW215981   1.946   3.577   9.098  0.2621  1.5638  0.6149
 1508SOL     OW15982   0.654   1.051   6.183 -0.6063  0.1471 -0.4495
 1508SOL    HW115983   0.619   0.981   6.129  2.8985 -0.9635 -1.2469
 1508SOL    HW215984   0.601   1.121   6.146 -1.3409 -0.9289 -1.4273
 1509SOL     OW15985   1.449   4.013   4.124 -0.2665  0.0105 -0.2917
 1509SOL    HW115986   1.380   3.946   4.128 -0.4343  0.1818 -0.3366
 1509SOL    HW215987   1.412   4.054   4.047  0.1441 -0.6310 -0.8329
 1510SOL     OW15988   0.594   4.142  15.159 -0.3952  0.2700  0.0556
 1510SOL    HW115989   0.509   4.112  15.126 -0.6403  0.5390  0.4401
 1510SOL    HW215990   0.575   4.147  15.253 -2.0292  0.7504 -0.3092
 1511SOL     OW15991   1.099   0.625  17.703 -0.5648 -0.4197  0.3869
 1511SOL    HW115992   1.152   0.590   0.063 -0.2577 -1.2511 -0.2618
 1511SOL    HW215993   1.054   0.693   0.043  0.9567  0.9181 -0.0613
 1512SOL     OW15994   0.551   1.571   8.814 -0.0736 -0.3776 -0.0098
 1512SOL    HW115995   0.534   1.571   8.720 -0.7861  0.9440  0.1206
 1512SOL    HW215996   0.554   1.664   8.836 -0.3271 -0.6999  1.3834
 1513SOL     OW15997   1.115   2.610   3.980 -0.3440 -0.9061 -0.0775
 1513SOL    HW115998   1.033   2.563   3.994 -0.3243 -0.7293  0.6072
 1513SOL    HW215999   1.098   2.655   3.897  4.1626 -2.2787 -1.7007
 1514SOL     OW16000   0.231   0.043  15.746  0.1099 -0.8742 -0.8057
 1514SOL    HW116001   0.222   0.046  15.651 -0.2642  0.4914 -0.7310
 1514SOL    HW216002   0.308   0.100  15.746  1.7322 -3.0827  1.6213
 1515SOL     OW16003   3.846   3.087   6.068 -0.0468 -0.3461 -0.0415
 1515SOL    HW116004   3.911   3.141   6.112  2.2868 -3.0769 -0.1576
 1515SOL    HW216005   3.831   3.133   5.986  1.8582  0.7170  0.2039
 1516SOL     OW16006   3.219   1.931   9.549 -0.2770 -0.7836 -0.5857
 1516SOL    HW116007   3.146   1.942   9.610  3.1780  0.1474  3.4383
 1516SOL    HW216008   3.175   1.903   9.469  0.7058  4.3238 -2.9013
 1517SOL     OW16009   2.511   3.890   4.410 -0.0605 -0.4746  0.6871
 1517SOL    HW116010   2.515   3.902   4.315 -1.2433 -0.4015  0.6458
 1517SOL    HW216011   2.483   3.976   4.443  2.1070  1.7724 -3.2631
 1518SOL     OW16012   3.626   2.489  16.072  0.0075  0.2315 -0.1712
 1518SOL    HW116013   3.703   2.448  16.111 -0.1778 -1.9876 -2.2188
 1518SOL    HW216014   3.674   2.515  15.994  1.3335 -0.9871  0.2566
 1519SOL     OW16015   3.373   0.578   7.451 -0.7481  0.5075 -0.5072
 1519SOL    HW116016   3.304   0.619   7.398  0.1958  0.6996 -1.5764
 1519SOL    HW216017   3.385   0.627   7.532 -2.1957  0.2051 -0.1146
 1520SOL     OW16018   3.714   0.384   8.602 -0.1783 -0.5320  0.3434
 1520SOL    HW116019   3.779   0.318   8.624  0.9614  0.3803 -0.2816
 1520SOL    HW216020   3.644   0.371   8.665  1.3449 -1.8054  1.7701
 1521SOL     OW16021   1.133   1.363   0.957 -0.3802  0.2545 -0.3019
 1521SOL    HW116022   1.055   1.334   1.004 -1.0856  3.3539  0.4780
 1521SOL    HW216023   1.176   1.415   1.025 -2.1058  0.4572  0.6256
 1522SOL     OW16024   3.539   0.042   5.360  0.0237  0.1941 -0.7560
 1522SOL    HW116025   3.544   4.680   5.325  1.9608 -0.5482  1.4071
 1522SOL    HW216026   3.467   0.090   5.318  0.5112  2.9344  1.5631
 1523SOL     OW16027   2.955   0.299  14.149 -1.0468  0.0058 -0.2298
 1523SOL    HW116028   2.991   0.308  14.060  0.0914 -1.9233  0.0370
 1523SOL    HW216029   3.014   0.233  14.186 -0.0908 -0.4272 -2.5073
 1524SOL     OW16030   0.504   2.954   8.760 -0.3468 -0.6225  0.1647
 1524SOL    HW116031   0.585   3.001   8.743  0.1239 -1.5434 -0.1393
 1524SOL    HW216032   0.494   2.964   8.855 -0.4177  0.2613  0.0680
 1525SOL     OW16033   2.603   4.332   7.106  0.7859 -0.7397  0.3454
 1525SOL    HW116034   2.680   4.388   7.105  0.7999 -0.7240  1.9510
 1525SOL    HW216035   2.559   4.375   7.180 -0.0244  1.0066 -1.1620
 1526SOL     OW16036   2.457   3.170   8.735  0.0830 -0.1163 -0.2841
 1526SOL    HW116037   2.405   3.245   8.706  2.9274  1.5193 -1.1444
 1526SOL    HW216038   2.494   3.206   8.816 -0.2338  0.2746 -0.3135
 1527SOL     OW16039   1.959   4.667   7.515  0.2140 -0.0844 -0.5069
 1527SOL    HW116040   1.952   4.572   7.510 -0.1334 -0.2420  2.8357
 1527SOL    HW216041   1.887   4.686   7.575 -0.3169 -0.1376 -1.1273
 1528SOL     OW16042   1.856   2.546   5.694 -0.0576  0.3676  0.0258
 1528SOL    HW116043   1.830   2.535   5.602 -0.5700  0.4079  0.1659
 1528SOL    HW216044   1.947   2.564   5.667  0.4174  0.7140  1.8601
 1529SOL     OW16045   3.618   1.060   5.309 -0.0512 -0.0750  0.0324
 1529SOL    HW116046   3.614   0.966   5.327  0.3482  0.0933  0.9968
 1529SOL    HW216047   3.590   1.048   5.218 -0.8501 -2.5050  0.6019
 1530SOL     OW16048   1.443   1.946   7.322  0.8455  0.2478  0.1130
 1530SOL    HW116049   1.381   2.016   7.300  1.4533  0.7454 -0.0140
 1530SOL    HW216050   1.519   1.989   7.282  1.1919  3.3863  4.1213
 1531SOL     OW16051   2.551   3.308   2.233  0.3264 -0.7517  0.1967
 1531SOL    HW116052   2.472   3.254   2.240 -1.0501  1.4346  1.5845
 1531SOL    HW216053   2.560   3.310   2.138  3.9332  1.2445  0.5945
 1532SOL     OW16054   0.654   3.053   5.147 -0.0397 -0.3948 -0.1450
 1532SOL    HW116055   0.682   3.141   5.174 -1.7912  0.2648 -0.4717
 1532SOL    HW216056   0.716   3.043   5.075  0.2796  1.1018 -0.0887
 1533SOL     OW16057   3.104   2.791   5.111  0.4285  0.5817  0.0019
 1533SOL    HW116058   3.015   2.763   5.132  0.3079  0.3658 -0.7858
 1533SOL    HW216059   3.130   2.837   5.190  2.5858 -0.1386 -0.2939
 1534SOL     OW16060   1.288   0.536   4.289 -0.5828 -0.0330  0.6744
 1534SOL    HW116061   1.231   0.611   4.306  0.3000  0.5372  1.0865
 1534SOL    HW216062   1.339   0.570   4.215 -1.4190 -3.3952 -1.4507
 1535SOL     OW16063   2.992   1.260   5.974  0.5502 -0.4380 -0.1007
 1535SOL    HW116064   3.070   1.294   5.931  2.0081 -0.2299  2.6574
 1535SOL    HW216065   3.022   1.215   6.053 -1.0722 -0.4240  0.5353
 1536SOL     OW16066   4.056   3.834  15.998 -0.0068 -0.8936 -0.2259
 1536SOL    HW116067   4.028   3.925  16.009  2.7397 -0.0464 -0.3491
 1536SOL    HW216068   3.974   3.785  16.006 -0.7086  0.5699  1.5453
 1537SOL     OW16069   1.883   1.718   1.048 -0.1953 -0.3479  0.2586
 1537SOL    HW116070   1.891   1.717   1.144 -0.3747  2.1443  0.3003
 1537SOL    HW216071   1.888   1.811   1.027  1.5177 -0.0648  1.8838
 1538SOL     OW16072   0.917   0.625   4.099 -0.0654  0.3513  0.1175
 1538SOL    HW116073   0.828   0.657   4.083 -1.0681 -1.7716  1.4991
 1538SOL    HW216074   0.961   0.710   4.093 -1.9676  1.4887  2.3413
 1539SOL     OW16075   4.118   3.267  17.360 -0.6430  0.4541 -0.3672
 1539SOL    HW116076   4.107   3.193  17.420 -0.3206  0.0653 -0.7842
 1539SOL    HW216077   4.211   3.284  17.379 -0.4205  0.1677 -1.2013
 1540SOL     OW16078   4.445   2.741   3.584 -0.0343  0.5177  0.2167
 1540SOL    HW116079   4.398   2.821   3.560 -0.1378  0.9865  1.9633
 1540SOL    HW216080   4.519   2.775   3.635 -0.2141  2.1098 -0.5681
 1541SOL     OW16081   3.144   1.172   1.541 -0.1570 -0.3328  0.1991
 1541SOL    HW116082   3.153   1.267   1.540  0.7756 -0.4356 -1.2574
 1541SOL    HW216083   3.224   1.153   1.590  0.1116  1.0452  0.2918
 1542SOL     OW16084   1.953   4.317  11.096 -0.2206  0.2442 -0.1298
 1542SOL    HW116085   1.957   4.362  11.180  0.2273  1.9041 -1.0405
 1542SOL    HW216086   1.953   4.222  11.112 -3.8598 -0.0046 -1.6079
 1543SOL     OW16087   1.864   3.795   5.293 -0.1396 -0.0052  0.7031
 1543SOL    HW116088   1.897   3.819   5.206 -0.1921 -0.7077  0.4846
 1543SOL    HW216089   1.801   3.727   5.271  2.1840 -2.6271  2.1116
 1544SOL     OW16090   0.770   1.054  15.038 -0.4682 -0.5541 -0.3511
 1544SOL    HW116091   0.841   1.114  15.016  1.7822 -2.7635  0.8637
 1544SOL    HW216092   0.810   0.975  15.003  0.1990 -0.2623 -0.2634
 1545SOL     OW16093   1.550   2.016   3.796  0.1065 -0.0934 -0.3386
 1545SOL    HW116094   1.521   1.932   3.762 -2.6994  1.0120 -0.6647
 1545SOL    HW216095   1.511   2.071   3.728  0.9492  1.3604  0.3416
 1546SOL     OW16096   3.337   4.007   4.920  0.1616 -0.1934 -0.3115
 1546SOL    HW116097   3.379   3.922   4.912  0.4795 -0.1536  0.9389
 1546SOL    HW216098   3.378   4.057   4.850  1.5586 -1.8887 -0.6935
 1547SOL     OW16099   3.413   3.183   2.706 -0.2468  0.2362 -0.0650
 1547SOL    HW116100   3.432   3.128   2.782 -0.1880  0.2034 -0.1028
 1547SOL    HW216101   3.483   3.168   2.642 -0.7000  0.8885 -0.7182
 1548SOL     OW16102   0.882   2.178   2.967 -0.3098  0.1420  0.4750
 1548SOL    HW116103   0.841   2.255   2.926  1.3064  2.0783  2.5232
 1548SOL    HW216104   0.919   2.129   2.893  0.6280  2.6948 -0.7695
 1549SOL     OW16105   0.265   2.398   1.381  0.5331  0.3593 -0.1192
 1549SOL    HW116106   0.297   2.394   1.471  1.2448  0.9592 -0.3533
 1549SOL    HW216107   0.211   2.319   1.374 -0.8523  1.4640 -2.0434
 1550SOL     OW16108   2.849   3.171   2.803  0.1638  0.5328  0.0696
 1550SOL    HW116109   2.942   3.147   2.804 -0.1175 -0.6357 -1.0197
 1550SOL    HW216110   2.832   3.201   2.892 -3.0136 -1.1114 -0.0071
 1551SOL     OW16111   3.536   4.236   1.328  0.2212  0.1769 -0.0162
 1551SOL    HW116112   3.555   4.298   1.258 -0.0790  4.3054  3.5727
 1551SOL    HW216113   3.564   4.283   1.406 -0.3509 -1.4380  1.1637
 1552SOL     OW16114   1.641   3.793   8.761  0.3927  0.1799  0.4727
 1552SOL    HW116115   1.697   3.717   8.776 -1.3839 -0.9430  1.4024
 1552SOL    HW216116   1.680   3.819   8.677  1.0932  1.3981  1.1744
 1553SOL     OW16117   3.101   4.465  11.957 -0.0093 -0.2504 -0.4641
 1553SOL    HW116118   3.040   4.455  12.030 -0.9704  1.8777 -0.9565
 1553SOL    HW216119   3.037   4.500  11.895  1.2082 -1.6278 -2.5111
 1554SOL     OW16120   3.992   3.349   1.552 -0.1588  0.4001 -0.3585
 1554SOL    HW116121   3.905   3.378   1.576 -0.6122 -1.4823  0.3095
 1554SOL    HW216122   3.967   3.317   1.466  0.0622  0.7929 -0.5674
 1555SOL     OW16123   2.766   2.717  13.882 -0.6381  0.2010  0.5424
 1555SOL    HW116124   2.683   2.737  13.925 -0.4379  3.7858 -0.6707
 1555SOL    HW216125   2.746   2.721  13.788  0.3142 -0.9953  0.3029
 1556SOL     OW16126   3.820   2.065  17.131 -0.0270 -0.2284 -0.2374
 1556SOL    HW116127   3.890   2.067  17.196  1.4002 -1.0774 -1.7329
 1556SOL    HW216128   3.879   2.019  17.070  1.0234  1.7576 -0.7523
 1557SOL     OW16129   3.118   3.036   2.806  0.2108  0.5494 -0.4481
 1557SOL    HW116130   3.151   3.074   2.887 -1.6156  1.1562  0.0012
 1557SOL    HW216131   3.137   2.945   2.828  1.0771  0.3693 -1.9177
 1558SOL     OW16132   4.000   2.150   8.346 -0.0972  0.0408 -0.3300
 1558SOL    HW116133   4.056   2.072   8.355  3.3060  2.5548  0.1803
 1558SOL    HW216134   3.911   2.120   8.365 -0.6650  0.9024 -1.6411
 1559SOL     OW16135   2.920   1.602   9.538 -0.5223  0.5025 -0.3282
 1559SOL    HW116136   2.853   1.615   9.605  0.7831 -0.1752  1.1352
 1559SOL    HW216137   2.958   1.518   9.565 -1.1310 -0.2361 -1.7535
 1560SOL     OW16138   4.002   0.255   3.980 -0.1102  0.3633  0.5138
 1560SOL    HW116139   4.064   0.213   3.920  2.4300  2.1996  1.8726
 1560SOL    HW216140   3.937   0.282   3.916  1.0715  1.4257 -0.2400
 1561SOL     OW16141   2.184   3.468   6.218  0.1486  0.3317  0.0311
 1561SOL    HW116142   2.132   3.482   6.297  0.4784 -0.0461  0.3168
 1561SOL    HW216143   2.160   3.379   6.193 -0.2642  0.9521 -1.7472
 1562SOL     OW16144   0.193   0.248   0.139 -0.2147 -0.1635 -0.0497
 1562SOL    HW116145   0.264   0.283   0.084  0.6882 -0.0821  1.1605
 1562SOL    HW216146   0.154   0.332   0.164  1.1515  0.7926 -1.0999
 1563SOL     OW16147   4.102   1.228   9.168 -0.1588  0.6476 -0.6231
 1563SOL    HW116148   4.192   1.230   9.202 -0.2614  2.8676 -0.4769
 1563SOL    HW216149   4.056   1.279   9.234 -2.2670 -1.1470 -0.7279
 1564SOL     OW16150   2.237   0.382  12.328 -0.3033 -0.1455  0.2077
 1564SOL    HW116151   2.272   0.302  12.366  0.2760 -0.3233 -0.6817
 1564SOL    HW216152   2.161   0.395  12.384 -0.6498  0.6361 -0.4349
 1565SOL     OW16153   2.969   2.893   2.028 -0.5203 -0.5187  0.4074
 1565SOL    HW116154   2.912   2.951   2.078  2.5709  1.1851  2.0052
 1565SOL    HW216155   2.970   2.923   1.937 -1.4192 -1.0106  0.2390
 1566SOL     OW16156   2.184   3.108   1.773 -0.2318 -0.0333  0.1887
 1566SOL    HW116157   2.200   3.094   1.680  1.0395  1.3993  0.1773
 1566SOL    HW216158   2.239   3.186   1.780  0.1465 -0.0823 -2.1100
 1567SOL     OW16159   3.069   2.169   6.727 -0.1391 -0.2904 -0.3799
 1567SOL    HW116160   3.028   2.238   6.675 -2.5675 -1.1891  0.3287
 1567SOL    HW216161   3.055   2.098   6.664 -0.7010 -1.2261  0.7907
 1568SOL     OW16162   1.725   0.727   6.524 -0.0581 -0.3005  0.1528
 1568SOL    HW116163   1.721   0.784   6.601  1.8539  0.8527 -0.5825
 1568SOL    HW216164   1.798   0.754   6.467  0.8513  2.0528  2.4392
 1569SOL     OW16165   1.460   3.573   7.053 -0.6082  0.7927 -0.1616
 1569SOL    HW116166   1.408   3.518   7.111  1.5342  1.1846  2.1277
 1569SOL    HW216167   1.421   3.557   6.967  1.1469 -0.8952 -0.6592
 1570SOL     OW16168   0.057   2.384  14.857 -0.5376 -0.0947 -0.2222
 1570SOL    HW116169   0.068   2.333  14.777  2.5342 -0.9107  0.7160
 1570SOL    HW216170   0.024   2.467  14.821 -0.1274 -0.5849 -1.7278
 1571SOL     OW16171   0.334   1.144   3.830 -0.3741  0.1089  0.0970
 1571SOL    HW116172   0.370   1.126   3.918 -1.1455 -0.1856  0.3492
 1571SOL    HW216173   0.308   1.234   3.849 -1.5718 -0.5489  1.5645
 1572SOL     OW16174   4.189   1.147   2.086 -0.1245 -0.6307 -0.1188
 1572SOL    HW116175   4.104   1.190   2.075  0.4023 -0.2425 -2.6351
 1572SOL    HW216176   4.209   1.111   2.000  1.7639  2.5180 -1.0100
 1573SOL     OW16177   1.424   1.672   6.039  0.0150  0.0750  0.1161
 1573SOL    HW116178   1.472   1.747   6.003  1.0693 -1.6124 -1.9480
 1573SOL    HW216179   1.389   1.719   6.115 -0.3177 -0.2662  0.1760
 1574SOL     OW16180   2.344   1.973  11.711 -0.4223  0.5102 -0.5721
 1574SOL    HW116181   2.383   2.058  11.690 -0.1492  0.9940  1.9073
 1574SOL    HW216182   2.276   1.977  11.644 -0.9882  1.0118  0.0324
 1575SOL     OW16183   3.257   3.068   5.553 -0.1275  0.3593 -0.4066
 1575SOL    HW116184   3.343   3.026   5.557  0.0449  0.6027 -1.5574
 1575SOL    HW216185   3.226   3.026   5.633 -0.1355  0.9914 -0.0805
 1576SOL     OW16186   3.432   2.742   7.430  0.6052 -0.0938 -0.3044
 1576SOL    HW116187   3.501   2.679   7.407 -0.2428 -0.8323 -0.8287
 1576SOL    HW216188   3.400   2.746   7.339  2.0517 -3.0538 -0.9559
 1577SOL     OW16189   1.165   3.309   4.668 -0.3637 -0.1807 -0.1059
 1577SOL    HW116190   1.139   3.247   4.736 -3.9284  1.0908 -0.3116
 1577SOL    HW216191   1.221   3.366   4.720  1.8607  0.1470 -2.8766
 1578SOL     OW16192   2.261   2.887  15.678 -0.1190 -0.0259  0.0558
 1578SOL    HW116193   2.351   2.919  15.684 -0.1299  0.1382 -0.6687
 1578SOL    HW216194   2.275   2.807  15.627 -0.5988 -1.9119  2.8486
 1579SOL     OW16195   0.747   3.805   3.216  0.4027 -0.8115  0.3149
 1579SOL    HW116196   0.818   3.782   3.277 -0.6853 -0.8539  1.5557
 1579SOL    HW216197   0.679   3.833   3.277  1.0733  1.4322  0.0528
 1580SOL     OW16198   4.496   1.042  14.588 -0.3957 -0.3464  0.1453
 1580SOL    HW116199   4.578   1.000  14.615 -1.6462 -3.7079 -1.2864
 1580SOL    HW216200   4.506   1.091  14.506 -2.2022 -1.1468 -0.5559
 1581SOL     OW16201   0.339   0.800  13.527 -0.0346 -0.4662  0.0741
 1581SOL    HW116202   0.406   0.772  13.464 -1.9018 -2.5575 -0.9502
 1581SOL    HW216203   0.383   0.870  13.575  1.5970 -0.4464 -1.4463
 1582SOL     OW16204   0.165   0.251   2.831  0.2783 -0.2986  0.1991
 1582SOL    HW116205   0.249   0.281   2.796  0.0584  3.3406  2.7950
 1582SOL    HW216206   0.182   0.272   2.923 -0.5060 -2.2741  0.8135
 1583SOL     OW16207   2.904   4.285  16.952  0.5714 -0.0143 -0.0170
 1583SOL    HW116208   2.899   4.191  16.969  3.5291  0.0466  1.1421
 1583SOL    HW216209   2.879   4.319  17.038  0.6801 -0.2885  0.1261
 1584SOL     OW16210   3.185   0.711   1.978 -0.2186 -0.1195 -0.3603
 1584SOL    HW116211   3.104   0.661   1.966  0.3643 -0.5495 -2.5996
 1584SOL    HW216212   3.164   0.794   1.935  0.4071 -0.4868 -1.3784
 1585SOL     OW16213   2.474   1.786  17.369  0.0366 -0.7410 -0.1110
 1585SOL    HW116214   2.436   1.714  17.319 -0.8289 -0.9133  0.8081
 1585SOL    HW216215   2.526   1.736  17.433  0.3609  1.0893  1.0468
 1586SOL     OW16216   0.781   0.586  16.922 -0.3351 -0.2933  0.0827
 1586SOL    HW116217   0.768   0.676  16.891  0.6203 -0.3223 -0.3896
 1586SOL    HW216218   0.789   0.602  17.016 -0.3243  1.5096 -0.2300
 1587SOL     OW16219   0.935   0.258   3.148 -0.5377  0.1836 -0.5854
 1587SOL    HW116220   0.959   0.223   3.062  1.7173  0.6402 -0.1414
 1587SOL    HW216221   0.919   0.351   3.133  0.9336  0.8450  1.9482
 1588SOL     OW16222   1.667   1.020  15.766  0.2168 -0.1259  0.3214
 1588SOL    HW116223   1.590   0.972  15.797 -1.8546  0.7266 -3.3822
 1588SOL    HW216224   1.650   1.019  15.671  4.3993 -0.6233 -0.4503
 1589SOL     OW16225   3.214   3.249   2.525  0.4168 -0.5278  0.6994
 1589SOL    HW116226   3.271   3.222   2.597  1.6090  0.0446 -0.0223
 1589SOL    HW216227   3.275   3.241   2.451  1.0988 -0.3785  1.2462
 1590SOL     OW16228   4.334   1.122  16.090  0.0147  0.4761 -0.3353
 1590SOL    HW116229   4.386   1.050  16.054 -1.1844 -1.0019  0.8352
 1590SOL    HW216230   4.408   1.182  16.087  0.6931 -0.3378  0.2377
 1591SOL     OW16231   0.312   0.078   5.021  0.6125 -0.2002 -0.3234
 1591SOL    HW116232   0.278   0.137   4.954 -1.1571  0.6434  1.3225
 1591SOL    HW216233   0.236   0.023   5.039  0.6657 -0.7775 -1.7990
 1592SOL     OW16234   0.153   1.840   3.857  0.3064  0.6568  0.2697
 1592SOL    HW116235   0.208   1.775   3.899  0.7655  1.0762  0.3095
 1592SOL    HW216236   0.162   1.809   3.767 -3.2303 -1.1585  0.5189
 1593SOL     OW16237   3.375   3.163   4.035 -0.3235 -0.2972 -0.0467
 1593SOL    HW116238   3.424   3.234   3.993  3.3685 -3.7366 -1.4971
 1593SOL    HW216239   3.402   3.085   3.987 -1.6489 -0.8961  0.1889
 1594SOL     OW16240   4.215   1.281   1.097  0.0129  0.1493  0.4747
 1594SOL    HW116241   4.249   1.204   1.050 -2.2965  0.9411 -2.5287
 1594SOL    HW216242   4.122   1.276   1.077 -0.2643  1.5177  1.4727
 1595SOL     OW16243   2.416   0.468   7.512  0.2653 -0.3976  0.5159
 1595SOL    HW116244   2.491   0.410   7.499 -0.6697 -1.5523  0.2137
 1595SOL    HW216245   2.353   0.428   7.573  2.7821 -0.4274  3.0926
 1596SOL     OW16246   4.505   1.938   5.095 -0.4882 -0.3822  0.3312
 1596SOL    HW116247   4.495   1.912   5.187 -0.6738  0.9168  0.6721
 1596SOL    HW216248   4.555   2.017   5.116 -1.8747  0.5554  0.1093
 1597SOL     OW16249   3.668   1.871   6.219  0.0026  0.1296  0.1971
 1597SOL    HW116250   3.637   1.829   6.139 -1.3585  0.5889  0.4847
 1597SOL    HW216251   3.677   1.962   6.191  2.0677 -0.2234 -0.2934
 1598SOL     OW16252   3.222   2.878  14.551  0.6376  0.8581 -0.1175
 1598SOL    HW116253   3.159   2.862  14.480  0.1108  1.2323  0.2665
 1598SOL    HW216254   3.306   2.888  14.506 -0.2117  3.6275 -1.1025
 1599SOL     OW16255   3.480   0.562   8.978  0.3386 -0.2902  0.4063
 1599SOL    HW116256   3.519   0.638   9.020 -0.4512  0.3425 -0.0011
 1599SOL    HW216257   3.423   0.537   9.051 -1.5840 -1.4735 -1.4954
 1600SOL     OW16258   0.094   3.625  14.389  0.5479 -0.7239 -0.3689
 1600SOL    HW116259   0.064   3.694  14.328 -3.6068 -0.3256  2.0965
 1600SOL    HW216260   0.047   3.548  14.357  0.0211 -1.1538  1.4782
 1601SOL     OW16261   3.690   2.158  16.900  0.8106  0.1361 -0.2980
 1601SOL    HW116262   3.708   2.106  16.978  2.8830  1.4645  0.1085
 1601SOL    HW216263   3.595   2.153  16.886  0.7209  0.9454 -0.0087
 1602SOL     OW16264   4.215   1.405   5.870  0.2469 -0.0608  0.3327
 1602SOL    HW116265   4.151   1.407   5.799  0.7141 -0.5669 -0.0977
 1602SOL    HW216266   4.174   1.363   5.946  0.2243  0.8251  0.8123
 1603SOL     OW16267   2.965   1.030   9.095  0.3448 -0.3872  0.4079
 1603SOL    HW116268   2.907   1.035   9.171 -1.7306 -0.4651 -1.1539
 1603SOL    HW216269   2.938   0.944   9.062  1.2500  0.1741 -1.7433
 1604SOL     OW16270   4.288   1.577   8.427  0.1739  0.5134 -0.2347
 1604SOL    HW116271   4.327   1.662   8.411  1.8295 -0.7032 -2.6008
 1604SOL    HW216272   4.367   1.536   8.462  0.1942  1.0429  0.3387
 1605SOL     OW16273   0.947   4.681   1.058  0.3533 -0.1509 -0.3902
 1605SOL    HW116274   1.010   4.710   1.124  1.3911 -2.0504 -0.5611
 1605SOL    HW216275   0.984   4.719   0.978  1.4881  2.4134  1.3569
 1606SOL     OW16276   2.760   4.111   8.043  0.6606  0.0639 -0.0391
 1606SOL    HW116277   2.739   4.039   8.103  1.4283 -1.0740 -1.1206
 1606SOL    HW216278   2.851   4.131   8.067  0.5227 -1.4825  1.8151
 1607SOL     OW16279   0.667   4.518   4.787  0.7419 -0.3731  0.2401
 1607SOL    HW116280   0.677   4.465   4.866 -1.6130 -1.6112 -0.2900
 1607SOL    HW216281   0.636   4.602   4.819 -0.2693 -0.3165 -0.9209
 1608SOL     OW16282   0.450   2.462   9.545 -0.2517  0.1180 -0.3762
 1608SOL    HW116283   0.508   2.475   9.620 -0.5256  0.2558 -0.1880
 1608SOL    HW216284   0.372   2.497   9.588 -1.0653 -1.5803 -0.4593
 1609SOL     OW16285   2.016   3.592   3.443 -0.0384 -0.6976 -0.1221
 1609SOL    HW116286   1.999   3.581   3.537 -2.4646 -1.0623 -0.5958
 1609SOL    HW216287   1.931   3.621   3.408  0.8970 -1.9876 -3.4445
 1610SOL     OW16288   0.999   2.643   7.034 -0.1592 -0.8272 -0.1228
 1610SOL    HW116289   1.052   2.659   7.112  0.0477 -1.9834 -0.0166
 1610SOL    HW216290   0.929   2.703   7.059  0.4864 -0.4233  0.6871
 1611SOL     OW16291   1.890   1.890  11.143  0.2312  0.4093  0.1966
 1611SOL    HW116292   1.814   1.948  11.154  0.8063  1.0132  0.9550
 1611SOL    HW216293   1.932   1.931  11.068 -0.5904  2.6458  0.9644
 1612SOL     OW16294   1.355   2.571   7.696  0.0531  0.3164  0.4924
 1612SOL    HW116295   1.398   2.618   7.767 -0.3954  2.0647 -0.3794
 1612SOL    HW216296   1.370   2.481   7.725 -1.8174 -0.4525 -0.8195
 1613SOL     OW16297   1.949   3.560   2.378  0.5602  0.3176  0.5894
 1613SOL    HW116298   1.981   3.648   2.401  2.0404 -0.3815  1.1883
 1613SOL    HW216299   2.020   3.533   2.319 -0.5659 -0.9890 -0.1708
 1614SOL     OW16300   3.675   0.789   5.376 -0.4967  0.2512 -0.0782
 1614SOL    HW116301   3.638   0.786   5.465  0.2571  1.8363  0.2781
 1614SOL    HW216302   3.748   0.849   5.388 -0.3633  0.2248 -0.7901
 1615SOL     OW16303   0.387   0.080  14.903 -0.4298  0.4953  0.2654
 1615SOL    HW116304   0.348   0.168  14.897 -0.2679  0.5191 -0.3723
 1615SOL    HW216305   0.320   0.045  14.963 -1.3500  0.4589 -0.7876
 1616SOL     OW16306   2.568   3.233   3.619 -1.4242 -0.1158  0.2515
 1616SOL    HW116307   2.603   3.146   3.634  1.3256  0.8080 -0.8050
 1616SOL    HW216308   2.475   3.210   3.620 -0.9398 -2.0361  1.4363
 1617SOL     OW16309   0.477   0.332   9.318 -0.3228 -0.0723  0.4883
 1617SOL    HW116310   0.471   0.419   9.280  1.2400 -0.7548 -1.3149
 1617SOL    HW216311   0.558   0.354   9.363 -1.3245 -0.0200  2.2708
 1618SOL     OW16312   3.296   1.642   1.891 -0.0792 -0.1929  0.5497
 1618SOL    HW116313   3.288   1.675   1.801  0.2149 -2.9362 -0.5177
 1618SOL    HW216314   3.205   1.616   1.909 -0.7867  1.7583 -0.1529
 1619SOL     OW16315   1.500   0.494   7.620 -0.1837 -0.0931 -0.2019
 1619SOL    HW116316   1.463   0.406   7.633 -2.3398  0.7595 -0.5359
 1619SOL    HW216317   1.471   0.514   7.531 -1.9914 -1.4661  0.0641
 1620SOL     OW16318   1.728   1.103   7.148 -0.1059 -0.2764 -0.1700
 1620SOL    HW116319   1.752   1.112   7.056  1.9989  2.5327  0.6654
 1620SOL    HW216320   1.805   1.139   7.191 -1.8117  0.1303  2.5656
 1621SOL     OW16321   0.075   0.285   6.227 -0.2582  0.1205 -0.2116
 1621SOL    HW116322   0.106   0.196   6.213  0.2926  0.2725  0.0002
 1621SOL    HW216323   0.145   0.330   6.179 -2.0760 -0.1949 -3.1279
 1622SOL     OW16324   1.659   4.370   9.885 -0.0356  0.3560 -0.1930
 1622SOL    HW116325   1.603   4.424   9.829  1.0698  3.8398  2.0305
 1622SOL    HW216326   1.704   4.443   9.928  1.3569 -2.2688  2.8129
 1623SOL     OW16327   3.988   1.346   1.648 -0.7237  0.0000  0.7146
 1623SOL    HW116328   3.998   1.367   1.555 -0.7219 -0.0226  0.7098
 1623SOL    HW216329   4.038   1.265   1.644  0.8072  1.1178 -1.9705
 1624SOL     OW16330   2.720   2.025   3.217 -0.3067 -0.1372 -0.1393
 1624SOL    HW116331   2.736   1.981   3.133 -0.7541 -0.6821  0.0623
 1624SOL    HW216332   2.632   2.060   3.211 -0.1125  0.1293 -1.4066
 1625SOL     OW16333   1.874   2.251   8.166 -0.0925 -0.3802  0.6065
 1625SOL    HW116334   1.898   2.200   8.243 -0.3954  0.7658  1.4520
 1625SOL    HW216335   1.805   2.311   8.192  0.1675  0.5884 -0.9292
 1626SOL     OW16336   4.562   0.492   9.747 -0.1421 -0.3191 -0.2613
 1626SOL    HW116337   4.574   0.585   9.728 -3.2830  0.4238  1.3917
 1626SOL    HW216338   4.653   0.462   9.739  0.1043 -0.5672  3.4837
 1627SOL     OW16339   2.196   0.998  16.000 -0.4907 -0.7060  0.2602
 1627SOL    HW116340   2.129   1.026  15.937  0.6478  0.6237 -0.3473
 1627SOL    HW216341   2.256   1.072  15.991 -1.2342 -0.0100  0.9849
 1628SOL     OW16342   1.739   0.217  10.082 -0.0175 -0.7049  0.0658
 1628SOL    HW116343   1.826   0.178  10.083 -0.5913 -2.0039  1.3694
 1628SOL    HW216344   1.736   0.228   9.987  3.8360 -0.3474  0.0206
 1629SOL     OW16345   4.571   4.036   5.106 -0.2941  0.1131  0.0467
 1629SOL    HW116346   4.633   3.986   5.159  0.7481 -0.0021 -1.2792
 1629SOL    HW216347   4.587   4.000   5.018 -2.1372 -0.3191 -0.0977
 1630SOL     OW16348   2.323   1.838   9.412  0.6027  0.1223  0.0493
 1630SOL    HW116349   2.241   1.886   9.403  0.1921 -0.7379 -0.8779
 1630SOL    HW216350   2.383   1.903   9.375 -0.7098 -0.1040 -2.4590
 1631SOL     OW16351   1.032   4.095  12.316  0.2005 -0.3334  0.2414
 1631SOL    HW116352   1.036   4.067  12.225 -0.7493 -0.8742  0.3729
 1631SOL    HW216353   0.993   4.182  12.302  2.7154  0.0260 -4.3140
 1632SOL     OW16354   0.978   2.755   4.862  0.0212 -0.5781 -0.2879
 1632SOL    HW116355   1.055   2.718   4.818  0.3310 -0.0201 -0.2192
 1632SOL    HW216356   0.909   2.722   4.805  0.8960 -1.1113 -1.0496
 1633SOL     OW16357   0.274   4.481   7.431  0.0397  0.4679  0.1901
 1633SOL    HW116358   0.309   4.541   7.366  1.4410  0.3616  0.8409
 1633SOL    HW216359   0.346   4.491   7.494 -0.4518  2.4377  0.4326
 1634SOL     OW16360   2.318   2.797   4.792  0.4802 -0.0105  0.2223
 1634SOL    HW116361   2.393   2.841   4.752 -2.3055  3.0501 -1.6501
 1634SOL    HW216362   2.315   2.836   4.880 -1.6232  3.3057 -1.2869
 1635SOL     OW16363   3.141   2.819   0.347 -0.1488 -0.4738  0.4292
 1635SOL    HW116364   3.113   2.762   0.419  1.2533 -0.2743  1.1359
 1635SOL    HW216365   3.133   2.759   0.273 -0.4977  0.2133 -0.0812
 1636SOL     OW16366   1.923   0.945  12.871  0.0017  0.1203 -0.1576
 1636SOL    HW116367   1.941   1.037  12.855  3.9610 -0.6839 -0.3503
 1636SOL    HW216368   1.846   0.930  12.816 -0.2149 -2.3084  0.7790
 1637SOL     OW16369   4.122   4.539   3.572  0.6998 -0.1103 -0.1629
 1637SOL    HW116370   4.209   4.581   3.573  1.3808 -1.5874  1.8780
 1637SOL    HW216371   4.073   4.580   3.643 -1.0282  0.0405 -1.4595
 1638SOL     OW16372   2.529   2.982  15.689  0.0136  0.6153  0.0525
 1638SOL    HW116373   2.623   2.963  15.690 -0.2280 -0.5834 -0.1324
 1638SOL    HW216374   2.514   2.980  15.594 -1.7924  0.0499  0.3522
 1639SOL     OW16375   4.675   2.148   9.218 -0.4454 -0.3407 -0.6097
 1639SOL    HW116376   4.598   2.205   9.216  0.5867  1.0637 -0.7321
 1639SOL    HW216377   4.672   2.106   9.132 -1.4389  0.4441 -0.9654
 1640SOL     OW16378   3.967   4.557   5.655 -0.2981 -0.4189 -0.4468
 1640SOL    HW116379   3.894   4.567   5.594  0.4447 -1.1749 -1.4521
 1640SOL    HW216380   3.950   4.618   5.727  0.2198  0.7191 -1.2749
 1641SOL     OW16381   0.468   0.287   6.188 -0.5113 -0.0484  0.0386
 1641SOL    HW116382   0.438   0.226   6.255 -0.3138  1.9371  1.9246
 1641SOL    HW216383   0.510   0.346   6.250  0.6063  0.5727 -1.2810
 1642SOL     OW16384   1.721   2.954   5.623  0.3711 -0.1298 -0.4550
 1642SOL    HW116385   1.655   3.022   5.611 -1.7975 -2.0489  0.6909
 1642SOL    HW216386   1.671   2.879   5.655 -0.3039 -0.2985 -1.8641
 1643SOL     OW16387   1.341   0.744  13.943 -0.9866  0.4711 -0.1518
 1643SOL    HW116388   1.428   0.771  13.973 -0.9014 -2.3004  2.0658
 1643SOL    HW216389   1.315   0.698  14.023 -1.2666  1.0719  0.1103
 1644SOL     OW16390   0.964   4.210   8.811  0.1421  0.6056 -0.4612
 1644SOL    HW116391   0.961   4.179   8.721  1.4959  0.0345 -0.3109
 1644SOL    HW216392   1.057   4.230   8.816  0.4846 -0.8698 -0.9307
 1645SOL     OW16393   0.286   0.872   3.169 -0.1884  0.0596  0.0371
 1645SOL    HW116394   0.330   0.955   3.185 -0.9241  0.7549 -1.5364
 1645SOL    HW216395   0.229   0.865   3.246  0.7067  1.7723  0.8343
 1646SOL     OW16396   1.677   2.408   3.107  0.4045  0.5875  0.5085
 1646SOL    HW116397   1.733   2.331   3.099 -1.2359 -0.3895 -1.5590
 1646SOL    HW216398   1.737   2.476   3.077  1.1002  1.1381  3.1144
 1647SOL     OW16399   4.321   3.500  13.161  0.3334 -0.0332 -0.1584
 1647SOL    HW116400   4.288   3.590  13.156 -1.9066 -0.9582 -2.0202
 1647SOL    HW216401   4.410   3.530  13.179 -0.3162  1.1657  1.1179
 1648SOL     OW16402   1.122   2.355   5.447  0.2914  0.4519  0.0243
 1648SOL    HW116403   1.093   2.272   5.410  0.6188  0.6823 -0.7599
 1648SOL    HW216404   1.153   2.331   5.534 -1.5610 -1.1153  0.2358
 1649SOL     OW16405   2.440   2.516   5.571 -0.2598 -0.1124  0.1355
 1649SOL    HW116406   2.398   2.438   5.606  1.5229 -1.1052  0.0179
 1649SOL    HW216407   2.437   2.580   5.643  2.7711  1.4869 -1.1723
 1650SOL     OW16408   2.555   2.927   7.505  0.2082  0.1331 -0.4566
 1650SOL    HW116409   2.574   2.991   7.436  0.0424  1.1217  0.4284
 1650SOL    HW216410   2.536   2.992   7.572 -1.2396 -1.9157  1.0856
 1651SOL     OW16411   3.662   1.709  12.995 -0.7133  0.0248  0.1718
 1651SOL    HW116412   3.696   1.789  12.954  3.6590 -2.1608 -0.4254
 1651SOL    HW216413   3.708   1.632  12.962  1.3217  0.7126  1.4145
 1652SOL     OW16414   4.443   1.143   6.745  0.6491 -0.2366  0.4460
 1652SOL    HW116415   4.412   1.073   6.687 -1.6082  0.2075  1.1389
 1652SOL    HW216416   4.516   1.095   6.784  1.9601  0.1844 -1.4676
 1653SOL     OW16417   0.174   0.814   7.850  0.2459  0.4610 -1.1682
 1653SOL    HW116418   0.092   0.832   7.805 -1.2575 -0.8362  1.0594
 1653SOL    HW216419   0.148   0.755   7.921 -2.2645 -0.7913 -3.1527
 1654SOL     OW16420   1.731   0.684   2.338 -0.2854 -0.1613  0.4202
 1654SOL    HW116421   1.649   0.638   2.322 -0.5111  0.5011 -0.2945
 1654SOL    HW216422   1.744   0.656   2.429  1.2832 -3.3378 -0.7987
 1655SOL     OW16423   4.138   1.155   8.293 -0.0839 -0.0088  0.2401
 1655SOL    HW116424   4.219   1.136   8.340 -0.5498 -1.0852  0.6047
 1655SOL    HW216425   4.143   1.248   8.270  1.0245 -0.3811 -1.0048
 1656SOL     OW16426   1.113   4.256  16.672 -0.1089  0.4598  0.2345
 1656SOL    HW116427   1.099   4.162  16.662  1.5737  0.2404 -0.0318
 1656SOL    HW216428   1.170   4.262  16.749 -0.2193  1.8886  0.2119
 1657SOL     OW16429   2.362   3.570   5.507  0.0269  0.3841  0.0775
 1657SOL    HW116430   2.393   3.518   5.581 -1.1054  4.0730  3.1396
 1657SOL    HW216431   2.309   3.637   5.550 -0.8895 -0.4471  0.2433
 1658SOL     OW16432   0.756   3.241   1.404  0.0206 -0.0659  0.4136
 1658SOL    HW116433   0.685   3.304   1.421  0.6488  0.3769  1.3962
 1658SOL    HW216434   0.734   3.172   1.467 -2.9031 -0.5190 -1.0832
 1659SOL     OW16435   0.245   3.675  14.963 -0.0405  0.1254 -0.2396
 1659SOL    HW116436   0.267   3.732  15.037 -1.1839 -0.0606  0.2402
 1659SOL    HW216437   0.231   3.748  14.903  0.1243 -0.5745 -1.1320
 1660SOL     OW16438   1.653   1.367  17.530  0.5003 -0.2216  0.1790
 1660SOL    HW116439   1.620   1.356  17.619  1.2402 -1.5226  0.2930
 1660SOL    HW216440   1.690   1.456  17.527 -0.7723  0.3374  1.2507
 1661SOL     OW16441   2.069   1.824   3.329 -0.1649 -0.0643 -0.6580
 1661SOL    HW116442   2.017   1.745   3.348 -1.3044  0.5326 -1.2802
 1661SOL    HW216443   2.010   1.879   3.277 -0.0465  0.9386  0.2871
 1662SOL     OW16444   1.246   0.851   0.809 -0.4031 -0.6059 -0.1316
 1662SOL    HW116445   1.283   0.765   0.828  2.5254 -0.0805 -3.4716
 1662SOL    HW216446   1.170   0.830   0.755 -1.6593  2.3489  0.4908
 1663SOL     OW16447   3.194   1.254  12.418 -0.4445  0.0146 -0.4477
 1663SOL    HW116448   3.279   1.256  12.461 -0.9592 -0.8075  0.6095
 1663SOL    HW216449   3.139   1.312  12.471  1.1117 -0.2529  1.4512
 1664SOL     OW16450   0.729   0.917  16.069 -0.2713 -0.2349 -0.1140
 1664SOL    HW116451   0.720   1.008  16.041 -0.8756 -0.8522 -1.8856
 1664SOL    HW216452   0.637   0.889  16.062 -0.0649 -1.0089  0.3035
 1665SOL     OW16453   4.004   3.466   6.936 -0.3255 -0.0695  0.2016
 1665SOL    HW116454   4.034   3.505   7.018 -1.1953  1.9373 -0.4319
 1665SOL    HW216455   3.924   3.516   6.918 -0.4728 -0.1047  0.7441
 1666SOL     OW16456   2.034   2.557   8.602 -0.3017  0.0975 -0.7882
 1666SOL    HW116457   1.950   2.565   8.558 -0.7399 -1.5406 -0.2478
 1666SOL    HW216458   2.071   2.645   8.596 -1.1899  0.3979 -1.7081
 1667SOL     OW16459   0.111   2.208  12.048  0.1623  1.0267  0.2334
 1667SOL    HW116460   0.161   2.282  12.082 -0.2019 -0.9165  4.8949
 1667SOL    HW216461   0.027   2.253  12.045 -0.2443  0.2799  0.5358
 1668SOL     OW16462   3.214   0.837  12.570  0.0775  0.2022 -0.1900
 1668SOL    HW116463   3.129   0.880  12.560  1.1873  2.5802  0.6329
 1668SOL    HW216464   3.254   0.844  12.483 -1.7037 -2.4350 -1.2533
 1669SOL     OW16465   3.738   2.259   1.430 -0.1434 -0.1313  0.0269
 1669SOL    HW116466   3.749   2.334   1.372 -1.6132  1.6753  2.0773
 1669SOL    HW216467   3.735   2.181   1.375 -2.9937 -0.4007  0.5905
 1670SOL     OW16468   1.874   1.627  11.160 -0.1385 -0.0919  0.4412
 1670SOL    HW116469   1.868   1.721  11.145  2.7805 -0.3025 -2.2168
 1670SOL    HW216470   1.961   1.606  11.195  0.1842 -0.1119 -0.3635
 1671SOL     OW16471   2.231   3.183   7.394  0.2245  0.5650  0.7294
 1671SOL    HW116472   2.248   3.245   7.466  3.1439  1.3366 -0.6558
 1671SOL    HW216473   2.315   3.140   7.384  0.0613  0.0003  1.8123
 1672SOL     OW16474   2.546   1.187   4.211 -0.3253  0.1122  0.1923
 1672SOL    HW116475   2.520   1.146   4.293  0.5765  2.6363  1.7186
 1672SOL    HW216476   2.616   1.130   4.180 -1.7568 -1.1745 -0.6966
 1673SOL     OW16477   2.942   3.903  10.457 -0.6079 -0.5846 -0.1150
 1673SOL    HW116478   3.015   3.878  10.514 -2.3272  1.4736  3.0018
 1673SOL    HW216479   2.875   3.917  10.524  0.0555  1.2292  0.1650
 1674SOL     OW16480   4.396   3.354  11.288  0.3169 -0.3677  0.1170
 1674SOL    HW116481   4.381   3.267  11.325 -0.2167  0.6963  2.3808
 1674SOL    HW216482   4.490   3.348  11.269  0.3851  0.7531  0.1346
 1675SOL     OW16483   0.000   2.984   0.852  0.2675  0.1929  0.3900
 1675SOL    HW116484   4.681   2.951   0.929  0.9468 -2.0644 -0.1636
 1675SOL    HW216485   0.042   3.063   0.886 -2.7802  2.7738 -1.7916
 1676SOL     OW16486   2.382   1.198   9.311  0.2007  0.4804 -0.5392
 1676SOL    HW116487   2.396   1.279   9.359 -1.4170  0.6162 -0.2721
 1676SOL    HW216488   2.372   1.129   9.377  0.1798 -2.3923 -3.5021
 1677SOL     OW16489   0.640   1.559  16.873 -0.6911 -0.5332 -0.0887
 1677SOL    HW116490   0.671   1.516  16.793  2.3353 -1.9048  1.8626
 1677SOL    HW216491   0.548   1.577  16.852 -0.6498  2.4185  2.3837
 1678SOL     OW16492   3.168   3.322   5.514  0.1344 -0.1639  0.0943
 1678SOL    HW116493   3.087   3.314   5.564 -1.1426  0.6696 -1.8572
 1678SOL    HW216494   3.208   3.240   5.544 -2.1019 -0.8680  1.1341
 1679SOL     OW16495   1.538   2.586   6.633  0.2791  0.0021 -0.0981
 1679SOL    HW116496   1.532   2.490   6.632 -1.7412  0.1215  2.2636
 1679SOL    HW216497   1.625   2.601   6.595  0.2864 -2.0044 -0.8947
 1680SOL     OW16498   3.134   2.611   0.833  0.5732 -0.0655 -0.5253
 1680SOL    HW116499   3.056   2.617   0.887  0.0311 -1.3499 -1.1525
 1680SOL    HW216500   3.186   2.539   0.869  0.7725 -0.1496 -0.9660
 1681SOL     OW16501   3.823   2.239   2.353 -0.1378  0.1476 -0.4780
 1681SOL    HW116502   3.744   2.267   2.307 -0.4792  0.0242  0.0311
 1681SOL    HW216503   3.886   2.287   2.300  1.3639 -0.0403  1.1138
 1682SOL     OW16504   1.396   2.600   1.878  0.2129  0.9065  0.2694
 1682SOL    HW116505   1.334   2.561   1.939  0.1170  0.7357  0.0624
 1682SOL    HW216506   1.345   2.674   1.844  0.0501  1.0985  0.9256
 1683SOL     OW16507   2.611   0.954   4.601  0.4299  0.5331  0.4459
 1683SOL    HW116508   2.642   0.977   4.514 -0.1343  0.8763  0.3320
 1683SOL    HW216509   2.525   0.920   4.576  1.0356  1.1125 -2.3627
 1684SOL     OW16510   3.770   1.124   8.242 -0.3683  0.5032 -0.3306
 1684SOL    HW116511   3.831   1.065   8.285 -0.6338 -1.3575 -2.5090
 1684SOL    HW216512   3.827   1.198   8.222  0.9554 -0.7783 -1.2887
 1685SOL     OW16513   4.648   3.922   3.621 -0.2821  0.2239  0.1865
 1685SOL    HW116514   4.562   3.915   3.580 -0.2734 -2.3930  0.5870
 1685SOL    HW216515   4.633   3.869   3.699  0.4442  1.3656  1.0953
 1686SOL     OW16516   3.480   2.146   5.661 -0.5036 -0.0248 -0.2103
 1686SOL    HW116517   3.537   2.181   5.729  0.3374 -3.5145  0.8424
 1686SOL    HW216518   3.500   2.197   5.582 -1.7260 -0.7317 -0.9703
 1687SOL     OW16519   3.179   3.518   4.537 -0.0799  0.1185 -0.3401
 1687SOL    HW116520   3.131   3.480   4.463 -2.4811  1.0492  0.7361
 1687SOL    HW216521   3.260   3.526   4.487  0.3395 -0.4001  0.2545
 1688SOL     OW16522   3.900   2.801   5.853 -0.1678 -0.4480  0.2406
 1688SOL    HW116523   3.941   2.763   5.931  1.7171 -0.9944 -0.9889
 1688SOL    HW216524   3.827   2.742   5.838  0.1915 -1.1111  1.0663
 1689SOL     OW16525   2.100   2.020   2.861 -0.1007  0.3931 -0.0122
 1689SOL    HW116526   2.031   1.999   2.798 -1.7165 -0.1247  1.9318
 1689SOL    HW216527   2.176   1.976   2.824 -0.7603 -1.3945  0.7776
 1690SOL     OW16528   2.995   1.190   0.465 -0.3255  0.5071 -0.0644
 1690SOL    HW116529   3.068   1.233   0.422 -0.1588 -0.1788 -0.4697
 1690SOL    HW216530   2.974   1.244   0.541  2.8802 -0.9241  1.8015
 1691SOL     OW16531   3.017   3.793   4.323 -0.5683 -0.5838  0.4449
 1691SOL    HW116532   2.983   3.731   4.259  0.0255  1.3568 -1.7620
 1691SOL    HW216533   3.101   3.819   4.283 -0.9067 -0.3451 -0.1069
 1692SOL     OW16534   0.584   1.270   7.104 -0.0504  0.4397  0.0603
 1692SOL    HW116535   0.598   1.218   7.183 -0.0979  0.0431 -0.1906
 1692SOL    HW216536   0.655   1.335   7.098 -0.3026  0.7695  0.5973
 1693SOL     OW16537   0.325   0.549   1.336  0.1089  0.2666  0.3662
 1693SOL    HW116538   0.252   0.592   1.291 -1.0858 -0.9877  1.0958
 1693SOL    HW216539   0.405   0.577   1.291 -0.6149  0.2874 -0.8845
 1694SOL     OW16540   1.953   0.134   6.349 -0.0232  0.3732  0.0749
 1694SOL    HW116541   2.020   0.102   6.289 -0.6697 -2.3491  0.8024
 1694SOL    HW216542   2.005   0.126   6.428 -1.6785 -2.1907  0.9137
 1695SOL     OW16543   1.908   0.102  10.421  0.4341  0.0939 -0.3520
 1695SOL    HW116544   1.952   0.058  10.495  2.3006  1.7363 -0.5085
 1695SOL    HW216545   1.814   0.087  10.432  0.0869  2.0659 -0.7333
 1696SOL     OW16546   2.801   2.534   3.817  0.1805 -0.1249 -0.3493
 1696SOL    HW116547   2.737   2.599   3.789 -1.2642 -0.7189  1.5542
 1696SOL    HW216548   2.884   2.576   3.794  0.5000 -1.1193 -1.0658
 1697SOL     OW16549   2.732   0.650   7.734 -0.4657 -0.7877 -0.0470
 1697SOL    HW116550   2.821   0.621   7.713 -1.4218 -1.5014 -3.0965
 1697SOL    HW216551   2.752   0.713   7.804 -0.8465 -0.5367 -0.1680
 1698SOL     OW16552   4.432   0.988  15.455 -0.5832  0.4854 -0.0797
 1698SOL    HW116553   4.390   0.915  15.409 -1.8510 -0.2475  2.2644
 1698SOL    HW216554   4.357   1.023  15.502 -0.0112  0.6699  0.7074
 1699SOL     OW16555   3.593   2.755   1.252 -0.0756  0.6513 -0.3604
 1699SOL    HW116556   3.502   2.785   1.260  0.2318  1.5730 -0.3570
 1699SOL    HW216557   3.618   2.738   1.343 -1.4921 -0.3405 -0.1468
 1700SOL     OW16558   0.359   1.605  11.918  0.3728 -0.2208  0.0348
 1700SOL    HW116559   0.330   1.695  11.905  1.4269  0.2031  0.6414
 1700SOL    HW216560   0.454   1.617  11.907  0.6278 -1.7597  0.5220
 1701SOL     OW16561   3.872   0.770  14.336 -0.3586 -0.4708 -0.3097
 1701SOL    HW116562   3.792   0.723  14.312  0.0582 -1.0602 -0.5308
 1701SOL    HW216563   3.925   0.692  14.351  0.3815  0.0799 -0.1039
 1702SOL     OW16564   1.942   2.074   6.025  0.0640 -0.3583 -0.4350
 1702SOL    HW116565   1.902   2.114   5.948  1.5762  2.0634  0.0531
 1702SOL    HW216566   1.936   1.982   5.998 -0.0002 -0.9606  1.6300
 1703SOL     OW16567   1.367   3.018   3.290  0.3293  0.2539 -0.1172
 1703SOL    HW116568   1.306   3.081   3.251 -1.9257 -1.2409  1.0377
 1703SOL    HW216569   1.306   2.981   3.353 -0.6359 -2.6853 -2.7941
 1704SOL     OW16570   3.130   2.020  10.198  0.2843  0.0186 -0.0169
 1704SOL    HW116571   3.178   1.991  10.121 -0.7166 -0.1993 -0.5549
 1704SOL    HW216572   3.109   1.938  10.242  0.7181 -0.5455 -0.8737
 1705SOL     OW16573   0.269   0.433   5.347  0.1558  0.7253 -0.1904
 1705SOL    HW116574   0.225   0.503   5.394 -1.0087  1.2591 -2.0607
 1705SOL    HW216575   0.301   0.469   5.264  0.1151 -1.5823 -1.2260
 1706SOL     OW16576   2.003   2.145  11.324 -0.2818 -0.3068  0.5361
 1706SOL    HW116577   1.909   2.145  11.302 -0.1671 -1.8190  0.0652
 1706SOL    HW216578   2.040   2.192  11.250 -2.0405 -0.8437 -0.6857
 1707SOL     OW16579   2.354   3.642   0.047  0.3260  0.3752 -0.3406
 1707SOL    HW116580   2.395   3.598   0.122 -0.2075 -0.0652 -0.2985
 1707SOL    HW216581   2.305   3.575  17.709  2.4189 -0.8118 -0.8032
 1708SOL     OW16582   4.254   0.028   6.439  0.3943  0.0082  0.0196
 1708SOL    HW116583   4.208   0.106   6.407  0.2228  0.0192  0.2944
 1708SOL    HW216584   4.280   0.064   6.524 -0.1366  0.6875 -0.1023
 1709SOL     OW16585   0.948   4.026   7.492  0.4019 -0.3481 -0.3190
 1709SOL    HW116586   0.915   4.115   7.496  1.6173 -0.0203  2.1740
 1709SOL    HW216587   1.043   4.028   7.481  0.3672 -1.7974 -1.0236
 1710SOL     OW16588   1.917   1.196   9.241  0.1778  0.4689  0.2643
 1710SOL    HW116589   1.954   1.260   9.302 -0.1956  0.9776 -0.0416
 1710SOL    HW216590   2.003   1.180   9.201  1.1142  1.3999  1.8762
 1711SOL     OW16591   4.417   0.225  13.409  0.2250 -0.0402 -0.1670
 1711SOL    HW116592   4.510   0.202  13.399 -0.2716 -2.6821  1.3043
 1711SOL    HW216593   4.423   0.320  13.402  0.3020  0.0554  1.0669
 1712SOL     OW16594   1.684   1.042   3.306 -0.0090 -0.5149  0.4562
 1712SOL    HW116595   1.598   1.022   3.268 -1.8800  4.1788  2.1833
 1712SOL    HW216596   1.741   1.005   3.238 -2.6215 -1.5730 -1.1552
 1713SOL     OW16597   3.531   4.550   6.105 -0.1494 -0.0147 -0.1343
 1713SOL    HW116598   3.476   4.628   6.103 -1.3041 -0.9131 -2.9879
 1713SOL    HW216599   3.616   4.591   6.124 -1.0555  1.2368  1.1871
 1714SOL     OW16600   4.328   2.776   6.790  0.2328  0.0444  0.0672
 1714SOL    HW116601   4.339   2.868   6.766 -2.3696  0.2350 -0.4437
 1714SOL    HW216602   4.305   2.776   6.883 -0.9298  1.7013 -0.2080
 1715SOL     OW16603   2.576   2.398  12.924  0.3339 -0.0839  0.3980
 1715SOL    HW116604   2.639   2.419  12.994  1.9508  0.7405 -1.3223
 1715SOL    HW216605   2.544   2.485  12.900  0.0574 -0.1255  0.6192
 1716SOL     OW16606   2.002   0.661  16.905 -0.1417  0.7467  0.4591
 1716SOL    HW116607   2.043   0.741  16.873  1.0479 -0.5877 -1.3830
 1716SOL    HW216608   2.035   0.662  16.995  1.9261  2.3723 -0.3138
 1717SOL     OW16609   1.608   2.801  11.079 -0.1191 -0.0404 -0.0796
 1717SOL    HW116610   1.577   2.891  11.076 -0.7711 -0.1960  1.9344
 1717SOL    HW216611   1.699   2.819  11.102 -0.3377  0.5874  0.2921
 1718SOL     OW16612   3.341   3.960  16.773  0.2728 -0.4235  0.4247
 1718SOL    HW116613   3.416   3.901  16.765  2.4062  2.1061  1.6752
 1718SOL    HW216614   3.344   4.012  16.692 -1.1320 -0.6162  0.2588
 1719SOL     OW16615   0.843   0.765   9.756 -0.2298 -0.4306 -0.0303
 1719SOL    HW116616   0.776   0.697   9.751  1.2148 -1.8116 -0.5594
 1719SOL    HW216617   0.910   0.725   9.811  0.1219  1.9525  1.2920
 1720SOL     OW16618   1.120   4.338   3.589 -0.3115  1.1735  0.2617
 1720SOL    HW116619   1.042   4.285   3.575  1.2665 -1.5559  2.0115
 1720SOL    HW216620   1.109   4.396   3.513  1.4457 -0.9007 -1.5463
 1721SOL     OW16621   3.042   2.586  10.149 -0.0350  0.0971  0.1508
 1721SOL    HW116622   2.967   2.546  10.107 -0.2450 -0.6846  1.2790
 1721SOL    HW216623   3.046   2.678  10.121 -1.6248 -0.1547 -0.8853
 1722SOL     OW16624   1.635   2.767  11.759  0.0617  0.0933 -0.1728
 1722SOL    HW116625   1.724   2.780  11.726 -0.8380 -0.4009 -2.7479
 1722SOL    HW216626   1.588   2.802  11.684  0.2679 -1.5488 -1.0586
 1723SOL     OW16627   3.179   0.447   7.619 -0.0502  0.1834  0.1029
 1723SOL    HW116628   3.166   0.356   7.593 -0.7733  0.2965  0.0436
 1723SOL    HW216629   3.253   0.479   7.568  1.7030 -1.0264  1.8945
 1724SOL     OW16630   3.022   0.513   4.996 -0.2056  0.0078  0.1614
 1724SOL    HW116631   3.072   0.568   4.936  1.8106 -2.8477 -0.7787
 1724SOL    HW216632   3.030   0.434   4.943  1.6438  1.2152 -1.3150
 1725SOL     OW16633   2.400   4.673  13.204  0.3469 -0.0768 -0.4370
 1725SOL    HW116634   2.492   4.666  13.226 -0.0847  1.0283  1.7768
 1725SOL    HW216635   2.381   4.581  13.218 -1.2056 -0.0089 -2.0928
 1726SOL     OW16636   1.013   4.627  12.737  0.1425  0.0683  0.5314
 1726SOL    HW116637   0.956   4.698  12.708 -0.5194 -0.9057 -0.5318
 1726SOL    HW216638   1.087   4.650  12.681 -0.9857  3.6582  0.5300
 1727SOL     OW16639   2.476   2.542   3.966 -0.1964 -0.1995 -0.8326
 1727SOL    HW116640   2.535   2.605   3.923  0.6209  0.1730  0.8279
 1727SOL    HW216641   2.399   2.537   3.909 -1.5681 -1.4242  1.1583
 1728SOL     OW16642   2.569   1.013   6.258  0.0384  0.3846  0.5051
 1728SOL    HW116643   2.642   1.035   6.200  0.0018  0.2874  0.4222
 1728SOL    HW216644   2.571   0.918   6.268  0.3439  0.3234 -0.0960
 1729SOL     OW16645   0.606   3.112   0.950 -0.7184  0.0812  0.4542
 1729SOL    HW116646   0.639   3.157   1.028 -0.2526 -0.8100  0.7675
 1729SOL    HW216647   0.513   3.113   0.972 -0.7574 -0.7881  0.3518
 1730SOL     OW16648   0.217   4.095   3.626  0.4185  0.1100  0.5953
 1730SOL    HW116649   0.224   4.149   3.547  0.8611  0.7252  1.0506
 1730SOL    HW216650   0.123   4.077   3.627  0.3915  0.1993 -0.5488
 1731SOL     OW16651   0.773   4.677   5.497 -0.1032  0.0635 -0.2738
 1731SOL    HW116652   0.694   0.001   5.510  0.6027  1.4393 -1.3824
 1731SOL    HW216653   0.750   4.655   5.406  0.5534 -1.2912 -0.1066
 1732SOL     OW16654   4.225   2.075  17.528 -0.2332 -0.6549  0.3270
 1732SOL    HW116655   4.290   2.135  17.564 -1.4681  0.7051  0.2834
 1732SOL    HW216656   4.287   2.013  17.491 -0.2174 -1.5503  1.8561
 1733SOL     OW16657   4.610   2.530   2.667  0.4844 -0.3312 -0.1951
 1733SOL    HW116658   4.533   2.580   2.691  1.0932  1.4752 -1.9386
 1733SOL    HW216659   4.580   2.514   2.577 -0.1199  1.3048 -0.2762
 1734SOL     OW16660   3.780   0.368   3.097  0.2040 -0.2818  0.2789
 1734SOL    HW116661   3.835   0.350   3.021 -3.3438  0.7364 -2.5417
 1734SOL    HW216662   3.710   0.305   3.078 -0.5437  0.7371 -0.3633
 1735SOL     OW16663   2.874   0.182   3.102  0.3360 -0.1440 -0.7631
 1735SOL    HW116664   2.784   0.167   3.128  0.2827 -0.0082 -0.8729
 1735SOL    HW216665   2.871   0.221   3.015 -0.2084  1.5557  0.0291
 1736SOL     OW16666   0.480   2.666  11.552 -0.2830 -0.4713 -0.0085
 1736SOL    HW116667   0.438   2.619  11.624  0.4913  1.7535  1.8811
 1736SOL    HW216668   0.562   2.619  11.536 -1.2022 -2.0456 -0.0384
 1737SOL     OW16669   1.986   2.709   5.015 -0.4658  0.0752  0.0687
 1737SOL    HW116670   2.062   2.671   5.059  0.9166  0.6197 -1.8611
 1737SOL    HW216671   1.910   2.655   5.039  0.0776 -0.7860 -0.1435
 1738SOL     OW16672   1.352   2.972   5.953 -0.1702  0.2892  0.1312
 1738SOL    HW116673   1.308   3.024   5.886  2.3588 -0.0147 -1.7493
 1738SOL    HW216674   1.424   3.027   5.982 -0.5216  0.7391  0.1465
 1739SOL     OW16675   4.011   0.672   4.019 -0.3320  0.9216  0.6817
 1739SOL    HW116676   4.072   0.600   4.030  0.0120  1.0732 -0.2117
 1739SOL    HW216677   3.993   0.669   3.925 -2.2420  1.6892  1.0110
 1740SOL     OW16678   2.293   1.065   1.734 -0.1051 -0.1344 -0.5647
 1740SOL    HW116679   2.225   1.028   1.677 -1.9395  0.7440  1.0486
 1740SOL    HW216680   2.357   1.000   1.763  0.7875  0.5076 -1.0925
 1741SOL     OW16681   1.535   2.216   0.255  0.0782  0.0819  0.1794
 1741SOL    HW116682   1.496   2.191   0.171  1.5854 -0.0567 -0.4815
 1741SOL    HW216683   1.585   2.138   0.280  2.0940  2.0212  2.2261
 1742SOL     OW16684   4.270   4.435   5.018  0.1781 -0.1672  0.3911
 1742SOL    HW116685   4.358   4.397   5.027  0.1995 -0.4190 -0.9034
 1742SOL    HW216686   4.259   4.422   4.924 -0.9903 -0.5899  0.6001
 1743SOL     OW16687   4.180   0.461   4.078 -0.0007  0.0845  0.7546
 1743SOL    HW116688   4.265   0.446   4.037 -0.7454  1.5854 -1.3251
 1743SOL    HW216689   4.128   0.388   4.044 -0.7231  1.0211 -0.1320
 1744SOL     OW16690   0.829   4.185   3.828  0.0755  0.4796 -0.4251
 1744SOL    HW116691   0.745   4.231   3.834 -1.3653 -2.3126  0.6375
 1744SOL    HW216692   0.867   4.244   3.894  0.2961 -0.6970  0.5063
 1745SOL     OW16693   1.967   1.894  11.588  0.0900 -0.1835  0.2466
 1745SOL    HW116694   2.052   1.914  11.549 -1.3959  0.7810 -2.4862
 1745SOL    HW216695   1.935   1.832  11.522  1.2594 -1.5416  0.9424
 1746SOL     OW16696   0.055   3.776   2.099 -0.3499  0.3035 -0.2364
 1746SOL    HW116697   0.119   3.731   2.153  1.9092  1.9584 -1.5600
 1746SOL    HW216698   0.034   3.864   2.132 -0.4491  0.7982 -1.6326
 1747SOL     OW16699   3.769   3.916   5.968  0.4919  0.2491 -0.0660
 1747SOL    HW116700   3.803   3.981   5.906 -1.5619 -0.4282 -1.8893
 1747SOL    HW216701   3.846   3.883   6.015  0.1295 -1.1832 -0.4778
 1748SOL     OW16702   0.849   2.186   9.645 -0.8635  0.0768  0.0188
 1748SOL    HW116703   0.812   2.215   9.562  2.9305  1.2497 -1.2926
 1748SOL    HW216704   0.925   2.244   9.642 -1.3011  0.5463 -1.7316
 1749SOL     OW16705   2.060   2.895   4.276 -0.0359 -0.2854 -0.2355
 1749SOL    HW116706   1.972   2.876   4.309 -0.7965  1.6315 -1.1473
 1749SOL    HW216707   2.110   2.881   4.356 -0.0129  0.9291 -0.0375
 1750SOL     OW16708   2.941   1.870   3.336 -0.6171 -0.0790  0.2242
 1750SOL    HW116709   2.849   1.891   3.319 -1.3090  0.7285  4.9759
 1750SOL    HW216710   2.944   1.781   3.303  0.1678  0.3457 -0.8504
 1751SOL     OW16711   1.113   0.354   9.010 -0.4491  0.4051 -0.3655
 1751SOL    HW116712   1.082   0.320   9.094 -0.4172 -1.0047 -0.9148
 1751SOL    HW216713   1.057   0.311   8.945 -0.3713  0.2967 -0.3598
 1752SOL     OW16714   2.082   3.052   6.852  0.2631 -0.0765  0.3564
 1752SOL    HW116715   2.134   2.981   6.888  1.8325  1.2008  0.6220
 1752SOL    HW216716   1.994   3.030   6.883 -0.3074  1.6570  0.0089
 1753SOL     OW16717   1.863   0.926  13.427  0.1688  0.4192 -0.4037
 1753SOL    HW116718   1.902   0.915  13.514 -1.7742 -0.2279  0.3870
 1753SOL    HW216719   1.929   0.914  13.359 -1.4126 -0.4033 -1.7810
 1754SOL     OW16720   1.717   0.379   5.371 -0.0670  0.4202 -0.4973
 1754SOL    HW116721   1.653   0.437   5.331  1.5178  1.4280 -1.5509
 1754SOL    HW216722   1.702   0.410   5.460  2.8497  3.7035 -1.1424
 1755SOL     OW16723   0.174   0.868   2.523 -0.0989  0.2673  0.0302
 1755SOL    HW116724   0.136   0.924   2.455  1.4358  0.9177 -0.3004
 1755SOL    HW216725   0.108   0.800   2.528  2.3304 -2.1658 -1.1699
 1756SOL     OW16726   0.171   1.440  17.048 -0.5286 -0.0740 -0.4790
 1756SOL    HW116727   0.238   1.474  16.990 -0.3626  1.5122  0.6249
 1756SOL    HW216728   0.099   1.491  17.010 -1.3372 -0.2854  0.7485
 1757SOL     OW16729   4.191   3.561  15.852 -0.2869 -0.1121  0.3123
 1757SOL    HW116730   4.205   3.503  15.927 -1.0214  0.3256  0.7838
 1757SOL    HW216731   4.246   3.526  15.782 -0.6848 -0.4493  0.1728
 1758SOL     OW16732   3.474   0.058   8.267  0.4335 -0.3138 -0.3119
 1758SOL    HW116733   3.536   0.130   8.263  1.7050 -1.3677  0.1970
 1758SOL    HW216734   3.519   0.005   8.333 -0.0347 -2.3375 -1.6095
 1759SOL     OW16735   0.359   0.688   5.943 -0.3242  0.3253 -0.4523
 1759SOL    HW116736   0.372   0.593   5.948 -0.6828  0.3262  0.4606
 1759SOL    HW216737   0.272   0.692   5.902 -0.1795 -2.3691 -1.0568
 1760SOL     OW16738   0.740   0.780   8.943  0.2801  0.0992  0.1791
 1760SOL    HW116739   0.835   0.784   8.931 -0.0734  1.0262 -2.3443
 1760SOL    HW216740   0.715   0.688   8.953  1.4559 -0.0280  1.8969
 1761SOL     OW16741   1.138   1.488  14.629 -0.6280 -0.1038  0.1554
 1761SOL    HW116742   1.115   1.475  14.721  2.3558  0.2657  0.9540
 1761SOL    HW216743   1.232   1.477  14.637 -0.3802  1.2874 -0.7029
 1762SOL     OW16744   2.788   4.217  14.125 -0.1354 -0.4941  0.2895
 1762SOL    HW116745   2.713   4.169  14.088 -0.6284  1.0783 -0.7627
 1762SOL    HW216746   2.842   4.227  14.047  0.7563 -0.4692  0.9036
 1763SOL     OW16747   0.079   3.981   3.121 -0.1805 -0.6697  0.7210
 1763SOL    HW116748   0.110   3.900   3.081 -0.7357 -0.1943 -0.6562
 1763SOL    HW216749   4.714   3.987   3.095  0.2268 -0.3020 -0.6015
 1764SOL     OW16750   3.030   1.581   7.024  0.2500  0.3833  0.0432
 1764SOL    HW116751   2.957   1.556   7.080  0.2090  1.7740  0.6127
 1764SOL    HW216752   3.082   1.501   7.036  2.2961  1.5564 -1.0156
 1765SOL     OW16753   1.157   0.567   6.137 -0.2346  0.9541  0.2881
 1765SOL    HW116754   1.249   0.543   6.126 -0.2213  0.5973  1.1501
 1765SOL    HW216755   1.109   0.484   6.148  1.1508 -0.1327 -1.7230
 1766SOL     OW16756   0.996   0.473   6.416  0.0143  0.1319  0.0176
 1766SOL    HW116757   0.947   0.555   6.412  2.1151  1.3734 -0.4752
 1766SOL    HW216758   1.081   0.491   6.457  0.4407  2.3389 -1.8194
 1767SOL     OW16759   4.608   1.105   2.463 -0.1892  0.5783 -0.5118
 1767SOL    HW116760   4.669   1.048   2.416 -0.5906  0.3649 -0.7868
 1767SOL    HW216761   4.629   1.193   2.432  2.3286  0.5737  1.2754
 1768SOL     OW16762   2.320   2.409  15.542 -0.1170  0.3543 -0.1858
 1768SOL    HW116763   2.291   2.393  15.453  2.0006 -1.7838 -0.4568
 1768SOL    HW216764   2.243   2.394  15.597 -0.0703 -0.1212 -0.2514
 1769SOL     OW16765   2.192   1.949  15.662  0.4017  0.0135  0.7084
 1769SOL    HW116766   2.247   1.999  15.602 -0.0659 -1.6440 -1.1143
 1769SOL    HW216767   2.205   1.855  15.648 -1.5469 -0.1812  0.1628
 1770SOL     OW16768   1.998   1.552  15.679 -0.0415 -0.1454 -0.1137
 1770SOL    HW116769   1.925   1.536  15.619  1.0151 -0.9716 -1.1862
 1770SOL    HW216770   1.981   1.644  15.701  1.1766  0.5527 -1.9820
 1771SOL     OW16771   2.827   1.748   6.471  0.4067 -0.2527  0.2743
 1771SOL    HW116772   2.897   1.814   6.474 -1.6024  1.8351  0.7016
 1771SOL    HW216773   2.773   1.785   6.401  0.6463  1.0719  0.7896
 1772SOL     OW16774   0.082   3.033   3.665 -0.2170 -0.7288  0.3587
 1772SOL    HW116775   0.060   2.943   3.689 -3.3674 -0.3476 -1.1517
 1772SOL    HW216776   0.153   3.046   3.728 -1.2120  0.6143  1.2056
 1773SOL     OW16777   0.278   4.599   8.814  0.6305  0.2585 -0.2530
 1773SOL    HW116778   0.246   4.512   8.788  0.3515  0.7967 -1.7371
 1773SOL    HW216779   0.246   4.650   8.739  0.2632 -0.2560 -0.4453
 1774SOL     OW16780   4.454   4.352  13.009  0.0904  0.2009 -0.1818
 1774SOL    HW116781   4.496   4.301  12.939  0.7511 -1.7827  1.6708
 1774SOL    HW216782   4.359   4.349  13.000 -0.0763  1.4541  1.1444
 1775SOL     OW16783   0.148   3.478  14.616 -0.0604  0.3726  0.4135
 1775SOL    HW116784   0.065   3.431  14.628 -0.6080  0.8482 -1.5611
 1775SOL    HW216785   0.121   3.542  14.550 -0.3762  1.2802  1.4153
 1776SOL     OW16786   4.603   2.172   0.070  0.4863  0.0345  0.3135
 1776SOL    HW116787   4.647   2.091   0.043  0.8708  0.6536 -0.9297
 1776SOL    HW216788   4.606   2.230  17.704  0.1658 -1.0304 -0.5039
 1777SOL     OW16789   1.307   3.863   8.502 -0.3229 -0.1023  0.0197
 1777SOL    HW116790   1.314   3.882   8.596 -1.0741  1.8826 -0.3312
 1777SOL    HW216791   1.213   3.848   8.492 -0.4335  0.7263 -0.1924
 1778SOL     OW16792   2.080   0.259   0.448 -0.4725  0.1302 -0.6291
 1778SOL    HW116793   2.148   0.323   0.427 -1.0193  0.6127 -0.9355
 1778SOL    HW216794   2.017   0.263   0.376  0.0621 -0.4692 -1.1305
 1779SOL     OW16795   2.096   0.461   1.569  0.1802  0.0373 -0.5713
 1779SOL    HW116796   2.065   0.422   1.651  1.0205  1.0158  0.2092
 1779SOL    HW216797   2.080   0.386   1.512 -3.4433 -0.8589  1.6330
 1780SOL     OW16798   0.466   2.087   2.895 -0.0965 -0.1188  0.3824
 1780SOL    HW116799   0.544   2.030   2.892  1.5785  2.2788 -1.5629
 1780SOL    HW216800   0.395   2.023   2.902 -0.2505  0.1010  0.8647
 1781SOL     OW16801   0.014   3.176   1.588 -0.6345 -0.0696  0.3729
 1781SOL    HW116802   4.677   3.119   1.630  0.1696  0.9842  2.9900
 1781SOL    HW216803   4.719   3.262   1.621  1.0825  0.2721  0.6582
 1782SOL     OW16804   0.145   3.628   2.897 -0.1751  0.2671 -0.0644
 1782SOL    HW116805   0.200   3.689   2.947  1.7315  0.0769 -1.9266
 1782SOL    HW216806   0.092   3.689   2.846  0.4207  1.3544  0.6121
 1783SOL     OW16807   2.879   4.083   2.136 -0.5835 -0.2924 -0.1450
 1783SOL    HW116808   2.863   4.023   2.209  1.1111  0.4633  0.8481
 1783SOL    HW216809   2.968   4.062   2.108  0.7433  2.9862  1.6935
 1784SOL     OW16810   1.115   1.760   6.874  0.2239 -0.2382  0.1622
 1784SOL    HW116811   1.109   1.854   6.891  2.3996 -0.3574  1.5107
 1784SOL    HW216812   1.021   1.742   6.877  0.3409 -1.0655 -1.1384
 1785SOL     OW16813   0.316   2.304   7.942 -0.1302 -0.3934 -0.0433
 1785SOL    HW116814   0.281   2.227   7.897  0.0969 -1.4238  1.5528
 1785SOL    HW216815   0.254   2.368   7.906  1.4918 -0.0071 -2.1937
 1786SOL     OW16816   1.537   4.072   9.221  0.6210  0.1580  0.3418
 1786SOL    HW116817   1.615   4.088   9.168 -0.2099 -0.5202 -1.0907
 1786SOL    HW216818   1.505   4.162   9.233  1.6678  0.5874 -0.1433
 1787SOL     OW16819   0.250   0.005   8.144 -0.3191  0.2716 -0.1247
 1787SOL    HW116820   0.316   4.709   8.209  0.8881 -0.2616 -1.5323
 1787SOL    HW216821   0.277   0.095   8.125  0.0268 -0.0973 -1.3856
 1788SOL     OW16822   3.595   2.944   8.743  0.0721 -0.1832  0.5714
 1788SOL    HW116823   3.506   2.971   8.721  0.7553 -0.9471 -3.1884
 1788SOL    HW216824   3.612   2.883   8.671 -0.3782  1.0217 -0.5518
 1789SOL     OW16825   4.692   4.068   2.823  0.3453 -0.2422 -0.6233
 1789SOL    HW116826   4.668   3.977   2.803  0.8431  0.2627 -3.5177
 1789SOL    HW216827   0.054   4.063   2.789 -0.2190 -2.3791 -1.7886
 1790SOL     OW16828   3.600   4.322   8.910 -0.0869 -0.3033  0.3654
 1790SOL    HW116829   3.527   4.375   8.877  1.1121 -0.2984 -2.1941
 1790SOL    HW216830   3.551   4.259   8.963 -0.3700 -2.0534 -2.0025
 1791SOL     OW16831   3.242   4.514   0.814 -0.0610  0.5194 -0.1796
 1791SOL    HW116832   3.298   4.582   0.776  0.9051  0.6148  1.3985
 1791SOL    HW216833   3.303   4.459   0.863 -0.5978 -0.7668 -0.9486
 1792SOL     OW16834   4.618   0.297   7.463  0.6642 -0.0034  0.1032
 1792SOL    HW116835   4.697   0.344   7.436 -0.1559  0.9993 -0.5472
 1792SOL    HW216836   4.593   0.354   7.536  2.6458  0.6928  0.2488
 1793SOL     OW16837   3.121   0.846  10.861 -0.1904  0.0619 -0.3019
 1793SOL    HW116838   3.213   0.871  10.851 -0.1717 -1.2544 -3.4069
 1793SOL    HW216839   3.099   0.913  10.926 -0.7826 -0.1474 -0.2815
 1794SOL     OW16840   0.201   1.621   2.810 -0.3300 -0.0800  0.3960
 1794SOL    HW116841   0.295   1.606   2.822 -0.2518  1.1611  1.2388
 1794SOL    HW216842   0.167   1.537   2.778  0.4663  0.3112 -1.4792
 1795SOL     OW16843   1.495   0.722   4.542  0.1591  0.3576 -0.0698
 1795SOL    HW116844   1.502   0.798   4.483  0.0757  2.0234  2.0815
 1795SOL    HW216845   1.555   0.674   4.484 -0.4898 -3.2200  2.2970
 1796SOL     OW16846   2.746   3.647   0.123  0.3488  0.0195 -0.4372
 1796SOL    HW116847   2.775   3.736   0.144  0.1075  0.9239 -3.9320
 1796SOL    HW216848   2.724   3.662   0.031 -1.3343  2.2811  0.3325
 1797SOL     OW16849   3.519   3.770   3.816 -0.1215 -0.0769  0.2669
 1797SOL    HW116850   3.532   3.723   3.734 -1.0915  0.7577 -0.3706
 1797SOL    HW216851   3.424   3.780   3.810 -0.1127 -1.3053 -1.8437
 1798SOL     OW16852   3.749   1.454  15.018 -0.2520 -0.5336 -0.0226
 1798SOL    HW116853   3.787   1.422  15.100  0.2082  0.1142  0.0189
 1798SOL    HW216854   3.683   1.510  15.060 -2.1601 -2.2181 -0.8245
 1799SOL     OW16855   3.008   4.565   4.595 -0.6387  0.4493  0.0748
 1799SOL    HW116856   2.936   4.517   4.635  0.2974 -1.7972 -0.9259
 1799SOL    HW216857   3.020   4.637   4.657 -2.2117  2.2572 -1.6922
 1800SOL     OW16858   1.514   0.365   5.192  0.8913  0.4023 -0.7810
 1800SOL    HW116859   1.464   0.299   5.241  0.9356  0.3873 -0.7559
 1800SOL    HW216860   1.455   0.372   5.117  2.2816 -0.3760 -1.9502
 1801SOL     OW16861   3.607   4.047   6.152 -0.3189 -0.4175  0.0130
 1801SOL    HW116862   3.602   4.130   6.103  2.0377  1.1404  2.3961
 1801SOL    HW216863   3.674   4.010   6.093  0.1051  2.7418 -1.5134
 1802SOL     OW16864   3.951   0.020   7.568 -0.2382 -0.0168  0.0041
 1802SOL    HW116865   3.888   4.686   7.605 -0.4087 -0.8125 -1.6195
 1802SOL    HW216866   4.025   4.715   7.620 -0.3310 -0.0644  0.1066
 1803SOL     OW16867   0.072   0.646   3.247 -0.0912  0.1930  0.1612
 1803SOL    HW116868   0.132   0.685   3.311  0.1086  0.0430  0.0665
 1803SOL    HW216869   0.034   0.727   3.214  1.4083  0.9011  0.1694
 1804SOL     OW16870   0.442   0.858  11.179  0.0918 -0.3701 -0.3110
 1804SOL    HW116871   0.350   0.859  11.206  1.1798  1.7690  3.2918
 1804SOL    HW216872   0.430   0.784  11.120 -1.6329  0.8816 -1.5263
 1805SOL     OW16873   3.858   0.128  15.477 -0.0062  0.7103  0.0499
 1805SOL    HW116874   3.876   0.194  15.410  1.2705 -0.7965 -1.0826
 1805SOL    HW216875   3.811   0.187  15.536 -1.5861 -0.9876  0.5058
 1806SOL     OW16876   3.837   2.359   7.987 -0.0306 -0.0614  0.6460
 1806SOL    HW116877   3.746   2.382   8.006  0.3211  0.7822  1.2897
 1806SOL    HW216878   3.867   2.366   8.077 -1.3535  2.4348  0.8900
 1807SOL     OW16879   2.533   4.483   5.947  0.0855 -0.0891  0.2111
 1807SOL    HW116880   2.505   4.547   6.013 -3.3427 -2.5517  1.1102
 1807SOL    HW216881   2.491   4.509   5.865  2.3299  2.4237 -0.1685
 1808SOL     OW16882   3.752   4.668   6.218 -0.5990 -0.0704 -0.1381
 1808SOL    HW116883   3.716   0.027   6.198 -0.4578  0.1628  0.6069
 1808SOL    HW216884   3.846   4.668   6.196 -0.6443 -0.1217 -0.3275
 1809SOL     OW16885   4.191   1.158   4.299 -0.2513 -0.2753 -0.1285
 1809SOL    HW116886   4.194   1.190   4.389 -0.0238 -0.2222 -0.1569
 1809SOL    HW216887   4.240   1.234   4.269  0.0105  0.4222  2.0983
 1810SOL     OW16888   2.946   2.462  16.897  0.1399 -0.0445 -0.3585
 1810SOL    HW116889   2.899   2.510  16.966 -2.0370  0.7163 -2.3922
 1810SOL    HW216890   2.894   2.382  16.889  1.4466 -0.9693  0.3516
 1811SOL     OW16891   0.452   0.234  11.845 -0.0203 -0.2847 -0.3316
 1811SOL    HW116892   0.524   0.265  11.900  0.3127  2.2513 -2.2005
 1811SOL    HW216893   0.430   0.314  11.798 -0.4231  0.4729  1.1420
 1812SOL     OW16894   0.292   0.120   0.616  0.0169  0.2745  0.1487
 1812SOL    HW116895   0.203   0.085   0.610 -0.9556  2.8347 -0.3313
 1812SOL    HW216896   0.278   0.186   0.684 -1.9367  0.8272 -0.8036
 1813SOL     OW16897   2.081   2.741  10.233  0.2089  0.2861  0.2746
 1813SOL    HW116898   2.111   2.784  10.153 -0.3674  0.6652  0.2673
 1813SOL    HW216899   2.158   2.686  10.249  0.5168  0.9691  1.1256
 1814SOL     OW16900   1.557   2.204   2.346 -0.0793 -0.2916 -0.0450
 1814SOL    HW116901   1.597   2.127   2.306  1.8719  0.8186 -0.2496
 1814SOL    HW216902   1.634   2.260   2.335  0.0079 -0.1814  1.0563
 1815SOL     OW16903   0.916   1.038   8.639 -0.2057 -0.0566 -0.2229
 1815SOL    HW116904   0.980   1.024   8.569  1.7525  1.9645  1.1745
 1815SOL    HW216905   0.959   0.981   8.702  0.4077  1.1413  0.4460
 1816SOL     OW16906   4.326   0.617   5.222  0.1479 -0.1623 -0.3154
 1816SOL    HW116907   4.237   0.591   5.247  0.4172 -0.1344  0.6856
 1816SOL    HW216908   4.312   0.634   5.129 -1.3256  0.6790  0.0475
 1817SOL     OW16909   3.261   4.145   1.355  1.0084 -0.3489  0.3117
 1817SOL    HW116910   3.218   4.225   1.325  1.4515  0.2503  1.2584
 1817SOL    HW216911   3.354   4.163   1.340  0.3559  0.8068 -2.3607
 1818SOL     OW16912   0.227   2.978   6.365  0.2415  0.3854  0.2069
 1818SOL    HW116913   0.285   2.981   6.441  0.1526  1.3073  0.2316
 1818SOL    HW216914   0.257   3.057   6.321  0.0168  0.1391 -0.3904
 1819SOL     OW16915   1.183   0.111   9.508  0.1181 -0.6481 -0.0254
 1819SOL    HW116916   1.199   0.148   9.594  2.1401 -1.8698  0.1328
 1819SOL    HW216917   1.089   0.101   9.522 -0.0083 -4.2101 -3.3172
 1820SOL     OW16918   0.802   3.562  17.487  0.8789 -0.1534  0.3152
 1820SOL    HW116919   0.861   3.527  17.420 -0.4484 -0.2636 -0.7926
 1820SOL    HW216920   0.862   3.623  17.531  0.2808  1.7654 -1.5287
 1821SOL     OW16921   3.885   3.763   2.879 -0.1013 -0.2361  0.7629
 1821SOL    HW116922   3.830   3.799   2.809  0.9668 -1.6962 -0.8408
 1821SOL    HW216923   3.933   3.844   2.897  0.9718 -0.7200  0.0692
 1822SOL     OW16924   3.320   0.868   4.981  0.9750 -0.1950 -0.0415
 1822SOL    HW116925   3.322   0.905   4.892  1.6322  1.6417  0.7453
 1822SOL    HW216926   3.262   0.796   4.956 -0.0913  0.3579  0.8585
 1823SOL     OW16927   4.134   2.450  16.742 -0.4868 -0.1786 -0.0813
 1823SOL    HW116928   4.079   2.375  16.764 -0.8056 -0.3190 -1.3318
 1823SOL    HW216929   4.090   2.479  16.661 -3.4419  1.4567  2.1164
 1824SOL     OW16930   0.933   3.428  15.390  0.8043 -0.0210 -0.6112
 1824SOL    HW116931   0.893   3.345  15.417  1.4312 -0.4949 -1.1209
 1824SOL    HW216932   0.863   3.460  15.333 -1.8201 -0.6527  2.2619
 1825SOL     OW16933   0.692   2.539   7.311 -0.0086 -0.4299  0.2629
 1825SOL    HW116934   0.687   2.520   7.404 -0.5929 -0.5000  0.2155
 1825SOL    HW216935   0.786   2.525   7.299 -0.0790 -2.4618  2.2779
 1826SOL     OW16936   4.655   0.341  14.815  0.0385  0.5788 -0.5954
 1826SOL    HW116937   4.675   0.265  14.870  1.0651 -0.7982 -2.8980
 1826SOL    HW216938   4.696   0.322  14.731 -1.8440 -1.2682 -1.1008
 1827SOL     OW16939   2.364   2.811   2.811  0.7464 -0.0503 -0.1505
 1827SOL    HW116940   2.398   2.817   2.901  2.6519  1.1961 -0.9585
 1827SOL    HW216941   2.315   2.729   2.809 -2.7464  1.9756  2.6621
 1828SOL     OW16942   2.313   3.670   1.560 -0.3178  0.1204  0.0598
 1828SOL    HW116943   2.316   3.594   1.501  0.7628 -0.8454  1.3459
 1828SOL    HW216944   2.403   3.660   1.592 -0.2272  0.4079 -0.1049
 1829SOL     OW16945   3.748   4.399  17.443  0.0369  0.1646 -0.0448
 1829SOL    HW116946   3.765   4.397  17.537  0.6370  0.8313 -0.1357
 1829SOL    HW216947   3.764   4.490  17.418 -1.3966 -0.4220 -3.1630
 1830SOL     OW16948   3.166   1.218   5.563  0.7220  0.2686 -0.0332
 1830SOL    HW116949   3.205   1.246   5.480 -0.2801 -1.0041 -0.9348
 1830SOL    HW216950   3.217   1.139   5.585 -2.7728 -1.4637  1.7919
 1831SOL     OW16951   3.472   2.935   6.246 -0.2097  0.2447 -0.1291
 1831SOL    HW116952   3.426   2.883   6.180  1.4150 -2.9825  1.3129
 1831SOL    HW216953   3.559   2.911   6.215 -0.2797  0.9904 -0.9132
 1832SOL     OW16954   4.178   1.024  15.530 -0.5316 -0.6924 -0.0903
 1832SOL    HW116955   4.127   1.049  15.453 -0.0870 -1.1310 -0.5294
 1832SOL    HW216956   4.107   1.034  15.593 -0.1865  0.5880  0.0987
 1833SOL     OW16957   1.501   4.326   8.130 -0.1966  0.4075  0.0438
 1833SOL    HW116958   1.591   4.357   8.142 -0.5783  0.5176  2.6211
 1833SOL    HW216959   1.481   4.278   8.211 -0.7871 -1.0720 -0.9766
 1834SOL     OW16960   1.684   1.253   3.899 -0.2483 -0.3992  0.0141
 1834SOL    HW116961   1.669   1.281   3.990 -0.5196  1.0421 -0.4928
 1834SOL    HW216962   1.594   1.222   3.888 -0.9965  1.7734  0.1561
 1835SOL     OW16963   4.359   0.172   7.681 -0.3643  0.0889  0.1929
 1835SOL    HW116964   4.447   0.201   7.707  0.2359 -2.5149  1.0493
 1835SOL    HW216965   4.375   0.079   7.667 -2.7788  0.2640 -3.4832
 1836SOL     OW16966   4.605   4.464  10.896  0.0099  0.3014 -0.7085
 1836SOL    HW116967   4.675   4.500  10.951 -1.1788 -0.1163  1.0762
 1836SOL    HW216968   4.539   4.533  10.900  0.2781  0.5137 -0.0159
 1837SOL     OW16969   2.724   1.720   3.583 -0.7423 -0.1748 -0.0750
 1837SOL    HW116970   2.801   1.716   3.639 -0.7638 -0.8680 -0.0949
 1837SOL    HW216971   2.730   1.810   3.551  0.0295  0.1684  1.0645
 1838SOL     OW16972   2.558   0.395   9.604 -0.7748 -0.2359  0.2106
 1838SOL    HW116973   2.592   0.480   9.634  1.5498 -0.2489 -2.3439
 1838SOL    HW216974   2.466   0.413   9.587 -0.8136 -1.7032 -1.1466
 1839SOL     OW16975   1.911   3.214   2.656 -0.0271 -0.0148 -0.3105
 1839SOL    HW116976   1.924   3.279   2.725 -1.9404 -0.6804  0.7130
 1839SOL    HW216977   1.964   3.255   2.588 -0.8572  0.8140 -0.4611
 1840SOL     OW16978   0.549   3.860  12.078 -0.4209  0.3643 -0.3870
 1840SOL    HW116979   0.618   3.834  12.018 -0.2793 -0.8440  0.2931
 1840SOL    HW216980   0.476   3.814  12.035 -0.3105 -2.0518  1.9788
 1841SOL     OW16981   1.578   2.402   4.346 -0.2129 -0.2494 -0.0855
 1841SOL    HW116982   1.575   2.475   4.284  2.5427  0.9996  1.2537
 1841SOL    HW216983   1.638   2.441   4.411 -0.2320 -0.0999 -0.1569
 1842SOL     OW16984   2.008   3.162   7.625 -0.2980  0.3081  0.0284
 1842SOL    HW116985   2.058   3.081   7.623 -0.4820  0.2054 -0.6211
 1842SOL    HW216986   2.078   3.219   7.656  0.3739 -0.7684  0.4701
 1843SOL     OW16987   2.765   3.596   6.656  0.4102  0.7384  0.4720
 1843SOL    HW116988   2.789   3.632   6.571  0.1028 -0.0116  0.0657
 1843SOL    HW216989   2.851   3.597   6.699  0.0043  0.6428  1.2952
 1844SOL     OW16990   0.442   1.002  13.668 -0.3097  0.4609 -0.3011
 1844SOL    HW116991   0.417   0.951  13.745  0.6800  0.4451  0.0141
 1844SOL    HW216992   0.401   1.088  13.679  1.3507  0.7406  3.7439
 1845SOL     OW16993   2.138   2.797   3.617 -0.0659  1.2470 -0.1466
 1845SOL    HW116994   2.064   2.856   3.632 -1.5845 -0.0873 -2.2126
 1845SOL    HW216995   2.142   2.802   3.521  0.5940  0.1674 -0.1830
 1846SOL     OW16996   2.040   1.692   6.258  0.2578 -0.1382  0.1907
 1846SOL    HW116997   2.073   1.610   6.294 -0.0491 -0.8733 -1.1977
 1846SOL    HW216998   2.036   1.755   6.330 -0.2977  1.2920 -1.0894
 1847SOL     OW16999   3.623   4.414   0.791 -0.2032 -0.0464 -0.2142
 1847SOL    HW117000   3.635   4.386   0.700  0.1078  0.0670 -0.2072
 1847SOL    HW217001   3.685   4.486   0.803 -1.0224  0.9062 -1.6720
 1848SOL     OW17002   1.658   0.948   4.125 -0.2927  0.6249 -0.2348
 1848SOL    HW117003   1.702   0.947   4.040 -1.7373  2.1446 -0.9912
 1848SOL    HW217004   1.726   0.994   4.174 -0.0003 -0.6126  0.5202
 1849SOL     OW17005   0.056   3.093   7.384  0.4266  0.1387  0.2311
 1849SOL    HW117006   0.062   3.175   7.336  0.8778 -0.6179 -0.9977
 1849SOL    HW217007   0.090   3.116   7.471 -0.3372 -0.7060  0.7451
 1850SOL     OW17008   4.130   1.802   9.472 -0.1353  0.1002  0.3349
 1850SOL    HW117009   4.133   1.747   9.550 -0.8557  0.6426  0.7438
 1850SOL    HW217010   4.065   1.863   9.506 -2.0043 -1.0609 -1.2000
 1851SOL     OW17011   3.960   3.152  15.888 -0.5934 -0.3590  0.2048
 1851SOL    HW117012   4.045   3.132  15.849  0.0428  1.6861  0.5774
 1851SOL    HW217013   3.910   3.078  15.853  0.1904 -1.0588  0.5708
 1852SOL     OW17014   3.937   2.283   6.992 -0.2241 -1.2094 -0.0885
 1852SOL    HW117015   4.023   2.266   6.955  0.0797 -0.5382  0.3078
 1852SOL    HW217016   3.968   2.260   7.079 -0.9339 -1.9843 -0.0460
 1853SOL     OW17017   4.299   2.172   3.511 -0.5390  0.0152 -0.0491
 1853SOL    HW117018   4.295   2.159   3.416 -1.1483 -2.5942  0.3369
 1853SOL    HW217019   4.385   2.213   3.519 -1.3163  1.7046 -0.4428
 1854SOL     OW17020   0.970   2.913   1.235 -0.4643  0.3583  0.3602
 1854SOL    HW117021   0.952   2.990   1.182 -1.5241  0.7308  1.2519
 1854SOL    HW217022   1.046   2.941   1.286 -0.2323 -0.0728  0.2561
 1855SOL     OW17023   2.393   4.058   7.418  0.3904  0.0529  0.2480
 1855SOL    HW117024   2.461   4.023   7.475 -0.6788 -0.0799  1.4468
 1855SOL    HW217025   2.388   3.993   7.348 -2.3117  0.9435 -0.3825
 1856SOL     OW17026   3.055   3.688   4.690  0.6773 -0.3175  0.9355
 1856SOL    HW117027   2.969   3.666   4.726  0.8021 -1.8945  0.2506
 1856SOL    HW217028   3.086   3.615   4.637 -1.7428 -0.3838 -0.3754
 1857SOL     OW17029   4.485   1.637  12.353 -0.3387  0.0768 -0.1562
 1857SOL    HW117030   4.438   1.559  12.323  2.1423 -2.0358  1.4829
 1857SOL    HW217031   4.567   1.605  12.390  0.2861  1.9150  0.0646
 1858SOL     OW17032   2.556   3.103   7.308  0.1068 -0.3537  0.4367
 1858SOL    HW117033   2.546   3.180   7.252 -0.6348  0.1094  1.2064
 1858SOL    HW217034   2.559   3.040   7.237  1.5599  1.8374 -1.4549
 1859SOL     OW17035   3.507   3.924   3.435 -0.6301  0.5697  0.7856
 1859SOL    HW117036   3.467   3.839   3.416  0.8971  0.3623 -1.5162
 1859SOL    HW217037   3.427   3.970   3.460 -0.1977  0.5909  2.1442
 1860SOL     OW17038   0.379   2.586  11.799  0.1630  0.1480  0.1312
 1860SOL    HW117039   0.307   2.642  11.829 -0.6831 -2.3775  2.8537
 1860SOL    HW217040   0.349   2.495  11.793  1.9893 -0.5114  1.2236
 1861SOL     OW17041   1.561   2.783  16.458 -0.2870 -0.3195  0.4286
 1861SOL    HW117042   1.588   2.719  16.524  2.0782  1.2573  0.9879
 1861SOL    HW217043   1.581   2.869  16.494 -0.2373  0.7489 -2.1432
 1862SOL     OW17044   2.757   0.663   5.660 -0.4464  0.5674  0.1116
 1862SOL    HW117045   2.663   0.654   5.676 -0.5887 -0.1500 -1.1296
 1862SOL    HW217046   2.762   0.595   5.593 -0.6051 -0.1830  0.8546
 1863SOL     OW17047   3.202   2.473   4.616 -0.2322  0.3485 -0.3808
 1863SOL    HW117048   3.212   2.568   4.627 -2.5575  0.6165 -0.5996
 1863SOL    HW217049   3.292   2.451   4.592  0.4382  0.2444  2.2057
 1864SOL     OW17050   3.352   3.906   1.675  0.3655 -0.0523  0.7247
 1864SOL    HW117051   3.283   3.921   1.610  1.2280  2.5332  0.4048
 1864SOL    HW217052   3.422   3.880   1.616 -2.0296 -2.6832 -0.9536
 1865SOL     OW17053   4.520   2.776  14.176  0.6612 -0.3805 -0.3167
 1865SOL    HW117054   4.566   2.820  14.248  2.0248  0.5714 -1.7746
 1865SOL    HW217055   4.580   2.799  14.105  0.1393  1.1590 -0.2725
 1866SOL     OW17056   3.459   4.161   4.648  0.3376 -0.4665 -0.2619
 1866SOL    HW117057   3.554   4.172   4.658  0.7074 -2.2792 -1.7212
 1866SOL    HW217058   3.469   4.076   4.605  1.2032  0.3404 -1.6618
 1867SOL     OW17059   3.810   4.088   1.788  0.1729 -0.3197  0.1341
 1867SOL    HW117060   3.722   4.063   1.761 -0.2309  1.2466  0.0209
 1867SOL    HW217061   3.839   4.019   1.847  0.7642 -1.4621 -1.4789
 1868SOL     OW17062   2.142   3.316   0.857  0.6568 -0.4243  0.3619
 1868SOL    HW117063   2.129   3.234   0.808  0.3728 -2.0788  3.2309
 1868SOL    HW217064   2.176   3.274   0.936 -0.6752 -2.1826 -0.0015
 1869SOL     OW17065   2.731   2.851   0.090  0.2051 -0.1637  0.0119
 1869SOL    HW117066   2.750   2.944   0.108 -0.5460  0.3069 -1.6564
 1869SOL    HW217067   2.711   2.860  17.707  0.9361  0.6645 -0.0655
 1870SOL     OW17068   3.410   4.316  10.402 -0.2318 -0.2239  0.1680
 1870SOL    HW117069   3.351   4.290  10.332  0.3755 -1.3202  0.0713
 1870SOL    HW217070   3.448   4.237  10.439  0.7956  0.2314  0.1095
 1871SOL     OW17071   0.997   2.196   2.691 -0.1706  0.6563  0.1582
 1871SOL    HW117072   0.972   2.284   2.664  2.3379  1.1126 -0.6884
 1871SOL    HW217073   1.087   2.189   2.658 -0.4349  1.0395 -0.6470
 1872SOL     OW17074   2.078   1.076   9.522  0.2356 -0.0430  0.5760
 1872SOL    HW117075   2.085   1.156   9.574  1.9238 -0.0154  0.3113
 1872SOL    HW217076   2.170   1.052   9.511  0.4991  0.9090  0.6903
 1873SOL     OW17077   2.806   0.251   5.927 -0.3726  0.1160  0.2183
 1873SOL    HW117078   2.799   0.162   5.962  1.1075  0.0219  0.2643
 1873SOL    HW217079   2.873   0.234   5.860 -1.7664  1.6151 -1.5829
 1874SOL     OW17080   0.212   4.062   3.332  0.0120 -0.9653  0.6252
 1874SOL    HW117081   0.162   4.034   3.254 -0.3193 -0.1808  0.5515
 1874SOL    HW217082   0.300   4.075   3.298 -0.3178 -1.0344 -0.2541
 1875SOL     OW17083   0.322   0.338  14.901  0.2850  0.0421  0.6724
 1875SOL    HW117084   0.260   0.396  14.946 -0.0112 -0.8938  1.4921
 1875SOL    HW217085   0.360   0.400  14.839 -2.5278  0.9371 -0.1733
 1876SOL     OW17086   1.717   1.027   5.807 -0.0115 -0.7166 -0.2327
 1876SOL    HW117087   1.648   1.063   5.751  2.1515  2.2159 -1.0196
 1876SOL    HW217088   1.793   1.070   5.767  0.1388 -0.8280 -0.0714
 1877SOL     OW17089   2.421   3.271   7.929  0.0831 -0.1321  0.3224
 1877SOL    HW117090   2.512   3.290   7.908  0.1858 -0.4732  0.4594
 1877SOL    HW217091   2.434   3.256   8.023 -1.3792  0.0397  0.5589
 1878SOL     OW17092   3.996   3.048  10.714 -0.2327 -0.1486 -0.1881
 1878SOL    HW117093   4.028   2.958  10.710 -3.2663 -1.3436  1.8309
 1878SOL    HW217094   3.935   3.032  10.787  1.1199  2.3424  1.4895
 1879SOL     OW17095   1.565   1.584   2.201  0.2029 -0.0940  0.0546
 1879SOL    HW117096   1.545   1.506   2.253 -2.4098 -0.7009 -1.8679
 1879SOL    HW217097   1.638   1.541   2.157  1.6105  2.7158 -0.3441
 1880SOL     OW17098   2.574   3.916  14.241 -0.1109  0.7308  1.1766
 1880SOL    HW117099   2.530   3.839  14.205  0.7865  0.5709  0.4140
 1880SOL    HW217100   2.564   3.970  14.163 -1.8702 -1.3601 -0.0308
 1881SOL     OW17101   3.693   4.356  13.581  0.1688 -0.2509 -0.1630
 1881SOL    HW117102   3.677   4.443  13.543  0.7176 -0.6657 -1.3618
 1881SOL    HW217103   3.657   4.291  13.521 -0.3674 -0.5099  0.4371
 1882SOL     OW17104   1.225   0.883   5.542  0.0074  0.4323  0.7507
 1882SOL    HW117105   1.260   0.836   5.467 -0.5057  0.8261  0.2705
 1882SOL    HW217106   1.130   0.878   5.547 -0.1915  1.4334 -2.2115
 1883SOL     OW17107   0.196   0.053   3.783  0.5332 -0.0353  0.5969
 1883SOL    HW117108   0.126   4.719   3.807  0.6100 -0.3876 -0.0623
 1883SOL    HW217109   0.206   0.034   3.690  2.9051  1.6231  0.5190
 1884SOL     OW17110   2.054   1.674  17.446  0.0341 -0.1257  0.4959
 1884SOL    HW117111   2.080   1.737  17.513  1.7758  0.5180 -0.7928
 1884SOL    HW217112   2.070   1.592  17.493 -0.4455 -0.1793  0.5708
 1885SOL     OW17113   1.947   0.788   6.372 -0.4684 -0.1404 -0.9128
 1885SOL    HW117114   1.947   0.819   6.281  3.3915 -0.0221 -0.8692
 1885SOL    HW217115   2.030   0.742   6.381 -1.3419 -1.1279  1.9429
 1886SOL     OW17116   0.500   0.888  15.777  0.5266 -0.4745 -0.4171
 1886SOL    HW117117   0.521   0.973  15.817 -2.6547  0.6786 -1.2062
 1886SOL    HW217118   0.501   0.903  15.682 -0.2708  1.1359 -0.1708
 1887SOL     OW17119   2.891   4.446   3.944 -0.1811 -0.7498  0.5646
 1887SOL    HW117120   2.798   4.427   3.955 -0.6653  1.2211 -0.1928
 1887SOL    HW217121   2.883   4.521   3.885  0.9652 -1.5284 -0.5838
 1888SOL     OW17122   2.630   3.476   3.751 -0.1654 -0.1131 -0.5011
 1888SOL    HW117123   2.623   3.405   3.815  0.6333 -1.3022 -1.7453
 1888SOL    HW217124   2.609   3.433   3.668  1.5023 -0.8957 -0.5249
 1889SOL     OW17125   1.409   2.421  17.120 -0.8210 -0.1417 -0.3754
 1889SOL    HW117126   1.431   2.458  17.034  0.1196 -0.1710 -0.1444
 1889SOL    HW217127   1.351   2.487  17.156  0.8630  1.5369 -0.7166
 1890SOL     OW17128   1.827   2.304   0.979  0.2887 -0.2665  0.1118
 1890SOL    HW117129   1.835   2.223   1.030 -1.1812  0.5364  1.6066
 1890SOL    HW217130   1.816   2.361   1.055  0.3918  0.5048 -0.4559
 1891SOL     OW17131   1.039   4.705   5.672 -0.4184 -0.3457 -0.3102
 1891SOL    HW117132   0.962   0.007   5.625 -0.2065 -0.2299 -0.5851
 1891SOL    HW217133   1.069   4.629   5.621  2.7724  1.4468 -1.1283
 1892SOL     OW17134   2.749   0.099   4.675 -0.3631  0.5950 -0.0272
 1892SOL    HW117135   2.715   0.012   4.695 -0.0915  0.2907 -0.9088
 1892SOL    HW217136   2.839   0.096   4.709 -1.4000  0.7382  2.7487
 1893SOL     OW17137   2.755   3.852  14.557  0.3178  0.3291  0.0520
 1893SOL    HW117138   2.678   3.821  14.604  0.4109 -0.7733 -0.5191
 1893SOL    HW217139   2.752   3.797  14.479 -0.0990 -1.3710  1.2691
 1894SOL     OW17140   4.276   3.675   2.015  0.2787 -1.4556  0.6710
 1894SOL    HW117141   4.264   3.581   2.028  0.1262 -1.5952 -0.4925
 1894SOL    HW217142   4.369   3.686   1.998 -0.2133  0.0360 -1.0834
 1895SOL     OW17143   2.609   1.819   1.606 -0.2643  0.5182 -0.4549
 1895SOL    HW117144   2.545   1.890   1.595  0.3155  1.5065  2.7249
 1895SOL    HW217145   2.549   1.745   1.592  1.4468 -0.9604  0.0027
 1896SOL     OW17146   2.405   1.696   9.640 -0.3922 -0.0726 -0.1688
 1896SOL    HW117147   2.436   1.760   9.705 -0.2840 -0.9311  0.6224
 1896SOL    HW217148   2.387   1.763   9.574  0.6028 -1.4237 -1.8046
 1897SOL     OW17149   1.709   3.165   6.568 -0.1261 -0.8190  0.1443
 1897SOL    HW117150   1.682   3.228   6.634 -0.3457  0.5152 -1.2167
 1897SOL    HW217151   1.740   3.219   6.495 -1.7546  0.7419  0.6141
 1898SOL     OW17152   2.896   0.789   8.965  0.3406  0.2953  0.0631
 1898SOL    HW117153   2.844   0.784   8.884  1.2590 -2.2289 -0.3761
 1898SOL    HW217154   2.986   0.771   8.940  1.2025  3.2309  1.0473
 1899SOL     OW17155   1.899   3.530  15.760  0.3158  0.0462  0.0656
 1899SOL    HW117156   1.825   3.475  15.787  1.7528 -1.6953  0.5068
 1899SOL    HW217157   1.917   3.587  15.835  3.5714  0.7712 -1.3010
 1900SOL     OW17158   4.085   1.382   6.787  0.2962  0.2020 -0.3002
 1900SOL    HW117159   4.126   1.340   6.711 -0.6616 -0.1096 -0.6455
 1900SOL    HW217160   4.148   1.366   6.857 -1.3095 -1.2986  0.7868
 1901SOL     OW17161   0.730   3.189   8.222  0.1458  0.1069  0.2625
 1901SOL    HW117162   0.660   3.209   8.285 -0.7128  2.7909 -1.5518
 1901SOL    HW217163   0.801   3.162   8.281 -0.4881  1.8358  1.8394
 1902SOL     OW17164   1.832   2.504   7.009  0.4395 -0.1850  0.3330
 1902SOL    HW117165   1.873   2.538   7.088  0.4157 -1.4791  0.9010
 1902SOL    HW217166   1.785   2.577   6.969  0.1218 -1.1407 -1.0554
 1903SOL     OW17167   1.665   3.593   4.436 -0.2625 -0.1982  0.1637
 1903SOL    HW117168   1.757   3.596   4.409 -0.0306 -0.7413  0.8785
 1903SOL    HW217169   1.638   3.508   4.402 -1.3917  0.2305 -0.0042
 1904SOL     OW17170   3.780   3.088   0.168  0.2874  0.0283 -0.4493
 1904SOL    HW117171   3.717   3.150   0.205 -0.0563 -0.7559  0.2854
 1904SOL    HW217172   3.821   3.147   0.105  1.0299 -0.4287 -0.3875
 1905SOL     OW17173   0.396   0.138   6.409  0.2861  0.3980  0.3326
 1905SOL    HW117174   0.418   0.135   6.502 -0.1410 -1.6341  0.3533
 1905SOL    HW217175   0.418   0.048   6.387 -0.6239  0.3256 -0.2879
 1906SOL     OW17176   3.148   3.424   1.816  0.0328 -0.2892 -0.4581
 1906SOL    HW117177   3.172   3.516   1.810  0.7219 -0.4377  0.0394
 1906SOL    HW217178   3.211   3.392   1.751  0.3924 -0.2136 -0.1440
 1907SOL     OW17179   1.521   3.605   3.084  0.2561  0.2332  0.2478
 1907SOL    HW117180   1.519   3.579   2.991  1.7921  1.1945 -0.0545
 1907SOL    HW217181   1.429   3.633   3.091  0.0205 -0.5205  0.1959
 1908SOL     OW17182   1.466   2.979   8.154 -0.4421  0.1030 -0.0082
 1908SOL    HW117183   1.467   3.071   8.180  0.4765  0.2719 -0.6212
 1908SOL    HW217184   1.444   2.976   8.061  2.3356 -2.1206 -0.6018
 1909SOL     OW17185   3.557   0.975   5.057  0.4545  0.2957 -0.0126
 1909SOL    HW117186   3.498   0.902   5.037  1.4790 -0.1137 -1.5163
 1909SOL    HW217187   3.624   0.963   4.990  0.8649  2.6855 -0.0319
 1910SOL     OW17188   4.002   2.924   6.403 -0.2208 -0.6658  0.1697
 1910SOL    HW117189   3.940   2.981   6.449 -0.7139 -0.6927 -0.4457
 1910SOL    HW217190   4.074   2.984   6.385 -0.6514  0.1062  1.0478
 1911SOL     OW17191   0.190   1.937  12.025 -0.3834 -0.2037  0.3938
 1911SOL    HW117192   0.188   1.913  11.933  1.1013  1.8007 -0.1901
 1911SOL    HW217193   0.157   2.027  12.029  1.5690  0.5413 -0.1979
 1912SOL     OW17194   4.172   0.663   7.740 -0.0328  0.3597 -0.2392
 1912SOL    HW117195   4.170   0.590   7.678 -0.6675  1.4440 -1.4748
 1912SOL    HW217196   4.125   0.622   7.814 -1.6787  0.3338 -1.2964
 1913SOL     OW17197   3.030   3.824   2.395 -0.6066  0.3312  0.4009
 1913SOL    HW117198   3.113   3.812   2.441 -0.7431 -2.2516  0.0067
 1913SOL    HW217199   2.992   3.736   2.392  1.6000 -0.5890 -0.8752
 1914SOL     OW17200   4.430   4.260   3.031 -0.1871  0.2580  0.1533
 1914SOL    HW117201   4.390   4.180   3.066 -0.3971  0.3667  0.1578
 1914SOL    HW217202   4.421   4.315   3.108  0.4018  0.7532 -0.1394
 1915SOL     OW17203   3.291   2.846   1.006 -0.6465 -0.3025 -0.5988
 1915SOL    HW117204   3.202   2.816   1.025 -0.3158  0.7712  2.6209
 1915SOL    HW217205   3.290   2.936   1.037  2.8686  0.9488 -4.2269
 1916SOL     OW17206   0.639   2.555   8.720  0.4833  0.1270 -0.3514
 1916SOL    HW117207   0.559   2.526   8.764  0.3955 -0.0438 -0.6219
 1916SOL    HW217208   0.655   2.634   8.771  2.1191 -0.9166  0.7703
 1917SOL     OW17209   2.377   1.261   8.147 -0.1204  0.6979 -0.4123
 1917SOL    HW117210   2.460   1.279   8.191 -0.5162  0.1853  0.5394
 1917SOL    HW217211   2.335   1.344   8.171 -0.9448  0.2449 -0.2857
 1918SOL     OW17212   4.673   4.163  13.947  0.3322  0.5128  0.7964
 1918SOL    HW117213   4.610   4.224  13.908 -0.9691 -0.9652  0.5769
 1918SOL    HW217214   4.677   4.099  13.877 -0.2843  1.5943 -0.2389
 1919SOL     OW17215   1.344   1.503   6.519 -0.2180  0.1254 -0.2535
 1919SOL    HW117216   1.382   1.442   6.457 -0.2015 -0.2726  0.1466
 1919SOL    HW217217   1.413   1.567   6.502  1.8216 -1.6520  1.2879
 1920SOL     OW17218   1.939   0.194   9.489  0.6215  0.0002 -0.1482
 1920SOL    HW117219   1.981   0.268   9.533 -1.3695  2.2700 -2.1342
 1920SOL    HW217220   1.876   0.150   9.546  2.0387  0.3968  1.7681
 1921SOL     OW17221   2.754   1.927   4.356  0.2378  0.3625  0.1665
 1921SOL    HW117222   2.822   1.928   4.423 -0.1395 -0.8347  0.5645
 1921SOL    HW217223   2.735   2.020   4.341 -2.1882 -0.1212  0.1984
 1922SOL     OW17224   4.473   2.014  15.773 -0.4111  0.0646 -0.1918
 1922SOL    HW117225   4.387   1.977  15.794  0.1344 -0.7272  0.6434
 1922SOL    HW217226   4.468   2.105  15.802 -0.6442  0.1330 -0.4397
 1923SOL     OW17227   3.656   2.474   3.630 -0.2568  0.0711  0.0502
 1923SOL    HW117228   3.587   2.534   3.658 -0.2522  0.6665 -1.2230
 1923SOL    HW217229   3.730   2.528   3.599 -0.4712 -0.9650 -2.2364
 1924SOL     OW17230   2.223   1.695  13.104  0.4439 -0.0865  0.3099
 1924SOL    HW117231   2.244   1.788  13.094  0.4212 -0.1195 -0.0449
 1924SOL    HW217232   2.166   1.709  13.179 -0.9194  0.1963 -0.7784
 1925SOL     OW17233   2.588   3.420   5.199 -0.3946 -0.3011  0.1002
 1925SOL    HW117234   2.679   3.450   5.192 -0.4019 -0.3153 -0.0741
 1925SOL    HW217235   2.609   3.358   5.269  1.3196 -1.1209 -1.1360
 1926SOL     OW17236   1.512   1.196   4.430  0.8332  0.4993 -0.4186
 1926SOL    HW117237   1.571   1.190   4.506 -1.0111 -1.5555  0.8650
 1926SOL    HW217238   1.561   1.250   4.368  3.0538 -1.3195 -0.2560
 1927SOL     OW17239   1.750   4.218  10.446  0.2789 -0.3794 -0.6523
 1927SOL    HW117240   1.670   4.224  10.395 -1.6437 -0.5479  2.3117
 1927SOL    HW217241   1.817   4.231  10.380 -2.7488  1.8728 -3.2327
 1928SOL     OW17242   4.196   3.812   7.912  0.3943 -0.0766 -0.0083
 1928SOL    HW117243   4.225   3.873   7.845 -1.0121  1.3988  0.7080
 1928SOL    HW217244   4.217   3.846   7.999 -2.1285  1.4468  0.0244
 1929SOL     OW17245   1.867   2.824  11.497  0.3767 -0.5003  0.6160
 1929SOL    HW117246   1.912   2.779  11.569 -2.4092 -3.0096  0.7718
 1929SOL    HW217247   1.800   2.757  11.492 -1.3104  1.2143  0.3777
 1930SOL     OW17248   2.684   1.142  11.983  0.4260  0.3278 -0.5387
 1930SOL    HW117249   2.767   1.169  12.022  0.0551  1.4463 -0.5373
 1930SOL    HW217250   2.626   1.207  12.021  0.8074  0.8766 -0.8993
 1931SOL     OW17251   0.630   1.669   2.407 -0.1986 -0.0457  0.7047
 1931SOL    HW117252   0.680   1.750   2.417  0.1403 -0.4756  2.5816
 1931SOL    HW217253   0.601   1.673   2.499 -0.1792 -1.2896  0.7623
 1932SOL     OW17254   4.564   2.997   1.678  0.2153 -0.1342 -0.6223
 1932SOL    HW117255   4.552   3.020   1.771  0.0676  3.5818 -1.5679
 1932SOL    HW217256   4.638   2.937   1.683  1.5723  1.7221  1.5409
 1933SOL     OW17257   1.685   4.238  16.749  0.2576 -0.7477  0.5320
 1933SOL    HW117258   1.773   4.274  16.755 -0.3152  0.4972  1.5469
 1933SOL    HW217259   1.671   4.185  16.828 -0.1850 -2.3002 -0.5933
 1934SOL     OW17260   2.308   4.235   5.753  0.2853 -0.6900 -0.6070
 1934SOL    HW117261   2.292   4.141   5.761 -1.5680 -0.5719 -2.8834
 1934SOL    HW217262   2.377   4.235   5.819 -1.6606  0.3741  1.4026
 1935SOL     OW17263   1.336   0.390  10.056 -0.1959 -0.1061  0.3519
 1935SOL    HW117264   1.420   0.427  10.084  0.0030 -1.7893  2.0432
 1935SOL    HW217265   1.356   0.368   9.965  2.1459  0.2762  0.7748
 1936SOL     OW17266   2.066   4.653   5.973  0.0121 -0.1473 -0.1940
 1936SOL    HW117267   1.981   4.633   5.935  0.1056  2.5265 -1.8494
 1936SOL    HW217268   2.057   0.008   6.022  1.7039  0.5754 -1.0861
 1937SOL     OW17269   2.523   1.650   6.267  0.4913 -0.1520  0.8548
 1937SOL    HW117270   2.605   1.692   6.291  0.2178  0.5767  0.5000
 1937SOL    HW217271   2.509   1.599   6.347  0.9207  0.8283  1.5524
 1938SOL     OW17272   1.163   2.037  10.447 -0.3742  0.3351 -0.1249
 1938SOL    HW117273   1.147   1.958  10.499 -0.0892 -0.9974 -2.0736
 1938SOL    HW217274   1.146   2.107  10.510  2.5204  0.9379  0.0027
 1939SOL     OW17275   4.367   2.650   3.028  0.1197 -0.4639  0.1678
 1939SOL    HW117276   4.306   2.628   3.098 -0.3684  2.0830  0.5460
 1939SOL    HW217277   4.401   2.732   3.063 -2.4074  1.0292 -0.9041
 1940SOL     OW17278   1.708   1.045   4.709 -0.3649 -0.0429  0.0931
 1940SOL    HW117279   1.788   1.016   4.666 -0.7688 -0.8353 -0.1064
 1940SOL    HW217280   1.697   0.975   4.773 -0.9900 -1.7203 -1.8455
 1941SOL     OW17281   2.974   2.784  14.851 -0.2886 -0.1657  0.1490
 1941SOL    HW117282   2.988   2.828  14.935  1.3527  0.5737 -0.4916
 1941SOL    HW217283   3.034   2.839  14.800  1.1091 -0.1615  1.8167
 1942SOL     OW17284   0.553   2.259   8.340  0.1087 -0.1243 -0.4005
 1942SOL    HW117285   0.632   2.240   8.290 -0.0037 -2.7155  0.4006
 1942SOL    HW217286   0.591   2.283   8.425  0.0765 -2.7320  0.3815
 1943SOL     OW17287   3.240   1.080   9.021  0.4446  0.4800  1.4152
 1943SOL    HW117288   3.251   1.034   9.104 -0.6470 -0.3981  1.0584
 1943SOL    HW217289   3.145   1.088   9.031  0.2813  2.1851 -1.3480
 1944SOL     OW17290   1.267   2.119   7.700  0.1260 -0.2276 -1.1240
 1944SOL    HW117291   1.178   2.131   7.734  0.1103  0.1924 -1.3175
 1944SOL    HW217292   1.303   2.200   7.736  0.6587 -0.4965 -1.0510
 1945SOL     OW17293   1.375   2.530   8.639  0.0692  0.1776  0.7278
 1945SOL    HW117294   1.325   2.601   8.599  0.7901  0.8174  0.9723
 1945SOL    HW217295   1.419   2.581   8.707  0.4674 -0.7552  1.1706
 1946SOL     OW17296   0.644   3.016   2.047  0.0628  0.2130  0.5513
 1946SOL    HW117297   0.589   2.961   1.990 -0.7049  2.0830 -0.5145
 1946SOL    HW217298   0.609   3.104   2.032 -2.5222 -0.5366  2.3246
 1947SOL     OW17299   3.282   2.468   2.822  0.4684  0.4476 -0.1331
 1947SOL    HW117300   3.281   2.373   2.834 -2.0673  0.5716  0.7278
 1947SOL    HW217301   3.365   2.478   2.868  0.6793 -2.2610  0.0722
 1948SOL     OW17302   3.105   3.988  16.943  0.2858 -0.1678  0.1950
 1948SOL    HW117303   3.171   3.969  16.876  0.5725 -1.4812  0.8642
 1948SOL    HW217304   3.135   4.074  16.973  0.0177 -0.4986  1.4169
 1949SOL     OW17305   4.484   3.296   1.883 -0.6153 -0.4742 -0.1634
 1949SOL    HW117306   4.403   3.331   1.920 -1.5225 -0.9345 -1.6864
 1949SOL    HW217307   4.519   3.369   1.832 -1.4277 -0.3214 -0.5117
 1950SOL     OW17308   2.456   1.391   4.074 -0.0281  0.0041 -0.0983
 1950SOL    HW117309   2.444   1.371   3.981 -0.6420  0.2917 -0.0816
 1950SOL    HW217310   2.503   1.315   4.109 -2.4665 -1.4593  0.0186
 1951SOL     OW17311   2.140   1.477   6.403 -0.3013 -0.3068 -0.3184
 1951SOL    HW117312   2.094   1.397   6.380  0.3752 -0.7128 -0.2636
 1951SOL    HW217313   2.152   1.469   6.497 -4.4130 -0.5705  0.1642
 1952SOL     OW17314   1.089   2.006   9.636 -0.3746 -0.3875 -0.0699
 1952SOL    HW117315   1.181   1.994   9.663 -1.1456  1.0099  3.2655
 1952SOL    HW217316   1.050   2.040   9.717  0.2842  0.2108  0.0053
 1953SOL     OW17317   2.152   3.251   9.195  0.4418  0.9411 -0.5094
 1953SOL    HW117318   2.243   3.254   9.225  1.0182 -1.4314 -1.9726
 1953SOL    HW217319   2.145   3.155   9.199 -2.7037  1.1760 -0.2952
 1954SOL     OW17320   0.207   3.094   6.967 -0.4399 -0.5209 -0.0067
 1954SOL    HW117321   0.207   3.013   6.916  3.4595 -0.2022 -0.4985
 1954SOL    HW217322   0.208   3.062   7.058  2.7682  1.3727  0.6331
 1955SOL     OW17323   0.331   1.179   7.266  0.3678 -0.0210  0.3987
 1955SOL    HW117324   0.423   1.185   7.291  0.3462  1.4257  0.0966
 1955SOL    HW217325   0.297   1.147   7.349 -0.3459 -2.2876 -0.7630
 1956SOL     OW17326   4.687   3.336  14.703 -0.0515  0.1489 -0.2675
 1956SOL    HW117327   4.618   3.382  14.655 -0.2092 -0.4401 -0.5983
 1956SOL    HW217328   4.640   3.315  14.783  0.4653  1.7580  0.4707
 1957SOL     OW17329   0.732   3.282   5.515 -0.1475  0.2669  0.1168
 1957SOL    HW117330   0.728   3.240   5.429  0.9160  2.6594 -1.0991
 1957SOL    HW217331   0.710   3.375   5.503 -4.1770 -0.8478 -1.1410
 1958SOL     OW17332   3.931   1.831  15.398 -0.3496 -0.5931  0.3919
 1958SOL    HW117333   3.848   1.830  15.351 -0.1786 -1.0899  0.1008
 1958SOL    HW217334   3.912   1.895  15.467  2.9323  0.5740  0.2383
 1959SOL     OW17335   0.825   1.728  16.928  0.0554 -0.6704  0.1869
 1959SOL    HW117336   0.757   1.663  16.913 -0.8608  0.6929 -1.4624
 1959SOL    HW217337   0.822   1.774  16.844  0.7360 -2.4862 -0.8316
 1960SOL     OW17338   0.973   4.469   4.948  0.1734  0.5885  0.4755
 1960SOL    HW117339   0.965   4.547   4.893  4.5926 -0.3462 -1.5185
 1960SOL    HW217340   1.066   4.450   4.962  1.1674  1.1827 -5.3695
 1961SOL     OW17341   2.389   1.521   5.856  0.0377  0.3132  0.2642
 1961SOL    HW117342   2.298   1.521   5.824 -0.0377  1.7573  0.4436
 1961SOL    HW217343   2.382   1.484   5.943 -1.4795  0.0435  0.0288
 1962SOL     OW17344   3.551   1.682   8.287  0.5219  0.0538 -0.2264
 1962SOL    HW117345   3.604   1.619   8.237 -0.2921 -0.9776  0.1984
 1962SOL    HW217346   3.546   1.645   8.375  0.5043 -0.3473 -0.3956
 1963SOL     OW17347   1.575   3.359  14.561 -0.2220  0.3136 -0.2755
 1963SOL    HW117348   1.529   3.351  14.477  0.4462 -0.6965 -0.5524
 1963SOL    HW217349   1.664   3.372  14.528  0.2089 -0.9004  0.4137
 1964SOL     OW17350   1.597   2.891   6.311  0.9231 -1.1403  0.5189
 1964SOL    HW117351   1.691   2.876   6.298  1.2990  0.2545  1.5990
 1964SOL    HW217352   1.579   2.896   6.217 -1.0021  0.3358  0.9552
 1965SOL     OW17353   2.232   0.625   5.763  0.4834  0.4146 -0.4497
 1965SOL    HW117354   2.155   0.573   5.741  0.8301 -0.3966  0.2177
 1965SOL    HW217355   2.192   0.705   5.796 -1.6792 -0.9079  0.0895
 1966SOL     OW17356   0.481   1.883   8.679  0.1825 -0.0230 -0.4454
 1966SOL    HW117357   0.409   1.851   8.625 -0.2122  0.1600 -0.0244
 1966SOL    HW217358   0.444   1.856   8.763 -0.2197  2.3353  0.1281
 1967SOL     OW17359   1.528   1.308  10.326 -0.1281 -0.0700 -0.1178
 1967SOL    HW117360   1.520   1.325  10.232 -1.1475 -0.7131 -0.1450
 1967SOL    HW217361   1.526   1.213  10.338  0.0327  0.2329  2.2028
 1968SOL     OW17362   1.387   2.143  15.223 -0.7311 -0.2699  0.3727
 1968SOL    HW117363   1.366   2.215  15.164  1.7526 -0.6300 -0.9562
 1968SOL    HW217364   1.318   2.081  15.198  0.4465 -1.1619 -0.6898
 1969SOL     OW17365   0.787   4.488   6.716  0.3417  0.5717 -0.1560
 1969SOL    HW117366   0.811   4.528   6.632  0.0381  2.4702  0.6691
 1969SOL    HW217367   0.731   4.418   6.681 -2.0786  1.7351  1.4314
 1970SOL     OW17368   4.592   3.819  11.269  0.4058  0.4090  0.5049
 1970SOL    HW117369   4.510   3.771  11.276 -0.0083  1.3948  2.5606
 1970SOL    HW217370   4.603   3.814  11.174 -0.7259 -1.1659  0.4582
 1971SOL     OW17371   2.432   4.631   2.885  0.2850  0.0002  0.2227
 1971SOL    HW117372   2.372   4.567   2.847  0.4214 -0.5764  0.9940
 1971SOL    HW217373   2.491   4.570   2.928 -1.7166 -1.9863  0.1454
 1972SOL     OW17374   3.561   4.187  12.712 -0.2924  0.4000 -0.0639
 1972SOL    HW117375   3.649   4.194  12.674  0.0147 -0.7260  0.4613
 1972SOL    HW217376   3.548   4.274  12.751  0.2200 -0.1462  1.3157
 1973SOL     OW17377   1.206   3.438   0.745 -0.5103 -0.1007 -0.0856
 1973SOL    HW117378   1.236   3.402   0.661  2.9519  0.7491  0.7948
 1973SOL    HW217379   1.157   3.516   0.718 -0.1441  1.2974  3.3862
 1974SOL     OW17380   1.934   1.096   1.806  0.0582 -0.3644  0.1767
 1974SOL    HW117381   1.937   1.018   1.750 -0.6187 -1.1915  1.3009
 1974SOL    HW217382   2.008   1.138   1.763  0.9391 -1.6146  0.4788
 1975SOL     OW17383   0.482   1.056   3.626  0.0502  0.3273 -0.1048
 1975SOL    HW117384   0.421   1.088   3.693  1.8443  2.1806  0.6487
 1975SOL    HW217385   0.478   0.963   3.648 -1.6209 -0.0916 -2.0896
 1976SOL     OW17386   1.786   4.470   6.557  0.6692 -0.2491 -0.1175
 1976SOL    HW117387   1.844   4.394   6.544 -1.1098 -1.9442  1.8935
 1976SOL    HW217388   1.850   4.518   6.610  1.6698  0.2904 -1.8183
 1977SOL     OW17389   3.053   2.276  10.146  0.3331  0.5261 -0.1068
 1977SOL    HW117390   3.078   2.194  10.187  2.0387  1.0873 -0.0182
 1977SOL    HW217391   3.033   2.334  10.220 -0.9573  1.8161 -1.4730
 1978SOL     OW17392   2.008   0.993   4.439 -0.0713 -0.3467  0.2438
 1978SOL    HW117393   2.044   1.068   4.485 -0.1350 -1.3350  1.9324
 1978SOL    HW217394   1.996   0.935   4.514 -2.1601 -0.1379  0.0710
 1979SOL     OW17395   3.558   3.560   2.750 -0.1794 -0.8440 -0.0454
 1979SOL    HW117396   3.478   3.528   2.791 -0.1255  2.1102  2.3376
 1979SOL    HW217397   3.543   3.651   2.772  1.9021 -0.1000 -1.6619
 1980SOL     OW17398   1.712   2.910   4.038  0.0870 -0.0216 -0.7041
 1980SOL    HW117399   1.795   2.867   4.017  0.0119 -0.5287  0.0469
 1980SOL    HW217400   1.718   2.915   4.133  1.3944  5.6849 -1.0799
 1981SOL     OW17401   3.461   2.992   2.349 -0.3072  0.0771  0.2540
 1981SOL    HW117402   3.426   3.067   2.302 -2.3039 -1.3814 -0.5817
 1981SOL    HW217403   3.518   3.035   2.413 -3.6023  2.1490  1.7757
 1982SOL     OW17404   0.419   0.683   7.775 -0.3203  0.5103  0.4706
 1982SOL    HW117405   0.348   0.748   7.779 -0.1589  0.7380 -0.4528
 1982SOL    HW217406   0.370   0.619   7.722 -1.0161  1.5774 -0.1760
 1983SOL     OW17407   2.474   3.627   4.482 -0.2956 -0.4294  0.5349
 1983SOL    HW117408   2.488   3.717   4.453  1.8004 -1.8097 -2.6361
 1983SOL    HW217409   2.380   3.616   4.465 -0.3194 -0.2074  0.5218
 1984SOL     OW17410   1.033   0.047   4.945  0.0840 -0.5140 -0.2544
 1984SOL    HW117411   0.943   0.036   4.977  0.4443 -2.6349  0.0407
 1984SOL    HW217412   1.017   0.049   4.851 -0.5131 -2.0789 -0.1798
 1985SOL     OW17413   4.572   0.730   8.214 -0.2954  0.5099 -0.0657
 1985SOL    HW117414   4.571   0.734   8.310 -0.4382 -0.7547 -0.0097
 1985SOL    HW217415   4.562   0.822   8.192 -2.0321  0.4346  0.4180
 1986SOL     OW17416   2.740   3.655   9.951 -0.0488 -0.4679  0.3601
 1986SOL    HW117417   2.760   3.653   9.858 -1.7835 -0.9795 -0.0127
 1986SOL    HW217418   2.698   3.569   9.959 -0.0674 -0.5370 -0.4498
 1987SOL     OW17419   2.381   2.940   9.385 -0.3382  0.1290  0.4561
 1987SOL    HW117420   2.369   2.869   9.322 -0.0017  1.9548 -1.6718
 1987SOL    HW217421   2.440   2.995   9.333  1.0173 -0.2395  1.6181
 1988SOL     OW17422   2.569   4.381  10.797 -0.3220  0.0279 -0.3043
 1988SOL    HW117423   2.607   4.320  10.734  1.2695  1.4211 -0.6733
 1988SOL    HW217424   2.642   4.394  10.857 -0.4339  1.5916 -0.4934
 1989SOL     OW17425   1.860   4.052   4.327 -0.1100 -0.4134 -0.1639
 1989SOL    HW117426   1.793   4.119   4.340  3.2806  2.5625  2.0630
 1989SOL    HW217427   1.798   3.981   4.341 -0.3431 -0.7151 -2.7415
 1990SOL     OW17428   0.096   4.624   5.722 -0.6323 -0.2698  0.2580
 1990SOL    HW117429   0.076   4.698   5.780 -0.3234  2.4450 -3.1227
 1990SOL    HW217430   0.013   4.576   5.729 -0.4433 -0.4087  1.5358
 1991SOL     OW17431   0.647   4.114   2.143 -0.0498  0.1466 -0.0680
 1991SOL    HW117432   0.725   4.140   2.192  0.3149  2.0620 -1.6179
 1991SOL    HW217433   0.585   4.094   2.212 -1.0600  1.9190 -0.4667
 1992SOL     OW17434   2.225   3.138   1.053  0.0958  0.3338  0.5840
 1992SOL    HW117435   2.143   3.091   1.042  1.0989 -1.6367  1.3848
 1992SOL    HW217436   2.283   3.063   1.041 -1.0831 -0.7303  1.4885
 1993SOL     OW17437   0.353   0.431   3.551  0.4243  0.0313 -0.6748
 1993SOL    HW117438   0.379   0.428   3.643 -2.6749 -0.6260  0.1917
 1993SOL    HW217439   0.272   0.380   3.562 -0.8607  2.0571 -0.7731
 1994SOL     OW17440   3.506   0.110  16.203  0.2622  0.1515  0.4900
 1994SOL    HW117441   3.511   0.023  16.242 -0.3635 -0.1581 -0.0913
 1994SOL    HW217442   3.597   0.135  16.190  0.8431 -0.7794  2.8865
 1995SOL     OW17443   2.847   3.933   7.045  0.4114 -0.3029 -0.2668
 1995SOL    HW117444   2.799   4.014   7.030 -0.5801 -0.6151  1.2255
 1995SOL    HW217445   2.929   3.950   6.998  1.0175  0.0444  0.9190
 1996SOL     OW17446   0.363   2.245  16.306 -0.2389  0.2525 -0.0056
 1996SOL    HW117447   0.331   2.210  16.389 -0.9696  0.3987 -0.2329
 1996SOL    HW217448   0.367   2.340  16.312 -0.0119  0.2628 -0.2923
 1997SOL     OW17449   2.694   2.517   5.301  0.7071  0.0007 -0.0964
 1997SOL    HW117450   2.604   2.496   5.323  0.3485  1.1546 -0.4421
 1997SOL    HW217451   2.723   2.564   5.379 -0.0876 -1.3940  1.0407
 1998SOL     OW17452   2.172   0.093  16.590 -0.5639  0.0632  0.3078
 1998SOL    HW117453   2.120   0.049  16.657  2.1415 -1.4451  1.4329
 1998SOL    HW217454   2.245   0.036  16.565 -2.0813 -0.1125 -3.7133
 1999SOL     OW17455   1.352   4.099   4.990  0.5270  0.1679 -0.1248
 1999SOL    HW117456   1.333   4.058   5.075 -1.1479 -1.3467 -1.2141
 1999SOL    HW217457   1.400   4.026   4.951 -0.1333 -0.7548  0.7473
 2000SOL     OW17458   3.025   3.975   5.473 -0.1404 -0.4130 -0.3209
 2000SOL    HW117459   3.041   4.062   5.510 -1.4299  0.0620 -0.9133
 2000SOL    HW217460   3.015   3.985   5.378  3.6848 -1.4535 -0.8359
 2001SOL     OW17461   4.321   2.377   3.855  0.5710  0.2127  0.0242
 2001SOL    HW117462   4.321   2.361   3.761 -0.4499 -0.5857  0.1693
 2001SOL    HW217463   4.392   2.441   3.862 -0.1700  1.0818 -0.4228
 2002SOL     OW17464   0.760   2.732   0.338 -0.1215 -0.3752 -0.3113
 2002SOL    HW117465   0.806   2.653   0.311  1.4039 -0.5873  2.9531
 2002SOL    HW217466   0.764   2.749   0.432  0.1378 -1.5546 -0.1136
 2003SOL     OW17467   2.571   2.674   8.497 -0.2556 -0.1651 -0.0242
 2003SOL    HW117468   2.597   2.708   8.411 -0.7658  2.3129  0.8209
 2003SOL    HW217469   2.482   2.649   8.471 -0.9518  2.3754 -0.1119
 2004SOL     OW17470   4.329   3.701   1.432  0.1514  0.5907  0.4287
 2004SOL    HW117471   4.308   3.790   1.460 -0.4879  0.8329 -0.7834
 2004SOL    HW217472   4.280   3.657   1.500  2.1899 -0.1645  1.4193
 2005SOL     OW17473   3.394   1.765  14.979  0.2659 -0.0738  0.1041
 2005SOL    HW117474   3.370   1.674  14.964 -1.7780  0.7173 -1.4161
 2005SOL    HW217475   3.450   1.786  14.904 -1.6896 -1.5670 -1.7800
 2006SOL     OW17476   1.948   2.711  11.746  0.1264 -0.0850  0.2228
 2006SOL    HW117477   2.024   2.759  11.778  1.1039 -1.0670 -0.6481
 2006SOL    HW217478   1.948   2.639  11.810 -0.3611  0.1304  0.4707
 2007SOL     OW17479   1.346   0.459   7.149 -0.9555 -0.4800 -0.4306
 2007SOL    HW117480   1.432   0.422   7.131 -0.4878  0.8857 -0.9913
 2007SOL    HW217481   1.364   0.524   7.217 -1.1991  0.3504 -1.1642
 2008SOL     OW17482   2.797   0.095  14.493 -0.3823 -0.4949 -0.4374
 2008SOL    HW117483   2.779   0.101  14.399 -1.3859  0.8534 -0.1628
 2008SOL    HW217484   2.890   0.113  14.479 -0.6275 -0.0195 -1.5288
 2009SOL     OW17485   2.941   2.581   2.282  0.5280 -0.5896 -0.4722
 2009SOL    HW117486   2.930   2.667   2.322  0.9289 -0.7970  0.0817
 2009SOL    HW217487   2.877   2.575   2.211  0.7552 -0.9053 -0.6478
 2010SOL     OW17488   0.418   0.426   8.207 -0.6851 -0.0110 -0.6067
 2010SOL    HW117489   0.472   0.497   8.173  0.7593 -0.7473  0.1718
 2010SOL    HW217490   0.474   0.378   8.268  0.7914 -0.2373 -2.1542
 2011SOL     OW17491   3.595   1.146   9.647 -0.2423 -0.2406  0.0799
 2011SOL    HW117492   3.518   1.111   9.601 -0.7297  1.2167 -0.2112
 2011SOL    HW217493   3.573   1.239   9.637  0.9491  0.2702  2.1886
 2012SOL     OW17494   0.476   2.536   5.734 -0.1453  0.0632  0.4936
 2012SOL    HW117495   0.525   2.612   5.764 -0.2231  1.2029 -2.2640
 2012SOL    HW217496   0.515   2.524   5.648 -1.0852 -0.3933  0.1249
 2013SOL     OW17497   0.183   3.350   3.414  0.1280 -0.1767  0.6171
 2013SOL    HW117498   0.209   3.311   3.331 -1.0286 -0.3334  0.3230
 2013SOL    HW217499   0.145   3.428   3.374  0.8165 -1.1447 -1.8724
 2014SOL     OW17500   4.121   3.345   8.382 -0.3690 -0.6679  0.1119
 2014SOL    HW117501   4.119   3.398   8.461 -0.7125 -1.4271  0.6077
 2014SOL    HW217502   4.042   3.378   8.338  0.5801  2.6287  0.9051
 2015SOL     OW17503   2.465   2.703   7.626 -0.2508 -0.0890 -0.1137
 2015SOL    HW117504   2.507   2.717   7.711  0.8496  2.8844 -1.1161
 2015SOL    HW217505   2.485   2.784   7.578  2.0668 -1.0294 -0.7200
 2016SOL     OW17506   1.017   2.134  16.645 -0.0141 -0.6834 -0.6693
 2016SOL    HW117507   1.063   2.061  16.603 -0.4436  0.3335 -2.9255
 2016SOL    HW217508   0.960   2.093  16.711  1.4527 -1.9922 -0.2313
 2017SOL     OW17509   2.424   2.673   0.689  0.4069  0.0975  0.7851
 2017SOL    HW117510   2.412   2.687   0.783  1.5623  2.4377  0.5875
 2017SOL    HW217511   2.343   2.629   0.664  1.4203 -0.6051 -1.2560
 2018SOL     OW17512   0.696   0.721  15.874  0.2821 -0.0093  0.1536
 2018SOL    HW117513   0.618   0.771  15.850 -0.4122 -1.2189 -0.1049
 2018SOL    HW217514   0.734   0.776  15.943 -1.2737  0.0015  1.0154
 2019SOL     OW17515   0.078   1.726  17.201 -0.3096 -0.3656  0.1708
 2019SOL    HW117516   0.115   1.806  17.239 -2.5492  0.6526  0.1935
 2019SOL    HW217517   0.063   1.678  17.283  1.7776 -1.0639  0.1546
 2020SOL     OW17518   3.135   0.329   4.846  0.5882 -0.1586 -0.2810
 2020SOL    HW117519   3.160   0.391   4.778  0.2748  1.3352  0.9766
 2020SOL    HW217520   3.179   0.250   4.815  1.3097  0.2249 -0.2367
 2021SOL     OW17521   0.202   4.552   5.066  0.2006  0.2242  0.0101
 2021SOL    HW117522   0.270   4.487   5.048  1.3083  1.3275  0.1651
 2021SOL    HW217523   0.191   4.546   5.161 -0.3265  1.9944  0.0559
 2022SOL     OW17524   3.283   0.362   7.863 -0.3469 -0.3924 -0.1291
 2022SOL    HW117525   3.231   0.393   7.790 -2.2736  1.0240  1.8547
 2022SOL    HW217526   3.340   0.301   7.816  1.3609  0.1024  1.2712
 2023SOL     OW17527   3.539   0.424   9.638  0.0182  0.0159 -0.1048
 2023SOL    HW117528   3.634   0.417   9.648  0.1107  1.4431  0.0999
 2023SOL    HW217529   3.539   0.507   9.687  3.0199 -0.5908  0.9637
 2024SOL     OW17530   1.029   0.993  13.716 -0.4491  0.0097 -0.6787
 2024SOL    HW117531   1.064   1.059  13.657 -2.5464  0.6951 -1.1276
 2024SOL    HW217532   1.112   0.949  13.736 -1.9757 -1.6426  2.0757
 2025SOL     OW17533   3.557   0.299   2.322 -0.4228 -0.7713 -0.1710
 2025SOL    HW117534   3.520   0.246   2.392 -2.2130  0.4658 -0.1616
 2025SOL    HW217535   3.645   0.261   2.319 -0.4213 -0.9722  2.6651
 2026SOL     OW17536   0.815   3.082   4.000  0.2015 -0.6811 -0.1411
 2026SOL    HW117537   0.808   2.993   3.966 -1.6088 -0.6142  0.0609
 2026SOL    HW217538   0.837   3.133   3.922 -0.9727  1.2932  0.8200
 2027SOL     OW17539   3.640   0.623  12.718  0.0827 -0.7780 -0.4416
 2027SOL    HW117540   3.609   0.707  12.684  3.5243  0.1720 -1.2803
 2027SOL    HW217541   3.665   0.654  12.805  1.7130 -3.3879  0.0082
 2028SOL     OW17542   2.325   2.106   6.524 -0.1284  0.0707  0.5124
 2028SOL    HW117543   2.294   2.155   6.600 -0.7260 -0.9694  0.9440
 2028SOL    HW217544   2.400   2.062   6.565  0.8095  0.4578 -0.7995
 2029SOL     OW17545   0.703   3.115  13.212  0.0275 -0.8139 -0.0765
 2029SOL    HW117546   0.708   3.158  13.126 -0.8484  0.5496  0.5547
 2029SOL    HW217547   0.622   3.063  13.209  1.9071 -3.7992  1.1310
 2030SOL     OW17548   2.450   4.686   8.889  0.5963 -0.2591 -0.7572
 2030SOL    HW117549   2.491   0.023   8.831 -3.8531  0.8217 -2.7050
 2030SOL    HW217550   2.494   4.607   8.857  1.5155 -0.3535  0.7594
 2031SOL     OW17551   0.110   1.384   2.736 -0.1500 -0.2670 -0.7927
 2031SOL    HW117552   0.020   1.380   2.703 -0.1474  0.7661 -0.9264
 2031SOL    HW217553   0.147   1.302   2.703  0.0958  0.3775 -2.1112
 2032SOL     OW17554   4.106   1.041   4.969  0.0728  0.5330 -0.1313
 2032SOL    HW117555   4.096   1.125   4.925  2.6612 -0.5328 -2.7296
 2032SOL    HW217556   4.146   0.988   4.901 -0.6931  0.0717 -0.2177
 2033SOL     OW17557   3.453   1.937   4.988  0.4932 -0.3714 -0.3111
 2033SOL    HW117558   3.475   1.967   4.900  1.0693 -0.2791 -0.1332
 2033SOL    HW217559   3.393   2.008   5.011 -0.5278 -1.6776  1.0436
 2034SOL     OW17560   2.734   2.083   6.552  0.0013  0.8404  0.1986
 2034SOL    HW117561   2.677   2.081   6.476 -0.6339 -0.7588  0.7219
 2034SOL    HW217562   2.679   2.039   6.617 -0.4624  3.8325  1.8471
 2035SOL     OW17563   0.787   1.581   5.984  0.5935 -0.0973  0.0659
 2035SOL    HW117564   0.873   1.562   5.946  1.0397 -0.9802  1.5289
 2035SOL    HW217565   0.796   1.551   6.074  0.1077  0.5008  0.3137
 2036SOL     OW17566   4.514   1.520   2.882 -0.3316 -0.1558 -0.1005
 2036SOL    HW117567   4.537   1.601   2.927  1.1856  1.0134 -2.9610
 2036SOL    HW217568   4.420   1.535   2.869 -0.2574  0.3211 -0.1092
 2037SOL     OW17569   1.437   2.856   3.836 -0.2892 -0.1384  0.3529
 2037SOL    HW117570   1.496   2.792   3.878  1.3160  0.1797 -1.4246
 2037SOL    HW217571   1.430   2.821   3.747 -1.4969 -1.3331  0.9043
 2038SOL     OW17572   0.655   0.990   3.017  0.3159  0.7248  0.6405
 2038SOL    HW117573   0.571   1.029   2.994 -1.5547 -3.3266  0.5735
 2038SOL    HW217574   0.712   1.067   3.023  0.1766  0.7790  1.2063
 2039SOL     OW17575   3.690   1.072  16.652  0.1930  0.1982  0.1080
 2039SOL    HW117576   3.607   1.067  16.604  1.5854 -0.3198 -2.2655
 2039SOL    HW217577   3.658   1.071  16.742 -2.0306 -1.4724 -0.6981
 2040SOL     OW17578   4.038   3.914   5.245  0.0747 -0.6283 -0.0363
 2040SOL    HW117579   4.018   3.825   5.216  0.0418 -0.4193 -0.6529
 2040SOL    HW217580   4.111   3.915   5.183 -0.0182 -0.4637 -0.1427
 2041SOL     OW17581   4.269   1.640  17.702  0.0828  0.4340  0.0103
 2041SOL    HW117582   4.214   1.657  17.626  1.1931 -0.2493 -0.9415
 2041SOL    HW217583   4.343   1.590  17.666  1.4419  0.3776  2.8563
 2042SOL     OW17584   2.801   0.123  10.043  0.4587  0.0369 -0.1652
 2042SOL    HW117585   2.761   0.131  10.129 -0.3720  1.5136 -0.6909
 2042SOL    HW217586   2.729   0.077  10.000  1.1443  0.7210 -2.0467
 2043SOL     OW17587   3.793   1.922  17.506  0.3225 -0.0035  0.3904
 2043SOL    HW117588   3.869   1.940  17.450 -0.4360 -2.4075 -1.4085
 2043SOL    HW217589   3.832   1.893  17.589 -2.5391  0.5005  1.9287
 2044SOL     OW17590   0.891   3.669   3.909 -0.3647 -0.8014  0.6590
 2044SOL    HW117591   0.881   3.764   3.903  0.4407 -0.8548 -1.6893
 2044SOL    HW217592   0.946   3.649   3.985  0.6382 -2.3566 -0.4774
 2045SOL     OW17593   2.389   1.703   2.356  0.5691 -0.2925  0.1139
 2045SOL    HW117594   2.413   1.687   2.265 -0.0094 -1.1631  0.1119
 2045SOL    HW217595   2.312   1.648   2.369  2.2469 -2.8219 -0.5981
 2046SOL     OW17596   4.172   3.209   7.060  0.0287 -0.0895 -0.4015
 2046SOL    HW117597   4.095   3.226   7.115 -1.0214  2.7616 -2.7136
 2046SOL    HW217598   4.159   3.268   6.985  0.1642  0.1079 -0.2698
 2047SOL     OW17599   2.470   2.743   3.068 -0.1656 -0.3840  0.1064
 2047SOL    HW117600   2.478   2.652   3.040 -1.5134 -0.8168  1.1132
 2047SOL    HW217601   2.414   2.725   3.144 -2.1176 -1.5644 -1.6095
 2048SOL     OW17602   3.672   3.292   1.364 -0.4210 -0.8139 -0.3151
 2048SOL    HW117603   3.680   3.229   1.292  1.0932  0.4819 -1.2637
 2048SOL    HW217604   3.671   3.229   1.437  0.5985  0.6950  0.9909
 2049SOL     OW17605   2.696   4.550   1.543 -0.3454  0.0734  0.1038
 2049SOL    HW117606   2.737   4.478   1.494 -0.2313  0.8283 -0.9016
 2049SOL    HW217607   2.654   4.516   1.622  0.6557 -1.2897  0.0627
 2050SOL     OW17608   0.612   0.736   4.226 -0.2674  0.2028  0.4838
 2050SOL    HW117609   0.634   0.790   4.150  0.5101  0.4988  0.9142
 2050SOL    HW217610   0.607   0.801   4.296 -1.3114  0.8970 -0.2334
 2051SOL     OW17611   0.307   0.446  11.726 -0.0506 -0.3574  0.3210
 2051SOL    HW117612   0.363   0.518  11.696 -2.0324  0.4904 -1.3077
 2051SOL    HW217613   0.274   0.417  11.642  0.3002 -0.6702  0.2883
 2052SOL     OW17614   2.326   2.199  14.352  0.0396  0.0188  0.8708
 2052SOL    HW117615   2.314   2.152  14.435  2.8238 -1.6272  0.3380
 2052SOL    HW217616   2.386   2.266  14.384  0.0758 -0.6656  2.2203
 2053SOL     OW17617   4.316   1.201   3.559 -0.3426 -0.4057 -0.2040
 2053SOL    HW117618   4.346   1.184   3.648 -2.6374 -1.6069  0.3231
 2053SOL    HW217619   4.279   1.289   3.563 -0.6362 -0.5747  0.7254
 2054SOL     OW17620   2.928   1.265   5.695  0.8617  0.3731  0.3311
 2054SOL    HW117621   2.939   1.214   5.776 -0.7520 -2.8746 -1.4757
 2054SOL    HW217622   3.002   1.229   5.647  0.9550  0.9348  0.0573
 2055SOL     OW17623   0.767   0.080   8.359 -0.2947  0.5131 -0.0711
 2055SOL    HW117624   0.793   0.148   8.420  0.7131  1.1148 -1.1666
 2055SOL    HW217625   0.697   0.121   8.308 -0.9912  1.0171  1.2991
 2056SOL     OW17626   4.344   0.908   3.494  0.3603 -0.6618  0.1319
 2056SOL    HW117627   4.256   0.901   3.532  0.4576 -0.3498  0.4156
 2056SOL    HW217628   4.383   0.966   3.560  0.5132  1.8182 -2.1365
 2057SOL     OW17629   4.296   4.119   9.524  0.0561 -0.3451  0.1322
 2057SOL    HW117630   4.220   4.174   9.544 -0.3586 -0.7943 -0.2063
 2057SOL    HW217631   4.310   4.135   9.431 -1.1192  0.7422  0.1439
 2058SOL     OW17632   0.231   2.133  10.304  0.2258  0.4590 -0.0966
 2058SOL    HW117633   0.199   2.136  10.214 -1.3999  1.4542  0.5166
 2058SOL    HW217634   0.240   2.227  10.319  1.5775  0.2156  0.5745
 2059SOL     OW17635   2.723   0.830   5.189 -0.4890  0.1747  0.1704
 2059SOL    HW117636   2.779   0.755   5.210 -0.4756  0.6973  2.0182
 2059SOL    HW217637   2.760   0.859   5.106  1.2334  0.0714  0.8963
 2060SOL     OW17638   2.014   3.038   8.660 -0.3099  0.2027 -0.4301
 2060SOL    HW117639   2.043   2.954   8.626 -2.2852 -0.3190 -0.8142
 2060SOL    HW217640   2.071   3.092   8.605  2.8544 -2.0194  0.6382
 2061SOL     OW17641   1.589   0.080   2.284  0.0583 -0.0978 -0.1641
 2061SOL    HW117642   1.676   0.109   2.259 -0.4692  0.5819 -1.1863
 2061SOL    HW217643   1.583   0.134   2.363 -0.4464 -1.9593  1.0834
 2062SOL     OW17644   3.974   2.852  15.805  0.0314 -0.1673 -0.5393
 2062SOL    HW117645   3.928   2.837  15.723 -0.0813  0.4987 -0.5981
 2062SOL    HW217646   3.909   2.852  15.875 -0.2565 -0.6025 -0.8124
 2063SOL     OW17647   4.436   2.529  11.903 -0.2297  0.6062  0.3088
 2063SOL    HW117648   4.394   2.614  11.890 -0.9444 -0.1626 -2.4684
 2063SOL    HW217649   4.432   2.488  11.816 -0.6505 -1.6299  1.3843
 2064SOL     OW17650   2.682   2.816   1.888  0.5555  0.2270 -0.4188
 2064SOL    HW117651   2.707   2.819   1.796 -0.6661  1.3659 -0.7083
 2064SOL    HW217652   2.719   2.901   1.911 -1.0787  0.8910 -0.2566
 2065SOL     OW17653   4.299   1.661   5.826 -0.0702  0.2212  0.0568
 2065SOL    HW117654   4.268   1.571   5.838 -0.5752  0.5225  1.0012
 2065SOL    HW217655   4.225   1.711   5.792 -0.7187 -0.2608  0.7693
 2066SOL     OW17656   4.727   4.717   4.690  0.0487 -0.1263 -0.3628
 2066SOL    HW117657   0.068   4.659   4.722  1.2326  1.2849 -0.3414
 2066SOL    HW217658   4.650   4.664   4.710  0.1248  0.2336  0.9455
 2067SOL     OW17659   1.429   0.285  17.674 -0.1012 -0.3583  0.1769
 2067SOL    HW117660   1.426   0.334   0.046 -1.3476  1.2989 -0.8670
 2067SOL    HW217661   1.355   0.225  17.683  0.7654 -1.2527  1.4179
 2068SOL     OW17662   2.897   1.513   4.102 -0.3795  0.4497  0.2516
 2068SOL    HW117663   2.970   1.461   4.135 -1.6683 -1.5634 -0.0990
 2068SOL    HW217664   2.923   1.602   4.126  1.5384 -0.2636  0.7956
 2069SOL     OW17665   0.363   1.386   7.027 -0.3600 -0.7074 -0.3064
 2069SOL    HW117666   0.439   1.329   7.041  0.8017  0.3657 -2.3245
 2069SOL    HW217667   0.299   1.348   7.088 -1.9433  0.9361 -0.9559
 2070SOL     OW17668   1.361   3.242   9.360  0.2554  0.3083  0.7525
 2070SOL    HW117669   1.394   3.154   9.380 -0.3802  0.0486  0.6699
 2070SOL    HW217670   1.434   3.303   9.369  0.9874 -0.5819  0.9518
 2071SOL     OW17671   1.725   1.743   1.611  0.2108 -0.1259 -0.0886
 2071SOL    HW117672   1.645   1.793   1.627  0.6875  0.5007  0.3253
 2071SOL    HW217673   1.716   1.726   1.517  1.6272 -1.2865 -0.0152
 2072SOL     OW17674   0.998   1.652  14.860  0.0280 -0.2754 -0.8741
 2072SOL    HW117675   1.038   1.567  14.875  0.0775  0.2979  2.3157
 2072SOL    HW217676   0.916   1.626  14.901  0.8504 -0.7001  0.5415
 2073SOL     OW17677   2.527   4.036   1.044  0.4346 -0.7055 -0.2345
 2073SOL    HW117678   2.479   3.953   1.034 -3.4363  1.4227  0.5011
 2073SOL    HW217679   2.481   4.077   0.971  1.7998  2.1558  0.5424
 2074SOL     OW17680   2.391   1.421   7.480 -0.3885  0.2204  0.7358
 2074SOL    HW117681   2.467   1.365   7.491 -0.4251 -0.0756 -0.5860
 2074SOL    HW217682   2.421   1.511   7.497  1.2448 -0.2317  0.2385
 2075SOL     OW17683   1.487   3.284   3.394 -0.8934 -0.0310  0.0104
 2075SOL    HW117684   1.429   3.298   3.319 -1.0883  1.1506  0.3849
 2075SOL    HW217685   1.504   3.190   3.393 -1.5215 -0.1395 -0.1391
 2076SOL     OW17686   2.858   3.723   1.644  0.3971 -0.1238 -0.2995
 2076SOL    HW117687   2.847   3.703   1.737  0.2171  0.2277 -0.2454
 2076SOL    HW217688   2.933   3.780   1.656  1.3895 -0.8923 -2.7991
 2077SOL     OW17689   1.330   4.011   0.062 -0.3155 -0.2367 -0.0876
 2077SOL    HW117690   1.274   4.032  17.698  0.7875  1.8470 -0.3315
 2077SOL    HW217691   1.400   3.952   0.035  1.5414  0.9433  2.1171
 2078SOL     OW17692   3.224   2.731  17.072  0.7608 -1.0629 -0.5185
 2078SOL    HW117693   3.246   2.814  17.114  0.3321 -1.6416  0.8358
 2078SOL    HW217694   3.143   2.758  17.030  0.0219  0.4422  1.9199
 2079SOL     OW17695   0.835   3.399   4.709 -0.4497 -0.3044 -0.2980
 2079SOL    HW117696   0.844   3.309   4.741 -0.3761 -0.1700  0.0648
 2079SOL    HW217697   0.858   3.393   4.616 -1.4376  0.8535 -0.6007
 2080SOL     OW17698   1.955   0.655  12.092  0.0934 -0.5278  0.9819
 2080SOL    HW117699   1.928   0.747  12.094 -0.3855 -0.6900  2.3719
 2080SOL    HW217700   1.948   0.634  11.999 -2.6044  0.7020  0.8889
 2081SOL     OW17701   3.953   3.100   1.252  0.7118  0.7970 -0.0304
 2081SOL    HW117702   3.862   3.088   1.226  0.5313 -0.1976  1.0812
 2081SOL    HW217703   3.960   3.196   1.255 -3.9420  1.2005 -2.6091
 2082SOL     OW17704   2.651   3.238   9.252 -0.1194 -0.5649 -0.5657
 2082SOL    HW117705   2.701   3.158   9.235 -0.5180 -0.4862 -2.1746
 2082SOL    HW217706   2.716   3.308   9.248  0.4273 -0.9814  1.3005
 2083SOL     OW17707   0.515   0.444  13.009  0.1728 -0.3144 -0.2978
 2083SOL    HW117708   0.556   0.427  12.924  0.9271 -0.2552  0.0525
 2083SOL    HW217709   0.422   0.459  12.995 -0.0493 -2.1171 -0.8131
 2084SOL     OW17710   0.118   1.447   9.111 -0.0060 -0.4404 -0.2795
 2084SOL    HW117711   0.110   1.540   9.132 -1.2766 -0.2764 -1.4903
 2084SOL    HW217712   0.029   1.426   9.082  0.1195 -0.3478 -0.7385
 2085SOL     OW17713   2.211   0.727   6.339  0.0988  0.0892 -0.2154
 2085SOL    HW117714   2.255   0.656   6.387 -1.2194  0.2906  1.2988
 2085SOL    HW217715   2.236   0.700   6.251 -0.0727  2.9910 -1.1413
 2086SOL     OW17716   0.961   2.082   8.120  0.0485  0.0316 -0.2246
 2086SOL    HW117717   0.901   2.152   8.145  0.8351  0.6927 -0.1744
 2086SOL    HW217718   1.001   2.081   8.207 -0.2358  0.6918 -0.0906
 2087SOL     OW17719   3.456   2.751   6.027  0.2384 -0.1829  0.1098
 2087SOL    HW117720   3.540   2.797   6.017 -0.9566  2.0208  0.0952
 2087SOL    HW217721   3.445   2.685   5.959 -1.3730 -1.7409  1.8713
 2088SOL     OW17722   3.935   0.489   6.297  0.4640 -0.0906 -0.2662
 2088SOL    HW117723   3.965   0.515   6.384  1.7197 -0.0350 -0.7246
 2088SOL    HW217724   3.890   0.568   6.266 -2.0343 -1.4594 -0.1491
 2089SOL     OW17725   2.890   2.365   5.686 -0.3459 -0.2885  0.6205
 2089SOL    HW117726   2.924   2.306   5.754  1.1730  0.1721  0.2561
 2089SOL    HW217727   2.965   2.386   5.631  0.3333 -1.1509  1.2113
 2090SOL     OW17728   4.535   1.033   7.710 -0.0999 -0.0530 -0.1095
 2090SOL    HW117729   4.606   0.990   7.758 -0.6112  0.9888  1.5883
 2090SOL    HW217730   4.472   0.961   7.701 -1.4394  0.9609  1.2734
 2091SOL     OW17731   2.035   2.082  10.953 -0.6167 -0.4894 -0.2210
 2091SOL    HW117732   2.074   2.134  10.882 -1.4553  1.2231  0.5764
 2091SOL    HW217733   2.063   2.142  11.022 -0.9474 -0.1361 -0.3959
 2092SOL     OW17734   4.374   2.937   6.441 -0.6157 -0.4350 -0.2537
 2092SOL    HW117735   4.350   2.852   6.476 -0.8394  1.2017  3.6056
 2092SOL    HW217736   4.454   2.953   6.492 -0.9146 -1.6488  0.6018
 2093SOL     OW17737   2.346   0.398  10.487 -0.0734 -0.4910  0.0051
 2093SOL    HW117738   2.304   0.482  10.469  0.8852  0.2376  1.1694
 2093SOL    HW217739   2.395   0.418  10.567  1.8070 -2.8563 -0.5481
 2094SOL     OW17740   1.055   3.526   4.369  0.5882  0.0641 -0.4135
 2094SOL    HW117741   1.144   3.491   4.379  0.2800 -0.2067  1.3741
 2094SOL    HW217742   1.001   3.455   4.403  3.7543 -1.3784  1.5921
 2095SOL     OW17743   2.153   2.981   9.546  0.5154 -0.3852 -0.6784
 2095SOL    HW117744   2.129   3.074   9.542  0.5730 -0.3546 -0.2846
 2095SOL    HW217745   2.222   2.989   9.479 -0.9062  0.8326 -2.0102
 2096SOL     OW17746   2.210   1.578   9.357  0.3076 -0.1706  0.1656
 2096SOL    HW117747   2.294   1.533   9.367  0.8049  0.7417  0.0963
 2096SOL    HW217748   2.243   1.666   9.339  1.9346 -0.5278  1.4144
 2097SOL     OW17749   2.145   2.811  12.155 -0.5568 -0.7137  0.2089
 2097SOL    HW117750   2.117   2.892  12.198 -0.8081 -1.4042  1.3412
 2097SOL    HW217751   2.218   2.781  12.208 -0.7102 -1.0544  0.2268
 2098SOL     OW17752   2.286   3.378   5.951  0.0560 -0.1854  0.1798
 2098SOL    HW117753   2.223   3.437   5.908  0.0965  1.3381  2.2431
 2098SOL    HW217754   2.234   3.300   5.971  0.4424 -0.5554 -0.2676
 2099SOL     OW17755   3.416   3.506  12.598 -0.5833 -0.1140  0.0449
 2099SOL    HW117756   3.412   3.589  12.644  1.2037 -0.6627  1.2100
 2099SOL    HW217757   3.508   3.481  12.605  0.0753  2.8713  2.0527
 2100SOL     OW17758   3.799   4.352  13.846 -0.3347 -0.0853 -0.4692
 2100SOL    HW117759   3.750   4.355  13.764  0.1693  1.3365 -0.7078
 2100SOL    HW217760   3.814   4.444  13.865  0.4886 -0.7369  2.0395
 2101SOL     OW17761   2.834   4.702   6.041  0.1990  0.1216  0.2762
 2101SOL    HW117762   2.773   4.635   6.010 -0.0099  1.7025 -2.7117
 2101SOL    HW217763   2.922   4.667   6.029  0.0294 -0.2189  0.0339
 2102SOL     OW17764   4.250   2.256   8.776  0.2950 -0.0544  0.3832
 2102SOL    HW117765   4.233   2.162   8.764  0.9452 -0.0760 -0.3618
 2102SOL    HW217766   4.209   2.291   8.698  1.0504  0.0164  0.0167
 2103SOL     OW17767   1.018   0.983  11.222 -0.1644 -0.2184 -0.5842
 2103SOL    HW117768   0.944   1.040  11.199 -1.0367 -0.7293  0.9508
 2103SOL    HW217769   1.079   1.047  11.260 -0.4703 -0.4459  0.2933
 2104SOL     OW17770   1.203   2.651   2.273 -0.6110 -0.0322  0.1432
 2104SOL    HW117771   1.295   2.665   2.294 -0.8944  0.2836  1.1808
 2104SOL    HW217772   1.169   2.609   2.352  2.5690 -0.8746  1.0761
 2105SOL     OW17773   2.951   0.750   3.021 -0.2623  0.3345 -0.0614
 2105SOL    HW117774   2.906   0.796   2.950  0.7213  1.8223  0.2788
 2105SOL    HW217775   2.888   0.748   3.093  1.3915  0.6237  1.3983
 2106SOL     OW17776   0.101   3.152   0.251  0.5789 -0.1975  0.0689
 2106SOL    HW117777   0.090   3.113   0.165 -1.2639 -3.0592  1.5775
 2106SOL    HW217778   0.143   3.079   0.297  2.7172  0.1900 -1.2925
 2107SOL     OW17779   0.826   3.808  14.793  0.2387  0.0017  0.5581
 2107SOL    HW117780   0.819   3.903  14.790 -2.2216 -0.1332  1.9612
 2107SOL    HW217781   0.896   3.796  14.857  0.0084  1.6280  1.1036
 2108SOL     OW17782   4.365   3.950   7.710  0.0621  0.7014 -0.3266
 2108SOL    HW117783   4.418   3.930   7.632  0.9127  0.9554  0.1781
 2108SOL    HW217784   4.432   3.992   7.765 -0.1995 -0.5851  0.9495
 2109SOL     OW17785   1.851   1.904   8.213 -0.1420  0.0548  0.3162
 2109SOL    HW117786   1.799   1.827   8.191 -0.4783  0.4068 -0.1210
 2109SOL    HW217787   1.934   1.860   8.228 -1.1859 -1.5924  1.2512
 2110SOL     OW17788   0.245   4.616   6.318 -0.6142  0.1775 -0.3828
 2110SOL    HW117789   0.217   4.643   6.405 -0.8209  1.7450 -0.9276
 2110SOL    HW217790   0.230   4.522   6.325 -1.5590  0.2470 -1.4639
 2111SOL     OW17791   0.260   1.367   2.986  0.2822  0.1062 -0.4891
 2111SOL    HW117792   0.181   1.363   2.932 -0.3363 -0.4486  0.4371
 2111SOL    HW217793   0.220   1.332   3.066  1.0666  0.3383  0.0020
 2112SOL     OW17794   0.051   2.244   2.142 -0.0959  0.3602  0.2363
 2112SOL    HW117795   0.065   2.174   2.205 -0.0983  1.3645  1.3655
 2112SOL    HW217796   0.141   2.267   2.120  0.8018 -2.1876  1.2988
 2113SOL     OW17797   4.419   1.817  10.431 -0.0393  0.0118 -0.0566
 2113SOL    HW117798   4.399   1.910  10.418  0.7830  0.0743 -0.9082
 2113SOL    HW217799   4.469   1.797  10.352 -1.6941  0.4082 -1.2046
 2114SOL     OW17800   1.495   3.441   5.647 -0.3230 -0.1500  0.1361
 2114SOL    HW117801   1.416   3.483   5.614 -0.4213  1.1225  1.9763
 2114SOL    HW217802   1.518   3.386   5.572 -0.5114 -2.2423  1.6125
 2115SOL     OW17803   1.009   3.127   5.889 -0.1228 -0.6980  0.0907
 2115SOL    HW117804   1.042   3.162   5.972  0.0915  0.7610 -0.5977
 2115SOL    HW217805   0.939   3.067   5.912 -1.1515  1.4000  2.5210
 2116SOL     OW17806   2.309   4.592   9.783  0.8889  0.2691  0.2684
 2116SOL    HW117807   2.390   4.543   9.794  1.2744  1.0404  0.8713
 2116SOL    HW217808   2.346   4.678   9.762  2.2781 -0.5447 -0.5926
 2117SOL     OW17809   1.731   0.551  12.686 -0.3007  0.0954 -0.0990
 2117SOL    HW117810   1.750   0.645  12.685 -0.9536  0.2517  1.3781
 2117SOL    HW217811   1.640   0.548  12.717 -0.5837  1.2935 -0.7978
 2118SOL     OW17812   0.339   1.390   1.444 -0.2482 -0.0249  0.4282
 2118SOL    HW117813   0.323   1.429   1.359 -2.9960 -2.2931 -0.0892
 2118SOL    HW217814   0.393   1.458   1.484 -1.0613  0.4417  0.7381
 2119SOL     OW17815   4.106   1.801  14.590  0.1082  0.2827  0.3726
 2119SOL    HW117816   4.132   1.891  14.571  1.2134 -0.5002 -1.8527
 2119SOL    HW217817   4.182   1.755  14.553  0.2302 -0.0748  1.0702
 2120SOL     OW17818   0.770   4.357   6.302 -0.3579  0.1463 -0.5913
 2120SOL    HW117819   0.700   4.301   6.336 -0.6629 -0.5588 -2.3732
 2120SOL    HW217820   0.840   4.294   6.323 -0.9063  0.6009  2.5389
 2121SOL     OW17821   3.033   3.170   5.191 -0.1027  0.2512 -0.0189
 2121SOL    HW117822   3.068   3.258   5.211 -1.1894  0.1016  2.5956
 2121SOL    HW217823   2.939   3.186   5.183 -0.1991 -0.4230 -0.1776
 2122SOL     OW17824   1.266   1.172   3.036  0.6648 -0.0789 -0.4872
 2122SOL    HW117825   1.352   1.206   3.059 -0.0891  0.3465  1.7109
 2122SOL    HW217826   1.287   1.132   2.951  1.6003 -0.6761  0.0280
 2123SOL     OW17827   4.714   0.900   6.889  0.4139  0.0555 -0.5116
 2123SOL    HW117828   0.069   0.852   6.887  0.3849 -0.0201 -0.0620
 2123SOL    HW217829   0.017   0.983   6.924 -0.6155  0.7186 -1.2031
 2124SOL     OW17830   3.489   4.410  11.347 -0.1012  0.3060 -0.2424
 2124SOL    HW117831   3.538   4.404  11.429 -0.6085  1.1475  0.1221
 2124SOL    HW217832   3.456   4.321  11.357 -0.4171  0.4659  0.1368
 2125SOL     OW17833   1.782   0.448  10.975 -0.3107 -0.0459  0.1347
 2125SOL    HW117834   1.829   0.527  10.948 -1.2722  1.2876  2.2977
 2125SOL    HW217835   1.771   0.415  10.886  0.6964 -0.4037  0.1558
 2126SOL     OW17836   0.646   4.321   8.620  0.9091 -0.4239 -0.3158
 2126SOL    HW117837   0.618   4.282   8.703  1.1247 -1.3550 -0.6771
 2126SOL    HW217838   0.736   4.289   8.617  0.8148 -0.8210  0.8323
 2127SOL     OW17839   0.474   4.460   2.292  0.2525  0.0126 -0.2726
 2127SOL    HW117840   0.407   4.412   2.243  0.9308 -0.4185 -0.7871
 2127SOL    HW217841   0.548   4.441   2.234  0.6918 -1.9849  0.9569
 2128SOL     OW17842   0.723   0.733  11.733  0.4760  0.0053 -0.0622
 2128SOL    HW117843   0.774   0.653  11.717 -1.5562 -1.3280  0.2313
 2128SOL    HW217844   0.631   0.710  11.737  0.9041 -1.7264  0.0891
 2129SOL     OW17845   2.954   3.900   6.050 -0.4606 -0.1476 -0.0855
 2129SOL    HW117846   3.012   3.925   5.979  0.3983 -1.2950  0.2146
 2129SOL    HW217847   2.894   3.852   5.993 -2.8329 -0.1446  2.3960
 2130SOL     OW17848   4.445   4.205  16.138 -0.1833  0.0392 -0.2805
 2130SOL    HW117849   4.358   4.190  16.175 -0.1444 -1.2699 -0.7366
 2130SOL    HW217850   4.458   4.292  16.177 -0.1148 -1.0094  2.0228
 2131SOL     OW17851   1.911   0.552   2.759  0.3510  0.5767 -0.1646
 2131SOL    HW117852   1.832   0.579   2.713  1.2714  2.3003 -0.7367
 2131SOL    HW217853   1.878   0.467   2.788 -0.8330  1.8151  2.1350
 2132SOL     OW17854   0.776   1.230   2.140  0.1799  0.0118  0.5842
 2132SOL    HW117855   0.803   1.322   2.149 -0.5092  0.4847 -2.2421
 2132SOL    HW217856   0.685   1.240   2.110 -0.0078 -3.4735  0.0129
 2133SOL     OW17857   1.474   0.021   7.110  0.6166 -0.2550  0.1975
 2133SOL    HW117858   1.454   4.655   7.117 -0.9387 -0.0838 -1.7726
 2133SOL    HW217859   1.540   0.028   7.179  0.8611 -0.3157 -0.0340
 2134SOL     OW17860   3.823   3.875   1.533  0.7603  0.4169 -0.3222
 2134SOL    HW117861   3.897   3.898   1.477  1.8314 -1.6147  0.2778
 2134SOL    HW217862   3.815   3.932   1.609  0.7643  0.1598 -0.1286
 2135SOL     OW17863   4.612   2.653   7.827  0.7436 -0.0886  0.1033
 2135SOL    HW117864   4.589   2.600   7.752 -1.2221  2.3331 -1.0067
 2135SOL    HW217865   4.531   2.660   7.877 -0.1604 -2.1016 -1.0905
 2136SOL     OW17866   1.970   2.786   4.036 -0.1226  0.1426  0.1797
 2136SOL    HW117867   2.017   2.712   3.999 -1.1082 -0.7113  0.6544
 2136SOL    HW217868   2.020   2.814   4.113 -0.7874 -0.9554  1.0159
 2137SOL     OW17869   4.036   2.067   4.961  0.4371 -0.4475  0.2807
 2137SOL    HW117870   4.065   1.978   4.980  0.0687 -0.5025  0.5747
 2137SOL    HW217871   3.945   2.068   4.992 -1.2863  1.1937 -4.8418
 2138SOL     OW17872   3.225   0.411   6.238 -0.1113  0.0081  0.3594
 2138SOL    HW117873   3.187   0.446   6.319  0.2439 -1.0642  0.9848
 2138SOL    HW217874   3.150   0.400   6.180  1.1126  0.8618 -1.3823
 2139SOL     OW17875   2.582   1.849   9.213 -0.6009 -0.7809  0.3687
 2139SOL    HW117876   2.533   1.847   9.131  0.2816 -0.4628 -0.1784
 2139SOL    HW217877   2.537   1.916   9.264 -1.1599 -1.2023  0.4185
 2140SOL     OW17878   4.424   3.374  15.688  0.0598 -0.0324  0.1664
 2140SOL    HW117879   4.452   3.324  15.611 -2.5298 -0.7050 -0.3651
 2140SOL    HW217880   4.504   3.393  15.736 -0.1111  0.8197  0.1038
 2141SOL     OW17881   2.401   1.635   1.210 -0.3330  0.0012 -0.1443
 2141SOL    HW117882   2.464   1.576   1.251 -0.4331 -0.8674 -1.2546
 2141SOL    HW217883   2.320   1.584   1.216  0.0817 -0.6387 -0.0276
 2142SOL     OW17884   4.579   0.765  13.450 -0.1337  1.1118  0.6728
 2142SOL    HW117885   4.528   0.818  13.388 -1.4618 -0.1616  0.6836
 2142SOL    HW217886   4.638   0.836  13.475  1.6027  0.5283 -1.7183
 2143SOL     OW17887   0.667   2.058   8.777 -0.2963 -0.0810 -0.0908
 2143SOL    HW117888   0.577   2.032   8.757 -0.0236 -0.1794 -1.1668
 2143SOL    HW217889   0.701   1.987   8.832 -0.2131  0.2449  0.2803
 2144SOL     OW17890   4.609   0.666  12.420  0.2075 -0.5483  0.0500
 2144SOL    HW117891   4.617   0.762  12.417  1.6818 -0.6522  0.6455
 2144SOL    HW217892   4.514   0.653  12.420  0.0175  0.7844  1.2240
 2145SOL     OW17893   2.378   0.888   2.584 -0.1470 -0.3111 -0.0666
 2145SOL    HW117894   2.442   0.838   2.635 -2.5862 -0.0752  3.2351
 2145SOL    HW217895   2.424   0.968   2.559  2.4629 -1.9785 -0.6272
 2146SOL     OW17896   3.984   0.247   2.646  0.2988  0.3755  0.5747
 2146SOL    HW117897   3.940   0.168   2.614 -3.3131  2.4989  0.2010
 2146SOL    HW217898   4.073   0.213   2.640  0.2670  0.6316 -1.5393
 2147SOL     OW17899   1.838   2.886   0.351  0.2913  0.5430 -0.2902
 2147SOL    HW117900   1.771   2.826   0.319 -1.5842  1.8370  1.2463
 2147SOL    HW217901   1.782   2.962   0.368 -0.2849  0.1252 -0.3269
 2148SOL     OW17902   4.663   2.765  14.534 -0.3947 -0.1232  0.1919
 2148SOL    HW117903   4.635   2.826  14.466 -4.6471 -1.9446  0.2879
 2148SOL    HW217904   4.656   2.826  14.607  0.4257 -0.0811  0.2382
 2149SOL     OW17905   4.274   1.030   7.460 -0.1773  0.6017  0.2611
 2149SOL    HW117906   4.234   0.958   7.410 -1.1923  2.1530 -1.1542
 2149SOL    HW217907   4.234   1.011   7.545  1.1638 -2.4407  0.2113
 2150SOL     OW17908   0.598   3.625   3.919 -0.2387  0.8948 -0.2912
 2150SOL    HW117909   0.578   3.569   3.844  0.9582 -0.8804  0.6981
 2150SOL    HW217910   0.676   3.669   3.886  0.4484 -2.0271 -2.5753
 2151SOL     OW17911   4.063   1.129   6.261  0.2126  0.0187 -0.2785
 2151SOL    HW117912   4.117   1.055   6.289 -0.6421 -1.1133 -1.5849
 2151SOL    HW217913   4.073   1.191   6.333  0.4974  0.5368 -0.7555
 2152SOL     OW17914   2.621   2.411   5.777  0.1175 -0.0466  0.6957
 2152SOL    HW117915   2.695   2.358   5.805  1.5768  1.7583  0.2773
 2152SOL    HW217916   2.554   2.354   5.739  0.8356  1.0557 -2.1768
 2153SOL     OW17917   1.303   2.124  11.874 -0.3316  0.2815  0.1668
 2153SOL    HW117918   1.259   2.198  11.832  0.5367  0.0869 -1.0794
 2153SOL    HW217919   1.276   2.147  11.963 -1.0905  0.2769 -0.0622
 2154SOL     OW17920   3.490   3.859   5.817  0.0713 -0.3143  0.1312
 2154SOL    HW117921   3.437   3.917   5.763 -0.3723 -1.4906 -0.6909
 2154SOL    HW217922   3.574   3.850   5.772  0.4782  1.4224  0.5568
 2155SOL     OW17923   4.249   0.883  12.952 -0.0611  0.8228 -0.3979
 2155SOL    HW117924   4.296   0.920  13.025  2.6192  0.1975 -1.8202
 2155SOL    HW217925   4.317   0.825  12.918 -2.2047 -0.5872 -2.2806
 2156SOL     OW17926   4.288   3.009   8.047 -0.2601 -0.0382 -0.1086
 2156SOL    HW117927   4.326   2.952   8.114 -1.0647 -1.5771 -0.9374
 2156SOL    HW217928   4.219   3.061   8.087  0.4028 -0.9679  2.2869
 2157SOL     OW17929   1.247   1.713   7.440  0.1066 -0.2958  0.2943
 2157SOL    HW117930   1.197   1.750   7.513  0.3232 -0.2128  0.4016
 2157SOL    HW217931   1.195   1.743   7.366 -1.4970 -0.1373  1.5051
 2158SOL     OW17932   0.248   1.852   7.256 -0.7978 -0.2934 -0.4439
 2158SOL    HW117933   0.317   1.918   7.265  1.3035 -3.0405  3.6517
 2158SOL    HW217934   0.289   1.778   7.211 -0.5588  0.7684 -1.9612
 2159SOL     OW17935   1.288   2.704   5.951  0.3720  0.1385  0.4750
 2159SOL    HW117936   1.257   2.794   5.957 -1.1413 -0.3433 -0.1162
 2159SOL    HW217937   1.286   2.676   6.043  0.4768  1.7198  0.9547
 2160SOL     OW17938   3.618   4.390   7.769  0.0010  0.6073 -0.0433
 2160SOL    HW117939   3.635   4.482   7.749 -1.6934  1.0534  0.5523
 2160SOL    HW217940   3.524   4.392   7.788  0.4320 -0.1708  2.2406
 2161SOL     OW17941   2.835   4.168   0.558  0.3617  0.4882  0.4117
 2161SOL    HW117942   2.795   4.123   0.632  0.3770  0.1003  0.1904
 2161SOL    HW217943   2.800   4.256   0.568 -1.0132  0.4083 -3.3784
 2162SOL     OW17944   4.033   2.821   1.210 -0.5718  0.2162 -0.3709
 2162SOL    HW117945   3.981   2.901   1.217 -0.6751  0.2440 -1.4167
 2162SOL    HW217946   4.033   2.822   1.114  1.7070 -2.2003 -0.3852
 2163SOL     OW17947   3.510   4.173   8.156  0.2213 -0.1002 -0.0666
 2163SOL    HW117948   3.486   4.151   8.246  0.4723 -3.5662 -0.8719
 2163SOL    HW217949   3.605   4.162   8.154  0.2936  0.1052  3.3200
 2164SOL     OW17950   1.488   3.335  13.627 -0.1288 -0.0898  0.1075
 2164SOL    HW117951   1.576   3.366  13.644  0.2156 -0.5438 -0.8486
 2164SOL    HW217952   1.506   3.307  13.537  1.2464 -0.5485  0.5308
 2165SOL     OW17953   1.200   2.377   4.662 -0.1433  0.2814 -0.1033
 2165SOL    HW117954   1.282   2.351   4.704  0.0650 -0.9371 -1.2923
 2165SOL    HW217955   1.213   2.320   4.586  1.4723  1.0007 -0.3708
 2166SOL     OW17956   3.591   4.052   6.526  0.4949  0.0798 -0.2252
 2166SOL    HW117957   3.608   4.146   6.515  1.1356 -0.2094 -1.7307
 2166SOL    HW217958   3.497   4.047   6.538  0.4591 -0.6267 -0.8192
 2167SOL     OW17959   4.418   3.649  15.455  0.4984 -0.2660 -0.1060
 2167SOL    HW117960   4.490   3.661  15.517 -0.0041 -2.1329  0.8452
 2167SOL    HW217961   4.346   3.664  15.516  1.1274  0.9678  0.3190
 2168SOL     OW17962   4.232   3.125  12.864 -0.0132  0.4232 -0.5839
 2168SOL    HW117963   4.196   3.097  12.780 -1.8893  1.5978 -0.1652
 2168SOL    HW217964   4.324   3.138  12.839  0.1266  0.1497 -0.2170
 2169SOL     OW17965   1.071   0.648   6.956 -0.0952 -0.4777  0.2698
 2169SOL    HW117966   1.042   0.735   6.983 -1.1267  0.1039 -2.6569
 2169SOL    HW217967   1.013   0.622   6.885 -1.9743  1.5617  1.0775
 2170SOL     OW17968   1.298   2.288   2.277 -0.2862 -0.1160 -0.3334
 2170SOL    HW117969   1.362   2.217   2.288 -1.1767 -0.3555  3.6329
 2170SOL    HW217970   1.351   2.367   2.273 -1.3418  0.4672 -2.2010
 2171SOL     OW17971   1.368   2.480   7.029 -0.6015 -0.0634  0.2944
 2171SOL    HW117972   1.414   2.518   7.104 -0.6169  1.3496 -0.4319
 2171SOL    HW217973   1.290   2.454   7.079 -0.0009 -1.0361  0.7324
 2172SOL     OW17974   3.045   2.116  12.605 -0.2526 -0.0472  0.5657
 2172SOL    HW117975   2.958   2.155  12.617 -0.8313 -0.4691 -2.2844
 2172SOL    HW217976   3.089   2.175  12.667 -2.1157  0.8341  1.0553
 2173SOL     OW17977   4.602   2.821   4.548  0.1493  0.6291  0.6004
 2173SOL    HW117978   4.601   2.740   4.599 -1.4522  0.7344  0.7256
 2173SOL    HW217979   4.513   2.846   4.574 -1.2468 -1.3454 -2.2407
 2174SOL     OW17980   2.253   0.603   2.789 -0.0263  0.2025  0.2689
 2174SOL    HW117981   2.258   0.555   2.872 -1.9225 -1.5278 -0.6317
 2174SOL    HW217982   2.193   0.673   2.813  1.5115  0.1091  4.4177
 2175SOL     OW17983   4.045   4.287  11.963 -0.0367 -0.5535  0.2167
 2175SOL    HW117984   3.994   4.247  11.893 -2.0432  0.1460  1.2727
 2175SOL    HW217985   3.999   4.369  11.984  0.5667  0.0418 -0.7654
 2176SOL     OW17986   1.542   3.191   6.928 -0.1047  0.0663  0.0756
 2176SOL    HW117987   1.579   3.226   7.010 -0.5384 -1.9428  1.1253
 2176SOL    HW217988   1.542   3.270   6.874  0.3115 -0.6854 -1.0305
 2177SOL     OW17989   3.738   1.290   1.925  0.2530  0.0902  0.3322
 2177SOL    HW117990   3.678   1.364   1.916 -0.5014 -0.2709  2.4799
 2177SOL    HW217991   3.678   1.221   1.955  0.2233  1.2024  2.7901
 2178SOL     OW17992   2.471   2.061   1.612 -0.4586  0.2926  0.3017
 2178SOL    HW117993   2.414   2.074   1.536  0.1206  2.1145  0.1651
 2178SOL    HW217994   2.417   2.011   1.672 -0.9430 -0.9441 -1.1577
 2179SOL     OW17995   0.342   0.902   4.894 -0.2510  0.2220  0.1505
 2179SOL    HW117996   0.318   0.858   4.976  0.0742  0.2231  0.2467
 2179SOL    HW217997   0.306   0.990   4.903 -0.3398  0.0979  1.1108
 2180SOL     OW17998   0.203   4.401   5.594  0.5342 -0.3153  0.0154
 2180SOL    HW117999   0.184   4.469   5.659 -0.1792 -1.6189  1.1785
 2180SOL    HW218000   0.137   4.335   5.617  0.2841  0.0849  0.4651
 2181SOL     OW18001   3.337   4.608   6.496 -0.0093  0.2037 -0.0647
 2181SOL    HW118002   3.306   4.698   6.489 -0.5723  0.0206  0.0703
 2181SOL    HW218003   3.308   4.575   6.411 -0.6226  2.3055 -0.6604
 2182SOL     OW18004   2.357   4.482   8.215 -0.3848 -0.1252 -0.5114
 2182SOL    HW118005   2.389   4.530   8.292 -0.1690 -0.3401 -0.4670
 2182SOL    HW218006   2.262   4.478   8.223 -0.4357 -0.2458 -1.1733
 2183SOL     OW18007   2.929   0.921  15.818  0.2238  0.0370  0.1612
 2183SOL    HW118008   2.851   0.963  15.781  0.0254  0.2678  0.8473
 2183SOL    HW218009   2.984   0.998  15.823  1.2480 -0.8733  2.9031
 2184SOL     OW18010   0.940   2.503  17.466 -0.6507 -0.1494  0.2023
 2184SOL    HW118011   0.938   2.413  17.433 -0.9890 -0.5554  1.3574
 2184SOL    HW218012   1.020   2.505  17.518 -0.5865 -0.1768  0.1054
 2185SOL     OW18013   1.701   0.041   6.241 -0.5222 -0.0763 -0.1755
 2185SOL    HW118014   1.784   0.071   6.279 -1.0713 -2.2596  2.7323
 2185SOL    HW218015   1.649   0.010   6.315 -1.7732  1.6481 -0.3223
 2186SOL     OW18016   0.523   4.242   8.021 -0.2185 -0.2167  0.2552
 2186SOL    HW118017   0.552   4.203   7.939 -1.4826 -0.0534 -0.2658
 2186SOL    HW218018   0.562   4.182   8.085  1.1410  0.3891 -0.0029
 2187SOL     OW18019   1.481   1.762   4.994  0.0826  0.7499  0.0782
 2187SOL    HW118020   1.419   1.823   4.953 -1.1474 -0.0505  0.7440
 2187SOL    HW218021   1.488   1.695   4.927 -1.2923  0.5555  0.1228
 2188SOL     OW18022   3.681   3.681   4.549 -0.4727  0.1543 -0.1532
 2188SOL    HW118023   3.725   3.640   4.624  0.1857  1.6816  0.2961
 2188SOL    HW218024   3.762   3.706   4.506  0.0345  0.5660  1.0395
 2189SOL     OW18025   1.161   2.162  17.432  0.4516 -0.1763 -0.4832
 2189SOL    HW118026   1.238   2.177  17.376 -0.3263 -1.0271 -1.7885
 2189SOL    HW218027   1.201   2.093  17.485  0.6689 -0.5889 -1.1791
 2190SOL     OW18028   0.431   1.131   1.875  0.1512 -0.1201 -0.1523
 2190SOL    HW118029   0.488   1.108   1.803 -0.6895  0.9281 -1.1546
 2190SOL    HW218030   0.477   1.087   1.947 -0.8357  0.0853  0.6171
 2191SOL     OW18031   3.114   4.105   0.888 -0.3907  0.1492  0.8183
 2191SOL    HW118032   3.161   4.071   0.812  1.5345 -0.5765  2.3356
 2191SOL    HW218033   3.069   4.177   0.844 -0.4808  0.5656  1.5857
 2192SOL     OW18034   1.989   0.926   2.080 -0.4318  0.0142  0.2444
 2192SOL    HW118035   1.986   1.015   2.043 -1.1665  0.4872  1.4271
 2192SOL    HW218036   2.050   0.873   2.029 -0.1571  0.5109  0.0491
 2193SOL     OW18037   0.345   4.367  14.066 -0.2536  0.4128  0.1788
 2193SOL    HW118038   0.266   4.392  14.018  1.0891  1.3783 -1.5519
 2193SOL    HW218039   0.409   4.387  13.996  0.1973 -0.0390  0.4597
 2194SOL     OW18040   4.516   3.507  12.108 -0.2586 -0.1797  0.4348
 2194SOL    HW118041   4.485   3.438  12.167  3.0325 -3.8600 -2.1231
 2194SOL    HW218042   4.570   3.457  12.047 -0.0048  2.1253 -1.2222
 2195SOL     OW18043   2.950   2.401   3.580  0.4205  0.1557  0.8281
 2195SOL    HW118044   2.955   2.317   3.625  0.8581 -0.2253  0.0718
 2195SOL    HW218045   2.929   2.453   3.658 -2.4225  0.0988  0.0798
 2196SOL     OW18046   0.715   3.869   9.085 -0.5650 -0.1703 -0.0442
 2196SOL    HW118047   0.786   3.842   9.027 -1.1251  1.1640 -1.3440
 2196SOL    HW218048   0.681   3.782   9.103  0.1500 -0.9187 -2.3324
 2197SOL     OW18049   0.989   3.313  15.729 -0.0970 -0.1060 -0.2739
 2197SOL    HW118050   0.961   3.386  15.786 -1.6188 -2.2866  1.7757
 2197SOL    HW218051   0.901   3.282  15.707 -0.3749  1.3976 -1.2838
 2198SOL     OW18052   2.139   4.573   4.114  0.5907  0.6221 -0.3147
 2198SOL    HW118053   2.207   4.609   4.171 -0.7276  2.3651  0.1247
 2198SOL    HW218054   2.060   4.594   4.164  0.5655  0.6145 -0.3511
 2199SOL     OW18055   0.728   4.580   5.246  0.0520  0.1004  0.2623
 2199SOL    HW118056   0.652   4.523   5.247 -1.7497  2.5042  1.3427
 2199SOL    HW218057   0.800   4.518   5.236  1.0918  1.2609  0.5497
 2200SOL     OW18058   3.612   0.057   6.815 -0.0746  1.2085  0.6652
 2200SOL    HW118059   3.657   4.705   6.843 -1.1099  0.4167  0.0890
 2200SOL    HW218060   3.686   0.108   6.781  0.8600  0.8891  2.2330
 2201SOL     OW18061   2.341   4.333   6.995 -0.0543  0.1631 -0.0641
 2201SOL    HW118062   2.431   4.344   7.024  1.1613 -3.3959 -2.5016
 2201SOL    HW218063   2.303   4.296   7.076 -0.7093  1.9794  0.4636
 2202SOL     OW18064   3.738   4.221   9.668  0.3368 -0.3997  0.6801
 2202SOL    HW118065   3.733   4.169   9.588  0.3826  1.0775 -0.2783
 2202SOL    HW218066   3.793   4.165   9.723  0.2401 -2.4331 -1.2746
 2203SOL     OW18067   4.036   3.394   3.174 -0.0625 -0.7045  0.1499
 2203SOL    HW118068   4.008   3.383   3.265  0.0481  0.2443  0.2940
 2203SOL    HW218069   4.078   3.309   3.163  3.1971  0.8928  0.3869
 2204SOL     OW18070   3.632   2.212   7.373 -0.2927  0.0731  0.6922
 2204SOL    HW118071   3.566   2.242   7.436 -0.8034 -0.6556  0.5173
 2204SOL    HW218072   3.579   2.149   7.324 -0.3084 -1.3749  2.5641
 2205SOL     OW18073   1.008   3.980   6.105  0.3265  0.5912 -0.4836
 2205SOL    HW118074   1.048   4.050   6.054  1.1719  1.1892  0.9977
 2205SOL    HW218075   0.969   3.930   6.033 -1.1293 -1.2871  1.5995
 2206SOL     OW18076   4.646   3.858   4.579  0.3471  0.7327 -0.6352
 2206SOL    HW118077   4.722   3.848   4.636  1.7022 -0.9935 -2.7431
 2206SOL    HW218078   4.698   3.886   4.504 -1.7266  0.2375 -2.2475
 2207SOL     OW18079   0.715   1.176   3.568  0.2252 -0.7036 -0.3258
 2207SOL    HW118080   0.626   1.146   3.583  0.7655 -2.0991  0.0796
 2207SOL    HW218081   0.740   1.172   3.660  0.9353  2.4883 -0.3816
 2208SOL     OW18082   2.420   2.572   4.442 -0.3700  0.4895  0.2506
 2208SOL    HW118083   2.456   2.484   4.438  1.9077  1.4395 -0.4826
 2208SOL    HW218084   2.469   2.617   4.372 -1.6310 -2.1778 -2.3394
 2209SOL     OW18085   0.114   4.440   4.470 -0.9072  0.2300 -0.0746
 2209SOL    HW118086   0.049   4.446   4.540  0.9388  0.6004  1.5660
 2209SOL    HW218087   0.121   4.345   4.459  1.0025  0.2712  0.9340
 2210SOL     OW18088   2.689   3.443   4.443 -0.5932 -0.7398  0.1450
 2210SOL    HW118089   2.662   3.423   4.353 -0.0228 -0.7019 -0.0355
 2210SOL    HW218090   2.618   3.505   4.465  0.5887  1.0093 -0.9645
 2211SOL     OW18091   4.037   4.697   5.189  0.5745  0.0846 -0.2181
 2211SOL    HW118092   4.016   0.002   5.101  3.0874 -0.2954 -0.9682
 2211SOL    HW218093   4.005   4.606   5.194 -1.6735  0.7022 -3.3509
 2212SOL     OW18094   3.421   2.582   5.818 -0.1905 -0.4089 -0.5772
 2212SOL    HW118095   3.372   2.514   5.864 -0.7480 -0.6882 -1.5737
 2212SOL    HW218096   3.347   2.620   5.770  0.1267 -1.5121 -1.9163
 2213SOL     OW18097   4.499   2.872   3.167 -0.1088 -0.1812 -0.1058
 2213SOL    HW118098   4.481   2.918   3.248  1.8239 -0.9570  0.7710
 2213SOL    HW218099   4.534   2.944   3.115 -2.9260  0.7562 -0.7064
 2214SOL     OW18100   1.896   1.496   6.056  0.5161  0.0174  0.6937
 2214SOL    HW118101   1.805   1.506   6.030  0.7024 -1.0247 -0.4020
 2214SOL    HW218102   1.914   1.575   6.106  0.9966  0.3062  0.0671
 2215SOL     OW18103   0.060   0.685   2.110  0.4148  0.5244 -0.1773
 2215SOL    HW118104   4.722   0.672   2.178 -0.7350 -2.5181 -1.8788
 2215SOL    HW218105   0.037   0.774   2.083  2.4957  0.7850 -1.0553
 2216SOL     OW18106   3.675   4.555   0.256 -0.7472 -0.0260  0.1794
 2216SOL    HW118107   3.724   4.631   0.287  0.4498 -0.1405 -1.4094
 2216SOL    HW218108   3.652   4.596   0.173  0.5884  0.6307  0.1358
 2217SOL     OW18109   4.487   0.028   8.107  0.4677  0.6009 -0.3232
 2217SOL    HW118110   4.399   4.719   8.106 -0.1660  2.1310 -0.4063
 2217SOL    HW218111   4.523   4.694   8.043  0.4455  0.0278  0.2200
 2218SOL     OW18112   4.476   0.967  17.576 -0.9471  0.2794  0.0530
 2218SOL    HW118113   4.486   0.993  17.484 -1.1138  0.9203  0.2154
 2218SOL    HW218114   4.508   0.878  17.561  0.1862  0.4840  1.2349
 2219SOL     OW18115   4.356   2.283  17.655 -0.3085 -0.0655  0.0477
 2219SOL    HW118116   4.268   2.322  17.647 -0.5067 -0.8545 -1.7417
 2219SOL    HW218117   4.401   2.366  17.670  1.7046 -0.6114 -2.9388
 2220SOL     OW18118   0.142   3.845  10.935 -0.2816 -0.8603  0.3030
 2220SOL    HW118119   0.125   3.848  10.840 -0.3368 -1.2370  0.3015
 2220SOL    HW218120   0.184   3.759  10.939 -1.8731 -1.8463 -3.9470
 2221SOL     OW18121   0.638   1.991   6.789 -0.1694 -0.4831  0.2497
 2221SOL    HW118122   0.693   1.927   6.833 -0.7547 -0.6295  0.7677
 2221SOL    HW218123   0.632   1.958   6.699 -0.0695 -1.9640  0.7856
 2222SOL     OW18124   3.830   1.998   7.834 -0.2619 -0.1160 -0.2698
 2222SOL    HW118125   3.786   1.931   7.781  0.4501  0.5816 -1.7330
 2222SOL    HW218126   3.861   1.956   7.914 -1.2041  2.0866  1.2386
 2223SOL     OW18127   1.852   0.803   5.638  0.2040 -0.0955 -0.3166
 2223SOL    HW118128   1.912   0.877   5.642  0.9553 -0.6722 -1.0761
 2223SOL    HW218129   1.778   0.834   5.585 -0.0711  1.3814  0.9395
 2224SOL     OW18130   2.472   0.903   5.542 -0.3326 -0.4198  0.3300
 2224SOL    HW118131   2.457   0.866   5.629 -0.3757  0.9667  0.9109
 2224SOL    HW218132   2.551   0.953   5.561  0.6934 -2.5923  1.8472
 2225SOL     OW18133   4.206   3.995  12.039 -0.2871 -0.3001 -0.4526
 2225SOL    HW118134   4.230   4.022  12.127 -2.1806 -0.2607  0.0493
 2225SOL    HW218135   4.293   3.997  11.999  0.0961 -1.8850  0.3086
 2226SOL     OW18136   3.702   1.816   1.206 -0.4719  0.1290 -0.4065
 2226SOL    HW118137   3.720   1.852   1.292 -0.6406 -0.4199 -0.1438
 2226SOL    HW218138   3.713   1.893   1.150 -0.4469  1.6025  1.6331
 2227SOL     OW18139   1.686   0.491   7.849  0.7247 -0.6411 -0.7296
 2227SOL    HW118140   1.724   0.577   7.827  0.8753 -0.7886 -1.0362
 2227SOL    HW218141   1.609   0.488   7.792  0.5865  1.3972 -0.6591
 2228SOL     OW18142   0.084   1.514  13.210  0.0939  0.4264  0.0226
 2228SOL    HW118143   0.110   1.600  13.176 -1.7331  0.7722 -0.5015
 2228SOL    HW218144   0.043   1.539  13.293 -3.4582 -2.2991 -0.9369
 2229SOL     OW18145   2.246   1.366   6.652  0.1076 -0.1894  0.4569
 2229SOL    HW118146   2.225   1.324   6.735 -0.5208  0.1150  0.4571
 2229SOL    HW218147   2.331   1.404   6.672 -0.6918 -0.0681  3.5949
 2230SOL     OW18148   3.066   1.873   2.179 -0.1970  0.4789 -0.3835
 2230SOL    HW118149   3.021   1.853   2.096 -0.2029  0.0395 -0.2721
 2230SOL    HW218150   2.989   1.896   2.232 -0.2507 -1.9105  0.5880
 2231SOL     OW18151   0.715   2.476   6.084 -0.0446 -0.4415  0.0318
 2231SOL    HW118152   0.727   2.548   6.146  1.9910 -0.5476 -0.2597
 2231SOL    HW218153   0.670   2.530   6.019 -0.4431 -0.9309 -0.1028
 2232SOL     OW18154   3.933   2.898   5.318 -0.8084 -0.0723 -0.2968
 2232SOL    HW118155   3.913   2.823   5.373 -2.1458  1.1327  0.8930
 2232SOL    HW218156   4.022   2.919   5.346 -1.0785  1.8876 -0.8567
 2233SOL     OW18157   2.702   1.814   8.778  0.1183 -0.0973  0.1264
 2233SOL    HW118158   2.709   1.856   8.692 -0.9386 -1.6363 -0.7162
 2233SOL    HW218159   2.795   1.818   8.801  0.7409  0.7679 -2.5426
 2234SOL     OW18160   2.291   2.519   2.952 -0.2350 -0.2165  0.1958
 2234SOL    HW118161   2.249   2.451   2.900  1.1297  1.0054 -2.5035
 2234SOL    HW218162   2.335   2.460   3.014 -0.1859 -1.0094 -0.5933
 2235SOL     OW18163   1.193   2.117  13.220  0.3440 -0.6057  0.5011
 2235SOL    HW118164   1.112   2.167  13.212  3.3924  4.4262  1.2667
 2235SOL    HW218165   1.158   2.060  13.288  1.5047  0.2713  1.8391
 2236SOL     OW18166   1.511   0.186   5.604  0.1484 -0.1654  0.0155
 2236SOL    HW118167   1.484   0.122   5.669  1.1143  0.6798  1.2622
 2236SOL    HW218168   1.522   0.267   5.655  1.8977 -0.0738 -0.4985
 2237SOL     OW18169   3.065   3.065   4.709  0.2184  0.0348 -0.2190
 2237SOL    HW118170   3.040   3.156   4.726  0.7710 -0.2948  2.3323
 2237SOL    HW218171   3.056   3.037   4.800  0.1150 -2.3151 -0.9505
 2238SOL     OW18172   4.674   0.044   7.502 -0.4690  0.1436 -0.0228
 2238SOL    HW118173   4.629   0.127   7.518  1.2186  1.0629 -0.0480
 2238SOL    HW218174   0.040   0.063   7.486  0.2212 -3.2472  0.1139
 2239SOL     OW18175   1.497   4.191  16.571 -0.8285  0.0211  0.6121
 2239SOL    HW118176   1.573   4.209  16.626 -1.1469  0.2899  0.9651
 2239SOL    HW218177   1.448   4.133  16.628 -3.4690  0.6017 -1.0897
 2240SOL     OW18178   0.862   1.747   2.928 -0.3362 -0.0249 -0.0303
 2240SOL    HW118179   0.893   1.769   3.015  0.1332 -0.7868 -0.0059
 2240SOL    HW218180   0.894   1.657   2.921 -0.0417  0.1151 -0.5080
 2241SOL     OW18181   2.318   2.684   8.925  0.2981 -0.0566 -0.7431
 2241SOL    HW118182   2.280   2.770   8.905 -0.0582  0.4016  1.8599
 2241SOL    HW218183   2.376   2.673   8.850  0.3627  2.4934 -1.0587
 2242SOL     OW18184   0.911   4.383  13.386  0.2351  0.2105  0.0184
 2242SOL    HW118185   0.982   4.391  13.449  1.3527 -2.5884 -0.8957
 2242SOL    HW218186   0.833   4.408  13.436 -0.1782 -0.5569 -0.2413
 2243SOL     OW18187   3.521   1.051  11.852 -0.2929  0.7244  1.0078
 2243SOL    HW118188   3.506   1.113  11.781 -2.2283  1.5057  2.0986
 2243SOL    HW218189   3.580   0.990  11.808 -0.7105  1.5501 -0.7033
 2244SOL     OW18190   2.142   2.918   7.620 -0.1477  0.1609 -0.2923
 2244SOL    HW118191   2.220   2.920   7.677  1.1148  1.6500 -2.0650
 2244SOL    HW218192   2.087   2.869   7.681  2.8724 -1.4140  1.1948
 2245SOL     OW18193   2.407   2.632   5.334 -0.4531  0.4230 -0.1020
 2245SOL    HW118194   2.420   2.725   5.351  2.0459  0.0447  0.1603
 2245SOL    HW218195   2.415   2.582   5.416 -0.3991 -0.7582 -0.8282
 2246SOL     OW18196   2.531   0.321  13.900  0.1105 -0.1393 -0.3401
 2246SOL    HW118197   2.439   0.331  13.876  1.1432  0.9837 -3.9178
 2246SOL    HW218198   2.573   0.285  13.821 -1.3222  1.2551 -1.7434
 2247SOL     OW18199   3.523   0.516  17.218 -0.0273 -0.1611 -0.3009
 2247SOL    HW118200   3.615   0.512  17.194 -0.5506  0.4476 -2.4186
 2247SOL    HW218201   3.540   0.575  17.291  1.8628 -0.4728 -0.4941
 2248SOL     OW18202   0.298   0.816   5.140 -0.3118  0.4231  0.1814
 2248SOL    HW118203   0.327   0.726   5.150  0.2393  0.3701 -1.9444
 2248SOL    HW218204   0.214   0.816   5.186 -0.0158 -0.7474  0.7080
 2249SOL     OW18205   0.812   0.942   6.393 -0.2776  0.1763  0.1679
 2249SOL    HW118206   0.758   0.961   6.317  0.2083  1.8132  0.2344
 2249SOL    HW218207   0.792   1.014   6.452  0.1380  1.5753 -1.4263
 2250SOL     OW18208   0.264   3.384   9.306  0.3421 -0.0110 -0.1963
 2250SOL    HW118209   0.217   3.377   9.223  2.4787 -0.2662 -1.3848
 2250SOL    HW218210   0.215   3.325   9.364 -0.2683  1.1485  0.4911
 2251SOL     OW18211   1.615   1.557   3.802 -0.7171  0.3445 -0.5849
 2251SOL    HW118212   1.617   1.464   3.825 -1.5873  0.8105  1.4124
 2251SOL    HW218213   1.663   1.589   3.878  0.7969  0.0324 -1.4108
 2252SOL     OW18214   4.011   2.424   2.033 -0.2535  0.5970 -0.2713
 2252SOL    HW118215   3.994   2.478   2.110  0.3750 -1.5320  1.3897
 2252SOL    HW218216   4.033   2.475   1.956  0.7130  1.2597  0.4462
 2253SOL     OW18217   0.249   1.567  10.887  0.1019 -0.5286 -0.5904
 2253SOL    HW118218   0.296   1.500  10.837  0.7699 -0.0473 -0.6193
 2253SOL    HW218219   0.319   1.598  10.944  0.5392  1.7053 -2.3483
 2254SOL     OW18220   1.648   3.979  11.947 -0.2132  0.6326  0.3813
 2254SOL    HW118221   1.659   4.072  11.927 -1.9051  0.5181 -1.1092
 2254SOL    HW218222   1.605   3.985  12.033  0.6465 -2.6808  1.0445
 2255SOL     OW18223   0.789   1.596   7.548 -0.0132  0.2255 -0.6269
 2255SOL    HW118224   0.801   1.635   7.634 -1.6042  0.2794 -0.4249
 2255SOL    HW218225   0.808   1.669   7.488 -0.9399  1.1350  0.1865
 2256SOL     OW18226   0.765   2.464  14.074  0.1308  0.5671 -0.0446
 2256SOL    HW118227   0.829   2.473  14.004  0.2619  1.8751  0.2360
 2256SOL    HW218228   0.691   2.519  14.046 -0.2118  0.3295  0.3929
 2257SOL     OW18229   4.653   0.949   4.636  0.4679 -0.4399 -0.2687
 2257SOL    HW118230   4.685   0.881   4.695  2.0099 -0.6676 -1.3709
 2257SOL    HW218231   4.630   0.892   4.562  0.5874 -1.9101  0.8264
 2258SOL     OW18232   2.714   2.982   0.980  0.2166  0.2780  0.4821
 2258SOL    HW118233   2.767   3.061   0.966 -0.9708  0.4918 -2.8207
 2258SOL    HW218234   2.726   2.928   0.902 -1.3431  1.0607 -0.2929
 2259SOL     OW18235   3.452   1.082   2.506  0.3489  0.1669  0.5328
 2259SOL    HW118236   3.389   1.117   2.443  1.1404 -0.3078 -0.5291
 2259SOL    HW218237   3.529   1.072   2.451 -0.2890 -1.6771 -0.0603
 2260SOL     OW18238   4.110   0.448   5.260  0.1064  0.2584  0.7450
 2260SOL    HW118239   4.134   0.413   5.346 -0.8339  0.8146  1.2357
 2260SOL    HW218240   4.138   0.373   5.208  1.0660  1.9848 -1.2046
 2261SOL     OW18241   3.280   2.046   4.191 -0.4877 -0.1502 -0.3559
 2261SOL    HW118242   3.345   2.051   4.261  0.0196  1.9832 -0.9909
 2261SOL    HW218243   3.326   1.993   4.127  1.3380 -0.6641  1.4031
 2262SOL     OW18244   2.029   0.617   9.480  0.4648 -0.0437  0.5060
 2262SOL    HW118245   2.090   0.632   9.552  1.3826  0.1655 -0.3171
 2262SOL    HW218246   1.954   0.589   9.532 -0.2255  0.1070 -0.4164
 2263SOL     OW18247   4.391   1.176   8.671 -0.1308  0.6059 -0.0172
 2263SOL    HW118248   4.413   1.168   8.578 -0.0634  1.7342 -0.1050
 2263SOL    HW218249   4.319   1.114   8.676 -0.8995  1.4550 -0.4890
 2264SOL     OW18250   3.895   4.402   7.782 -0.4411  0.4519  0.5575
 2264SOL    HW118251   3.901   4.477   7.840 -2.9325  2.5301 -1.9085
 2264SOL    HW218252   3.806   4.375   7.805 -0.4905  0.6574  0.6038
 2265SOL     OW18253   0.012   4.051   7.343 -0.1492 -0.3149  0.5562
 2265SOL    HW118254   0.092   4.087   7.382  0.5855 -0.8774 -0.4301
 2265SOL    HW218255   0.052   4.024   7.261 -0.1234  0.4829  0.3072
 2266SOL     OW18256   1.347   3.369   7.225 -0.1884  0.4168 -0.2051
 2266SOL    HW118257   1.402   3.320   7.286  0.0957  1.0799  0.0653
 2266SOL    HW218258   1.309   3.300   7.170  0.7198  0.4421 -0.8687
 2267SOL     OW18259   4.392   3.909  15.784  0.0923 -0.0000  0.0896
 2267SOL    HW118260   4.426   3.937  15.699 -0.8983  0.2265 -0.2256
 2267SOL    HW218261   4.450   3.956  15.843  0.5652 -0.4126 -0.0415
 2268SOL     OW18262   0.486   0.538   7.070  0.2651 -0.6854 -0.4360
 2268SOL    HW118263   0.511   0.456   7.029 -0.9656 -1.8552  1.1359
 2268SOL    HW218264   0.535   0.608   7.027  1.3591 -1.2770 -0.1482
 2269SOL     OW18265   2.458   4.193   0.842  0.2518  0.2144  0.1096
 2269SOL    HW118266   2.461   4.279   0.884 -1.8048  1.1055 -1.5323
 2269SOL    HW218267   2.413   4.228   0.765  2.3593 -1.1117 -1.7401
 2270SOL     OW18268   4.611   4.550   6.887  0.3175  0.4486  0.1196
 2270SOL    HW118269   4.561   4.609   6.943  0.5198  1.3466 -0.6355
 2270SOL    HW218270   4.695   4.552   6.932  0.2080 -0.3291  0.3689
 2271SOL     OW18271   0.430   4.261  17.457  0.3893  0.4326  0.3251
 2271SOL    HW118272   0.347   4.226  17.487 -1.2022  0.7466 -3.7559
 2271SOL    HW218273   0.424   4.357  17.459 -0.2655  0.3229  2.9263
 2272SOL     OW18274   3.401   0.422   7.041 -0.2501 -0.1633  0.5272
 2272SOL    HW118275   3.411   0.336   7.000  0.1503  0.2197 -0.1887
 2272SOL    HW218276   3.335   0.412   7.109  0.7071  1.2491  1.6869
 2273SOL     OW18277   3.735   2.562   4.547  0.7591  0.6656  0.1270
 2273SOL    HW118278   3.723   2.585   4.639 -0.4392  1.2528 -0.1776
 2273SOL    HW218279   3.670   2.628   4.523  1.0898  1.0895  0.4277
 2274SOL     OW18280   4.587   2.278  13.035  0.0884  0.5815 -0.5617
 2274SOL    HW118281   4.511   2.298  12.980 -1.3167 -0.0910  1.1474
 2274SOL    HW218282   4.583   2.184  13.052 -0.4564  0.5617 -0.8125
 2275SOL     OW18283   0.542   0.593   8.052 -0.0662 -0.0485 -0.1489
 2275SOL    HW118284   0.558   0.680   8.088 -2.4201  0.4546 -0.3448
 2275SOL    HW218285   0.510   0.605   7.962  1.9568 -3.1052 -1.2919
 2276SOL     OW18286   3.922   1.644   5.152 -0.6975 -0.1685 -0.6047
 2276SOL    HW118287   3.859   1.715   5.160 -0.7457 -0.6731  3.5866
 2276SOL    HW218288   3.882   1.585   5.088  0.4331 -0.5422 -0.9683
 2277SOL     OW18289   2.193   4.636   6.352 -0.5906 -0.7216  0.5150
 2277SOL    HW118290   2.176   4.616   6.444  1.8268 -3.8162  0.2662
 2277SOL    HW218291   2.252   4.710   6.368  0.0237 -1.3075  0.9471
 2278SOL     OW18292   4.618   0.866   5.396  0.3634 -0.2829 -0.0111
 2278SOL    HW118293   4.663   0.948   5.379  0.7708 -0.2486  1.1989
 2278SOL    HW218294   4.529   0.900   5.392 -0.5067 -2.6741 -1.1213
 2279SOL     OW18295   1.562   1.582  14.875  0.1871 -0.5180  0.3335
 2279SOL    HW118296   1.523   1.549  14.794 -0.3180  0.8379  0.0127
 2279SOL    HW218297   1.495   1.650  14.888  0.2384  0.4643 -4.5495
 2280SOL     OW18298   0.593   0.766  10.596 -0.0195  0.5559  0.1624
 2280SOL    HW118299   0.635   0.833  10.650 -0.7307  0.6528  0.5931
 2280SOL    HW218300   0.587   0.694  10.658 -0.8705 -0.2924 -0.9104
 2281SOL     OW18301   1.055   0.513   3.716  0.3523 -0.6778  0.0392
 2281SOL    HW118302   1.045   0.462   3.797  1.3798 -1.0648 -0.0810
 2281SOL    HW218303   0.991   0.468   3.661 -1.3231 -1.3565  2.5184
 2282SOL     OW18304   0.486   3.894   6.647 -0.2502  0.2463  0.0461
 2282SOL    HW118305   0.553   3.933   6.592  0.0721 -2.6296 -1.5923
 2282SOL    HW218306   0.504   3.920   6.737  0.1492  2.0276 -0.5318
 2283SOL     OW18307   3.404   4.228  14.586 -0.2356  0.0154  0.3291
 2283SOL    HW118308   3.327   4.190  14.543  1.3444  0.2795 -2.6662
 2283SOL    HW218309   3.411   4.170  14.662  1.0096 -1.8492 -1.2114
 2284SOL     OW18310   3.130   2.560  14.872 -0.0231  0.3580 -0.2128
 2284SOL    HW118311   3.054   2.617  14.875 -0.1723  0.1122  0.5504
 2284SOL    HW218312   3.087   2.476  14.888  2.0196 -0.0489  3.1173
 2285SOL     OW18313   0.969   4.560  14.922 -0.3937  0.6841  0.3715
 2285SOL    HW118314   0.944   4.652  14.929  0.2038  0.8461  0.3756
 2285SOL    HW218315   1.056   4.572  14.958  0.2184 -3.2266  0.1790
 2286SOL     OW18316   4.086   1.376   5.284  0.1073 -0.2078 -0.4007
 2286SOL    HW118317   4.016   1.435   5.257 -0.1617  1.0576  3.0734
 2286SOL    HW218318   4.166   1.428   5.276 -0.8174  1.2459 -0.1627
 2287SOL     OW18319   3.824   2.239   1.721  0.0684 -0.4940 -0.5688
 2287SOL    HW118320   3.790   2.246   1.632  0.0342  0.6034 -0.4626
 2287SOL    HW218321   3.911   2.279   1.722 -0.0911 -0.1840  0.6338
 2288SOL     OW18322   1.479   3.084   5.622  0.4071 -0.4401 -0.6853
 2288SOL    HW118323   1.453   3.018   5.558  1.1116 -1.1771 -0.2076
 2288SOL    HW218324   1.400   3.094   5.675  0.2854 -1.3131 -0.6989
 2289SOL     OW18325   1.921   1.151  15.582  0.2015 -0.4022  0.2222
 2289SOL    HW118326   1.969   1.090  15.527  1.1990  0.1118  0.5230
 2289SOL    HW218327   1.969   1.230  15.559 -2.6170  1.5159  0.9352
 2290SOL     OW18328   3.101   2.100  10.561  0.1098 -0.0158 -0.4256
 2290SOL    HW118329   3.062   2.016  10.540  1.2325 -1.2035  2.1924
 2290SOL    HW218330   3.185   2.098  10.516  1.9569 -0.0341  3.0244
 2291SOL     OW18331   3.488   3.193  13.370  0.3146 -0.4960 -0.1635
 2291SOL    HW118332   3.520   3.116  13.323  0.2744  0.0279 -1.0532
 2291SOL    HW218333   3.456   3.240  13.293  1.2967  2.2682  1.1095
 2292SOL     OW18334   2.685   1.296   8.830 -0.3786 -0.2473  0.8166
 2292SOL    HW118335   2.691   1.340   8.915 -0.0234 -0.6481  1.0013
 2292SOL    HW218336   2.704   1.369   8.771  0.8509 -0.1940  1.2702
 2293SOL     OW18337   4.052   3.005   2.580  0.4209 -0.9057 -0.8194
 2293SOL    HW118338   3.994   2.941   2.538  2.7367 -2.5322 -1.5530
 2293SOL    HW218339   4.088   3.047   2.502  3.4947 -0.8769  0.6311
 2294SOL     OW18340   0.431   3.973  14.621  0.7109 -0.5922 -0.4950
 2294SOL    HW118341   0.370   3.915  14.575  0.3724 -0.3636 -0.3329
 2294SOL    HW218342   0.442   3.914  14.696 -0.6953  1.2418  1.1482
 2295SOL     OW18343   4.533   3.662   2.008 -0.4046 -0.1635  0.0114
 2295SOL    HW118344   4.570   3.601   1.945 -1.7264 -0.7608 -0.2011
 2295SOL    HW218345   4.607   3.698   2.058  0.1699  0.6629 -1.4463
 2296SOL     OW18346   1.301   1.561  11.965  0.8109 -0.5506 -0.3122
 2296SOL    HW118347   1.318   1.492  11.901 -0.7998 -0.5594 -0.7191
 2296SOL    HW218348   1.379   1.612  11.942  1.1472 -0.7992  0.2678
 2297SOL     OW18349   4.631   0.111   0.394 -0.2158 -0.1560  0.1362
 2297SOL    HW118350   4.563   0.160   0.442  0.4183  1.6113 -0.7701
 2297SOL    HW218351   4.641   0.028   0.441 -0.1782  0.5940  1.4830
 2298SOL     OW18352   0.051   1.567  16.042  0.0982  0.1633  0.8831
 2298SOL    HW118353   0.052   1.557  15.947 -1.9835 -1.2444  1.0180
 2298SOL    HW218354   4.706   1.629  16.054  0.0798  0.5552 -1.2302
 2299SOL     OW18355   1.510   0.927   1.993 -0.0659 -0.2701  0.0478
 2299SOL    HW118356   1.494   0.846   1.946 -1.3986 -0.8793  1.5794
 2299SOL    HW218357   1.468   0.993   1.939 -0.2263  1.7467  2.6128
 2300SOL     OW18358   2.657   0.682   7.449 -0.0106 -0.5464  0.1737
 2300SOL    HW118359   2.663   0.669   7.543 -0.1955 -0.1978  0.2322
 2300SOL    HW218360   2.638   0.776   7.449  0.2279 -0.4919 -1.3073
 2301SOL     OW18361   0.063   2.498   8.852 -0.9203  0.2030 -0.1896
 2301SOL    HW118362   0.111   2.498   8.935 -0.8344  3.4426 -0.2679
 2301SOL    HW218363   4.699   2.475   8.870  0.0828 -1.2091  3.0340
 2302SOL     OW18364   3.701   2.793  10.223  0.3593 -0.7275  0.1176
 2302SOL    HW118365   3.620   2.789  10.275  0.1914  2.8695  0.1800
 2302SOL    HW218366   3.691   2.877  10.177  3.1269 -1.0369 -1.0274
 2303SOL     OW18367   2.179   1.460   9.069  0.1575 -0.0001 -0.5468
 2303SOL    HW118368   2.263   1.414   9.059 -0.3080 -0.4432 -2.3734
 2303SOL    HW218369   2.125   1.389   9.105  1.4283 -0.9365 -0.4864
 2304SOL     OW18370   3.697   1.811   7.702  0.2362 -0.4670 -0.0329
 2304SOL    HW118371   3.617   1.828   7.652  1.4283 -0.3398 -1.9113
 2304SOL    HW218372   3.699   1.715   7.697  0.1437 -0.4264 -0.8026
 2305SOL     OW18373   0.177   0.818   9.834  0.2793 -0.3263 -0.4156
 2305SOL    HW118374   0.264   0.777   9.835  0.5268  0.2143  0.3799
 2305SOL    HW218375   0.198   0.874   9.760 -2.4312  0.8468 -0.2798
 2306SOL     OW18376   1.711   3.591   5.696 -0.1555 -0.8744  0.7222
 2306SOL    HW118377   1.633   3.535   5.691 -0.6563 -0.1787  0.7677
 2306SOL    HW218378   1.781   3.528   5.683 -0.2840 -0.7965 -0.3514
 2307SOL     OW18379   4.029   1.267   9.940  0.4320 -0.4811  0.4992
 2307SOL    HW118380   3.963   1.315   9.890  0.5675  0.8398  1.5752
 2307SOL    HW218381   4.094   1.256   9.871 -0.1995  1.1273 -0.3740
 2308SOL     OW18382   2.641   3.406   1.114  0.1390  0.3423 -0.4071
 2308SOL    HW118383   2.640   3.428   1.021  0.9773  0.5761 -0.3643
 2308SOL    HW218384   2.641   3.493   1.152  1.0012 -0.3307  1.1306
 2309SOL     OW18385   4.424   0.940  16.371  0.3167 -0.5100 -0.6925
 2309SOL    HW118386   4.445   0.913  16.461 -1.7539  0.0978 -0.0294
 2309SOL    HW218387   4.403   1.031  16.391 -0.9152 -0.9544  0.0102
 2310SOL     OW18388   1.461   2.988   7.883  0.3460 -0.3594  0.2944
 2310SOL    HW118389   1.391   2.955   7.828 -1.9820  3.6558  0.8876
 2310SOL    HW218390   1.493   3.050   7.818 -0.4958 -2.5731 -2.1977
 2311SOL     OW18391   3.699   2.307  11.559 -0.1824  0.1857  0.1291
 2311SOL    HW118392   3.626   2.328  11.502  0.1931  3.6823  0.9246
 2311SOL    HW218393   3.656   2.272  11.637  0.8320 -0.7104  0.2959
 2312SOL     OW18394   2.401   1.428   8.822 -0.0431 -0.9658 -0.1941
 2312SOL    HW118395   2.425   1.388   8.906 -0.5162  0.0964  0.4426
 2312SOL    HW218396   2.402   1.519   8.852 -1.0900 -1.1266  0.3383
 2313SOL     OW18397   4.285   1.283   4.586  0.3850 -0.1329  0.1548
 2313SOL    HW118398   4.308   1.346   4.654 -1.1679  0.3178  0.2693
 2313SOL    HW218399   4.341   1.321   4.518 -1.0465 -0.2462 -1.0846
 2314SOL     OW18400   0.872   1.096   1.468 -0.0450 -0.5881 -0.9946
 2314SOL    HW118401   0.783   1.128   1.450 -0.3476 -0.1211  1.4301
 2314SOL    HW218402   0.856   1.004   1.492  2.0779 -0.3330  1.3466
 2315SOL     OW18403   0.729   0.641   5.110  0.6414  0.6790 -0.6500
 2315SOL    HW118404   0.766   0.730   5.103  2.2269  0.0563 -0.1068
 2315SOL    HW218405   0.769   0.614   5.192 -0.5900 -1.4152 -0.7459
 2316SOL     OW18406   1.602   0.327  14.880 -0.3650 -0.1258  0.1447
 2316SOL    HW118407   1.580   0.414  14.915  1.4624  0.2598  0.3134
 2316SOL    HW218408   1.563   0.341  14.794  0.3456  0.8862 -0.0106
 2317SOL     OW18409   3.608   1.224   8.658  0.0835 -0.5868  0.3760
 2317SOL    HW118410   3.568   1.168   8.725 -1.0135  0.8570  0.9282
 2317SOL    HW218411   3.564   1.197   8.577 -0.3914  1.0507  0.0882
 2318SOL     OW18412   2.930   0.341  11.857 -0.1294  0.8038  0.5263
 2318SOL    HW118413   2.983   0.264  11.835 -1.0441 -0.0347  1.2030
 2318SOL    HW218414   2.861   0.337  11.791  1.0830 -0.5057 -0.6453
 2319SOL     OW18415   0.357   2.535   6.162 -0.1328 -0.4028 -0.0362
 2319SOL    HW118416   0.417   2.536   6.236  0.0392 -0.8502 -0.1678
 2319SOL    HW218417   0.317   2.448   6.168 -1.3938  0.2992  1.7043
 2320SOL     OW18418   0.915   4.322   5.877  0.0664 -0.4208  0.0912
 2320SOL    HW118419   0.910   4.370   5.794  2.5725  0.7277  0.6304
 2320SOL    HW218420   0.999   4.277   5.865  0.8208  1.4058 -1.5338
 2321SOL     OW18421   4.472   0.484   7.637  0.4468  0.1383  0.2234
 2321SOL    HW118422   4.393   0.456   7.682  0.0517  0.7432 -0.0876
 2321SOL    HW218423   4.443   0.480   7.546 -0.1456 -2.4672  0.5121
 2322SOL     OW18424   3.492   4.483   4.649 -0.7810 -0.1769  0.2467
 2322SOL    HW118425   3.418   4.469   4.590 -0.2455 -0.6211 -0.3113
 2322SOL    HW218426   3.480   4.426   4.725  3.7096  0.8311  1.7046
 2323SOL     OW18427   2.272   2.684  15.498 -0.3401  0.3949 -0.6969
 2323SOL    HW118428   2.263   2.590  15.510 -0.4782  0.2930 -1.6250
 2323SOL    HW218429   2.197   2.700  15.441  0.2300 -1.0824 -1.8447
 2324SOL     OW18430   1.089   3.654   7.731 -0.0477 -0.1470 -0.1606
 2324SOL    HW118431   1.001   3.615   7.732  0.6193 -1.6438 -0.9265
 2324SOL    HW218432   1.110   3.647   7.824 -0.0881 -0.9256 -0.2148
 2325SOL     OW18433   4.110   2.672   7.759 -0.0208 -0.1566  0.3073
 2325SOL    HW118434   4.096   2.763   7.732 -0.0254 -0.3111 -0.2080
 2325SOL    HW218435   4.027   2.651   7.800  0.5142  0.9866  1.9588
 2326SOL     OW18436   1.409   2.289   5.318  0.1953 -0.7138 -0.0535
 2326SOL    HW118437   1.328   2.332   5.345  1.2543  1.5405 -0.4640
 2326SOL    HW218438   1.463   2.332   5.385  2.3002 -1.7851 -1.0620
 2327SOL     OW18439   1.780   3.918  14.496 -0.3685 -0.4544 -0.1577
 2327SOL    HW118440   1.690   3.916  14.526  0.4809 -0.2679  2.3662
 2327SOL    HW218441   1.819   3.844  14.543 -0.2819 -0.1304  0.2731
 2328SOL     OW18442   2.508   4.061   2.771  0.1461  0.2432  0.0268
 2328SOL    HW118443   2.473   4.109   2.696  0.5243  0.9620  0.3179
 2328SOL    HW218444   2.571   4.120   2.812 -2.7953  1.7938  2.2989
 2329SOL     OW18445   3.704   1.989  15.172 -0.8178  0.7180 -0.3231
 2329SOL    HW118446   3.723   2.001  15.079 -0.3503  3.3634  0.1204
 2329SOL    HW218447   3.625   2.042  15.176 -1.3398 -0.0247 -0.7094
 2330SOL     OW18448   4.606   4.117   5.628  0.7758  0.2386  0.4813
 2330SOL    HW118449   4.598   4.026   5.659  0.5244  0.1834  0.2552
 2330SOL    HW218450   4.563   4.163   5.700 -2.9727 -0.4964 -1.2684
 2331SOL     OW18451   0.346   1.991  12.636 -1.5605 -0.8809 -0.1579
 2331SOL    HW118452   0.295   2.066  12.608 -1.1279 -0.4914  0.1021
 2331SOL    HW218453   0.380   2.024  12.719  0.1243  1.5448 -1.8239
 2332SOL     OW18454   3.051   1.112   8.447 -0.5334  0.1885  0.6103
 2332SOL    HW118455   3.096   1.030   8.427 -1.1306  0.2981 -1.2179
 2332SOL    HW218456   3.066   1.111   8.542  1.9762 -1.7465  0.1815
 2333SOL     OW18457   2.473   4.204   5.430 -0.3402  0.1949 -0.6620
 2333SOL    HW118458   2.422   4.283   5.443 -1.9219 -0.6252 -1.8019
 2333SOL    HW218459   2.468   4.195   5.335  1.0943  2.4166 -0.9419
 2334SOL     OW18460   3.517   2.984   6.652  0.3935  0.0915  0.0172
 2334SOL    HW118461   3.431   2.955   6.624  0.0179 -1.0313  2.3073
 2334SOL    HW218462   3.554   2.984   6.564  1.0519  1.8150  0.2859
 2335SOL     OW18463   4.714   1.174   7.984 -0.3526 -0.7493 -0.2341
 2335SOL    HW118464   0.029   1.240   7.930  2.3571 -0.7865  1.8532
 2335SOL    HW218465   4.667   1.229   8.047  1.0804 -0.7829  0.8608
 2336SOL     OW18466   2.769   3.479  16.483  0.2843  0.5143  0.0427
 2336SOL    HW118467   2.678   3.504  16.502  0.2805  0.4529  0.1036
 2336SOL    HW218468   2.809   3.566  16.476 -0.7937  0.9608 -0.6540
 2337SOL     OW18469   4.179   1.387   2.533 -0.5228  0.9006  0.3375
 2337SOL    HW118470   4.112   1.334   2.577  0.2332 -1.3411 -1.1718
 2337SOL    HW218471   4.258   1.337   2.552 -0.8815  0.2326  0.0925
 2338SOL     OW18472   0.032   2.257  15.381 -0.2042  0.0336 -0.0136
 2338SOL    HW118473   0.124   2.245  15.406 -0.0255 -0.0305 -0.7030
 2338SOL    HW218474   0.039   2.245  15.286 -1.7980 -1.3832  0.0511
 2339SOL     OW18475   4.084   0.865   9.161  0.7630 -0.0173  0.0495
 2339SOL    HW118476   4.096   0.959   9.148  3.7623 -0.3615  0.2634
 2339SOL    HW218477   4.045   0.841   9.077  1.5130 -1.9172  0.2487
 2340SOL     OW18478   1.776   1.305   9.037  0.1195  0.0222  0.3420
 2340SOL    HW118479   1.832   1.268   9.105  1.6489 -3.4775 -2.8280
 2340SOL    HW218480   1.686   1.292   9.067  0.1562 -0.5236  0.2256
 2341SOL     OW18481   0.112   0.552  14.943  0.0772  0.3538 -0.3552
 2341SOL    HW118482   0.023   0.587  14.941 -0.9298 -2.2552 -1.8282
 2341SOL    HW218483   0.099   0.508  14.859  1.7234 -1.4189  0.3283
 2342SOL     OW18484   0.280   1.780  12.227  0.4656 -0.0338 -0.0102
 2342SOL    HW118485   0.235   1.828  12.158  1.6844 -0.0172 -0.7877
 2342SOL    HW218486   0.318   1.711  12.173 -3.8150 -1.1075 -1.6414
 2343SOL     OW18487   1.439   0.339   3.278 -0.5763 -0.3836  0.2191
 2343SOL    HW118488   1.432   0.417   3.222 -0.3845 -0.2083  0.4407
 2343SOL    HW218489   1.377   0.278   3.237 -1.4166  0.6175 -0.0059
 2344SOL     OW18490   1.225   2.568   2.529  0.3730 -0.3655 -0.4135
 2344SOL    HW118491   1.300   2.516   2.499  1.2567  2.0390 -2.4117
 2344SOL    HW218492   1.269   2.603   2.607  2.6479  1.6185 -2.5764
 2345SOL     OW18493   1.041   3.980  13.745  0.1317 -0.2009  0.9439
 2345SOL    HW118494   1.047   3.952  13.837 -0.0459  0.8196  1.2630
 2345SOL    HW218495   1.067   3.898  13.703 -0.2007 -0.0448  0.4448
 2346SOL     OW18496   3.210   2.029  14.231 -0.2476 -0.2168  0.3657
 2346SOL    HW118497   3.154   2.085  14.178  3.0778  1.4235 -1.4080
 2346SOL    HW218498   3.152   2.001  14.302 -1.5117 -1.0953 -0.9954
 2347SOL     OW18499   0.174   4.204   8.504  0.1007  0.0798 -0.2764
 2347SOL    HW118500   0.142   4.118   8.530 -1.4112  0.8414  0.3524
 2347SOL    HW218501   0.163   4.198   8.409 -0.7317  0.7139 -0.2147
 2348SOL     OW18502   4.004   1.132   5.424 -0.6286 -0.1007 -0.3288
 2348SOL    HW118503   4.065   1.157   5.493  0.9516  1.9591 -2.4781
 2348SOL    HW218504   4.000   1.212   5.372 -1.2423 -0.7395 -1.2596
 2349SOL     OW18505   4.298   1.138  17.670  0.7348 -0.2204 -0.5906
 2349SOL    HW118506   4.376   1.091  17.639  0.6955 -0.4344 -0.3593
 2349SOL    HW218507   4.235   1.111  17.603 -0.1137 -1.4226  0.7184
 2350SOL     OW18508   2.965   2.560  13.275 -0.4014 -0.6689  0.5237
 2350SOL    HW118509   2.882   2.524  13.241 -1.7678  0.7709  2.3895
 2350SOL    HW218510   3.015   2.479  13.288 -1.2267 -1.2805 -0.0284
 2351SOL     OW18511   4.209   0.944   8.577 -0.6186 -0.9881  0.1933
 2351SOL    HW118512   4.245   0.879   8.638 -0.8553 -1.2493  0.0546
 2351SOL    HW218513   4.163   0.883   8.519  0.7528 -1.7294 -0.1185
 2352SOL     OW18514   3.770   0.146   7.408  0.0060 -0.2739  0.0017
 2352SOL    HW118515   3.818   0.229   7.401  1.3119 -1.0923 -0.8103
 2352SOL    HW218516   3.837   0.110   7.467 -1.4064 -0.7315  1.3148
 2353SOL     OW18517   2.436   2.331   8.674 -0.2382 -0.3481 -0.5972
 2353SOL    HW118518   2.371   2.361   8.738 -1.4776  0.5305 -2.2619
 2353SOL    HW218519   2.439   2.240   8.701  0.7004  0.8665  3.3120
 2354SOL     OW18520   2.184   3.354  11.661  0.2549  0.3170  0.4477
 2354SOL    HW118521   2.157   3.271  11.701 -0.6940  0.0748 -0.6852
 2354SOL    HW218522   2.278   3.344  11.646 -0.0395 -1.5722 -0.0968
 2355SOL     OW18523   0.286   3.016   8.125 -0.0761  0.3851  0.2382
 2355SOL    HW118524   0.302   3.098   8.079  0.1561  0.4158  0.3738
 2355SOL    HW218525   0.355   3.027   8.191 -0.0663 -0.5747  0.3850
 2356SOL     OW18526   3.062   3.905   8.281 -0.0316 -0.2952  0.1254
 2356SOL    HW118527   3.126   3.839   8.306 -0.9441 -0.1717  2.7645
 2356SOL    HW218528   3.103   3.991   8.286 -0.3499 -0.1077 -0.4580
 2357SOL     OW18529   0.084   0.648   2.874 -0.4624  0.0900 -0.8569
 2357SOL    HW118530   0.017   0.703   2.832 -0.9229 -0.1360 -0.4237
 2357SOL    HW218531   0.041   0.563   2.862  0.2675 -0.4606  0.5029
 2358SOL     OW18532   3.336   3.501   8.868 -0.7770 -0.0818 -0.3601
 2358SOL    HW118533   3.280   3.574   8.840 -0.0661  0.8861  0.7604
 2358SOL    HW218534   3.416   3.551   8.887 -1.0120  0.1655 -0.0260
 2359SOL     OW18535   3.538   1.285   6.320  0.5215  0.3462 -0.5738
 2359SOL    HW118536   3.453   1.269   6.361  2.0456 -1.5567  1.8355
 2359SOL    HW218537   3.595   1.246   6.386 -3.3916 -0.2160  2.4917
 2360SOL     OW18538   3.892   1.150   1.242 -0.3379  0.5514  0.0959
 2360SOL    HW118539   3.917   1.229   1.289 -0.6432 -0.3692  1.7936
 2360SOL    HW218540   3.906   1.170   1.149  0.0063  1.1933  0.2901
 2361SOL     OW18541   2.675   0.631  16.452 -0.1258 -0.3010 -0.2383
 2361SOL    HW118542   2.733   0.620  16.376  2.2271 -0.6855  1.6052
 2361SOL    HW218543   2.650   0.540  16.467 -1.9759  0.0818 -1.0313
 2362SOL     OW18544   1.668   0.637   4.745  0.1134  0.1115  0.3999
 2362SOL    HW118545   1.599   0.639   4.679  2.6077  1.5754 -2.1489
 2362SOL    HW218546   1.670   0.547   4.777 -1.6404 -0.5878 -1.5232
 2363SOL     OW18547   0.543   3.461   6.415  0.3422  0.2025  0.5806
 2363SOL    HW118548   0.543   3.481   6.508 -0.5217  0.8264  0.4534
 2363SOL    HW218549   0.472   3.397   6.421  1.0867 -0.6422  0.2483
 2364SOL     OW18550   0.548   0.722  11.411  0.3507 -0.0693  0.3573
 2364SOL    HW118551   0.494   0.775  11.353 -1.8315  0.2090  2.6214
 2364SOL    HW218552   0.630   0.770  11.402  0.6464 -0.5186  0.6504
 2365SOL     OW18553   4.243   3.525   3.450 -0.0413 -0.7939  0.3320
 2365SOL    HW118554   4.229   3.566   3.535  2.7390  1.6380 -0.3823
 2365SOL    HW218555   4.156   3.507   3.415 -0.3974 -1.0015  1.3221
 2366SOL     OW18556   4.466   2.482  15.659 -0.7591 -0.0131  0.4726
 2366SOL    HW118557   4.443   2.547  15.593 -1.4166 -0.6973  0.0289
 2366SOL    HW218558   4.459   2.402  15.607 -0.5243 -0.1016  0.5790
 2367SOL     OW18559   0.380   0.618   2.804 -0.0630  0.8386 -0.0084
 2367SOL    HW118560   0.287   0.609   2.823  0.0423  1.6131  0.8762
 2367SOL    HW218561   0.416   0.662   2.881  0.4234  1.0771 -0.3694
 2368SOL     OW18562   3.909   3.226   2.689 -0.2813  0.3750 -0.2340
 2368SOL    HW118563   3.990   3.227   2.738  0.0159  2.7580 -0.7796
 2368SOL    HW218564   3.930   3.148   2.637 -0.8008  0.4872 -0.6180
 2369SOL     OW18565   0.554   3.253   3.948 -0.1871  0.2572 -0.4309
 2369SOL    HW118566   0.537   3.277   3.857 -1.4423  3.2086  0.5836
 2369SOL    HW218567   0.588   3.166   3.927  0.2425  0.7615 -1.8696
 2370SOL     OW18568   2.139   4.150   8.132 -0.2124  0.7618 -0.2474
 2370SOL    HW118569   2.234   4.153   8.141 -0.4320  1.5708  1.7851
 2370SOL    HW218570   2.106   4.180   8.216 -1.9971  0.2793 -0.7624
 2371SOL     OW18571   0.960   3.818   7.219  0.2108 -0.1286  0.1287
 2371SOL    HW118572   0.992   3.847   7.305 -1.1913 -0.4278  0.7577
 2371SOL    HW218573   1.021   3.749   7.193  1.8594  0.7407  1.6910
 2372SOL     OW18574   1.926   3.296   8.655  0.5719  0.2226 -0.0072
 2372SOL    HW118575   1.974   3.219   8.687 -1.4175 -1.0327 -0.0582
 2372SOL    HW218576   1.991   3.363   8.678 -0.8744  2.2730 -1.8562
 2373SOL     OW18577   1.898   4.083  17.582 -0.2487  1.0636 -0.1812
 2373SOL    HW118578   1.993   4.077  17.588 -0.0107  2.4678 -2.7990
 2373SOL    HW218579   1.889   4.178  17.576 -1.4098  1.1165  2.2604
 2374SOL     OW18580   3.317   2.482   8.224  0.0788 -0.5417  0.1175
 2374SOL    HW118581   3.260   2.521   8.290  0.4434 -0.6134  0.4764
 2374SOL    HW218582   3.297   2.389   8.234  1.2989 -0.7557  0.6112
 2375SOL     OW18583   3.198   1.371   0.421 -0.7234 -0.0920 -0.1362
 2375SOL    HW118584   3.259   1.399   0.352 -2.7206  1.1939 -1.3734
 2375SOL    HW218585   3.258   1.307   0.460 -2.6671 -2.2915 -0.7510
 2376SOL     OW18586   2.491   0.138   3.894  0.4295 -0.3359 -0.2092
 2376SOL    HW118587   2.489   0.043   3.884  1.1960 -0.3788 -0.0203
 2376SOL    HW218588   2.579   0.148   3.931 -0.4040  3.3001  0.7664
 2377SOL     OW18589   4.670   0.352  14.405  0.0548 -0.3832 -0.1260
 2377SOL    HW118590   4.649   0.264  14.374  0.9597 -0.2686 -1.0157
 2377SOL    HW218591   4.597   0.405  14.373  0.4116  1.1754  1.6645
 2378SOL     OW18592   4.095   0.565   3.364  0.3183 -0.2701 -0.0844
 2378SOL    HW118593   4.042   0.645   3.367 -1.0085 -1.0880 -1.6808
 2378SOL    HW218594   4.023   0.501   3.366  0.2722 -0.1835  1.5422
 2379SOL     OW18595   3.570   0.968  13.724  0.4098 -0.3935  0.1929
 2379SOL    HW118596   3.650   1.020  13.731  1.3078 -1.7066 -0.1184
 2379SOL    HW218597   3.506   1.038  13.716  0.0872 -0.6607  0.4073
 2380SOL     OW18598   1.861   4.242   6.793  0.4823  0.2638 -0.7138
 2380SOL    HW118599   1.911   4.162   6.805  0.7926  0.5632 -0.0307
 2380SOL    HW218600   1.907   4.298   6.855 -2.0811  0.2604  1.2035
 2381SOL     OW18601   4.128   3.351   7.901 -0.0931  0.1692 -0.4213
 2381SOL    HW118602   4.105   3.425   7.845  1.4028  1.2898  0.4361
 2381SOL    HW218603   4.057   3.290   7.883  0.7687 -0.5808 -1.2422
 2382SOL     OW18604   1.346   1.797   3.122 -0.1690 -0.1618  0.1823
 2382SOL    HW118605   1.441   1.798   3.129  0.1232  2.5419 -3.9039
 2382SOL    HW218606   1.325   1.726   3.062 -1.4218 -0.1002  0.5460
 2383SOL     OW18607   1.251   2.233   6.896  0.1993  0.1467  0.1141
 2383SOL    HW118608   1.328   2.239   6.840 -1.0984  1.6121 -1.4861
 2383SOL    HW218609   1.205   2.317   6.887  1.3334  0.5356 -1.9474
 2384SOL     OW18610   0.144   4.036  15.596 -0.0133  0.0363  0.0084
 2384SOL    HW118611   0.184   4.114  15.558  0.8463  0.0592  0.9671
 2384SOL    HW218612   0.077   4.021  15.529 -0.1189 -1.8114  0.5298
 2385SOL     OW18613   3.564   4.410   3.963  0.7145  0.0777 -0.4882
 2385SOL    HW118614   3.503   4.371   4.026  0.2405 -0.5243 -1.3213
 2385SOL    HW218615   3.503   4.444   3.897 -0.0926 -0.6893 -0.1357
 2386SOL     OW18616   0.132   0.596  13.320  0.3292  0.1969 -0.1233
 2386SOL    HW118617   0.124   0.680  13.275  0.0294  1.9497  3.1978
 2386SOL    HW218618   0.151   0.625  13.409 -3.6690  0.7382  0.5719
 2387SOL     OW18619   0.544   0.276   6.990  0.0965 -0.7372 -0.1287
 2387SOL    HW118620   0.615   0.247   6.933 -0.2479 -0.7164 -0.5731
 2387SOL    HW218621   0.579   0.269   7.079 -1.4466  0.4176  0.5615
 2388SOL     OW18622   2.792   1.250   2.405 -0.1443  0.0937 -0.2430
 2388SOL    HW118623   2.728   1.322   2.412 -0.4702 -0.0325 -1.7977
 2388SOL    HW218624   2.824   1.240   2.494 -0.0411 -0.2771 -0.3240
 2389SOL     OW18625   3.751   1.829   5.190 -0.2648 -0.0178  0.2819
 2389SOL    HW118626   3.768   1.889   5.263  1.3335 -1.1247  0.8155
 2389SOL    HW218627   3.738   1.891   5.118  0.8882 -0.4188 -0.2714
 2390SOL     OW18628   2.494   3.990   3.683  0.2829  0.1419  0.8362
 2390SOL    HW118629   2.578   3.950   3.658  2.9250  4.1347  3.4482
 2390SOL    HW218630   2.433   3.932   3.636  1.0064 -0.6808  0.9021
 2391SOL     OW18631   0.750   0.282   1.422 -0.2259 -1.6210 -0.6239
 2391SOL    HW118632   0.722   0.365   1.383  0.2258 -0.5728  1.3029
 2391SOL    HW218633   0.757   0.236   1.338 -4.1607  0.0660 -1.8884
 2392SOL     OW18634   0.963   3.366   3.442  0.6848 -0.0904  0.7182
 2392SOL    HW118635   1.003   3.280   3.456  1.5909  0.2638  0.3128
 2392SOL    HW218636   0.937   3.401   3.527  0.2666 -2.0272  1.3863
 2393SOL     OW18637   2.770   3.753  10.210  0.2365 -0.3669  0.6311
 2393SOL    HW118638   2.772   3.731  10.117 -2.7810  0.0764  0.4580
 2393SOL    HW218639   2.767   3.848  10.203 -0.6272 -0.4246  0.1921
 2394SOL     OW18640   0.536   2.223  10.213  0.7493 -0.2780  0.1401
 2394SOL    HW118641   0.491   2.304  10.235 -0.4209 -0.9945  0.3650
 2394SOL    HW218642   0.469   2.165  10.249  2.4178 -2.5337 -0.3512
 2395SOL     OW18643   1.463   4.661   8.048  0.5921  0.1087  0.1352
 2395SOL    HW118644   1.427   0.011   8.090 -1.0601 -1.4791  1.6490
 2395SOL    HW218645   1.386   4.607   8.030  0.2339  0.4520  0.6388
 2396SOL     OW18646   0.090   2.799   7.944 -0.1519  0.5913  0.5935
 2396SOL    HW118647   0.018   2.754   7.900  0.8876  0.3005 -0.8239
 2396SOL    HW218648   0.039   2.864   7.993  1.0076  1.3099  0.8546
 2397SOL     OW18649   1.413   4.312   9.171 -0.3820 -0.8845  0.2139
 2397SOL    HW118650   1.332   4.291   9.217  0.2033 -0.4009  1.4476
 2397SOL    HW218651   1.388   4.367   9.097  1.7561  1.2672  1.0814
 2398SOL     OW18652   3.651   3.962  10.365  0.0237  0.4746 -0.6370
 2398SOL    HW118653   3.668   3.959  10.271  0.7415  2.7981 -0.5863
 2398SOL    HW218654   3.612   3.875  10.369 -2.0932  1.4390 -0.1987
 2399SOL     OW18655   3.977   3.797   5.627 -0.1219  0.5898 -0.2309
 2399SOL    HW118656   4.005   3.805   5.718 -0.4952  0.9371 -0.1425
 2399SOL    HW218657   4.032   3.864   5.587 -1.1693  1.5718 -0.0290
 2400SOL     OW18658   3.754   0.715   5.870 -0.0371 -0.6694 -0.1347
 2400SOL    HW118659   3.800   0.674   5.797 -1.2067 -0.0589 -1.2036
 2400SOL    HW218660   3.709   0.781   5.818  0.5580 -0.7011 -0.6814
 2401SOL     OW18661   3.372   1.706   9.617 -0.5877  0.4016 -0.3270
 2401SOL    HW118662   3.458   1.739   9.644 -0.8503  0.7999  0.0258
 2401SOL    HW218663   3.335   1.782   9.573 -2.7984 -1.5663 -1.8889
 2402SOL     OW18664   1.612   3.970   4.648  0.2501  1.1791  1.2233
 2402SOL    HW118665   1.554   4.038   4.613 -0.9519  0.9434  2.7514
 2402SOL    HW218666   1.571   3.935   4.727  0.2314 -0.5893  0.4234
 2403SOL     OW18667   2.868   0.310  12.118  0.0837  0.6924 -0.3948
 2403SOL    HW118668   2.936   0.313  12.184  0.3362 -0.6915 -0.5846
 2403SOL    HW218669   2.916   0.322  12.036  1.7818 -0.8598  0.3745
 2404SOL     OW18670   3.700   2.205  12.487  0.0664  0.6057 -0.1469
 2404SOL    HW118671   3.682   2.216  12.394 -0.1241 -2.1179 -0.4300
 2404SOL    HW218672   3.740   2.283  12.525  0.7677  0.7307 -1.1374
 2405SOL     OW18673   2.309   3.415   5.280 -0.2188 -0.5734  0.6165
 2405SOL    HW118674   2.314   3.484   5.346 -0.0059  0.9254 -0.9564
 2405SOL    HW218675   2.399   3.406   5.246 -0.5889 -0.1117 -0.4856
 2406SOL     OW18676   3.342   3.791   1.925  0.2241 -0.3269  0.4678
 2406SOL    HW118677   3.334   3.804   1.831 -1.1436 -0.0090  0.6339
 2406SOL    HW218678   3.410   3.857   1.940  0.3142  0.1895 -2.2349
 2407SOL     OW18679   1.584   3.834   3.552 -0.6449  0.2422  0.3199
 2407SOL    HW118680   1.544   3.916   3.583 -1.1635  0.4360 -0.8737
 2407SOL    HW218681   1.503   3.791   3.526 -0.6840  0.2603  0.4104
 2408SOL     OW18682   3.646   4.695  16.543  0.4945 -0.2361  1.2476
 2408SOL    HW118683   3.573   4.690  16.606 -0.7536  4.4200  0.1626
 2408SOL    HW218684   3.604   4.668  16.461  0.3181 -0.1203  1.2988
 2409SOL     OW18685   3.539   3.317   5.099  0.6428  0.9999  0.1271
 2409SOL    HW118686   3.488   3.287   5.175 -2.1590  1.6353 -1.4755
 2409SOL    HW218687   3.561   3.234   5.056 -1.3199 -1.2076  3.3604
 2410SOL     OW18688   4.156   3.911   4.093  0.4111  0.5308  0.2030
 2410SOL    HW118689   4.165   3.962   4.013 -3.8537  0.9353 -0.0294
 2410SOL    HW218690   4.232   3.951   4.137  2.5093 -4.2548  0.9318
 2411SOL     OW18691   3.600   1.143  10.807 -0.5144 -0.6384 -0.2070
 2411SOL    HW118692   3.687   1.114  10.833  0.0699 -0.4047 -1.8725
 2411SOL    HW218693   3.626   1.207  10.741 -0.1648  0.0369  0.5974
 2412SOL     OW18694   3.368   0.849   8.642  0.1616 -0.8615  0.2736
 2412SOL    HW118695   3.399   0.762   8.616  1.0595  0.2046 -2.2618
 2412SOL    HW218696   3.328   0.869   8.557 -0.9911 -1.7084  0.6185
 2413SOL     OW18697   4.228   2.073   5.705 -0.2147  0.1565  0.1498
 2413SOL    HW118698   4.193   1.987   5.680 -0.0004 -0.5683  2.2968
 2413SOL    HW218699   4.284   2.092   5.630  2.3537 -1.0409  1.7509
 2414SOL     OW18700   4.201   2.060   2.474  0.3415  0.4589  0.0299
 2414SOL    HW118701   4.160   2.142   2.500 -2.0744 -1.3269  1.7618
 2414SOL    HW218702   4.136   2.028   2.411  1.1051  2.1261 -1.6090
 2415SOL     OW18703   1.382   2.879  15.743  0.3679  0.0123 -0.0629
 2415SOL    HW118704   1.321   2.880  15.669  2.1468 -1.0454 -1.5347
 2415SOL    HW218705   1.443   2.950  15.723  0.7382 -0.7210 -1.5473
 2416SOL     OW18706   2.043   0.158   5.546  0.1758  0.1617  0.6269
 2416SOL    HW118707   1.955   0.139   5.579  0.6716 -1.4514  0.9980
 2416SOL    HW218708   2.028   0.174   5.453  0.4415 -2.9900  0.0484
 2417SOL     OW18709   4.379   2.649   2.765 -0.2584  0.2085  0.4277
 2417SOL    HW118710   4.371   2.654   2.860  2.7944 -0.2267  0.7080
 2417SOL    HW218711   4.332   2.568   2.745  0.6942 -0.2183 -0.1062
 2418SOL     OW18712   3.829   2.641   7.579 -0.3165  0.0438 -0.4164
 2418SOL    HW118713   3.774   2.715   7.604  2.8983  1.8478  1.2472
 2418SOL    HW218714   3.855   2.613   7.667  1.7496  0.4275 -0.9146
 2419SOL     OW18715   2.726   2.847   6.352  0.0172 -0.1581 -0.1547
 2419SOL    HW118716   2.697   2.938   6.346 -3.4848 -1.2362  0.4146
 2419SOL    HW218717   2.657   2.806   6.404 -0.0384 -1.3942 -1.2048
 2420SOL     OW18718   3.849   4.696  16.728 -0.3554  0.0777 -0.5403
 2420SOL    HW118719   3.779   4.678  16.665  0.0852 -0.6660 -0.8153
 2420SOL    HW218720   3.904   4.619  16.713  1.5256  1.4544 -0.6448
 2421SOL     OW18721   3.337   3.516  17.267  0.5801 -0.0446  0.4912
 2421SOL    HW118722   3.290   3.584  17.316  0.7335  0.3743  0.0526
 2421SOL    HW218723   3.324   3.442  17.326 -0.7346 -0.5923 -0.4808
 2422SOL     OW18724   1.574   0.636   6.812 -0.2299  0.1794  0.0778
 2422SOL    HW118725   1.539   0.685   6.738 -2.3076  0.2847  1.1235
 2422SOL    HW218726   1.492   0.605   6.852  0.5099 -1.3531  0.4161
 2423SOL     OW18727   2.102   1.597   0.948 -0.4618 -0.2240 -0.3835
 2423SOL    HW118728   2.137   1.570   1.033 -2.0292 -0.3125  0.2388
 2423SOL    HW218729   2.029   1.645   0.987 -0.1866 -0.8289  0.8962
 2424SOL     OW18730   0.405   2.738   5.371 -0.3470  0.0778 -0.5897
 2424SOL    HW118731   0.325   2.701   5.335 -1.7456  1.6070  0.9143
 2424SOL    HW218732   0.468   2.706   5.307  0.3448  2.0804 -0.9322
 2425SOL     OW18733   0.799   2.813   3.924  0.5459  0.3356 -0.1032
 2425SOL    HW118734   0.807   2.745   3.857  1.4354 -1.2296  1.5742
 2425SOL    HW218735   0.706   2.802   3.943  0.6389 -2.2737 -1.0901
 2426SOL     OW18736   4.150   3.978   5.485 -0.3096 -0.1287  0.0876
 2426SOL    HW118737   4.110   3.977   5.398  0.8389 -0.6212 -0.4392
 2426SOL    HW218738   4.238   3.943   5.469 -0.2263  0.9395 -1.7855
 2427SOL     OW18739   0.748   0.451  11.110  0.8387 -0.1488  0.4564
 2427SOL    HW118740   0.668   0.455  11.163 -2.1949 -2.0679 -3.9879
 2427SOL    HW218741   0.787   0.371  11.146  0.1916  0.0625  1.6336
 2428SOL     OW18742   0.124   0.390  14.633 -0.4671  0.1028  0.6091
 2428SOL    HW118743   0.216   0.362  14.630 -0.9372 -1.3637  0.1378
 2428SOL    HW218744   0.080   0.357  14.555  0.6357 -1.1831  0.5191
 2429SOL     OW18745   3.753   0.916   7.377  0.3346 -0.0401  0.1886
 2429SOL    HW118746   3.837   0.954   7.350  0.8376 -0.6676  0.8648
 2429SOL    HW218747   3.767   0.828   7.342  0.9972  0.1929 -0.1252
 2430SOL     OW18748   3.113   1.880   9.301 -0.0029 -0.0685  0.6294
 2430SOL    HW118749   3.148   1.860   9.215 -0.7853  3.2362 -0.4519
 2430SOL    HW218750   3.034   1.929   9.278 -0.2205 -0.5389  0.3640
 2431SOL     OW18751   0.791   4.108   2.583 -0.3310  0.1997  0.4930
 2431SOL    HW118752   0.767   4.132   2.673  0.9425  0.8628  0.6505
 2431SOL    HW218753   0.823   4.191   2.547  1.8972 -0.6369  0.6046
 2432SOL     OW18754   2.187   1.919  11.929  0.5097 -0.1459  0.3456
 2432SOL    HW118755   2.240   1.940  11.852  1.1951 -2.5853  0.1294
 2432SOL    HW218756   2.164   1.826  11.925  0.8400 -0.1754 -0.7805
 2433SOL     OW18757   2.679   4.424  12.280  0.1926  0.2094  0.0492
 2433SOL    HW118758   2.658   4.494  12.219  2.3001  3.2004  2.7403
 2433SOL    HW218759   2.699   4.482  12.354 -0.2611 -0.8600  0.9986
 2434SOL     OW18760   0.929   2.827   0.068  1.2233 -0.8883  0.1397
 2434SOL    HW118761   0.922   2.751   0.125 -0.8464 -0.8221 -0.0219
 2434SOL    HW218762   0.857   2.828   0.006  1.0355 -2.8484  0.3370
 2435SOL     OW18763   0.133   2.434   1.113  0.1485  0.8585  0.1291
 2435SOL    HW118764   0.154   2.411   1.204 -3.2975  0.7096  0.9192
 2435SOL    HW218765   0.184   2.365   1.072 -2.0141 -0.9163  0.4102
 2436SOL     OW18766   0.161   1.408   5.632 -0.7216  0.1698  0.3985
 2436SOL    HW118767   0.114   1.434   5.710 -0.7509 -0.0037  0.4396
 2436SOL    HW218768   0.127   1.322   5.607  3.4356 -0.6712 -2.4877
 2437SOL     OW18769   1.128   2.091   9.150 -0.0664  0.3521  0.2465
 2437SOL    HW118770   1.129   2.020   9.085 -1.9174 -0.3690  1.0063
 2437SOL    HW218771   1.222   2.087   9.169 -0.1305  0.9929  0.6842
 2438SOL     OW18772   3.986   2.058  17.341  0.2398 -0.0404 -0.5065
 2438SOL    HW118773   4.015   2.133  17.394 -2.3207 -1.0376  2.3008
 2438SOL    HW218774   4.070   2.025  17.310  1.0997  0.1183  1.6545
 2439SOL     OW18775   1.954   2.480  17.141  0.0440  0.1895  0.0089
 2439SOL    HW118776   1.955   2.549  17.207 -3.1941 -0.8437  1.1814
 2439SOL    HW218777   1.874   2.437  17.174 -0.3007  1.1949  0.4796
 2440SOL     OW18778   3.866   2.605   7.846 -0.3487 -0.1086 -0.1547
 2440SOL    HW118779   3.812   2.671   7.889  1.2017  1.9499 -1.3894
 2440SOL    HW218780   3.856   2.519   7.888  0.8809 -0.2722 -0.1786
 2441SOL     OW18781   2.875   2.318   4.848 -0.3013  0.2294 -0.9396
 2441SOL    HW118782   2.814   2.362   4.907 -0.4382  0.1044 -0.9887
 2441SOL    HW218783   2.826   2.249   4.803  0.6935 -1.9034  1.1863
 2442SOL     OW18784   4.481   1.820   9.275 -0.3077 -0.5273  0.0125
 2442SOL    HW118785   4.475   1.835   9.369  0.8320 -1.1494  0.1800
 2442SOL    HW218786   4.394   1.840   9.239 -0.8501  1.4487  2.4542
 2443SOL     OW18787   3.861   2.369   5.290 -0.3415 -0.1592 -0.2099
 2443SOL    HW118788   3.935   2.336   5.239  0.6343  1.5644  0.0973
 2443SOL    HW218789   3.900   2.404   5.370  2.8198  0.7838 -2.1465
 2444SOL     OW18790   3.756   0.392  16.427 -0.4330  0.2150  0.2735
 2444SOL    HW118791   3.771   0.463  16.489 -1.7096  0.8021 -0.1042
 2444SOL    HW218792   3.771   0.306  16.468  0.6778  0.4020  0.2584
 2445SOL     OW18793   2.759   0.078  10.912 -0.1683 -0.2472  0.1659
 2445SOL    HW118794   2.755   0.060  11.005 -2.1228  0.4292  0.2155
 2445SOL    HW218795   2.854   0.073  10.901 -0.0072 -0.4027  1.7447
 2446SOL     OW18796   4.464   4.159   2.714 -0.2919  0.0021 -0.0620
 2446SOL    HW118797   4.497   4.194   2.631  0.3774  0.0324  0.2196
 2446SOL    HW218798   4.548   4.127   2.746  0.7378  3.0778  0.3616
 2447SOL     OW18799   1.750   4.545  10.321 -0.0232 -0.5176 -0.3234
 2447SOL    HW118800   1.672   4.489  10.321 -1.0570  0.9240  1.4144
 2447SOL    HW218801   1.718   4.628  10.356 -3.3227 -1.2313 -1.5993
 2448SOL     OW18802   1.054   2.184   7.887  0.4566  0.5884  0.2544
 2448SOL    HW118803   1.016   2.133   7.815  2.1546 -0.5296  0.1288
 2448SOL    HW218804   1.015   2.140   7.963  0.8452 -1.8262 -0.9272
 2449SOL     OW18805   4.452   3.232   5.955  0.0441 -0.9056 -0.0048
 2449SOL    HW118806   4.435   3.326   5.957  0.7838 -0.7963  1.2464
 2449SOL    HW218807   4.504   3.218   6.034 -0.6919 -0.2358  0.5986
 2450SOL     OW18808   1.350   0.804   4.925  0.4255  0.2035  0.0649
 2450SOL    HW118809   1.302   0.748   4.986  0.3858 -0.2315 -0.3610
 2450SOL    HW218810   1.329   0.751   4.848 -0.7193  0.2077  0.3638
 2451SOL     OW18811   3.157   0.069   5.986  0.6033  0.1930  0.8013
 2451SOL    HW118812   3.223   0.052   5.918 -1.8502 -0.4150 -1.4597
 2451SOL    HW218813   3.087   0.078   5.921  0.9482 -2.0702  0.0963
 2452SOL     OW18814   3.732   4.028  16.635  0.3730 -0.0614 -0.5557
 2452SOL    HW118815   3.698   4.094  16.574 -1.4886 -0.7725 -0.2969
 2452SOL    HW218816   3.811   3.995  16.593  1.1754  1.7591 -0.5039
 2453SOL     OW18817   0.918   2.754   8.620 -0.1085 -0.2453  0.1798
 2453SOL    HW118818   0.886   2.844   8.621 -0.5877 -0.4280  1.3118
 2453SOL    HW218819   0.844   2.703   8.587 -1.9178  0.6494  2.8841
 2454SOL     OW18820   1.323   1.380   3.691 -0.1773  0.0791  0.2999
 2454SOL    HW118821   1.321   1.285   3.676  0.2140  0.0040  0.7279
 2454SOL    HW218822   1.398   1.413   3.643  1.0638 -0.9588  1.5175
 2455SOL     OW18823   0.805   4.029   7.078  0.0471  0.5293  0.0265
 2455SOL    HW118824   0.721   4.031   7.124  0.7116 -1.5932  1.3354
 2455SOL    HW218825   0.847   3.952   7.116  0.5277  0.4918 -0.5850
 2456SOL     OW18826   2.455   1.985   6.948 -0.3673  0.0945 -0.0431
 2456SOL    HW118827   2.364   1.958   6.943 -0.5908  0.9543 -0.4715
 2456SOL    HW218828   2.470   1.976   7.043  0.5669 -0.6373 -0.2559
 2457SOL     OW18829   1.846   2.852  13.972  0.1612 -0.3520  0.3367
 2457SOL    HW118830   1.890   2.937  13.969 -1.5155  0.5380  0.9088
 2457SOL    HW218831   1.774   2.858  14.035 -1.2862 -2.5236 -1.0933
 2458SOL     OW18832   4.231   3.110   4.411  0.1352  0.7049 -0.1352
 2458SOL    HW118833   4.306   3.168   4.414  2.1796 -1.9926  0.5484
 2458SOL    HW218834   4.178   3.185   4.437 -0.9366  0.3159 -1.1580
 2459SOL     OW18835   0.023   4.366   1.726 -0.0588 -0.6340 -0.1394
 2459SOL    HW118836   0.106   4.401   1.758 -1.0486 -0.1560  1.9028
 2459SOL    HW218837   0.062   4.302   1.666 -0.4950 -0.3118 -0.7640
 2460SOL     OW18838   4.657   0.634   1.459 -0.4719  0.0575  0.1332
 2460SOL    HW118839   4.595   0.599   1.522  0.9911  0.8049  1.9747
 2460SOL    HW218840   4.710   0.703   1.500  0.6617  0.2830 -1.6962
 2461SOL     OW18841   0.394   2.989  17.343  0.5919 -0.0408 -0.4648
 2461SOL    HW118842   0.410   3.040  17.263 -0.9201  1.4384  0.1521
 2461SOL    HW218843   0.478   2.949  17.365  0.6177 -0.2530 -0.9503
 2462SOL     OW18844   4.253   4.355   7.079 -0.8382  0.6308  0.5463
 2462SOL    HW118845   4.343   4.336   7.107 -0.4612  0.5324 -0.7450
 2462SOL    HW218846   4.265   4.330   6.988 -0.2212  2.2208  0.1868
 2463SOL     OW18847   2.119   4.074   1.937  0.0923  0.1368 -0.4860
 2463SOL    HW118848   2.143   4.165   1.956  1.4429 -0.4512  0.5812
 2463SOL    HW218849   2.181   4.024   1.989  0.1272  1.7392  1.0088
 2464SOL     OW18850   2.130   2.344   6.476  0.7643 -0.2735 -0.3526
 2464SOL    HW118851   2.191   2.298   6.419 -0.3131 -0.2952 -1.5075
 2464SOL    HW218852   2.092   2.400   6.408 -0.9900  1.1583  1.7706
 2465SOL     OW18853   1.040   3.046   6.415 -0.1224  0.1844 -0.1004
 2465SOL    HW118854   1.093   3.076   6.341  0.2538  0.5758  0.3314
 2465SOL    HW218855   1.061   3.104   6.488  0.4613 -1.5805  1.1212
 2466SOL     OW18856   3.671   0.382   4.522  0.0113  0.3366 -0.2343
 2466SOL    HW118857   3.582   0.362   4.553  0.2853  1.4732  1.2932
 2466SOL    HW218858   3.701   0.291   4.522 -1.5593 -0.1923  2.2388
 2467SOL     OW18859   0.038   0.960   3.980  0.1943  0.5082  0.0896
 2467SOL    HW118860   0.118   0.939   4.028  0.4122  0.1344 -0.4401
 2467SOL    HW218861   0.004   0.871   3.984  0.1347  0.4641 -1.3612
 2468SOL     OW18862   1.400   4.280   9.675  0.1829 -0.0277 -0.0086
 2468SOL    HW118863   1.364   4.220   9.609  1.0736  1.7355 -2.0946
 2468SOL    HW218864   1.329   4.284   9.739  0.4015 -1.8385  0.3547
 2469SOL     OW18865   1.280   0.826  16.896  0.5617  0.1869  0.4142
 2469SOL    HW118866   1.323   0.912  16.905  0.6170  0.3416 -1.3036
 2469SOL    HW218867   1.335   0.767  16.845 -1.6074 -0.3074 -1.3730
 2470SOL     OW18868   1.415   3.311  12.610  0.3315  0.0502 -0.2829
 2470SOL    HW118869   1.457   3.225  12.609  0.5309  0.1408  0.8946
 2470SOL    HW218870   1.466   3.349  12.539 -1.3750  1.8183 -0.5756
 2471SOL     OW18871   1.027   1.848  15.784 -1.3558 -0.3808 -0.3223
 2471SOL    HW118872   1.073   1.839  15.867 -1.4972 -1.1748 -0.3263
 2471SOL    HW218873   0.967   1.919  15.808  1.1470  1.5905  0.0193
 2472SOL     OW18874   0.977   2.354   7.083  0.2311  0.2468 -0.9318
 2472SOL    HW118875   1.066   2.357   7.119 -0.0925 -1.4500  0.0073
 2472SOL    HW218876   0.952   2.444   7.060  1.3437 -0.1408 -3.6993
 2473SOL     OW18877   0.518   1.381   2.040  0.3777 -0.3749  0.7897
 2473SOL    HW118878   0.531   1.474   2.058  1.7647 -0.6131  1.0328
 2473SOL    HW218879   0.541   1.348   2.127  1.0398 -1.2791  0.2670
 2474SOL     OW18880   1.423   1.819  11.818 -0.8663 -0.6953 -0.6221
 2474SOL    HW118881   1.497   1.761  11.837  1.0693  1.8577 -0.4013
 2474SOL    HW218882   1.446   1.898  11.867 -2.3157 -0.8995  0.4023
 2475SOL     OW18883   4.075   1.251   3.012  0.3893 -0.4467  0.0138
 2475SOL    HW118884   4.086   1.210   2.926 -2.4526 -0.5169 -0.3033
 2475SOL    HW218885   4.017   1.188   3.055 -0.0113 -0.8720 -1.1444
 2476SOL     OW18886   0.872   1.469   6.517 -0.0490  0.3544  0.2326
 2476SOL    HW118887   0.964   1.494   6.518 -0.6007  2.4551 -3.1827
 2476SOL    HW218888   0.846   1.476   6.426  0.4976  1.9337  0.2082
 2477SOL     OW18889   0.662   2.247   9.123  0.2738 -0.5208 -0.4378
 2477SOL    HW118890   0.715   2.172   9.150 -1.0383 -1.5717 -0.7827
 2477SOL    HW218891   0.587   2.211   9.076  0.2072 -0.0809 -0.6687
 2478SOL     OW18892   2.861   3.864   3.701 -0.3181 -0.1654  0.3152
 2478SOL    HW118893   2.813   3.870   3.619 -0.5106 -1.1891  0.3560
 2478SOL    HW218894   2.861   3.956   3.729  2.8491 -0.8871  2.7400
 2479SOL     OW18895   2.311   1.759   6.644  0.2260  0.0534 -0.0446
 2479SOL    HW118896   2.246   1.760   6.714  1.6676  2.9094  1.2659
 2479SOL    HW218897   2.255   1.795   6.575 -0.5298  0.7361  0.9187
 2480SOL     OW18898   0.899   0.996  13.978 -0.1055 -0.7706  0.3001
 2480SOL    HW118899   0.943   0.989  13.893  1.0095  0.9286  0.7513
 2480SOL    HW218900   0.809   1.020  13.955 -0.1061 -0.8159  0.2547
 2481SOL     OW18901   2.583   0.291  12.370 -0.5078 -0.3273 -0.1535
 2481SOL    HW118902   2.502   0.281  12.420 -0.0309 -2.4629  0.1948
 2481SOL    HW218903   2.647   0.308  12.439  2.7900 -2.1490 -2.7871
 2482SOL     OW18904   2.803   2.256   0.080  0.6458  0.2975 -0.4053
 2482SOL    HW118905   2.749   2.335   0.087 -0.4096 -0.5362  0.9452
 2482SOL    HW218906   2.738   2.196   0.044 -1.0679  0.4577  2.3976
 2483SOL     OW18907   1.451   1.712   7.636  0.5219 -0.0879 -0.2760
 2483SOL    HW118908   1.425   1.723   7.544  2.5236 -3.8284 -1.3217
 2483SOL    HW218909   1.466   1.805   7.652  1.5437 -0.4467  0.8144
 2484SOL     OW18910   3.374   1.834   2.231  0.1657  0.0614  0.2616
 2484SOL    HW118911   3.380   1.846   2.326  1.9697  3.3186 -0.2886
 2484SOL    HW218912   3.280   1.826   2.216 -0.0926 -0.4261  2.1380
 2485SOL     OW18913   2.818   0.648   3.342 -0.1693  0.0797  0.1069
 2485SOL    HW118914   2.905   0.610   3.330 -0.3115 -0.8203  1.9684
 2485SOL    HW218915   2.760   0.575   3.361  0.4452 -1.2618 -3.2354
 2486SOL     OW18916   2.376   1.425  17.452  0.3051 -0.0577  0.1394
 2486SOL    HW118917   2.304   1.474  17.494 -1.1334 -1.7991 -0.3044
 2486SOL    HW218918   2.396   1.367  17.525 -1.4207 -0.8102  0.0277
 2487SOL     OW18919   4.447   1.438   7.179  0.3019  0.1289  0.1720
 2487SOL    HW118920   4.526   1.483   7.211  0.8738 -0.9389  0.2502
 2487SOL    HW218921   4.447   1.361   7.235 -0.1511 -0.3945 -0.5518
 2488SOL     OW18922   0.392   4.454  14.947  0.1702  0.0790  0.1923
 2488SOL    HW118923   0.329   4.383  14.945 -0.8996  0.9674  2.7175
 2488SOL    HW218924   0.381   4.501  14.864 -1.7799  0.0668  0.4539
 2489SOL     OW18925   0.241   2.600   4.617  0.2432 -0.5147  0.4524
 2489SOL    HW118926   0.272   2.673   4.564  0.3855 -2.1044 -1.6476
 2489SOL    HW218927   0.176   2.643   4.673  0.8887  0.5866  0.3628
 2490SOL     OW18928   3.962   0.355  15.026 -0.0737  1.2145 -0.4014
 2490SOL    HW118929   3.896   0.419  14.998 -1.1422 -0.0142 -0.6582
 2490SOL    HW218930   4.032   0.361  14.961 -0.4951  0.6211 -0.9036
 2491SOL     OW18931   3.746   3.564   3.063  0.0686 -0.1819 -0.1639
 2491SOL    HW118932   3.727   3.470   3.057  0.0304 -0.1756 -0.1394
 2491SOL    HW218933   3.804   3.575   2.988  0.5627 -2.0013 -0.0634
 2492SOL     OW18934   0.137   4.153   4.031  0.0627 -0.2794 -0.0009
 2492SOL    HW118935   0.208   4.192   3.980 -0.9530  1.4815 -0.0632
 2492SOL    HW218936   0.177   4.084   4.084  2.3101  0.1023 -1.1694
 2493SOL     OW18937   3.591   2.208   4.527 -0.1771  0.3179 -0.6234
 2493SOL    HW118938   3.530   2.271   4.489 -0.5105  1.7117  2.2480
 2493SOL    HW218939   3.621   2.251   4.607 -1.7230 -0.8822  0.5902
 2494SOL     OW18940   2.233   0.028   7.638 -0.2956  0.6207 -0.0038
 2494SOL    HW118941   2.313   4.718   7.601 -0.4961 -0.3156  0.5175
 2494SOL    HW218942   2.170   4.712   7.581 -2.0797  1.6624  1.1882
 2495SOL     OW18943   4.643   4.270   6.470  0.3272  0.0508 -0.3397
 2495SOL    HW118944   4.610   4.341   6.525  0.7980  0.2805 -0.3525
 2495SOL    HW218945   4.588   4.204   6.511 -1.1160  0.2647 -1.9339
 2496SOL     OW18946   3.089   0.717  15.869 -0.0119 -0.2613  0.0810
 2496SOL    HW118947   3.041   0.796  15.847  0.5268  0.3752  1.1729
 2496SOL    HW218948   3.058   0.699  15.958  1.2237 -0.8652  0.3978
 2497SOL     OW18949   2.888   0.885   7.343 -0.1508  0.2385 -0.1521
 2497SOL    HW118950   2.894   0.789   7.351  1.0515  0.3271  0.1010
 2497SOL    HW218951   2.810   0.908   7.392 -0.4980  2.0175 -1.5620
 2498SOL     OW18952   1.574   2.815   9.032  0.1461  0.3078  0.6440
 2498SOL    HW118953   1.526   2.761   8.970  1.5036  0.7228 -0.7771
 2498SOL    HW218954   1.659   2.800   8.991 -0.1696  1.0568 -0.2815
 2499SOL     OW18955   2.912   4.571  11.787 -0.6559  0.1415  0.6710
 2499SOL    HW118956   2.837   4.622  11.758 -0.1582  0.8505  0.6246
 2499SOL    HW218957   2.879   4.481  11.792 -1.6490  0.5520  1.3509
 2500SOL     OW18958   1.229   1.704   2.253  0.2024  0.5603  0.2625
 2500SOL    HW118959   1.300   1.764   2.232  1.2398 -0.5802  0.5347
 2500SOL    HW218960   1.168   1.753   2.308 -1.1071  0.8031 -1.4012
 2501SOL     OW18961   3.763   3.038   9.748 -0.5117 -0.3150 -0.4480
 2501SOL    HW118962   3.803   3.058   9.833 -1.5579 -0.3763  0.0628
 2501SOL    HW218963   3.810   2.957   9.731 -0.3134 -0.8334  2.5830
 2502SOL     OW18964   3.504   4.171   8.435 -0.3014  1.1185  0.2231
 2502SOL    HW118965   3.591   4.211   8.442  0.0648 -0.3826  4.0008
 2502SOL    HW218966   3.458   4.176   8.518 -2.1038 -1.2989 -0.6235
 2503SOL     OW18967   2.759   0.799  10.380 -0.6142  0.3438 -0.2946
 2503SOL    HW118968   2.849   0.830  10.387 -0.7734  1.3934 -2.9331
 2503SOL    HW218969   2.711   0.855  10.442 -3.4380 -1.8249 -0.5228
 2504SOL     OW18970   0.860   2.749   5.673 -0.3578  0.3754  0.2287
 2504SOL    HW118971   0.795   2.680   5.662  1.0360 -0.8783 -0.1381
 2504SOL    HW218972   0.936   2.700   5.704 -1.6998 -1.5508  0.4952
 2505SOL     OW18973   4.256   0.581   1.582 -0.1416  0.4795 -0.4281
 2505SOL    HW118974   4.347   0.566   1.609  0.2558  0.9391 -1.5058
 2505SOL    HW218975   4.226   0.491   1.566 -2.0321  1.0286  0.1351
 2506SOL     OW18976   2.833   3.500   5.178  0.1715 -0.3862  0.3564
 2506SOL    HW118977   2.865   3.587   5.151  0.2001 -1.1994 -2.2044
 2506SOL    HW218978   2.895   3.477   5.248  0.1605 -0.2563  0.4092
 2507SOL     OW18979   1.314   2.965   5.220  0.3961 -0.4504 -0.8668
 2507SOL    HW118980   1.323   2.936   5.311 -2.7836  0.2033 -0.3349
 2507SOL    HW218981   1.220   2.965   5.199  0.1235  3.9162  0.5019
 2508SOL     OW18982   0.603   0.489  13.400 -0.4112 -0.0295  0.3348
 2508SOL    HW118983   0.542   0.562  13.398  0.5373  0.7221 -1.1937
 2508SOL    HW218984   0.684   0.524  13.438  0.4973 -0.6736 -0.9952
 2509SOL     OW18985   4.522   2.759   7.387 -0.1834 -0.1878  0.4092
 2509SOL    HW118986   4.526   2.830   7.451 -0.4314 -1.6203  2.0200
 2509SOL    HW218987   4.499   2.691   7.450  3.7779 -0.9992  0.9802
 2510SOL     OW18988   4.393   4.492   6.130 -0.3822  0.0888 -0.3687
 2510SOL    HW118989   4.434   4.530   6.208  0.3979 -1.6231  0.0540
 2510SOL    HW218990   4.462   4.511   6.067  1.3825 -4.1510  0.2959
 2511SOL     OW18991   3.456   4.126  12.297 -0.1417  0.5061  0.5372
 2511SOL    HW118992   3.381   4.070  12.317  0.7659 -0.4687  1.1881
 2511SOL    HW218993   3.477   4.100  12.207  2.3114  0.4630  1.1031
 2512SOL     OW18994   1.402   2.565   5.724  0.1491  0.2650 -0.5765
 2512SOL    HW118995   1.472   2.630   5.737  1.6307 -1.3247 -0.5497
 2512SOL    HW218996   1.356   2.604   5.798 -2.1295 -1.3772 -1.1513
 2513SOL     OW18997   1.441   3.258   0.820 -0.1762  0.4554  0.2722
 2513SOL    HW118998   1.417   3.210   0.741 -0.0255  0.5297  0.1829
 2513SOL    HW218999   1.461   3.190   0.884  0.5147  0.2429 -0.1735
 2514SOL     OW19000   2.792   4.274  11.102  0.1870  0.4577  1.0564
 2514SOL    HW119001   2.714   4.231  11.067 -0.0982  2.3047 -0.5685
 2514SOL    HW219002   2.761   4.361  11.125  0.0898  0.4733  0.8657
 2515SOL     OW19003   3.427   1.264   6.070  0.0229 -0.0893  0.0703
 2515SOL    HW119004   3.493   1.274   6.138 -0.4399  1.2805  0.3247
 2515SOL    HW219005   3.475   1.256   5.988  2.1108 -1.6419  1.4630
 2516SOL     OW19006   2.493   3.974   3.970  0.0038 -0.1789 -0.1028
 2516SOL    HW119007   2.541   3.927   3.902  1.5494  1.3857 -0.0868
 2516SOL    HW219008   2.418   3.915   3.984 -0.2844 -0.2221 -1.8814
 2517SOL     OW19009   4.534   3.774   6.753  0.9689 -0.4229  0.1492
 2517SOL    HW119010   4.556   3.712   6.823  1.2155 -1.7845 -1.1532
 2517SOL    HW219011   4.489   3.842   6.803  1.3655 -0.4479  0.5500
 2518SOL     OW19012   2.347   2.018   9.071 -0.2020 -0.6092 -0.0822
 2518SOL    HW119013   2.381   2.021   9.161  0.0425 -0.7730 -0.1711
 2518SOL    HW219014   2.260   1.982   9.088  0.0907 -0.8710  0.8636
 2519SOL     OW19015   1.986   2.987  14.924  0.6192 -0.1101 -0.2411
 2519SOL    HW119016   1.994   2.894  14.944 -0.5520 -0.2951 -0.6598
 2519SOL    HW219017   2.049   3.020  14.988 -0.2973  2.4607 -0.6415
 2520SOL     OW19018   3.722   2.891  11.582 -0.2729  0.5451 -0.5352
 2520SOL    HW119019   3.751   2.951  11.513  1.1880  1.0554  0.5292
 2520SOL    HW219020   3.632   2.873  11.555 -0.3021  1.0946 -0.8021
 2521SOL     OW19021   1.626   3.070   4.750 -0.2222 -0.8918 -0.5693
 2521SOL    HW119022   1.618   3.164   4.759  1.0853 -0.7595 -0.8018
 2521SOL    HW219023   1.595   3.043   4.836  1.5370  0.7210  0.5696
 2522SOL     OW19024   0.684   2.865   7.416 -0.3776  0.5047  0.2285
 2522SOL    HW119025   0.588   2.865   7.410 -0.4531 -2.2492  1.5110
 2522SOL    HW219026   0.699   2.953   7.452 -1.9749  1.0292 -0.3621
 2523SOL     OW19027   4.061   2.927   3.999 -0.0430  0.1985  0.0349
 2523SOL    HW119028   3.997   2.998   4.003 -1.5771 -1.2683  1.9162
 2523SOL    HW219029   4.114   2.944   4.077  0.1292 -1.1719  0.2200
 2524SOL     OW19030   0.665   3.460  13.635 -0.2213 -0.0600 -0.3185
 2524SOL    HW119031   0.692   3.542  13.675 -0.0403  0.2740 -1.1403
 2524SOL    HW219032   0.751   3.420  13.623  0.6947  1.2318  1.9317
 2525SOL     OW19033   2.195   2.277   8.243  0.8665  0.0528 -0.4177
 2525SOL    HW119034   2.276   2.325   8.255  0.2468  1.1182 -0.5219
 2525SOL    HW219035   2.156   2.323   8.168  0.6908 -0.4068 -0.6094
 2526SOL     OW19036   1.073   1.345   6.252  0.0355  0.2386  0.0664
 2526SOL    HW119037   1.136   1.358   6.180  0.7319  0.5158  0.7257
 2526SOL    HW219038   1.056   1.252   6.235 -0.8047  0.2557  0.8189
 2527SOL     OW19039   3.038   1.054   2.809  0.4077 -0.2439  0.3060
 2527SOL    HW119040   2.972   0.986   2.804  2.0125 -1.7449 -0.5378
 2527SOL    HW219041   3.115   0.998   2.805  0.8827  0.4774 -0.6943
 2528SOL     OW19042   3.725   0.770   8.299  0.0452  0.2843 -0.2255
 2528SOL    HW119043   3.783   0.845   8.282  0.3841  0.0107 -0.2931
 2528SOL    HW219044   3.734   0.721   8.217  0.1970 -1.1341  0.6417
 2529SOL     OW19045   3.370   2.533   9.531  0.6126 -0.3840  0.4469
 2529SOL    HW119046   3.382   2.620   9.570  0.8804  1.0790 -2.8414
 2529SOL    HW219047   3.382   2.555   9.438  1.2467 -1.1520  0.3530
 2530SOL     OW19048   4.064   2.701  16.856 -0.1657 -0.3314  0.7166
 2530SOL    HW119049   4.081   2.610  16.832 -1.3118 -0.2861 -0.3162
 2530SOL    HW219050   4.115   2.755  16.795 -1.6696  0.0143 -0.2515
 2531SOL     OW19051   4.091   1.930   1.666 -0.2312 -0.0878  0.4081
 2531SOL    HW119052   4.144   1.970   1.735  1.0800  1.0940 -1.2949
 2531SOL    HW219053   4.005   1.952   1.701  0.5652  2.6423  0.6270
 2532SOL     OW19054   3.966   3.512   5.601 -0.1360  0.2535 -0.2837
 2532SOL    HW119055   3.880   3.493   5.563 -0.1992  0.5678 -0.3029
 2532SOL    HW219056   3.960   3.607   5.611 -0.7054 -0.0255  2.0687
 2533SOL     OW19057   1.657   2.470   4.715  0.1484  0.1296  0.3073
 2533SOL    HW119058   1.612   2.531   4.656  0.4495  0.1825  0.1274
 2533SOL    HW219059   1.748   2.490   4.693 -0.9659  1.5758 -3.0722
 2534SOL     OW19060   2.976   1.754   7.256  0.3906  0.1325 -0.3370
 2534SOL    HW119061   2.951   1.679   7.311  0.1075  1.3781  1.2118
 2534SOL    HW219062   3.007   1.713   7.175  1.2423 -0.0379  0.0762
 2535SOL     OW19063   4.585   1.796   7.668  0.1146  0.0394 -0.3136
 2535SOL    HW119064   4.581   1.819   7.575  1.0357 -0.4421 -0.4673
 2535SOL    HW219065   4.582   1.882   7.711 -2.1201  0.6961 -1.8047
 2536SOL     OW19066   2.986   3.657  17.649  0.2328  0.8752  0.3084
 2536SOL    HW119067   3.043   3.729  17.625 -1.1170  1.5818 -0.7972
 2536SOL    HW219068   2.992   3.666   0.034 -1.3363 -0.1184  0.5056
 2537SOL     OW19069   0.936   0.504   5.948  0.5455 -0.2991  0.2174
 2537SOL    HW119070   0.843   0.503   5.970  0.3845 -1.6387 -0.4921
 2537SOL    HW219071   0.941   0.410   5.930 -0.7480 -0.2461 -0.3965
 2538SOL     OW19072   4.311   1.445   4.340 -0.1738  0.6090 -0.3282
 2538SOL    HW119073   4.363   1.419   4.264  1.5942 -0.0656  1.0996
 2538SOL    HW219074   4.349   1.531   4.359 -1.2583  0.4364  2.6447
 2539SOL     OW19075   3.639   3.118   2.567 -0.0016 -1.0329 -0.4287
 2539SOL    HW119076   3.721   3.166   2.576  0.1495 -1.4282  0.2953
 2539SOL    HW219077   3.654   3.040   2.621 -0.0519 -0.0358  1.0223
 2540SOL     OW19078   0.179   0.821  10.100 -0.1337  0.1545  0.0896
 2540SOL    HW119079   0.244   0.756  10.127  0.5512  0.3838 -1.0366
 2540SOL    HW219080   0.166   0.800  10.007 -0.8622  0.7695  0.0574
 2541SOL     OW19081   0.616   3.767   4.588 -0.2575  1.0810 -0.2349
 2541SOL    HW119082   0.571   3.761   4.504 -1.8876  1.1271  0.6432
 2541SOL    HW219083   0.700   3.804   4.559  1.3797 -0.7297  2.1812
 2542SOL     OW19084   4.643   1.746  15.096  0.1683 -0.0911 -0.1653
 2542SOL    HW119085   4.669   1.838  15.087  1.7096 -0.5227 -0.1333
 2542SOL    HW219086   4.548   1.759  15.105  0.2809  0.5081  0.1736
 2543SOL     OW19087   0.419   4.619   3.424  0.0804 -0.3594 -0.2305
 2543SOL    HW119088   0.450   4.638   3.336  1.6148 -0.3909  0.3041
 2543SOL    HW219089   0.497   4.614   3.479 -1.3463 -0.4371  1.7655
 2544SOL     OW19090   1.288   2.424   8.138 -0.0331  0.9237  0.5616
 2544SOL    HW119091   1.311   2.497   8.196  0.6197 -0.4514  2.0381
 2544SOL    HW219092   1.326   2.365   8.204  0.5048 -2.2966 -2.6679
 2545SOL     OW19093   3.847   1.389   7.855 -0.1714 -0.1167  0.7615
 2545SOL    HW119094   3.857   1.434   7.772 -0.0628 -1.2896  0.1318
 2545SOL    HW219095   3.766   1.340   7.838 -0.3759  0.8863 -1.1767
 2546SOL     OW19096   1.920   2.954  11.231 -0.1812 -0.1176  0.1994
 2546SOL    HW119097   1.865   2.923  11.302  0.2141 -1.0758  0.0805
 2546SOL    HW219098   1.997   2.900  11.246  0.6850  0.9101 -0.5212
 2547SOL     OW19099   3.189   4.351   8.979  0.1920 -0.2364 -0.0965
 2547SOL    HW119100   3.194   4.441   8.947  0.0085  0.4151  1.6919
 2547SOL    HW219101   3.117   4.362   9.041  1.6748  1.6170  1.2865
 2548SOL     OW19102   3.232   1.530   6.586 -1.0544 -0.2970  0.1612
 2548SOL    HW119103   3.214   1.583   6.663  1.3671  0.3612  0.2746
 2548SOL    HW219104   3.249   1.600   6.522 -0.0444  0.0859  0.8456
 2549SOL     OW19105   4.692   1.455   0.589  0.4189  0.1993  0.2209
 2549SOL    HW119106   4.622   1.442   0.652  1.6322 -1.8313  1.1733
 2549SOL    HW219107   0.028   1.393   0.625  0.7738  1.4639  1.7548
 2550SOL     OW19108   2.754   4.621  12.446  0.5949 -0.5768  0.3720
 2550SOL    HW119109   2.798   4.577  12.519 -0.6169 -0.6655  1.0577
 2550SOL    HW219110   2.827   4.659  12.398 -0.1396  0.7040  0.2575
 2551SOL     OW19111   0.774   2.055   2.620 -0.4420  0.0101 -0.4360
 2551SOL    HW119112   0.708   2.124   2.615  0.1901  0.6506  0.0207
 2551SOL    HW219113   0.854   2.101   2.645  0.1381 -1.2924  0.0952
 2552SOL     OW19114   3.487   2.214   5.227 -0.1767  0.3130  0.3986
 2552SOL    HW119115   3.400   2.254   5.225  0.8779  2.6294  0.2317
 2552SOL    HW219116   3.530   2.270   5.162  1.4936  1.5885  2.6119
 2553SOL     OW19117   3.257   1.223   7.308 -0.3156 -0.3070  0.4102
 2553SOL    HW119118   3.313   1.149   7.328  0.7836  0.3791 -0.1601
 2553SOL    HW219119   3.230   1.244   7.397  0.5144 -2.2281  1.0961
 2554SOL     OW19120   1.535   1.488   3.096  0.3618 -0.0318  0.7348
 2554SOL    HW119121   1.542   1.580   3.121  3.4005  0.1921 -0.9363
 2554SOL    HW219122   1.599   1.492   3.024  0.2648 -1.0151  0.5959
 2555SOL     OW19123   4.465   1.131   5.684 -0.0481  0.5974 -0.0065
 2555SOL    HW119124   4.396   1.068   5.708 -0.8408  2.3659  2.3084
 2555SOL    HW219125   4.543   1.076   5.683  1.5610  2.9794 -4.2258
 2556SOL     OW19126   2.870   3.889  11.343  1.1644  0.3041  0.2882
 2556SOL    HW119127   2.925   3.939  11.284 -0.0515  1.7457  0.3994
 2556SOL    HW219128   2.860   3.804  11.300 -0.8607  0.5995  0.1552
 2557SOL     OW19129   0.782   3.096   6.554 -0.4112 -0.0375  0.2040
 2557SOL    HW119130   0.759   3.092   6.647 -0.0223  1.3382  0.3519
 2557SOL    HW219131   0.869   3.059   6.539 -0.1975 -0.3257  2.0643
 2558SOL     OW19132   1.561   4.110  16.303  0.0782  0.7168 -0.0692
 2558SOL    HW119133   1.538   4.123  16.395  1.1339 -2.7864  0.6956
 2558SOL    HW219134   1.605   4.194  16.292  0.6527  0.7036  2.1894
 2559SOL     OW19135   1.465   4.208   5.902 -0.1862  0.3421  0.0611
 2559SOL    HW119136   1.489   4.257   5.981  1.0268  1.2941 -0.8979
 2559SOL    HW219137   1.471   4.264   5.825  0.5554 -0.1357 -0.2337
 2560SOL     OW19138   2.614   1.299   4.592 -0.1683  0.5268  0.0049
 2560SOL    HW119139   2.545   1.302   4.527 -0.0712  0.9166 -0.0812
 2560SOL    HW219140   2.691   1.279   4.538 -1.0836  0.4760 -1.2752
 2561SOL     OW19141   4.375   2.952   4.628 -0.2281  0.4941 -1.2014
 2561SOL    HW119142   4.295   2.934   4.578 -2.5524  3.0490  1.5880
 2561SOL    HW219143   4.372   3.047   4.635  0.1148  0.3515  0.7904
 2562SOL     OW19144   2.878   2.010   5.541 -0.0692  0.4964 -0.3366
 2562SOL    HW119145   2.835   2.092   5.519  1.5457  1.8927  1.6675
 2562SOL    HW219146   2.822   1.941   5.504 -1.1835  1.0720  0.2901
 2563SOL     OW19147   1.940   0.325  17.408  0.0553 -0.0852 -0.3867
 2563SOL    HW119148   1.983   0.266  17.347  1.2040  0.2767  0.0698
 2563SOL    HW219149   1.990   0.309  17.488 -2.2500 -0.0044  1.0753
 2564SOL     OW19150   3.373   1.934   1.415  0.3502 -0.0377 -0.0029
 2564SOL    HW119151   3.394   1.886   1.334  0.7857  0.0385  0.0660
 2564SOL    HW219152   3.331   2.013   1.381 -0.0177 -0.0785  0.3590
 2565SOL     OW19153   4.678   2.557  12.323  0.5162 -0.0594  0.0098
 2565SOL    HW119154   4.679   2.533  12.230  1.4837 -0.6719  0.1759
 2565SOL    HW219155   4.651   2.648  12.307 -2.5271 -0.6515  1.8816
 2566SOL     OW19156   2.703   3.019   8.945 -0.6708  0.3636 -0.0443
 2566SOL    HW119157   2.692   2.941   8.998 -1.9923 -0.1550 -1.0718
 2566SOL    HW219158   2.771   3.075   8.982 -0.8297  0.3622  0.2437
 2567SOL     OW19159   2.473   0.283   9.279  0.9552  0.1647 -0.5050
 2567SOL    HW119160   2.416   0.359   9.263 -1.0167 -0.7719  2.0600
 2567SOL    HW219161   2.416   0.207   9.293  0.0447  1.0200  0.4469
 2568SOL     OW19162   2.637   0.962   7.502 -0.0821  0.1806  0.0461
 2568SOL    HW119163   2.633   1.054   7.477  0.9469  0.4047  0.7257
 2568SOL    HW219164   2.596   0.951   7.588 -0.6460 -0.3013 -0.2763
 2569SOL     OW19165   0.610   2.743   3.148 -0.5144 -0.0705 -0.0730
 2569SOL    HW119166   0.555   2.673   3.183 -1.6826  0.1987 -1.3544
 2569SOL    HW219167   0.557   2.763   3.071 -0.3478  3.8772  0.8498
 2570SOL     OW19168   2.805   0.448   2.376  0.1715  0.3753 -0.1767
 2570SOL    HW119169   2.767   0.512   2.436  2.6669  0.4448  1.3332
 2570SOL    HW219170   2.852   0.502   2.312 -0.1341 -1.4682 -1.9751
 2571SOL     OW19171   1.051   1.600   7.815 -0.2342  0.0271  0.0219
 2571SOL    HW119172   1.000   1.681   7.814 -0.3176 -0.0745 -3.0123
 2571SOL    HW219173   1.124   1.641   7.862 -0.9264  1.2598  0.0292
 2572SOL     OW19174   2.705   0.766   3.882  0.4051 -0.1650 -0.0291
 2572SOL    HW119175   2.758   0.733   3.809  2.6332  0.9239  1.0800
 2572SOL    HW219176   2.712   0.702   3.954 -2.4016  1.3186  1.5569
 2573SOL     OW19177   3.164   0.166   8.742 -0.4883 -0.6073 -0.2773
 2573SOL    HW119178   3.083   0.213   8.760  0.8834  1.3960  0.7364
 2573SOL    HW219179   3.187   0.196   8.654  0.2546  3.3173  1.2796
 2574SOL     OW19180   3.364   1.524   5.239 -0.2072  0.0898  0.2739
 2574SOL    HW119181   3.423   1.591   5.206  0.1480 -0.6659 -0.6449
 2574SOL    HW219182   3.309   1.515   5.161  0.2972 -3.3541  0.3005
 2575SOL     OW19183   1.026   0.816   5.290 -0.5971  0.3514  0.5060
 2575SOL    HW119184   0.974   0.838   5.212  1.0510  3.9505  0.4241
 2575SOL    HW219185   1.035   0.722   5.281 -0.5072  0.3307  0.8137
 2576SOL     OW19186   0.366   3.081   1.102  0.2054 -0.1527  0.2177
 2576SOL    HW119187   0.376   2.991   1.132 -1.7768 -0.3127  0.3929
 2576SOL    HW219188   0.373   3.143   1.175 -1.6029 -0.0250  0.2914
 2577SOL     OW19189   3.791   1.471   0.503  0.0505  0.1426 -0.0635
 2577SOL    HW119190   3.766   1.461   0.411  3.1229 -1.3175 -0.7343
 2577SOL    HW219191   3.879   1.434   0.497  0.2044  0.3277  1.1324
 2578SOL     OW19192   2.692   3.305  15.419 -0.1243  0.3806  0.3194
 2578SOL    HW119193   2.783   3.276  15.415  0.0543  0.6626  2.2144
 2578SOL    HW219194   2.673   3.314  15.513  2.0148  0.6102  0.7360
 2579SOL     OW19195   3.712   3.230   9.106  0.0018  0.4257  0.4407
 2579SOL    HW119196   3.684   3.172   9.177 -0.3852  1.3255  1.0271
 2579SOL    HW219197   3.630   3.277   9.093 -0.6044 -0.1168  2.2867
 2580SOL     OW19198   0.422   2.912  15.299  0.4671 -0.2362 -0.1316
 2580SOL    HW119199   0.483   2.914  15.225 -0.2644 -1.1720 -0.7665
 2580SOL    HW219200   0.453   2.829  15.336 -2.6274 -1.0294  0.6287
 2581SOL     OW19201   2.107   4.417   5.701  0.2823  0.3021 -0.8486
 2581SOL    HW119202   2.167   4.347   5.725 -1.7339 -1.4862 -0.9776
 2581SOL    HW219203   2.027   4.396   5.751  1.5062  0.5103  1.1858
 2582SOL     OW19204   0.853   2.402  14.346 -0.1284 -0.7727  0.0457
 2582SOL    HW119205   0.892   2.489  14.345  0.0200 -0.8282  1.5664
 2582SOL    HW219206   0.822   2.403  14.256 -3.0173  4.1271  1.1490
 2583SOL     OW19207   1.164   0.810  11.051 -0.7472 -0.1430  0.4397
 2583SOL    HW119208   1.143   0.883  11.109  2.1698  0.9260  0.1550
 2583SOL    HW219209   1.244   0.834  11.004 -0.1601 -0.2456  1.3893
 2584SOL     OW19210   3.966   2.229  13.123 -0.2760  0.4604  0.5359
 2584SOL    HW119211   3.933   2.309  13.162 -2.0371  0.2730 -0.5725
 2584SOL    HW219212   4.056   2.257  13.136  0.5945 -1.1131 -1.9681
 2585SOL     OW19213   2.320   0.261   5.990  0.8958  0.3120  0.3412
 2585SOL    HW119214   2.295   0.260   5.897  3.2436  1.5245 -0.3025
 2585SOL    HW219215   2.410   0.289   5.977  0.7989  0.2267 -0.5485
 2586SOL     OW19216   1.209   0.846   7.520  0.3911 -0.1181 -0.4732
 2586SOL    HW119217   1.141   0.882   7.464  2.0402  0.1615 -2.2965
 2586SOL    HW219218   1.276   0.914   7.527  1.3372 -1.0886 -0.0683
 2587SOL     OW19219   1.185   0.260   5.790  0.0640  0.3150  0.1104
 2587SOL    HW119220   1.202   0.191   5.854  1.1077  0.1936 -0.2939
 2587SOL    HW219221   1.155   0.206   5.717  0.7671 -1.0334  0.8186
 2588SOL     OW19222   3.514   2.882   0.570  0.0541  0.3782 -0.4178
 2588SOL    HW119223   3.525   2.827   0.492 -2.9695  0.2329 -0.7321
 2588SOL    HW219224   3.430   2.854   0.606 -0.7784  3.6927  0.2234
 2589SOL     OW19225   4.248   2.523   4.093  0.0373 -0.3531  0.2195
 2589SOL    HW119226   4.260   2.475   4.011 -2.6072 -0.1272 -0.3009
 2589SOL    HW219227   4.253   2.455   4.159  2.3697 -0.9563 -0.5726
 2590SOL     OW19228   2.449   2.663   6.916 -0.0151 -0.3380  0.4472
 2590SOL    HW119229   2.434   2.570   6.897 -1.3099 -0.0815  0.1643
 2590SOL    HW219230   2.442   2.655   7.011 -2.0262 -0.7257  0.2814
 2591SOL     OW19231   0.169   2.855   8.898 -0.1573  0.6033  0.2909
 2591SOL    HW119232   0.153   2.840   8.804  0.6999  0.2138  0.2015
 2591SOL    HW219233   0.088   2.812   8.925 -0.6991  0.5348 -1.4306
 2592SOL     OW19234   2.868   3.483   6.263 -0.2230 -0.2772 -0.4205
 2592SOL    HW119235   2.834   3.424   6.196 -1.7028  1.5835 -1.3164
 2592SOL    HW219236   2.940   3.525   6.215  0.1568  1.9101  2.0458
 2593SOL     OW19237   4.688   2.479   7.340 -0.0211  0.2765  0.2954
 2593SOL    HW119238   4.601   2.517   7.333  0.2569  0.9099  0.2258
 2593SOL    HW219239   4.676   2.384   7.347 -0.8200  0.1167 -3.3367
 2594SOL     OW19240   1.120   3.711   8.810  0.3263  0.2703 -0.0586
 2594SOL    HW119241   1.066   3.789   8.796  0.8140  0.6767  0.3248
 2594SOL    HW219242   1.206   3.750   8.794 -0.1633  1.2411 -0.3353
 2595SOL     OW19243   1.011   2.983   7.366 -1.2669  0.1388  0.5632
 2595SOL    HW119244   1.080   3.016   7.423 -2.7842  2.5492  0.9856
 2595SOL    HW219245   0.931   3.014   7.408  0.0967  1.6945  2.0258
 2596SOL     OW19246   3.349   3.653  12.922 -0.2721 -0.0868 -0.0360
 2596SOL    HW119247   3.386   3.565  12.916  1.4915  0.6098  0.6049
 2596SOL    HW219248   3.404   3.675  12.998  1.8325  2.5697 -2.3265
 2597SOL     OW19249   2.299   4.611   5.809  0.1895  0.0644 -0.1396
 2597SOL    HW119250   2.235   4.664   5.857 -1.1780  0.9821 -2.9653
 2597SOL    HW219251   2.243   4.535   5.788 -0.5547  0.4947  0.2878
 2598SOL     OW19252   2.704   4.682   0.718 -0.7406  0.4462  0.0969
 2598SOL    HW119253   2.614   4.684   0.751 -0.2699 -1.3603  1.4441
 2598SOL    HW219254   2.730   0.043   0.746  2.6683 -1.0713  1.6748
 2599SOL     OW19255   3.117   4.505   2.889 -0.2486  0.7223  0.7617
 2599SOL    HW119256   3.199   4.505   2.840 -0.4015 -0.0774  0.5034
 2599SOL    HW219257   3.146   4.465   2.971 -0.5830 -0.0889  0.4763
 2600SOL     OW19258   0.384   3.102   4.986  0.8775 -0.1222 -0.4890
 2600SOL    HW119259   0.461   3.112   5.043 -0.4118  1.4922  0.9548
 2600SOL    HW219260   0.396   3.181   4.933 -0.3422 -0.7601 -1.7131
 2601SOL     OW19261   0.737   2.238   0.192  0.0429 -0.1276  0.3285
 2601SOL    HW119262   0.742   2.293   0.270 -1.0684 -0.8765  0.9372
 2601SOL    HW219263   0.822   2.249   0.149 -1.0099 -2.0564 -2.2947
 2602SOL     OW19264   3.604   3.420  17.658  0.4854 -0.1249  0.6205
 2602SOL    HW119265   3.616   3.494   0.006  2.9779 -0.7793  0.9484
 2602SOL    HW219266   3.531   3.383  17.707  0.7064 -0.8836  0.3787
 2603SOL     OW19267   1.127   3.777  10.061  0.0695 -0.5019  0.3050
 2603SOL    HW119268   1.207   3.726  10.047 -0.1499 -0.1163 -2.3119
 2603SOL    HW219269   1.128   3.808  10.152 -2.7599 -1.7961  0.7905
 2604SOL     OW19270   1.568   3.357   5.413  0.1827  0.0957 -0.3314
 2604SOL    HW119271   1.489   3.319   5.375 -1.0963  1.2758  1.1818
 2604SOL    HW219272   1.632   3.286   5.427 -0.1625 -0.4313 -1.4410
 2605SOL     OW19273   0.234   3.084   2.805 -0.4476  0.2433 -0.4444
 2605SOL    HW119274   0.200   3.147   2.742 -2.0137  0.4469  0.6103
 2605SOL    HW219275   0.230   3.002   2.756  0.5787 -0.3187  0.3896
 2606SOL     OW19276   1.233   1.622   9.307 -0.5353  0.1736  0.3496
 2606SOL    HW119277   1.317   1.589   9.339  0.0698 -0.4335 -1.8979
 2606SOL    HW219278   1.198   1.660   9.389  0.2988  1.6837  0.0057
 2607SOL     OW19279   1.101   4.437  10.081  0.8522  0.1046 -0.2184
 2607SOL    HW119280   1.085   4.519  10.128 -0.2190 -0.1539 -0.1286
 2607SOL    HW219281   1.126   4.473   9.996  1.9293 -0.5732 -0.1818
 2608SOL     OW19282   3.919   0.483   7.711  0.1748  0.4412 -0.2618
 2608SOL    HW119283   3.826   0.484   7.733 -0.1379 -2.8072 -1.4108
 2608SOL    HW219284   3.959   0.526   7.786 -0.5948  0.8234 -0.0711
 2609SOL     OW19285   0.160   4.612  13.087  0.1785  0.5402 -0.2386
 2609SOL    HW119286   0.153   4.552  13.161  2.0388 -0.0361 -0.5434
 2609SOL    HW219287   0.234   4.664  13.118  0.8888 -0.3408 -0.4597
 2610SOL     OW19288   0.928   1.368   3.654  0.2684 -0.4446 -0.5475
 2610SOL    HW119289   0.917   1.300   3.720  1.0880  0.5327  0.6062
 2610SOL    HW219290   0.960   1.310   3.585 -2.6097 -2.4176 -0.2116
 2611SOL     OW19291   0.007   2.756   0.512 -1.1748  0.6319 -0.3887
 2611SOL    HW119292   0.056   2.726   0.589  0.6003  1.4351 -1.1970
 2611SOL    HW219293   0.039   2.707   0.436 -1.0708 -0.9595  0.6859
 2612SOL     OW19294   1.126   1.898   2.948 -0.3336 -0.2158  0.1963
 2612SOL    HW119295   1.071   1.872   3.022  0.9905 -2.2247  0.4699
 2612SOL    HW219296   1.205   1.857   2.983  0.3440  1.6160  0.7877
 2613SOL     OW19297   3.506   3.335  15.196 -0.5048 -0.5708 -0.3931
 2613SOL    HW119298   3.495   3.351  15.102  1.0171 -0.0698 -0.4729
 2613SOL    HW219299   3.489   3.423  15.229  0.0543  0.0193 -1.6873
 2614SOL     OW19300   4.640   4.577  15.092 -0.2269 -0.5366 -0.5790
 2614SOL    HW119301   4.594   4.655  15.121  0.9514 -0.9761  2.4627
 2614SOL    HW219302   4.586   4.507  15.129 -1.7829  0.6334 -0.6425
 2615SOL     OW19303   0.313   3.971   4.144 -0.5037  0.3957  0.5391
 2615SOL    HW119304   0.321   3.986   4.049  1.4285 -0.5467  0.5413
 2615SOL    HW219305   0.372   3.895   4.144 -0.2822  0.5314 -2.8258
 2616SOL     OW19306   2.807   2.781   2.845  0.0981 -0.4218  0.5517
 2616SOL    HW119307   2.847   2.868   2.846  0.1359 -0.4417  0.9500
 2616SOL    HW219308   2.725   2.804   2.802 -0.0821 -0.4266  0.8921
 2617SOL     OW19309   3.995   2.937   3.099  0.1325 -0.3656  0.1200
 2617SOL    HW119310   4.036   2.887   3.170 -0.5857  1.3177  1.7403
 2617SOL    HW219311   4.049   2.914   3.024  1.0870  3.2937 -0.2727
 2618SOL     OW19312   3.600   3.580   7.115  0.0363 -0.6673  0.6914
 2618SOL    HW119313   3.577   3.511   7.053  0.0767 -0.5951  0.5957
 2618SOL    HW219314   3.678   3.623   7.080 -2.0667  3.3106  0.9782
 2619SOL     OW19315   2.821   2.032  10.655  0.1331  0.2831  0.0371
 2619SOL    HW119316   2.858   2.114  10.689 -0.2524 -0.1964  1.6053
 2619SOL    HW219317   2.900   1.986  10.627  0.0647 -0.1845  0.6211
 2620SOL     OW19318   4.469   1.080   4.761 -0.1076  0.1472 -0.3586
 2620SOL    HW119319   4.533   1.048   4.698 -0.4629 -0.6813 -0.3023
 2620SOL    HW219320   4.434   1.156   4.713 -3.0105 -1.8921 -1.4603
 2621SOL     OW19321   0.616   2.890  16.843  0.4968 -0.2444 -0.2189
 2621SOL    HW119322   0.652   2.929  16.763  0.7592  0.8923  0.4625
 2621SOL    HW219323   0.555   2.823  16.810  0.8451  0.7244 -2.8069
 2622SOL     OW19324   1.324   3.033  13.583 -0.6172  0.8088  0.1139
 2622SOL    HW119325   1.304   2.942  13.560 -0.8647  0.7502  0.5651
 2622SOL    HW219326   1.364   3.077  13.508  0.7785  1.6913  1.3809
 2623SOL     OW19327   2.167   0.891  13.452 -0.7694  0.6703 -0.5532
 2623SOL    HW119328   2.202   0.826  13.390  0.5355  1.9329 -1.1440
 2623SOL    HW219329   2.113   0.836  13.508 -0.9048  2.9722  1.5665
 2624SOL     OW19330   0.061   1.757   0.690  0.7492 -0.2280 -0.6348
 2624SOL    HW119331   4.718   1.809   0.728 -0.1354 -2.0628  0.2379
 2624SOL    HW219332   0.120   1.739   0.763  0.6228 -2.8543 -1.1714
 2625SOL     OW19333   2.169   0.807   1.927  0.0951  0.0895  0.1694
 2625SOL    HW119334   2.253   0.854   1.919  0.4844 -0.4259  1.2320
 2625SOL    HW219335   2.170   0.777   1.836 -0.5720  0.1820  0.1342
 2626SOL     OW19336   1.574   3.098  12.586  0.1886  0.2025 -0.3887
 2626SOL    HW119337   1.633   3.054  12.524  0.0151 -1.0013  0.2985
 2626SOL    HW219338   1.529   3.025  12.627  2.1609 -0.9427 -0.2469
 2627SOL     OW19339   1.002   3.214   7.549 -0.6172  0.7359  0.3033
 2627SOL    HW119340   1.046   3.212   7.634 -1.0969 -0.7032  0.5241
 2627SOL    HW219341   1.053   3.279   7.500 -1.8642  0.5296 -1.2608
 2628SOL     OW19342   3.782   1.095   9.911 -0.5340  0.0260  0.3927
 2628SOL    HW119343   3.870   1.131   9.915  0.0055 -1.1591 -0.6929
 2628SOL    HW219344   3.752   1.168   9.857  0.9195  1.3012  1.3592
 2629SOL     OW19345   2.922   0.039   5.409 -0.5679  0.3238  0.3166
 2629SOL    HW119346   2.902   0.091   5.331 -0.5086  1.2729  0.9344
 2629SOL    HW219347   2.877   0.092   5.475  3.1039  0.8146  2.3785
 2630SOL     OW19348   0.699   3.038   7.786  0.0049  0.0625  0.1024
 2630SOL    HW119349   0.668   3.078   7.867 -0.3479 -2.3142  1.1446
 2630SOL    HW219350   0.773   2.995   7.829 -0.6556 -0.1569  1.0406
 2631SOL     OW19351   4.663   1.912   6.646  0.1976  0.7039  0.1386
 2631SOL    HW119352   4.585   1.903   6.592 -0.4665  0.5519  1.1307
 2631SOL    HW219353   4.625   1.914   6.734  1.6240 -1.8501  0.8240
 2632SOL     OW19354   0.421   2.553   2.144 -0.1476 -0.4001  0.6240
 2632SOL    HW119355   0.379   2.580   2.063  0.0550 -1.5847  0.1244
 2632SOL    HW219356   0.402   2.626   2.203 -0.4068  1.9749 -2.4443
 2633SOL     OW19357   0.307   3.013  16.845 -0.0680  0.2562 -0.0402
 2633SOL    HW119358   0.367   3.088  16.853  0.1289  0.1824 -0.8208
 2633SOL    HW219359   0.305   2.968  16.929 -0.2737  2.0952  0.9488
 2634SOL     OW19360   0.508   3.617   4.391 -0.1156 -0.6527  0.3475
 2634SOL    HW119361   0.566   3.646   4.321 -0.5941  3.1885  1.5858
 2634SOL    HW219362   0.539   3.534   4.428  0.8328 -1.0052 -1.2732
 2635SOL     OW19363   4.583   0.847   5.782 -0.1064  0.3710  0.0452
 2635SOL    HW119364   4.560   0.772   5.727 -0.4915  1.1094 -0.7846
 2635SOL    HW219365   4.513   0.847   5.847  1.3078 -0.7248  1.5803
 2636SOL     OW19366   4.384   0.361   8.381 -0.1061 -0.2127 -0.8283
 2636SOL    HW119367   4.376   0.439   8.437  0.6208  0.4225 -1.5994
 2636SOL    HW219368   4.475   0.336   8.395  0.4089  1.7565 -0.5751
 2637SOL     OW19369   2.768   3.117   8.409 -0.0529 -0.0843 -0.4077
 2637SOL    HW119370   2.731   3.065   8.481 -0.2660  2.2495  1.1645
 2637SOL    HW219371   2.849   3.157   8.441 -0.8063  0.5128  0.7639
 2638SOL     OW19372   4.295   1.413  16.150  0.1902 -0.0525 -0.1558
 2638SOL    HW119373   4.255   1.385  16.068 -0.0125  1.3295 -0.5253
 2638SOL    HW219374   4.380   1.372  16.134  0.3096  0.1777 -0.1092
 2639SOL     OW19375   0.335   0.972   2.704  0.2107 -0.0764  0.2889
 2639SOL    HW119376   0.287   0.915   2.643  0.8734  0.4230 -0.7160
 2639SOL    HW219377   0.278   0.971   2.780 -0.1373  0.0725  0.0295
 2640SOL     OW19378   4.509   2.279  15.848 -0.5498  0.2536  0.1029
 2640SOL    HW119379   4.492   2.345  15.781  0.2390  0.5693  0.2112
 2640SOL    HW219380   4.599   2.253  15.828 -0.5906  1.8591 -2.1409
 2641SOL     OW19381   2.560   0.980   2.971 -0.0474  0.0011 -0.4247
 2641SOL    HW119382   2.483   1.037   2.972 -1.2041 -1.6221  1.2284
 2641SOL    HW219383   2.611   1.020   3.042  0.0749 -0.7998 -0.0598
 2642SOL     OW19384   1.844   3.921   6.871 -0.1572 -0.5337  0.0166
 2642SOL    HW119385   1.777   3.988   6.884  1.0131  0.7090 -0.4447
 2642SOL    HW219386   1.876   3.927   6.781  0.2745 -0.6803  0.1577
 2643SOL     OW19387   1.587   0.886   5.565 -0.0258  0.6269  0.6102
 2643SOL    HW119388   1.561   0.976   5.584  1.4787  1.0785  0.5287
 2643SOL    HW219389   1.532   0.840   5.629  0.3529 -0.4929  0.1209
 2644SOL     OW19390   0.595   0.582   9.599 -0.4405 -0.2875  0.3084
 2644SOL    HW119391   0.603   0.676   9.583 -1.1246 -0.2068  0.4201
 2644SOL    HW219392   0.499   0.582   9.606 -0.3711  0.6374  1.2861
 2645SOL     OW19393   4.670   3.770  16.810 -0.0425 -0.8467  0.5163
 2645SOL    HW119394   0.036   3.787  16.798 -0.7499  1.7192 -1.4521
 2645SOL    HW219395   4.651   3.713  16.735  2.0237  0.3865 -0.9291
 2646SOL     OW19396   4.009   1.686  14.966 -0.4800 -0.7731  0.0705
 2646SOL    HW119397   4.057   1.620  15.015  0.1700  0.5746  1.2382
 2646SOL    HW219398   3.926   1.639  14.958 -0.8098 -0.2951  0.6994
 2647SOL     OW19399   2.915   3.996  10.189  0.3341  0.2099 -0.0764
 2647SOL    HW119400   2.995   4.032  10.152 -0.6839  0.7306 -1.7500
 2647SOL    HW219401   2.945   3.936  10.258 -0.0655  0.5919  0.4286
 2648SOL     OW19402   4.193   2.426  12.049 -0.4870  0.2736 -0.0025
 2648SOL    HW119403   4.282   2.449  12.021 -0.3764  0.3315  0.3835
 2648SOL    HW219404   4.200   2.436  12.145 -0.3905  1.4091 -0.1207
 2649SOL     OW19405   3.743   3.065  10.179 -0.0683 -0.6134  0.6993
 2649SOL    HW119406   3.715   3.109  10.259  1.5855  1.3123  0.2257
 2649SOL    HW219407   3.824   3.113  10.158 -0.3098 -0.2947  0.5042
 2650SOL     OW19408   2.252   2.957   3.172 -0.4892 -0.0400 -0.3110
 2650SOL    HW119409   2.238   3.050   3.191 -0.2557  0.1469 -1.0351
 2650SOL    HW219410   2.346   2.959   3.155 -0.8120  0.1927 -2.1630
 2651SOL     OW19411   4.096   2.912   1.689  0.1197 -0.2655 -0.2498
 2651SOL    HW119412   4.162   2.927   1.757  1.3503 -1.2263 -1.2373
 2651SOL    HW219413   4.137   2.963   1.619 -1.8354  0.3219 -0.9671
 2652SOL     OW19414   3.792   3.412   1.983  0.2904  0.5807  0.0408
 2652SOL    HW119415   3.738   3.468   1.927  0.8754  1.3953  0.3006
 2652SOL    HW219416   3.837   3.487   2.021  0.6694  0.1738  0.4006
 2653SOL     OW19417   4.281   2.119   3.245  0.2528  1.2794  0.1974
 2653SOL    HW119418   4.314   2.103   3.157 -0.3617  3.4043 -0.4155
 2653SOL    HW219419   4.201   2.066   3.239  1.3786 -0.2875 -0.8573
 2654SOL     OW19420   2.542   0.045   5.674 -0.7495  0.3462 -0.8026
 2654SOL    HW119421   2.468   0.046   5.736 -0.0865 -0.6048 -0.0012
 2654SOL    HW219422   2.495   0.019   5.595 -1.1552  1.0751 -0.8052
 2655SOL     OW19423   1.697   2.637  11.336  0.3241  0.2412  0.4102
 2655SOL    HW119424   1.644   2.685  11.400 -0.5454 -0.5265  0.2570
 2655SOL    HW219425   1.775   2.611  11.386  1.0029  2.4199  0.5235
 2656SOL     OW19426   3.222   3.523   0.459 -0.3193 -0.1607  0.0475
 2656SOL    HW119427   3.137   3.517   0.416 -1.1502 -2.5018  1.9976
 2656SOL    HW219428   3.216   3.440   0.506  1.3227  0.3547  1.1632
 2657SOL     OW19429   0.515   2.469  16.083  0.4710  0.3131 -0.1353
 2657SOL    HW119430   0.456   2.445  16.012 -1.3265  0.3230  1.3741
 2657SOL    HW219431   0.577   2.396  16.081  1.9680  1.6450 -2.1002
 2658SOL     OW19432   2.975   0.990   8.081 -0.1258  0.3981  0.8086
 2658SOL    HW119433   3.054   0.938   8.067 -0.6415  0.3513 -1.8187
 2658SOL    HW219434   3.008   1.067   8.035  1.4182 -1.1204 -0.5776
 2659SOL     OW19435   0.652   4.026   5.041 -0.3262 -0.0830 -0.0954
 2659SOL    HW119436   0.600   3.950   5.016 -0.1577  0.1927 -1.2506
 2659SOL    HW219437   0.728   4.001   4.989 -0.2566 -0.3089  0.1118
 2660SOL     OW19438   4.224   1.672  15.932  0.5294  0.1291 -0.3473
 2660SOL    HW119439   4.197   1.582  15.916  0.4032  0.2558 -0.8488
 2660SOL    HW219440   4.312   1.686  15.898  0.9906 -1.2344  0.3003
 2661SOL     OW19441   3.575   2.909   7.978  0.0127 -0.5390  0.9419
 2661SOL    HW119442   3.543   2.985   7.930 -0.8514 -0.4327  1.6887
 2661SOL    HW219443   3.669   2.918   7.958  0.4713 -1.1432  2.7872
 2662SOL     OW19444   2.598   3.717   5.477  0.0236  0.2828  0.9301
 2662SOL    HW119445   2.565   3.802   5.504  2.6049  1.3297  0.8057
 2662SOL    HW219446   2.523   3.660   5.492 -0.1682 -0.0747 -1.3763
 2663SOL     OW19447   4.590   4.590   2.612  0.5375  0.0350  0.0885
 2663SOL    HW119448   4.560   4.671   2.653  1.2959  0.3665 -0.0089
 2663SOL    HW219449   4.609   4.540   2.691 -2.4701  0.8807  1.3460
 2664SOL     OW19450   4.118   0.429   4.836  0.3405  0.3821  0.9218
 2664SOL    HW119451   4.065   0.353   4.812 -0.8093  1.2436  0.7549
 2664SOL    HW219452   4.155   0.398   4.919 -2.0080  0.7804  2.1003
 2665SOL     OW19453   0.735   0.397   7.503 -0.2387  0.0451  0.7685
 2665SOL    HW119454   0.711   0.459   7.572 -2.9999 -1.6405  1.3313
 2665SOL    HW219455   0.655   0.345   7.492  0.0586  0.4182 -3.0239
 2666SOL     OW19456   1.882   0.812   4.612 -0.8843 -0.3180 -0.1745
 2666SOL    HW119457   1.952   0.747   4.602  0.6963  1.2783  0.5277
 2666SOL    HW219458   1.810   0.769   4.657 -1.0184 -0.7089 -0.7662
 2667SOL     OW19459   3.379   2.426   2.223  0.5438 -0.1835  0.5633
 2667SOL    HW119460   3.428   2.488   2.277 -0.9417  0.7723  0.8325
 2667SOL    HW219461   3.444   2.369   2.183 -0.3466 -0.4212 -0.5749
 2668SOL     OW19462   0.179   1.156   9.094  0.0465  0.4084  0.4042
 2668SOL    HW119463   0.179   1.127   9.003 -1.2710  0.6455  0.3226
 2668SOL    HW219464   0.170   1.251   9.086  0.0705  0.1555 -2.5320
 2669SOL     OW19465   0.605   3.229  12.279 -0.2693  0.0344  0.1707
 2669SOL    HW119466   0.659   3.308  12.287 -0.8380  0.4177  0.2335
 2669SOL    HW219467   0.552   3.241  12.357 -2.0088 -1.9676 -0.7049
 2670SOL     OW19468   2.756   0.708   8.318 -0.1642 -0.0815  0.0161
 2670SOL    HW119469   2.814   0.674   8.251 -0.3395 -0.8256  0.2311
 2670SOL    HW219470   2.826   0.742   8.374 -0.0619  2.8397 -1.9034
 2671SOL     OW19471   3.312   0.892  16.135  0.5461 -0.0231 -0.3012
 2671SOL    HW119472   3.230   0.912  16.179  0.8747  1.7585 -0.4951
 2671SOL    HW219473   3.306   0.797  16.125 -1.6235  0.3826 -2.8831
 2672SOL     OW19474   2.775   3.240   4.008  0.0329 -0.7145 -0.0558
 2672SOL    HW119475   2.838   3.178   4.043  0.7454  0.4130  0.6762
 2672SOL    HW219476   2.784   3.221   3.914 -2.2036  0.0246 -0.4089
 2673SOL     OW19477   1.413   0.696   5.652 -0.4960 -0.4653  0.1763
 2673SOL    HW119478   1.328   0.738   5.643 -0.5548 -0.8340 -1.0049
 2673SOL    HW219479   1.389   0.649   5.732 -3.0893 -0.0001 -0.3137
 2674SOL     OW19480   4.473   4.118   7.276  0.2252 -0.4562 -0.0814
 2674SOL    HW119481   4.506   4.201   7.241 -1.7112  1.6908  3.1713
 2674SOL    HW219482   4.543   4.103   7.340  0.8444 -1.2085 -0.9461
 2675SOL     OW19483   0.199   3.218   2.515  0.4233 -0.2841 -0.5477
 2675SOL    HW119484   0.259   3.292   2.520  1.6290 -1.3077  0.1178
 2675SOL    HW219485   0.255   3.145   2.487 -0.4327 -0.5845 -1.4685
 2676SOL     OW19486   3.320   4.530   2.337  0.1067 -0.0823 -0.0169
 2676SOL    HW119487   3.309   4.574   2.253  0.2509  1.4763  0.7872
 2676SOL    HW219488   3.363   4.590   2.397 -0.2060 -0.3328  0.4564
 2677SOL     OW19489   3.229   3.202  16.609 -0.0461  0.2039 -0.1024
 2677SOL    HW119490   3.217   3.188  16.703  0.0173 -0.2136 -0.1575
 2677SOL    HW219491   3.164   3.148  16.565  1.5651 -1.9998  0.2249
 2678SOL     OW19492   4.452   4.565   3.077  0.0800  0.1221 -0.2684
 2678SOL    HW119493   4.435   4.652   3.043  3.3408  0.5387 -0.8868
 2678SOL    HW219494   4.365   4.527   3.068  1.0476 -1.6735 -2.1214
 2679SOL     OW19495   2.158   0.585   2.227  0.1698  0.2569 -0.2137
 2679SOL    HW119496   2.073   0.626   2.209  0.7841  0.5532 -2.3610
 2679SOL    HW219497   2.192   0.585   2.138 -0.0978  0.2027 -0.3169
 2680SOL     OW19498   1.764   4.570   3.993  0.2356 -0.0830 -0.6553
 2680SOL    HW119499   1.773   4.542   4.084 -2.5265  0.3231 -0.2536
 2680SOL    HW219500   1.765   4.484   3.951 -0.6150  0.1101 -1.0640
 2681SOL     OW19501   2.383   3.050   3.435 -0.4884 -0.6102 -0.6929
 2681SOL    HW119502   2.416   2.992   3.366 -3.0577 -1.7943 -0.9362
 2681SOL    HW219503   2.314   3.104   3.398  1.1415  2.2980  0.5430
 2682SOL     OW19504   4.165   3.877  16.720 -0.5718  0.5795  0.3566
 2682SOL    HW119505   4.137   3.794  16.758  0.3314  0.9398  1.8213
 2682SOL    HW219506   4.244   3.854  16.671 -0.9395  0.0878 -0.0018
 2683SOL     OW19507   4.044   1.909  17.014  0.1467 -0.2911 -0.8585
 2683SOL    HW119508   4.032   1.828  17.065 -1.4162  0.7016  0.3285
 2683SOL    HW219509   4.046   1.874  16.925 -3.1366  0.0171 -1.0655
 2684SOL     OW19510   3.618   2.148   2.789  0.3505  0.0862 -0.3882
 2684SOL    HW119511   3.680   2.135   2.717  0.9794  1.4525 -0.0877
 2684SOL    HW219512   3.654   2.075   2.839  0.3499  0.8611  0.7232
 2685SOL     OW19513   0.277   2.134   9.234  1.1749  0.0740 -0.3537
 2685SOL    HW119514   0.295   2.226   9.254 -1.6286  0.5969 -0.3605
 2685SOL    HW219515   0.235   2.108   9.316  1.1970  0.8003 -0.1097
 2686SOL     OW19516   3.578   2.529   4.028  0.0440 -0.3124 -0.3040
 2686SOL    HW119517   3.552   2.445   4.065  1.0201 -0.4752  0.0137
 2686SOL    HW219518   3.521   2.529   3.951  0.0561 -0.2379 -0.3131
 2687SOL     OW19519   2.653   4.304   6.765  0.1693  0.6508 -0.0431
 2687SOL    HW119520   2.635   4.394   6.736  0.0869 -0.0553 -2.1686
 2687SOL    HW219521   2.736   4.295   6.717  0.5112 -1.3908  0.9546
 2688SOL     OW19522   4.532   1.699   8.627  0.9077  0.0623 -0.1259
 2688SOL    HW119523   4.527   1.605   8.608  2.4106 -0.1092  0.3720
 2688SOL    HW219524   4.617   1.694   8.670  1.4085  2.5246 -0.8369
 2689SOL     OW19525   4.140   1.907   5.300 -0.0547  0.1062  0.4299
 2689SOL    HW119526   4.152   1.826   5.350  1.7211  0.1505  0.0714
 2689SOL    HW219527   4.151   1.865   5.215  1.6605  0.4678  0.4852
 2690SOL     OW19528   3.003   0.306   2.563 -0.0357 -0.4847  0.3078
 2690SOL    HW119529   3.036   0.392   2.591 -0.9274 -0.4664  1.2841
 2690SOL    HW219530   2.946   0.345   2.497  0.8714 -0.9991 -0.7919
 2691SOL     OW19531   2.950   1.398   6.655 -0.4426  0.2992  0.5943
 2691SOL    HW119532   2.986   1.394   6.567 -0.1954 -1.6178  0.7813
 2691SOL    HW219533   2.963   1.490   6.679 -1.7527  0.4963  0.5511
 2692SOL     OW19534   2.493   0.161   8.149  0.5938 -0.2880 -0.1344
 2692SOL    HW119535   2.535   0.163   8.062 -1.8143  2.3495 -1.2409
 2692SOL    HW219536   2.478   0.252   8.173  0.7320 -0.6451  1.2989
 2693SOL     OW19537   0.151   4.251   3.046 -0.1899 -0.5182 -0.2440
 2693SOL    HW119538   0.068   4.217   3.012  0.3078 -1.9917  0.0154
 2693SOL    HW219539   0.166   4.179   3.106  1.5949  1.8614  2.1607
 2694SOL     OW19540   3.725   3.070  10.934 -0.1773  0.6125 -0.0951
 2694SOL    HW119541   3.704   3.115  11.016  0.8230 -1.4425  1.3037
 2694SOL    HW219542   3.681   3.135  10.880  0.6772  1.1669 -0.1119
 2695SOL     OW19543   3.532   4.494   5.260  0.0652 -0.8718  0.2489
 2695SOL    HW119544   3.466   4.442   5.214 -1.0409  2.2192 -1.6918
 2695SOL    HW219545   3.608   4.489   5.202  0.9296  0.5771  1.2688
 2696SOL     OW19546   0.369   4.688  13.274  0.0180 -1.0642  0.2619
 2696SOL    HW119547   0.464   4.680  13.275  0.2550  1.4930 -0.4921
 2696SOL    HW219548   0.337   4.599  13.284 -1.5863 -0.1267  3.4190
 2697SOL     OW19549   0.410   3.098   7.619 -0.7357 -0.0656 -0.3333
 2697SOL    HW119550   0.495   3.054   7.611 -0.7430 -0.4164  1.4164
 2697SOL    HW219551   0.384   3.096   7.527 -1.2851 -0.7678 -0.1587
 2698SOL     OW19552   2.914   0.055   6.285  0.5916 -0.0976 -1.0266
 2698SOL    HW119553   2.875   4.726   6.352 -1.7487  1.8186 -0.7772
 2698SOL    HW219554   2.896   0.013   6.201 -2.5859  2.5635 -1.6518
 2699SOL     OW19555   0.873   2.442   3.581 -0.1885 -0.2847  0.3561
 2699SOL    HW119556   0.798   2.434   3.522  0.0431 -2.1109  0.3145
 2699SOL    HW219557   0.823   2.467   3.658  0.1659  1.2620  0.0973
 2700SOL     OW19558   2.815   4.037  10.658  0.2604 -0.6142 -0.3458
 2700SOL    HW119559   2.723   4.047  10.637  0.0215 -0.7378  0.6456
 2700SOL    HW219560   2.853   4.123  10.643 -0.9320  0.0097  0.2536
 2701SOL     OW19561   2.825   0.242   2.798 -0.3187 -0.3534 -0.1597
 2701SOL    HW119562   2.892   0.244   2.730  1.2213  0.7057  1.3913
 2701SOL    HW219563   2.772   0.165   2.778 -0.1215 -0.9673  1.6546
 2702SOL     OW19564   0.255   2.630   8.182  0.6642 -0.1028  0.0593
 2702SOL    HW119565   0.228   2.622   8.090 -0.6701  0.2091  0.4214
 2702SOL    HW219566   0.257   2.536   8.199 -1.0401  0.0985  1.3504
 2703SOL     OW19567   0.713   4.374   4.318  0.2478 -0.6489 -0.0038
 2703SOL    HW119568   0.638   4.352   4.264 -0.1453  1.9749 -0.5544
 2703SOL    HW219569   0.673   4.381   4.405  2.8054  0.0588  1.1187
 2704SOL     OW19570   4.719   2.018  15.607  0.6138  0.8404  0.0203
 2704SOL    HW119571   4.709   2.088  15.543 -0.2038  1.7210  1.1090
 2704SOL    HW219572   4.648   2.025  15.671  0.8260 -0.6042  0.4270
 2705SOL     OW19573   3.278   2.563   3.327 -0.0972 -0.0674 -0.8541
 2705SOL    HW119574   3.293   2.475   3.294  0.0844 -0.5671  0.5647
 2705SOL    HW219575   3.329   2.611   3.262  1.5671  1.7671  1.7577
 2706SOL     OW19576   3.933   2.211   1.189 -0.4492 -0.2248 -0.1880
 2706SOL    HW119577   3.899   2.136   1.140  0.0555 -1.2107  0.9759
 2706SOL    HW219578   3.864   2.276   1.185 -1.3617 -1.0517  2.5993
 2707SOL     OW19579   1.377   1.307  16.376  0.0817  0.5634  0.4355
 2707SOL    HW119580   1.458   1.352  16.350 -0.2732  0.3874 -0.9405
 2707SOL    HW219581   1.338   1.326  16.291  1.0738 -0.8626 -0.3313
 2708SOL     OW19582   1.255   1.454   1.587 -0.2149 -0.1690  0.0216
 2708SOL    HW119583   1.282   1.367   1.557  1.2748  0.4203 -0.3311
 2708SOL    HW219584   1.326   1.501   1.543  1.5913 -2.2229  0.7221
 2709SOL     OW19585   2.359   2.150   3.718 -0.1875  0.1865 -0.1846
 2709SOL    HW119586   2.443   2.142   3.763  0.2337 -0.3137 -1.0666
 2709SOL    HW219587   2.357   2.061   3.684  0.7084 -0.2194  0.8400
 2710SOL     OW19588   2.044   2.854   7.379  0.2312 -0.3024  0.6562
 2710SOL    HW119589   2.085   2.875   7.462  0.4364 -1.3435  0.8273
 2710SOL    HW219590   1.975   2.791   7.401  1.3280 -1.5239  0.6538
 2711SOL     OW19591   0.117   3.034   4.970  0.2560  0.0003 -0.0584
 2711SOL    HW119592   0.100   2.965   5.033  1.1290  1.1937  1.4890
 2711SOL    HW219593   0.198   3.066   5.010 -0.9967  2.6885  0.3081
 2712SOL     OW19594   4.104   2.024   2.889  0.4032 -0.4046  0.4161
 2712SOL    HW119595   4.059   1.941   2.873  0.7641 -0.8700  1.8238
 2712SOL    HW219596   4.184   1.993   2.849 -1.1158 -1.1543 -2.0367
 2713SOL     OW19597   0.368   3.151  15.423  0.4197  0.3871 -0.1298
 2713SOL    HW119598   0.391   3.060  15.438 -0.8014  0.3526  1.5618
 2713SOL    HW219599   0.442   3.175  15.368  1.9769 -0.5178  1.6164
 2714SOL     OW19600   4.193   4.204   5.988  0.3977 -0.7246 -0.1652
 2714SOL    HW119601   4.244   4.126   6.009  0.4194 -0.9795 -1.1881
 2714SOL    HW219602   4.192   4.198   5.893  2.6314  0.7902 -0.2814
 2715SOL     OW19603   2.455   0.518  13.175  0.3638 -0.4267 -0.5124
 2715SOL    HW119604   2.498   0.434  13.191  2.0396  0.2392 -1.5360
 2715SOL    HW219605   2.445   0.507  13.080  1.9294  2.9422 -1.0640
 2716SOL     OW19606   0.902   4.634   4.730  0.4542 -0.0101  0.0362
 2716SOL    HW119607   0.932   4.632   4.639 -0.6477 -0.4161 -0.3147
 2716SOL    HW219608   0.820   4.585   4.738  0.1336  0.2377 -1.5563
 2717SOL     OW19609   0.101   0.909  10.339  0.2992 -0.2516 -0.2293
 2717SOL    HW119610   0.135   0.889  10.251 -1.7111 -0.9322 -0.8525
 2717SOL    HW219611   0.023   0.854  10.349 -1.1851  1.7117 -1.1476
 2718SOL     OW19612   3.799   1.325   9.769 -0.3279 -0.4455  0.1545
 2718SOL    HW119613   3.818   1.335   9.676  1.1195  0.4387  0.5474
 2718SOL    HW219614   3.743   1.402   9.778 -0.5070 -0.0660 -4.3335
 2719SOL     OW19615   2.055   1.312   0.425  0.4897 -0.0632 -1.0517
 2719SOL    HW119616   2.114   1.366   0.373 -0.0824  1.5946  0.0295
 2719SOL    HW219617   2.068   1.221   0.400 -2.6690 -0.6421 -0.6386
 2720SOL     OW19618   0.761   3.960  13.789  0.0818 -0.1877 -0.3643
 2720SOL    HW119619   0.803   3.885  13.747  1.5243  0.2517  0.2881
 2720SOL    HW219620   0.830   4.026  13.796  0.2972 -0.6138  1.7287
 2721SOL     OW19621   4.717   3.414  14.284  0.6190  0.3100  0.2707
 2721SOL    HW119622   0.004   3.428  14.190 -1.6223 -0.5566 -0.1889
 2721SOL    HW219623   4.687   3.324  14.281 -0.7766  0.9017 -2.8857
 2722SOL     OW19624   3.351   1.914  11.010  0.0325 -0.3868 -0.5637
 2722SOL    HW119625   3.400   1.994  11.027  0.1876 -0.4095 -0.8934
 2722SOL    HW219626   3.276   1.938  10.955 -0.2119  1.2192  0.4872
 2723SOL     OW19627   3.439   2.834  14.392 -0.2207 -0.0411  0.1709
 2723SOL    HW119628   3.472   2.810  14.305  0.6825 -0.2709  0.5747
 2723SOL    HW219629   3.506   2.790  14.445  0.4544 -0.9370 -1.4136
 2724SOL     OW19630   3.095   3.419   1.219  0.0496  0.1955  0.1274
 2724SOL    HW119631   3.070   3.477   1.291 -2.0494  0.7753 -1.0670
 2724SOL    HW219632   3.035   3.347   1.237 -0.4883  0.5929 -0.0989
 2725SOL     OW19633   2.359   3.864   7.234 -0.1668  0.1323 -0.0799
 2725SOL    HW119634   2.378   3.883   7.142 -0.3991  2.3110  0.3167
 2725SOL    HW219635   2.409   3.784   7.243 -1.3761 -0.4376  1.4927
 2726SOL     OW19636   0.038   2.246   4.010  0.6191 -0.6718  0.3090
 2726SOL    HW119637   4.695   2.306   4.034  0.7062 -0.1587 -0.7279
 2726SOL    HW219638   0.113   2.283   4.057  0.6436 -1.7631  1.1485
 2727SOL     OW19639   2.246   2.563   0.281  0.3575 -0.0527  0.5487
 2727SOL    HW119640   2.340   2.562   0.302  0.2948  0.9297  0.8978
 2727SOL    HW219641   2.232   2.642   0.230  0.1944 -0.9665 -0.8264
 2728SOL     OW19642   3.447   3.346  13.721 -0.2298  0.0222 -0.1250
 2728SOL    HW119643   3.381   3.372  13.786 -0.1936 -0.7140  0.2089
 2728SOL    HW219644   3.512   3.301  13.775  2.0865  1.7473 -1.4829
 2729SOL     OW19645   4.459   1.664   4.396 -0.2026 -0.0931 -0.2920
 2729SOL    HW119646   4.471   1.702   4.484 -0.4930  0.9278 -0.6929
 2729SOL    HW219647   4.550   1.638   4.381  0.0079 -0.2609  1.2711
 2730SOL     OW19648   2.675   1.384  17.074 -0.1481  0.4652  0.0210
 2730SOL    HW119649   2.756   1.334  17.081  0.0442  0.8453  0.5262
 2730SOL    HW219650   2.689   1.439  16.997 -1.0058 -2.4903 -2.2493
 2731SOL     OW19651   2.817   2.230   5.931 -0.5107 -0.1188  0.3809
 2731SOL    HW119652   2.898   2.215   5.979 -0.8637  0.2711  1.1015
 2731SOL    HW219653   2.827   2.158   5.869 -1.3439  2.2531 -2.5208
 2732SOL     OW19654   4.410   3.272  11.845  0.4616  0.0636 -0.3902
 2732SOL    HW119655   4.327   3.305  11.879  1.0909 -0.5282  1.7502
 2732SOL    HW219656   4.379   3.182  11.832  1.1406 -0.7001  3.0051
 2733SOL     OW19657   3.381   1.217   3.904 -0.3924 -0.4281  0.1213
 2733SOL    HW119658   3.301   1.258   3.871  0.6623  0.0721 -1.8382
 2733SOL    HW219659   3.381   1.126   3.874  2.9520 -0.2613 -0.3268
 2734SOL     OW19660   4.256   0.593   9.060  0.1891 -0.1807 -0.4538
 2734SOL    HW119661   4.328   0.543   9.099  0.4330 -0.2482 -0.9940
 2734SOL    HW219662   4.274   0.668   9.116 -1.1169 -0.2423  0.0433
 2735SOL     OW19663   3.194   3.369   7.912 -0.0459 -0.3684 -0.5321
 2735SOL    HW119664   3.245   3.430   7.858 -0.3103  0.8142  0.5478
 2735SOL    HW219665   3.179   3.426   7.988  0.1070 -0.1017 -0.7013
 2736SOL     OW19666   1.460   4.193  10.125 -0.5252 -0.4404 -0.3821
 2736SOL    HW119667   1.519   4.153  10.189 -0.9660 -0.0259  0.2855
 2736SOL    HW219668   1.510   4.211  10.045  2.7650  0.4431  1.8539
 2737SOL     OW19669   4.521   2.266  15.512  0.2631 -1.1838  0.3989
 2737SOL    HW119670   4.473   2.193  15.474 -1.2225  0.2613 -0.5088
 2737SOL    HW219671   4.601   2.256  15.460  1.4758 -0.4913  2.1261
 2738SOL     OW19672   1.720   2.642   8.741  0.2823 -0.1868 -0.7809
 2738SOL    HW119673   1.763   2.560   8.767  1.1609  0.3487 -0.5373
 2738SOL    HW219674   1.652   2.644   8.808 -0.4633 -0.5347 -1.5238
 2739SOL     OW19675   1.537   4.393   6.088  0.6149  0.1285 -0.0233
 2739SOL    HW119676   1.614   4.448   6.075 -0.0962  1.1032 -0.1392
 2739SOL    HW219677   1.532   4.377   6.182  3.5475  0.2065  0.1379
 2740SOL     OW19678   2.303   0.912   6.549  0.8839 -0.3227  0.2174
 2740SOL    HW119679   2.270   0.863   6.474  4.2278  0.6350 -1.8676
 2740SOL    HW219680   2.252   0.877   6.622 -0.9264 -0.4493 -1.1159
 2741SOL     OW19681   1.204   1.211   4.476  0.3827 -0.2894 -0.5343
 2741SOL    HW119682   1.212   1.223   4.571 -0.7687 -1.8923 -0.2084
 2741SOL    HW219683   1.285   1.257   4.457  0.9921 -0.2124  2.2023
 2742SOL     OW19684   3.455   2.080   9.485 -0.2286  0.1031  0.1264
 2742SOL    HW119685   3.533   2.025   9.479 -1.6679 -1.8358 -0.8434
 2742SOL    HW219686   3.389   2.020   9.519  0.2292  0.6484  2.0024
 2743SOL     OW19687   4.212   2.501   7.584  0.3671  0.4919  0.2056
 2743SOL    HW119688   4.193   2.568   7.651  1.3443  0.7524  0.2188
 2743SOL    HW219689   4.128   2.495   7.538 -0.2696  0.9849  1.2936
 2744SOL     OW19690   2.264   0.432   3.070 -1.2830 -0.2974 -0.2747
 2744SOL    HW119691   2.255   0.458   3.161 -1.8583 -0.4864 -0.2756
 2744SOL    HW219692   2.247   0.337   3.074  0.9619 -0.7044 -0.5859
 2745SOL     OW19693   0.828   0.800   3.756 -0.0977 -0.2190 -0.1226
 2745SOL    HW119694   0.738   0.785   3.728 -0.8379 -0.0857  2.2127
 2745SOL    HW219695   0.869   0.728   3.709  1.1136  0.4213 -0.0387
 2746SOL     OW19696   1.666   3.414   7.289  0.1856 -0.6413  0.1365
 2746SOL    HW119697   1.655   3.499   7.332  1.8628  1.0531 -2.7757
 2746SOL    HW219698   1.655   3.446   7.200  2.3072  0.2550  0.2031
 2747SOL     OW19699   2.619   1.501   3.418  0.5904 -0.0451  0.7939
 2747SOL    HW119700   2.701   1.455   3.432  0.8122 -0.4364 -1.6750
 2747SOL    HW219701   2.650   1.573   3.472  1.0650  1.2397 -1.2024
 2748SOL     OW19702   1.670   0.049   8.789 -0.0512 -0.0052 -0.1469
 2748SOL    HW119703   1.628   0.074   8.707  4.0814 -0.6105 -2.4081
 2748SOL    HW219704   1.749   0.102   8.801 -1.4103  2.2002 -0.9791
 2749SOL     OW19705   2.815   1.719   4.934 -0.5126 -0.2891 -0.6980
 2749SOL    HW119706   2.861   1.704   5.017  0.8964 -0.7886 -1.5828
 2749SOL    HW219707   2.851   1.644   4.887  0.4308 -0.0222 -0.4104
 2750SOL     OW19708   2.647   0.729   6.988 -0.3262  0.4146 -0.0843
 2750SOL    HW119709   2.562   0.715   6.947 -0.5165 -0.5547  0.6536
 2750SOL    HW219710   2.700   0.731   6.908  0.6339 -0.9432  0.5322
 2751SOL     OW19711   1.555   3.542   8.562  0.1044 -0.5480  0.5294
 2751SOL    HW119712   1.621   3.475   8.578  1.7362  1.0985  0.5769
 2751SOL    HW219713   1.514   3.536   8.649 -1.7012  1.0429 -0.1959
 2752SOL     OW19714   2.672   1.915   5.976  0.6082 -0.2149 -0.7863
 2752SOL    HW119715   2.595   1.865   6.005  0.1897  0.2555 -1.0897
 2752SOL    HW219716   2.636   1.970   5.907  3.3980 -0.4207 -2.3872
 2753SOL     OW19717   0.583   4.344  12.512  0.0159  0.1526  0.3575
 2753SOL    HW119718   0.488   4.352  12.517 -0.0574 -0.2496 -0.3026
 2753SOL    HW219719   0.626   4.418  12.556  1.9976 -0.6763 -0.1603
 2754SOL     OW19720   0.710   3.513  15.256  0.3348  0.4533  0.0359
 2754SOL    HW119721   0.627   3.560  15.259 -0.4629 -1.0907  1.6010
 2754SOL    HW219722   0.690   3.439  15.198 -0.2931  1.6275 -1.2586
 2755SOL     OW19723   2.092   2.504   8.063  0.1649  0.1307  0.2584
 2755SOL    HW119724   2.115   2.436   8.000  2.2817 -1.7003  2.9698
 2755SOL    HW219725   2.004   2.531   8.037  0.4437  1.0383  0.2460
 2756SOL     OW19726   2.464   0.674   9.108  0.5862  0.6361  0.0949
 2756SOL    HW119727   2.434   0.602   9.163  1.7301  0.1752  0.1187
 2756SOL    HW219728   2.539   0.706   9.157  1.5181  1.2821 -1.7482
 2757SOL     OW19729   2.897   3.973   6.499  0.3419  0.3210 -0.3214
 2757SOL    HW119730   2.906   3.879   6.515 -0.4806 -0.0491 -2.0659
 2757SOL    HW219731   2.869   3.979   6.408 -2.1358 -1.4931  0.3298
 2758SOL     OW19732   1.278   4.102   3.638  0.7443  0.5269 -0.0087
 2758SOL    HW119733   1.228   4.183   3.636 -0.0511  0.0809  2.0225
 2758SOL    HW219734   1.208   4.043   3.667  2.1114 -1.5980 -0.9883
 2759SOL     OW19735   3.846   1.164  11.765  0.5463  0.0918 -0.1249
 2759SOL    HW119736   3.842   1.084  11.818 -0.6686 -1.4340 -2.5523
 2759SOL    HW219737   3.763   1.153  11.719  0.4056  0.3297  0.0726
 2760SOL     OW19738   0.570   1.167  16.075  0.5739  0.4937 -0.0777
 2760SOL    HW119739   0.562   1.204  15.987  1.9053  0.2072 -0.3232
 2760SOL    HW219740   0.479   1.181  16.100 -0.4492 -3.0310 -1.7709
 2761SOL     OW19741   1.337   0.020  14.031  0.8925 -0.0107 -0.3895
 2761SOL    HW119742   1.367   0.111  14.043 -2.2026  0.8071  1.1895
 2761SOL    HW219743   1.275   0.038  13.961  1.0989  0.3344 -0.4854
 2762SOL     OW19744   3.286   1.977   2.458  0.1977  0.2023  0.1835
 2762SOL    HW119745   3.367   1.991   2.508  0.7626 -2.8195  0.0830
 2762SOL    HW219746   3.277   2.066   2.424 -0.4122  0.5548  1.2803
 2763SOL     OW19747   2.670   1.896   2.093  0.0327  0.1190  0.4253
 2763SOL    HW119748   2.603   1.827   2.086 -1.5992  1.6283  1.1248
 2763SOL    HW219749   2.755   1.854   2.103  1.4030  3.1793  1.4666
 2764SOL     OW19750   0.682   2.547   8.455 -0.0424  0.4384  0.3915
 2764SOL    HW119751   0.675   2.545   8.551 -2.4216  1.6200  0.2477
 2764SOL    HW219752   0.605   2.600   8.434  0.0807  0.4006 -0.1541
 2765SOL     OW19753   3.554   4.513   5.657 -0.2890  0.1851 -0.5317
 2765SOL    HW119754   3.539   4.598   5.697 -2.1940 -0.3173 -0.1516
 2765SOL    HW219755   3.605   4.536   5.580 -3.8669  2.1626 -2.3188
 2766SOL     OW19756   0.644   2.460   7.580 -0.4062 -0.5909 -0.1521
 2766SOL    HW119757   0.724   2.462   7.631 -0.4136  0.3946 -0.1853
 2766SOL    HW219758   0.604   2.377   7.607  1.9618 -1.2639  1.2751
 2767SOL     OW19759   1.237   1.892  13.997 -0.1618 -0.1582 -0.0223
 2767SOL    HW119760   1.326   1.858  13.986  0.1971  0.9026 -0.4494
 2767SOL    HW219761   1.178   1.818  13.988 -0.0255 -0.0238 -1.9229
 2768SOL     OW19762   0.788   0.285   2.447 -0.0091 -0.3602 -0.0921
 2768SOL    HW119763   0.693   0.293   2.439 -0.0835  0.3812  1.7544
 2768SOL    HW219764   0.806   0.329   2.364 -0.1703  0.0271  0.0770
 2769SOL     OW19765   2.157   2.816   8.613  0.0148  0.2285  0.0311
 2769SOL    HW119766   2.216   2.872   8.664  0.6520  1.2093 -1.7861
 2769SOL    HW219767   2.227   2.793   8.551  1.3884  2.5956  0.7191
 2770SOL     OW19768   3.972   2.221  11.096  0.2786 -0.4243 -0.1744
 2770SOL    HW119769   4.018   2.281  11.154 -1.2427  1.3039 -0.7452
 2770SOL    HW219770   3.888   2.265  11.079  1.3353  1.5242 -0.2885
 2771SOL     OW19771   4.679   0.685   2.550  0.0627 -0.3284 -0.3347
 2771SOL    HW119772   4.611   0.731   2.598  1.2356  0.4469  0.5840
 2771SOL    HW219773   4.687   0.606   2.604 -1.7935 -0.4007 -0.1681
 2772SOL     OW19774   0.208   3.696   6.232 -0.0333  0.1543  0.1674
 2772SOL    HW119775   0.263   3.717   6.307 -0.2664 -0.9646  0.6592
 2772SOL    HW219776   0.253   3.620   6.195 -1.5219 -0.4567 -0.3838
 2773SOL     OW19777   4.506   1.233  13.021  0.2566  0.6677 -0.1029
 2773SOL    HW119778   4.449   1.190  13.085  2.1450 -2.2499 -0.3475
 2773SOL    HW219779   4.590   1.190  13.038  0.7519  2.4872  1.9917
 2774SOL     OW19780   3.550   4.368   2.907  0.2103 -0.8230 -0.2815
 2774SOL    HW119781   3.592   4.284   2.890  1.6757  0.2816 -2.1942
 2774SOL    HW219782   3.466   4.341   2.944 -0.8838  0.9549 -1.4738
 2775SOL     OW19783   0.947   1.760  10.333 -0.1198 -0.1029 -0.1138
 2775SOL    HW119784   0.980   1.828  10.274  1.4698 -1.2187 -0.5172
 2775SOL    HW219785   0.938   1.688  10.269 -1.0425  0.6569 -0.8283
 2776SOL     OW19786   0.771   3.422  14.491  0.9151 -0.5331 -0.0937
 2776SOL    HW119787   0.837   3.386  14.550  0.9414  0.1540  0.2972
 2776SOL    HW219788   0.743   3.497  14.543  1.9271 -0.4660  0.3608
 2777SOL     OW19789   3.477   2.573   7.689  0.2417 -0.6058 -0.0041
 2777SOL    HW119790   3.485   2.631   7.765 -1.2970  0.7058 -0.8378
 2777SOL    HW219791   3.499   2.627   7.613  2.8676 -0.1110  1.1229
 2778SOL     OW19792   2.604   2.714  12.907  0.3501 -0.0164 -0.1728
 2778SOL    HW119793   2.518   2.702  12.947  1.4652 -1.9746  1.6726
 2778SOL    HW219794   2.601   2.785  12.843 -0.2245  0.6089  0.5463
 2779SOL     OW19795   3.039   0.151   7.943 -0.6143  1.0687 -0.5569
 2779SOL    HW119796   3.121   0.132   7.988 -0.4211 -0.2747 -1.4900
 2779SOL    HW219797   3.023   0.243   7.964  0.3277  1.4084 -1.3200
 2780SOL     OW19798   0.822   4.528   2.978 -0.0543  0.6546  0.0753
 2780SOL    HW119799   0.757   4.580   3.026 -1.3815 -0.8198 -0.1302
 2780SOL    HW219800   0.850   4.593   2.914  0.3438  1.4148  1.0241
 2781SOL     OW19801   4.193   4.165  17.427  0.0942  0.3879 -0.1568
 2781SOL    HW119802   4.182   4.108  17.351  0.7432 -0.6474  0.5383
 2781SOL    HW219803   4.102   4.188  17.447  0.0423 -0.6862  0.8102
 2782SOL     OW19804   4.677   2.212  13.612 -0.4261 -0.6405  0.1908
 2782SOL    HW119805   4.712   2.176  13.694  0.0986  0.2110  0.3454
 2782SOL    HW219806   0.019   2.192  13.548 -0.1841  0.8073  0.0186
 2783SOL     OW19807   1.261   1.952   4.624 -0.0389 -0.4747 -0.2186
 2783SOL    HW119808   1.292   1.956   4.714  0.9561 -0.9842 -0.5375
 2783SOL    HW219809   1.337   1.991   4.579  1.5618 -1.2266  1.8373
 2784SOL     OW19810   4.154   0.302  15.887 -0.5831 -0.3447 -0.4114
 2784SOL    HW119811   4.246   0.278  15.896 -0.6631 -0.9753 -1.3024
 2784SOL    HW219812   4.149   0.397  15.901  0.8055  0.1103 -3.1794
 2785SOL     OW19813   2.708   0.863  16.239 -0.3214 -0.4769  0.2908
 2785SOL    HW119814   2.761   0.784  16.253  0.6634 -0.2640 -2.1907
 2785SOL    HW219815   2.624   0.822  16.219 -0.8426  2.2048 -3.1930
 2786SOL     OW19816   0.602   0.243   9.864 -0.0331 -0.0949 -0.0510
 2786SOL    HW119817   0.510   0.262   9.882  0.1319 -0.5430  1.3011
 2786SOL    HW219818   0.637   0.257   9.952  1.6794 -0.9348 -0.6052
 2787SOL     OW19819   3.669   1.502  14.752  0.0041  0.0528  0.0504
 2787SOL    HW119820   3.694   1.500  14.845 -0.1742 -1.2272  0.0695
 2787SOL    HW219821   3.717   1.580  14.723  0.1099 -1.5985 -4.1883
 2788SOL     OW19822   2.742   2.786   1.617  0.0907 -0.6064  0.0506
 2788SOL    HW119823   2.778   2.858   1.564 -0.5108 -2.1753 -2.4939
 2788SOL    HW219824   2.815   2.724   1.619  0.9612  0.3770 -0.9294
 2789SOL     OW19825   1.243   2.492   9.523 -0.2514  0.4081  0.9188
 2789SOL    HW119826   1.264   2.408   9.563 -0.1329  0.1465  0.3049
 2789SOL    HW219827   1.322   2.516   9.474 -0.3960 -0.5667  0.2158
 2790SOL     OW19828   2.217   1.401  16.994  0.2044 -0.1334  0.3187
 2790SOL    HW119829   2.148   1.380  17.057  1.5321  0.4146  1.9530
 2790SOL    HW219830   2.229   1.496  17.006 -1.0274 -0.2832  2.8336
 2791SOL     OW19831   3.978   0.079   4.171 -0.0558  0.2427 -0.4665
 2791SOL    HW119832   3.962   0.144   4.103  0.6544  1.4252  0.4897
 2791SOL    HW219833   4.055   0.118   4.213  0.1143  0.2400 -0.7784
 2792SOL     OW19834   3.640   4.294  14.051  0.8395  0.3316  0.0792
 2792SOL    HW119835   3.701   4.294  13.977  2.0730  1.2196  1.1013
 2792SOL    HW219836   3.597   4.211  14.028 -0.9911  0.7144  2.0677
 2793SOL     OW19837   3.004   3.722   6.789  0.9126  0.2776  0.1914
 2793SOL    HW119838   3.032   3.813   6.795  1.4890  0.0403  1.0782
 2793SOL    HW219839   3.044   3.690   6.870  0.4111  0.7793  0.6374
 2794SOL     OW19840   3.727   3.494   5.043 -0.2579 -0.2089  0.1625
 2794SOL    HW119841   3.674   3.414   5.048  1.7488 -1.4832  0.9579
 2794SOL    HW219842   3.675   3.551   5.098  1.3067  1.3805 -0.0227
 2795SOL     OW19843   4.405   3.247   4.695  0.0025  0.4451  0.0130
 2795SOL    HW119844   4.338   3.268   4.760 -0.8035 -3.2517  0.3900
 2795SOL    HW219845   4.483   3.271   4.745  1.4385 -1.4947 -1.3114
 2796SOL     OW19846   1.285   4.698   0.544 -0.5181 -0.1834  0.2957
 2796SOL    HW119847   1.270   0.063   0.563  0.6120  0.0020  0.3406
 2796SOL    HW219848   1.266   4.692   0.451 -0.3741  1.8753  0.1303
 2797SOL     OW19849   2.110   4.402  12.855  0.4007 -0.2805  0.1797
 2797SOL    HW119850   2.089   4.471  12.792  1.0224 -0.7902 -0.5874
 2797SOL    HW219851   2.069   4.444  12.931 -0.3000 -2.2168  0.8789
 2798SOL     OW19852   0.212   3.804   0.948  0.3115 -0.1602  0.3690
 2798SOL    HW119853   0.269   3.809   0.870  1.0618  3.7362  1.1414
 2798SOL    HW219854   0.130   3.787   0.902 -0.2692 -0.4053  1.5170
 2799SOL     OW19855   1.554   2.633   4.522  0.3707 -0.2620  0.2701
 2799SOL    HW119856   1.581   2.688   4.449 -0.3053 -1.1268 -0.6346
 2799SOL    HW219857   1.466   2.615   4.489  0.8434 -2.4437  0.2037
 2800SOL     OW19858   0.081   2.454  10.960  0.0310 -0.5561  0.2442
 2800SOL    HW119859   0.138   2.512  11.010 -0.2220  0.5199 -0.7145
 2800SOL    HW219860   0.013   2.517  10.936  1.3225  0.8510  0.2911
 2801SOL     OW19861   1.757   1.604   4.550  0.1729  0.6165 -1.0217
 2801SOL    HW119862   1.803   1.527   4.518  1.1646 -0.4188  2.9064
 2801SOL    HW219863   1.771   1.593   4.644 -0.2768  0.1016 -1.0202
 2802SOL     OW19864   3.365   3.050   8.591  0.4562 -0.3373  0.6292
 2802SOL    HW119865   3.363   3.132   8.639  1.4180  0.7696 -1.2271
 2802SOL    HW219866   3.278   3.042   8.552  1.2112 -0.3377 -1.0789
 2803SOL     OW19867   2.201   4.381   4.748 -0.2874  0.0787  0.1612
 2803SOL    HW119868   2.126   4.322   4.739  1.9371 -2.3564 -2.3522
 2803SOL    HW219869   2.233   4.362   4.836  0.6022 -0.7473 -0.3455
 2804SOL     OW19870   1.580   0.905   7.051  0.4547  0.1776  0.2047
 2804SOL    HW119871   1.600   0.838   7.116  3.9213 -0.4876 -1.5676
 2804SOL    HW219872   1.640   0.978   7.064  0.8959 -0.4801  1.8260
 2805SOL     OW19873   2.279   2.468   4.946  0.1542  0.0834 -0.0348
 2805SOL    HW119874   2.240   2.486   5.032  0.0161 -0.5144  0.0336
 2805SOL    HW219875   2.358   2.519   4.963 -0.3394  1.0399 -0.6362
 2806SOL     OW19876   4.347   0.730  17.330  0.0955  0.2962  0.3018
 2806SOL    HW119877   4.348   0.634  17.333 -1.6268  0.2625  0.2404
 2806SOL    HW219878   4.368   0.753  17.420  2.3872  0.5939 -0.3170
 2807SOL     OW19879   1.322   2.845  16.000 -0.0370  0.2032  0.3921
 2807SOL    HW119880   1.365   2.863  15.916  4.0192 -3.5051  1.6738
 2807SOL    HW219881   1.317   2.750  16.000  1.3741  0.1189  1.5265
 2808SOL     OW19882   0.070   3.570   3.274  0.3747  1.1189 -0.3273
 2808SOL    HW119883   0.064   3.619   3.356  2.9674  1.1897 -0.1843
 2808SOL    HW219884   0.037   3.636   3.213 -0.4979  2.5025  1.6402
 2809SOL     OW19885   0.906   3.526   1.786  0.2189 -0.2405  0.0154
 2809SOL    HW119886   0.826   3.482   1.759  0.5496 -1.0948  0.4393
 2809SOL    HW219887   0.914   3.495   1.876  0.4337 -0.3527 -0.0425
 2810SOL     OW19888   3.376   4.328   0.947 -0.0712 -0.2911 -0.2187
 2810SOL    HW119889   3.401   4.236   0.936 -2.7456 -0.9316 -0.9782
 2810SOL    HW219890   3.460   4.370   0.929  0.1448 -0.0324  1.4159
 2811SOL     OW19891   2.042   3.896   8.191  0.0391  0.2000  0.3336
 2811SOL    HW119892   2.067   3.968   8.132  0.5918  0.4389  0.8622
 2811SOL    HW219893   1.970   3.944   8.233  0.8978  1.1133  0.7685
 2812SOL     OW19894   2.289   2.964   8.146  0.0091 -0.2099  0.0625
 2812SOL    HW119895   2.328   2.877   8.150  0.1220 -0.1178  1.0397
 2812SOL    HW219896   2.208   2.957   8.198 -0.2900  0.0881 -0.3600
 2813SOL     OW19897   0.166   0.629   4.223  0.0698  0.5372 -0.0362
 2813SOL    HW119898   0.204   0.666   4.303 -2.6835  1.4207  0.8690
 2813SOL    HW219899   0.153   0.536   4.239 -0.2488  0.3915 -1.1079
 2814SOL     OW19900   1.012   3.052   9.048  0.1389  0.6793  0.2260
 2814SOL    HW119901   1.007   3.049   8.953  1.4745 -0.6177  0.1877
 2814SOL    HW219902   1.106   3.057   9.062  0.6352  0.4689 -3.1794
 2815SOL     OW19903   2.449   1.446   6.843 -0.6335 -0.0850  0.4655
 2815SOL    HW119904   2.469   1.504   6.916  1.0940 -0.2884  0.1377
 2815SOL    HW219905   2.451   1.362   6.890  3.2707  0.4766  1.3086
 2816SOL     OW19906   2.566   2.155   0.363 -0.2808 -0.1245 -0.1410
 2816SOL    HW119907   2.610   2.072   0.346  0.8073 -0.3147  3.6713
 2816SOL    HW219908   2.500   2.152   0.294  0.3958  0.8447 -0.8398
 2817SOL     OW19909   2.964   0.411   8.476  0.0675  0.0727  0.3349
 2817SOL    HW119910   3.033   0.442   8.535  0.7772  0.1655 -0.5361
 2817SOL    HW219911   2.890   0.456   8.516  1.6164  1.8792  1.2101
 2818SOL     OW19912   4.372   4.335   3.755 -0.7468 -0.5529  0.0061
 2818SOL    HW119913   4.340   4.260   3.703 -0.0091 -0.7013 -0.2438
 2818SOL    HW219914   4.360   4.406   3.691  0.8066 -0.6771 -0.4325
 2819SOL     OW19915   2.823   3.042  10.694  0.0310 -0.6146 -0.0797
 2819SOL    HW119916   2.743   3.094  10.696  2.0322  2.3182  1.9513
 2819SOL    HW219917   2.793   2.960  10.655 -1.0505 -0.9671  1.5094
 2820SOL     OW19918   3.049   3.876   3.285 -0.2712 -0.6353 -0.3003
 2820SOL    HW119919   3.039   3.895   3.378 -0.8568  1.2287 -0.7446
 2820SOL    HW219920   2.983   3.809   3.269  1.1844 -1.7192 -1.7397
 2821SOL     OW19921   1.587   4.406   2.944  1.1540  0.0016 -0.5557
 2821SOL    HW119922   1.595   4.314   2.919 -0.2744 -0.5151  0.8924
 2821SOL    HW219923   1.545   4.384   3.027  1.4294 -0.5260 -0.5588
 2822SOL     OW19924   0.896   1.540   6.250 -0.0118  0.1231 -0.0951
 2822SOL    HW119925   0.958   1.612   6.258 -0.6678  0.5614  0.9922
 2822SOL    HW219926   0.955   1.464   6.259  1.1208  1.1714  1.3324
 2823SOL     OW19927   4.049   0.607   6.890 -0.1297  0.4391 -0.2538
 2823SOL    HW119928   4.021   0.699   6.896 -1.2012  0.0858  0.1434
 2823SOL    HW219929   3.965   0.565   6.909 -0.2282 -0.3408 -2.3993
 2824SOL     OW19930   2.944   4.440   6.047 -0.0145 -0.2094  0.0562
 2824SOL    HW119931   2.997   4.360   6.058  1.3377  0.4344 -1.7239
 2824SOL    HW219932   2.942   4.450   5.951  0.4969  1.8847  0.2597
 2825SOL     OW19933   1.895   1.175  10.375 -0.0584  0.0264  0.3212
 2825SOL    HW119934   1.820   1.187  10.434 -1.2722 -1.0687 -0.9910
 2825SOL    HW219935   1.902   1.081  10.396 -0.0111 -0.0727 -0.1304
 2826SOL     OW19936   0.107   1.224   3.158  0.1804 -0.3004 -0.5018
 2826SOL    HW119937   0.123   1.223   3.252  1.3385 -1.2893 -0.7075
 2826SOL    HW219938   0.012   1.213   3.152 -0.0450  1.2515  0.2200
 2827SOL     OW19939   1.518   0.391   2.871  0.2733  0.3402 -0.0474
 2827SOL    HW119940   1.444   0.451   2.864 -1.5009 -1.8649 -0.1007
 2827SOL    HW219941   1.482   0.315   2.916 -0.1922 -0.1044 -1.1660
 2828SOL     OW19942   1.445   4.032  10.401  0.1277 -0.4080 -0.1124
 2828SOL    HW119943   1.362   3.986  10.384 -0.1013  0.5600 -1.5765
 2828SOL    HW219944   1.431   4.034  10.496  0.5353 -1.0771 -0.0429
 2829SOL     OW19945   3.675   2.670   9.732 -0.6619 -0.5317 -0.5827
 2829SOL    HW119946   3.706   2.603   9.671 -1.1440 -0.4228 -0.9455
 2829SOL    HW219947   3.626   2.729   9.674  2.8399  3.2767  0.3618
 2830SOL     OW19948   3.931   3.241   7.175 -0.7779 -0.2763 -0.8043
 2830SOL    HW119949   3.924   3.334   7.197 -0.6411 -0.5861  0.5085
 2830SOL    HW219950   3.860   3.210   7.231 -0.2410 -0.1026 -0.0272
 2831SOL     OW19951   2.502   1.628   8.587  0.0357  0.3190  0.4960
 2831SOL    HW119952   2.565   1.610   8.657 -0.1262 -2.2975 -0.0399
 2831SOL    HW219953   2.426   1.578   8.615 -1.6433  1.8155 -1.3811
 2832SOL     OW19954   3.327   0.194   8.993 -0.1735  0.6141 -0.0227
 2832SOL    HW119955   3.274   0.129   9.039 -0.0206 -0.5997 -1.5374
 2832SOL    HW219956   3.283   0.181   8.909  1.0868 -0.5620 -0.5103
 2833SOL     OW19957   4.293   2.350   0.872 -0.1530 -0.1854 -0.2216
 2833SOL    HW119958   4.361   2.411   0.844  0.2809  0.5958  2.4969
 2833SOL    HW219959   4.246   2.328   0.792  1.2246 -2.1587 -0.4849
 2834SOL     OW19960   1.695   4.202   7.418 -0.1897 -0.1580  0.2290
 2834SOL    HW119961   1.710   4.175   7.327  2.8002 -0.4476  0.8045
 2834SOL    HW219962   1.712   4.122   7.467 -0.4892 -0.4375 -0.1231
 2835SOL     OW19963   3.792   1.111   7.054  0.1862  0.0173 -0.0219
 2835SOL    HW119964   3.724   1.178   7.051  0.0642 -0.0594  0.8938
 2835SOL    HW219965   3.814   1.105   7.147 -3.0790  3.6861  0.9918
 2836SOL     OW19966   1.805   4.033   5.362  0.1618 -0.2053 -0.2532
 2836SOL    HW119967   1.827   3.942   5.340  0.2791 -0.4990  1.0733
 2836SOL    HW219968   1.729   4.051   5.308  0.8388  2.9815 -0.1219
 2837SOL     OW19969   1.143   4.191   9.175 -0.3727 -0.2522  0.1365
 2837SOL    HW119970   1.065   4.143   9.146  1.2134 -1.8691 -1.4657
 2837SOL    HW219971   1.201   4.161   9.104 -2.5005 -2.2327 -0.7617
 2838SOL     OW19972   2.634   2.448   0.789 -0.2240  0.2869  0.1646
 2838SOL    HW119973   2.699   2.448   0.718  1.0090 -0.4228  1.2864
 2838SOL    HW219974   2.580   2.518   0.754 -0.3092 -0.2668 -0.8331
 2839SOL     OW19975   4.534   2.013   3.609 -0.2036  0.0675 -0.1742
 2839SOL    HW119976   4.612   2.028   3.662  1.8144 -0.3852 -2.9763
 2839SOL    HW219977   4.468   2.045   3.670 -0.7080 -0.3442 -0.5069
 2840SOL     OW19978   1.481   0.780  10.203 -0.3383  0.1977  0.3808
 2840SOL    HW119979   1.516   0.758  10.116 -0.4302 -0.6644  0.5589
 2840SOL    HW219980   1.388   0.760  10.190 -0.4557 -0.1134  1.7247
 2841SOL     OW19981   0.785   1.843   5.345  0.4342 -0.1687 -0.5786
 2841SOL    HW119982   0.720   1.783   5.381 -0.3892  1.2327  0.2721
 2841SOL    HW219983   0.800   1.803   5.260  3.0729  0.4925 -0.4254
 2842SOL     OW19984   1.975   1.375   0.675  0.5178  0.3580  0.6259
 2842SOL    HW119985   2.011   1.374   0.586  0.0128 -0.4346  0.4380
 2842SOL    HW219986   2.037   1.307   0.700 -3.3122 -4.1113 -2.2023
 2843SOL     OW19987   3.119   4.273   0.452 -0.1853  0.4470  0.2164
 2843SOL    HW119988   3.084   4.184   0.453 -1.2568  0.8400 -1.2797
 2843SOL    HW219989   3.213   4.260   0.458 -0.4118 -1.2371  0.1493
 2844SOL     OW19990   4.181   2.207  14.882  0.3193  0.5572  0.5355
 2844SOL    HW119991   4.115   2.153  14.839  0.3254  2.3041 -1.6486
 2844SOL    HW219992   4.264   2.203  14.833  0.2704  1.3260  0.3818
 2845SOL     OW19993   1.085   3.901   3.721 -0.2044  0.1932  0.1324
 2845SOL    HW119994   1.037   3.887   3.639 -0.2660 -1.5216  0.4585
 2845SOL    HW219995   1.018   3.914   3.788 -0.1013 -1.7266  0.6111
 2846SOL     OW19996   3.040   4.021   0.442  0.0373 -0.2994 -0.3893
 2846SOL    HW119997   3.041   3.962   0.517  0.1170  1.3895  0.9387
 2846SOL    HW219998   2.956   4.058   0.471  0.2012  0.6625 -1.1302
 2847SOL     OW19999   0.452   2.533   2.994 -0.3244  0.0148  0.0097
 2847SOL    HW120000   0.408   2.603   2.945  3.5797  0.3728 -2.9276
 2847SOL    HW220001   0.466   2.479   2.917 -0.7624 -0.0835 -0.0004
 2848SOL     OW20002   2.263   3.240   5.477  0.4090  0.1389 -0.2123
 2848SOL    HW120003   2.192   3.185   5.447 -0.8773  1.0717  1.1093
 2848SOL    HW220004   2.271   3.296   5.400  0.0493  2.0064  1.1120
 2849SOL     OW20005   0.881   0.931   7.033 -0.0967  0.2590 -0.1359
 2849SOL    HW120006   0.946   1.000   7.043  0.2607 -0.1245  0.1787
 2849SOL    HW220007   0.818   0.988   6.989 -0.3986  1.5065  1.9268
 2850SOL     OW20008   3.314   3.727   3.362 -0.1820 -0.0636 -0.4142
 2850SOL    HW120009   3.226   3.763   3.375 -0.5788 -1.7164  1.5563
 2850SOL    HW220010   3.297   3.657   3.300  1.0031 -0.7824  0.0722
 2851SOL     OW20011   2.768   0.914  10.939 -0.2738 -0.2385 -0.3135
 2851SOL    HW120012   2.757   0.910  11.034  2.0843 -0.8365 -0.0611
 2851SOL    HW220013   2.844   0.972  10.930 -1.7150  1.6158 -0.4681
 2852SOL     OW20014   4.013   2.413   5.509  0.4095 -0.0532 -0.3956
 2852SOL    HW120015   4.104   2.427   5.482 -0.1772 -0.7322 -2.6778
 2852SOL    HW220016   4.011   2.429   5.604  1.9561 -0.5513 -0.2727
 2853SOL     OW20017   3.136   3.490   8.157  0.0112 -0.6402 -0.4397
 2853SOL    HW120018   3.186   3.571   8.153 -3.4804  1.5007 -0.7862
 2853SOL    HW220019   3.085   3.506   8.236 -0.6121  0.0972 -0.9870
 2854SOL     OW20020   1.801   2.078  12.814  0.0780  0.1841 -0.0636
 2854SOL    HW120021   1.861   2.130  12.759  1.1453 -0.0586  0.8595
 2854SOL    HW220022   1.857   2.000  12.818  0.9462  0.8189  0.2793
 2855SOL     OW20023   4.439   2.770   0.902  0.4495  0.1909 -0.0104
 2855SOL    HW120024   4.399   2.854   0.882 -1.6601 -0.8554 -0.2667
 2855SOL    HW220025   4.514   2.796   0.956  1.6652  1.0026 -2.0981
 2856SOL     OW20026   1.945   2.388   4.903  0.0339 -0.4350 -0.6852
 2856SOL    HW120027   2.000   2.313   4.924 -1.0392 -0.2338  2.7827
 2856SOL    HW220028   1.983   2.432   4.827  1.5211 -2.7038 -1.2597
 2857SOL     OW20029   0.696   2.675  10.784 -0.1908 -0.3874 -0.1303
 2857SOL    HW120030   0.775   2.658  10.733 -0.2332 -1.3256  0.1098
 2857SOL    HW220031   0.737   2.730  10.850  1.3891 -0.7160 -0.8495
 2858SOL     OW20032   4.582   1.286   7.582  0.1252  0.1091  0.3731
 2858SOL    HW120033   4.658   1.255   7.534  0.7373  0.9990  0.7658
 2858SOL    HW220034   4.564   1.210   7.638  0.2628  1.1594  1.8425
 2859SOL     OW20035   3.258   0.937   4.723 -1.0663  0.5775  0.3330
 2859SOL    HW120036   3.265   1.031   4.707  0.4958  0.5491  0.9017
 2859SOL    HW220037   3.329   0.912   4.665 -1.0858  0.5992  0.2992
 2860SOL     OW20038   2.337   0.454  15.104  0.2618  0.5683  0.0715
 2860SOL    HW120039   2.357   0.362  15.120 -2.3742  0.2000  1.3429
 2860SOL    HW220040   2.319   0.484  15.193 -0.4229 -2.5282  0.9661
 2861SOL     OW20041   2.874   1.824   1.678  0.2251 -0.3843  0.1705
 2861SOL    HW120042   2.881   1.729   1.689  0.5375 -0.7606 -3.0849
 2861SOL    HW220043   2.779   1.833   1.669  0.3050  0.4288  0.1743
 2862SOL     OW20044   2.049   4.509   1.319 -0.1093  0.0963 -0.6285
 2862SOL    HW120045   2.132   4.554   1.304 -0.0807  0.2430 -0.0615
 2862SOL    HW220046   2.008   4.567   1.384  0.3424  1.2285 -1.3529
 2863SOL     OW20047   4.424   3.516  14.237  0.0143  0.0423 -0.5835
 2863SOL    HW120048   4.395   3.429  14.210  0.4968  0.0335 -1.0707
 2863SOL    HW220049   4.509   3.498  14.278  0.1180  0.0500 -0.7996
 2864SOL     OW20050   1.975   2.742   6.033  0.4387 -0.2506 -0.4182
 2864SOL    HW120051   1.956   2.821   5.983 -0.1724  0.5390  1.0428
 2864SOL    HW220052   2.069   2.752   6.049  0.6456  0.3416 -2.0648
 2865SOL     OW20053   2.406   0.691  14.995  0.1430 -0.2244 -0.1070
 2865SOL    HW120054   2.487   0.702  15.045  1.6789 -1.0263 -2.4078
 2865SOL    HW220055   2.398   0.596  15.008  1.3667 -0.4202 -0.8002
 2866SOL     OW20056   1.024   0.875  16.499 -0.2768  0.0638 -0.5948
 2866SOL    HW120057   0.966   0.879  16.423 -1.9722 -0.3591  0.6689
 2866SOL    HW220058   1.111   0.873  16.460 -0.0023  0.0916  0.0168
 2867SOL     OW20059   0.497   4.227   8.880 -0.2855 -0.2671 -0.6699
 2867SOL    HW120060   0.571   4.242   8.938  0.8231 -1.4363 -1.7764
 2867SOL    HW220061   0.427   4.208   8.942  1.4723 -1.7013  0.8620
 2868SOL     OW20062   2.379   1.426  16.411  0.1321  0.7445  0.0062
 2868SOL    HW120063   2.319   1.354  16.432 -0.8123  1.3009 -0.7646
 2868SOL    HW220064   2.344   1.504  16.454  3.5680  1.4651  1.4720
 2869SOL     OW20065   4.198   1.232   6.509  0.2034 -0.4555 -0.1823
 2869SOL    HW120066   4.294   1.238   6.504 -0.0621  2.5030 -1.8870
 2869SOL    HW220067   4.195   1.137   6.525 -0.5885 -0.2574  0.8189
 2870SOL     OW20068   3.829   0.233   5.145 -0.5107  0.5618  0.0516
 2870SOL    HW120069   3.842   0.248   5.238  3.7345  1.7208 -0.7243
 2870SOL    HW220070   3.813   0.139   5.139  0.5779  0.4018 -0.4334
 2871SOL     OW20071   4.468   2.880   2.711  0.1696 -0.2142  0.1801
 2871SOL    HW120072   4.438   2.875   2.620  1.5660 -0.2558 -0.2726
 2871SOL    HW220073   4.443   2.795   2.746 -1.6498  1.3346  2.6353
 2872SOL     OW20074   4.593   0.740   8.648  0.2071 -0.0203 -0.0561
 2872SOL    HW120075   4.614   0.647   8.653  2.0733  0.3430 -0.9547
 2872SOL    HW220076   4.640   0.763   8.568 -2.4334 -0.7284 -1.8119
 2873SOL     OW20077   3.839   4.426   0.029  0.4122 -0.0206  0.4808
 2873SOL    HW120078   3.850   4.464   0.116 -1.3955  0.5806  0.4549
 2873SOL    HW220079   3.861   4.497  17.678 -0.7791  1.4693  1.7631
 2874SOL     OW20080   0.295   0.542  12.880 -0.0690 -0.1640  0.4399
 2874SOL    HW120081   0.326   0.615  12.932  0.3184  0.3773 -0.5503
 2874SOL    HW220082   0.203   0.535  12.906 -0.3283  1.8271  0.0433
 2875SOL     OW20083   3.301   3.452   2.803 -0.0007 -0.2415 -0.0446
 2875SOL    HW120084   3.207   3.462   2.791 -0.6157 -2.1048  3.4220
 2875SOL    HW220085   3.304   3.397   2.724 -1.0725 -0.8325  0.3212
 2876SOL     OW20086   3.018   2.381   2.099 -0.5277  0.3602 -0.1034
 2876SOL    HW120087   2.975   2.415   2.177  0.5072  0.3452  0.4735
 2876SOL    HW220088   3.032   2.292   2.132 -0.5260  0.2917 -0.2863
 2877SOL     OW20089   4.346   4.359   4.713 -0.0633 -0.3515 -0.0563
 2877SOL    HW120090   4.306   4.274   4.696  1.1193 -0.6665 -1.2835
 2877SOL    HW220091   4.318   4.402   4.632 -0.5557  0.6158  0.6332
 2878SOL     OW20092   1.195   2.025   5.999 -0.3134 -0.3276 -0.3400
 2878SOL    HW120093   1.166   2.088   6.066  2.2043  0.3482  0.1204
 2878SOL    HW220094   1.195   1.942   6.047 -2.2201  0.4434  1.0040
 2879SOL     OW20095   2.027   0.153  12.292  0.3561 -0.3271 -0.2434
 2879SOL    HW120096   1.997   0.196  12.212 -1.8911  0.0710  0.8146
 2879SOL    HW220097   2.103   0.205  12.316 -0.5928  1.3537 -0.9057
 2880SOL     OW20098   2.973   1.792   8.799 -0.0927 -0.1958 -0.4691
 2880SOL    HW120099   3.006   1.703   8.791  1.4717  0.5287 -2.1630
 2880SOL    HW220100   3.056   1.839   8.789  1.3401 -2.5035  0.5916
 2881SOL     OW20101   4.250   3.565  12.027  0.0520  0.8182  0.0726
 2881SOL    HW120102   4.241   3.548  11.933 -0.9067 -0.0157  0.3215
 2881SOL    HW220103   4.345   3.572  12.039  0.3913 -1.0835 -1.4557
 2882SOL     OW20104   2.768   0.914   8.716  0.1183  0.7897  0.0517
 2882SOL    HW120105   2.713   0.961   8.653 -0.4248 -0.3527 -0.3179
 2882SOL    HW220106   2.811   0.855   8.654 -1.5666  0.5472 -0.8865
 2883SOL     OW20107   3.969   0.359   2.906  0.8032  0.7510  0.3585
 2883SOL    HW120108   3.975   0.306   2.826  1.5040 -1.7061  2.0340
 2883SOL    HW220109   4.051   0.407   2.911  1.8853 -1.1170  0.8469
 2884SOL     OW20110   3.183   1.942   9.041  0.1444  0.2323  0.2923
 2884SOL    HW120111   3.094   1.977   9.029  0.5241  1.3885  0.9059
 2884SOL    HW220112   3.199   1.904   8.954 -1.4316 -1.1810  0.6080
 2885SOL     OW20113   0.021   4.348  16.352  0.3687  0.0472  0.0236
 2885SOL    HW120114   0.034   4.327  16.260  3.6818  0.7270  0.3560
 2885SOL    HW220115   4.700   4.270  16.381 -0.3823 -0.3602 -2.3145
 2886SOL     OW20116   2.990   1.002  16.461  0.0790 -0.3853  1.0084
 2886SOL    HW120117   2.897   1.010  16.479 -0.4267  0.3673 -1.9566
 2886SOL    HW220118   2.987   0.924  16.406  1.0673 -0.0733  0.4984
 2887SOL     OW20119   1.870   3.002  16.858 -0.0138  0.0118  0.0248
 2887SOL    HW120120   1.842   2.954  16.780 -0.4579  2.3253 -1.2524
 2887SOL    HW220121   1.933   2.934  16.881  0.0567  0.8035  2.1866
 2888SOL     OW20122   0.665   0.481   3.217 -0.7318  0.0744  0.2299
 2888SOL    HW120123   0.596   0.428   3.257 -1.1996 -0.3224 -1.1034
 2888SOL    HW220124   0.651   0.466   3.123 -2.1944  1.9352  0.1569
 2889SOL     OW20125   4.077   1.605  12.431  0.1161 -0.5061  0.0517
 2889SOL    HW120126   4.099   1.678  12.490  1.4024  0.6490 -1.8311
 2889SOL    HW220127   3.982   1.601  12.435 -0.0363  2.0809 -0.5123
 2890SOL     OW20128   3.529   0.374  16.286  0.7330 -0.1778 -0.3228
 2890SOL    HW120129   3.620   0.381  16.316  1.0120  0.7216 -1.4090
 2890SOL    HW220130   3.515   0.280  16.289  1.6850 -0.3366 -1.1585
 2891SOL     OW20131   2.776   2.563   3.032  0.3288  0.3640 -0.2030
 2891SOL    HW120132   2.715   2.507   2.985  0.5072 -0.0483  0.0575
 2891SOL    HW220133   2.798   2.630   2.967 -0.1169  2.0569  1.3860
 2892SOL     OW20134   3.413   4.084  16.528  0.0976  0.6868  0.3043
 2892SOL    HW120135   3.394   4.022  16.458 -2.4545  1.4830  0.3236
 2892SOL    HW220136   3.500   4.113  16.498 -0.4803  0.2024 -1.8080
 2893SOL     OW20137   1.694   0.045   1.792 -0.7404  0.1927  0.0413
 2893SOL    HW120138   1.783   0.057   1.823 -1.4111  0.8799  1.6626
 2893SOL    HW220139   1.683   0.132   1.754  1.6744  1.0999  1.4695
 2894SOL     OW20140   0.348   3.779   2.662 -0.2253  0.0671  0.3684
 2894SOL    HW120141   0.415   3.797   2.597 -0.4537  0.2621  0.1860
 2894SOL    HW220142   0.320   3.693   2.632  0.8390  0.2894 -1.2259
 2895SOL     OW20143   3.098   4.185   2.536  0.1609  0.4541 -0.2523
 2895SOL    HW120144   3.079   4.278   2.525 -1.8792  0.2385  1.4269
 2895SOL    HW220145   3.189   4.184   2.566  0.0327 -0.7534  0.1080
 2896SOL     OW20146   2.911   2.817   2.423 -0.5308  0.1474  0.0226
 2896SOL    HW120147   2.955   2.893   2.461 -2.5011 -0.0069  2.6498
 2896SOL    HW220148   2.886   2.779   2.507  3.4363  0.6271  1.4034
 2897SOL     OW20149   3.566   0.383   4.225  0.3680  0.1299 -0.1486
 2897SOL    HW120150   3.641   0.444   4.226  1.1472 -0.8535  2.1726
 2897SOL    HW220151   3.535   0.405   4.313  0.6881 -1.0637  0.2575
 2898SOL     OW20152   2.660   3.529  11.041  0.1034 -0.4083 -0.4133
 2898SOL    HW120153   2.668   3.455  10.981  0.5807  0.0178 -0.8839
 2898SOL    HW220154   2.576   3.515  11.085  0.2791 -1.1573 -0.3138
 2899SOL     OW20155   2.097   4.015   3.557 -0.2960 -0.0222  0.4577
 2899SOL    HW120156   2.176   4.061   3.527  0.8710 -1.7206  0.9071
 2899SOL    HW220157   2.085   3.956   3.483  0.5275 -1.6850  1.6483
 2900SOL     OW20158   2.649   4.532  11.117  0.6441 -0.4933  0.5929
 2900SOL    HW120159   2.683   4.615  11.151 -2.2515 -0.0872  2.4481
 2900SOL    HW220160   2.562   4.561  11.090  0.1123 -2.1192  0.5498
 2901SOL     OW20161   2.039   0.734   3.763 -0.3362 -0.0058 -0.0152
 2901SOL    HW120162   2.034   0.761   3.855  0.4811  0.3494 -0.0785
 2901SOL    HW220163   2.098   0.793   3.716 -0.8622  0.7028  0.2117
 2902SOL     OW20164   0.210   0.989  13.027  0.3424  0.6065 -0.3445
 2902SOL    HW120165   0.126   0.956  12.995  0.0175  0.3491  0.7530
 2902SOL    HW220166   0.205   1.084  13.017  0.6528  0.5849 -0.7115
 2903SOL     OW20167   2.129   1.864   2.599 -0.1933  0.0913  0.1966
 2903SOL    HW120168   2.223   1.867   2.581 -0.1132  2.0234  0.9128
 2903SOL    HW220169   2.123   1.769   2.610 -0.0338  0.4447  3.5096
 2904SOL     OW20170   1.154   2.469  13.021  0.0675  0.4606  0.1917
 2904SOL    HW120171   1.071   2.422  13.024  0.2026  0.1963 -0.2919
 2904SOL    HW220172   1.124   2.560  13.020  1.2952  0.8935  1.1332
 2905SOL     OW20173   4.202   4.489   3.031 -0.4243  0.1645  0.5058
 2905SOL    HW120174   4.126   4.538   3.062 -1.0680 -0.4676 -0.0816
 2905SOL    HW220175   4.170   4.437   2.958 -0.0199  0.1061  0.3704
 2906SOL     OW20176   1.161   3.930   5.184 -0.1847 -0.1035 -0.0514
 2906SOL    HW120177   1.133   3.867   5.250 -2.3223  0.0970 -0.7686
 2906SOL    HW220178   1.138   3.881   5.104  0.6878  2.7387 -2.0461
 2907SOL     OW20179   4.406   3.255   2.614  0.7241  0.1256 -0.4906
 2907SOL    HW120180   4.498   3.268   2.591  0.9722 -1.0877 -0.1364
 2907SOL    HW220181   4.399   3.163   2.637 -0.6396  0.0494 -1.2390
 2908SOL     OW20182   1.202   2.640   4.776 -0.0240 -0.0531  1.0340
 2908SOL    HW120183   1.292   2.666   4.757  0.3351 -2.5225 -0.7100
 2908SOL    HW220184   1.199   2.554   4.735 -3.5658  0.3230  0.5275
 2909SOL     OW20185   2.727   0.807   6.745  0.3383  0.1761 -0.3238
 2909SOL    HW120186   2.797   0.864   6.713 -2.6688  2.0395 -3.5872
 2909SOL    HW220187   2.664   0.878   6.732 -1.1816 -1.3271 -1.1595
 2910SOL     OW20188   2.546   0.286  10.086 -0.6472 -0.3346  0.2847
 2910SOL    HW120189   2.488   0.284  10.010 -2.8037 -1.0843  1.9392
 2910SOL    HW220190   2.496   0.237  10.151 -0.3045 -0.6160  0.3364
 2911SOL     OW20191   3.191   4.053   8.917 -0.1391 -0.0069  0.1449
 2911SOL    HW120192   3.281   4.052   8.949  0.5050 -2.4665 -1.7266
 2911SOL    HW220193   3.166   4.145   8.925  1.4640  0.4004  0.4448
 2912SOL     OW20194   4.440   3.478   5.664  0.8717 -0.5797  0.0163
 2912SOL    HW120195   4.375   3.410   5.649  0.3948 -0.8555  3.2820
 2912SOL    HW220196   4.457   3.504   5.574 -0.5814  2.6029  0.6477
 2913SOL     OW20197   4.487   0.131   5.416  0.4616  0.2120  0.3657
 2913SOL    HW120198   4.448   0.215   5.440 -2.4232 -0.6992 -1.1165
 2913SOL    HW220199   4.412   0.088   5.376  1.2776 -1.5413  0.7244
 2914SOL     OW20200   2.429   4.409   9.530 -0.6014  0.2869  0.4715
 2914SOL    HW120201   2.500   4.456   9.487 -0.0736 -1.2372 -0.3504
 2914SOL    HW220202   2.361   4.471   9.506 -0.5850  1.0580  2.4342
 2915SOL     OW20203   3.890   2.212   9.095 -0.4223  0.8644 -0.1370
 2915SOL    HW120204   3.801   2.182   9.111 -0.6803  0.4034 -2.5630
 2915SOL    HW220205   3.910   2.236   9.186 -1.9851  3.6071 -0.5190
 2916SOL     OW20206   4.179   1.572   9.326 -0.0795 -1.0461 -0.5831
 2916SOL    HW120207   4.106   1.561   9.264  0.3388 -0.6726 -1.1382
 2916SOL    HW220208   4.152   1.643   9.384  1.1469 -0.6211 -0.5401
 2917SOL     OW20209   1.505   2.589   5.197 -0.0619  0.1440  0.2645
 2917SOL    HW120210   1.436   2.586   5.264 -0.1561 -1.2760  0.0952
 2917SOL    HW220211   1.463   2.634   5.124 -0.0920 -2.1648 -1.1357
 2918SOL     OW20212   1.482   2.089   3.424  0.3342  0.1060 -0.4595
 2918SOL    HW120213   1.447   2.142   3.352  0.5791  1.6301  0.5485
 2918SOL    HW220214   1.437   2.131   3.496  1.1799 -2.2256  1.4399
 2919SOL     OW20215   3.146   4.538   4.927 -0.4794 -0.2433 -0.4001
 2919SOL    HW120216   3.122   4.450   4.896 -0.0593  0.0384 -1.4994
 2919SOL    HW220217   3.066   4.569   4.970 -0.4794  0.8217 -1.1647
 2920SOL     OW20218   4.055   2.088   4.401 -0.2659 -0.4418 -0.5593
 2920SOL    HW120219   4.135   2.044   4.432  0.5045  1.4500  0.1079
 2920SOL    HW220220   4.023   2.022   4.339 -2.2012 -0.2042  0.2014
 2921SOL     OW20221   4.338   4.615  11.738 -0.7941  0.1624  0.3307
 2921SOL    HW120222   4.387   4.616  11.656 -1.5234  3.2457 -0.0530
 2921SOL    HW220223   4.412   4.588  11.793 -0.5869  0.9682  0.4382
 2922SOL     OW20224   2.081   1.779   6.011 -0.1100 -0.5820 -0.6053
 2922SOL    HW120225   2.066   1.760   6.104  1.7425  0.7782 -0.0365
 2922SOL    HW220226   2.133   1.858   6.011 -1.4775  0.3249  2.3543
 2923SOL     OW20227   3.758   3.816   9.448  0.2071 -0.0151 -0.1713
 2923SOL    HW120228   3.680   3.780   9.489 -1.2443 -0.7287 -3.5893
 2923SOL    HW220229   3.793   3.746   9.392 -0.0315 -1.5160  1.5735
 2924SOL     OW20230   1.858   1.498  13.100  0.4480  0.4310 -0.0280
 2924SOL    HW120231   1.891   1.518  13.187  0.5839 -0.7790  0.2029
 2924SOL    HW220232   1.896   1.419  13.063  1.3313  0.1734  1.4361
 2925SOL     OW20233   0.814   4.289   9.934  0.1210  0.1005 -0.0671
 2925SOL    HW120234   0.887   4.347   9.911  1.4436 -1.7105 -0.5256
 2925SOL    HW220235   0.843   4.267  10.023  1.0962 -0.9609 -0.6420
 2926SOL     OW20236   2.368   1.370   2.859 -0.5744 -0.1019 -0.4075
 2926SOL    HW120237   2.282   1.363   2.817 -0.5877 -4.5306  0.3659
 2926SOL    HW220238   2.356   1.452   2.907 -1.5420  0.4326 -1.5758
 2927SOL     OW20239   3.980   1.854  16.175  0.4445 -0.7131  0.0613
 2927SOL    HW120240   4.022   1.928  16.130 -2.1057  0.7468  0.0277
 2927SOL    HW220241   4.046   1.785  16.177 -0.3646 -1.4969 -0.2936
 2928SOL     OW20242   2.623   3.551  12.220  0.0351  0.8929 -0.0944
 2928SOL    HW120243   2.713   3.524  12.237  0.2432  1.3221 -0.5196
 2928SOL    HW220244   2.619   3.553  12.125 -0.7826 -1.2267 -0.0981
 2929SOL     OW20245   4.529   3.947   7.007  0.6553  0.2789  0.0902
 2929SOL    HW120246   4.532   4.020   6.946  1.1817  0.4118  0.2734
 2929SOL    HW220247   4.496   3.986   7.089 -0.8385 -0.9323  0.0775
 2930SOL     OW20248   0.019   3.188   8.028 -0.8494 -0.3958  0.2526
 2930SOL    HW120249   4.674   3.141   7.987  0.7231 -0.8216 -2.0532
 2930SOL    HW220250   0.079   3.117   8.052  1.6692  1.3825 -0.7622
 2931SOL     OW20251   4.409   3.686  14.598 -0.3177  0.4400  0.0797
 2931SOL    HW120252   4.470   3.616  14.576  2.0509  2.7489 -0.6872
 2931SOL    HW220253   4.433   3.737  14.521  2.0999  0.7911  1.0388
 2932SOL     OW20254   2.070   1.949  12.820 -0.7328  0.0012  0.3577
 2932SOL    HW120255   2.027   1.876  12.865 -0.9060  0.6639  1.2580
 2932SOL    HW220256   2.144   1.958  12.881 -1.2930 -0.0069  1.0416
 2933SOL     OW20257   1.002   3.822   2.369 -0.0540  0.4269  0.3287
 2933SOL    HW120258   0.983   3.869   2.450 -2.4904  1.4279 -0.8366
 2933SOL    HW220259   0.925   3.853   2.321 -0.0972  0.6679  0.5570
 2934SOL     OW20260   3.375   0.088   3.255 -0.4208 -0.0144  0.0161
 2934SOL    HW120261   3.371   0.160   3.192  1.2936  1.2066  1.3077
 2934SOL    HW220262   3.387   0.021   3.188 -0.9209  2.3906 -2.5089
 2935SOL     OW20263   3.550   0.791   5.624  0.2729  0.2606 -0.5320
 2935SOL    HW120264   3.455   0.782   5.634  0.4622 -0.7804  0.3911
 2935SOL    HW220265   3.582   0.841   5.699  1.5137 -0.6664 -0.4488
 2936SOL     OW20266   1.424   3.134  14.098  1.0330 -0.2909 -0.0944
 2936SOL    HW120267   1.502   3.186  14.078 -0.1064  0.2305 -3.1232
 2936SOL    HW220268   1.383   3.119  14.014  0.8924 -0.1877 -0.0439
 2937SOL     OW20269   2.779   2.314   0.405 -0.0280  0.2252 -0.5120
 2937SOL    HW120270   2.840   2.242   0.424  0.3144  0.1683 -1.8408
 2937SOL    HW220271   2.700   2.260   0.407  0.9961 -1.2238  1.2372
 2938SOL     OW20272   3.295   4.079   3.586 -0.4435 -0.7018 -0.3256
 2938SOL    HW120273   3.277   4.073   3.680 -0.2199  2.0642 -0.1118
 2938SOL    HW220274   3.251   4.162   3.567 -1.8707 -0.8823  2.2667
 2939SOL     OW20275   1.884   0.566  12.346 -0.0704 -0.0431  0.0026
 2939SOL    HW120276   1.890   0.645  12.399 -2.5785 -0.4116  0.7982
 2939SOL    HW220277   1.939   0.590  12.270 -1.1994  1.9282 -0.1906
 2940SOL     OW20278   4.007   0.447   7.174 -0.0947  0.1245 -0.1680
 2940SOL    HW120279   4.076   0.471   7.113 -1.1115  0.4222 -1.2038
 2940SOL    HW220280   3.930   0.458   7.119  0.1344 -3.3521 -1.1977
 2941SOL     OW20281   1.372   4.529   1.680 -0.1379  0.2371 -0.3365
 2941SOL    HW120282   1.417   4.463   1.733  2.4018  1.5869 -0.7862
 2941SOL    HW220283   1.359   4.485   1.596  0.6830 -0.0775 -0.3034
 2942SOL     OW20284   3.740   3.936   2.190 -0.3203 -1.0883  0.0208
 2942SOL    HW120285   3.706   3.891   2.267  1.7257 -1.1816  0.8576
 2942SOL    HW220286   3.702   4.023   2.199 -0.7079 -1.4448  1.8285
 2943SOL     OW20287   4.100   4.697   4.678 -0.0132 -0.3130 -0.0938
 2943SOL    HW120288   4.112   0.057   4.642  2.1486 -0.3799  0.4564
 2943SOL    HW220289   4.110   4.641   4.601  2.6930  1.6059 -1.1231
 2944SOL     OW20290   1.080   4.644   6.439 -0.3316  0.3971 -0.3945
 2944SOL    HW120291   1.159   4.641   6.383 -1.9693 -0.5238 -2.6606
 2944SOL    HW220292   1.089   0.001   6.484  3.4365 -0.3289  0.2305
 2945SOL     OW20293   1.810   1.424   6.739 -0.0736  0.1651  0.0022
 2945SOL    HW120294   1.804   1.403   6.646  2.7134  0.9247 -0.3537
 2945SOL    HW220295   1.734   1.481   6.750 -0.8172 -1.1803  1.8822
 2946SOL     OW20296   2.826   3.184   7.210 -0.7033  0.3321 -0.5371
 2946SOL    HW120297   2.807   3.137   7.291 -0.4714  0.8913 -0.1611
 2946SOL    HW220298   2.790   3.272   7.218 -2.4064 -0.4678  0.4882
 2947SOL     OW20299   3.791   1.504   5.509  0.3690 -0.0691  0.3576
 2947SOL    HW120300   3.756   1.465   5.589 -1.4183  0.4519 -0.1557
 2947SOL    HW220301   3.784   1.436   5.442 -0.3205  0.6538 -0.3132
 2948SOL     OW20302   4.161   0.411  15.212  0.1274  0.3745  0.0819
 2948SOL    HW120303   4.119   0.432  15.296 -1.7090 -0.0252 -0.7253
 2948SOL    HW220304   4.089   0.408  15.149 -0.1894  0.1099  0.4571
 2949SOL     OW20305   4.561   0.987   8.100 -0.3873  0.4146  0.1907
 2949SOL    HW120306   4.629   1.036   8.053  0.4126 -0.1551  0.7437
 2949SOL    HW220307   4.482   1.025   8.063  0.0862 -0.6525 -1.9328
 2950SOL     OW20308   0.809   2.124  11.837  0.2523 -0.6965 -0.1559
 2950SOL    HW120309   0.877   2.103  11.773  1.5319 -0.2388  1.0527
 2950SOL    HW220310   0.827   2.053  11.899  2.9734  0.3294  0.2176
 2951SOL     OW20311   0.236   3.461   7.929 -0.2052 -0.0498 -0.8308
 2951SOL    HW120312   0.315   3.452   7.877 -0.5518 -0.3433 -1.3046
 2951SOL    HW220313   0.216   3.374   7.963 -0.5751  0.9984  1.6942
 2952SOL     OW20314   3.878   0.928   5.098  0.3346  0.1174 -0.4730
 2952SOL    HW120315   3.883   0.855   5.036 -0.5781  0.4083 -0.8882
 2952SOL    HW220316   3.964   0.960   5.070  0.3973 -0.6673 -1.1923
 2953SOL     OW20317   3.135   0.114   6.468  0.3833 -0.5668 -0.2298
 2953SOL    HW120318   3.182   0.125   6.386  1.4639 -5.6963 -0.3227
 2953SOL    HW220319   3.048   0.105   6.427  1.3533  2.7745 -2.9368
 2954SOL     OW20320   1.735   1.186   8.358  0.3301 -0.3979 -0.6535
 2954SOL    HW120321   1.778   1.218   8.438  0.7340  1.5795 -1.6547
 2954SOL    HW220322   1.816   1.164   8.311  1.7313  1.1177  1.0562
 2955SOL     OW20323   4.455   3.906  16.879 -0.0338  0.1857  0.6293
 2955SOL    HW120324   4.530   3.848  16.862  0.0186  0.0142  1.4287
 2955SOL    HW220325   4.390   3.868  16.821  0.3856  1.1718 -0.4894
 2956SOL     OW20326   1.257   2.276   8.574 -0.4533  0.2767  0.1122
 2956SOL    HW120327   1.164   2.296   8.565 -0.1198  1.7700  0.0823
 2956SOL    HW220328   1.281   2.354   8.623  2.7016 -0.2910 -0.5307
 2957SOL     OW20329   1.512   0.024  10.188 -0.2313 -0.1270  0.0627
 2957SOL    HW120330   1.460   4.725  10.112  0.7191 -1.6707 -0.0568
 2957SOL    HW220331   1.557   0.101  10.154  2.7803 -1.6247  0.6387
 2958SOL     OW20332   2.881   1.206  15.652 -0.0908 -0.2791 -0.2917
 2958SOL    HW120333   2.936   1.234  15.579  0.8217  1.8510  1.2141
 2958SOL    HW220334   2.795   1.204  15.610 -0.0054 -2.0287 -0.3639
 2959SOL     OW20335   3.696   1.761   4.102  0.4314  0.0122  0.3279
 2959SOL    HW120336   3.758   1.833   4.104 -0.6032  0.8876  0.6927
 2959SOL    HW220337   3.737   1.700   4.041  1.1498  0.9794 -0.1579
 2960SOL     OW20338   1.086   0.497   0.595 -0.2242  0.1038  0.3151
 2960SOL    HW120339   1.060   0.406   0.580 -1.4325  0.5685 -0.4430
 2960SOL    HW220340   1.180   0.485   0.608 -0.4332  0.3336  2.1649
 2961SOL     OW20341   2.240   0.959   7.762 -0.1596 -0.2474  0.2860
 2961SOL    HW120342   2.314   1.019   7.756  0.3792 -0.7357  2.1426
 2961SOL    HW220343   2.276   0.872   7.747 -0.5906 -0.2433 -0.7867
 2962SOL     OW20344   0.690   3.477  12.300 -0.1859  0.1711 -0.3758
 2962SOL    HW120345   0.782   3.489  12.280  0.5262 -1.3403  1.9936
 2962SOL    HW220346   0.672   3.559  12.345 -0.7257 -0.7086  1.0158
 2963SOL     OW20347   2.751   3.803  17.576 -0.6154  0.7241  0.2070
 2963SOL    HW120348   2.709   3.819  17.491 -2.8390  0.7900  1.3049
 2963SOL    HW220349   2.842   3.825  17.555 -0.1600 -1.5556 -0.1451
 2964SOL     OW20350   0.023   3.276   8.808  0.2922 -0.6650  0.5231
 2964SOL    HW120351   0.054   3.353   8.762  1.4990 -2.1636 -1.1776
 2964SOL    HW220352   4.655   3.285   8.801  0.5569  0.8423 -0.9165
 2965SOL     OW20353   3.792   0.187   6.528 -0.2240  0.3336  0.0861
 2965SOL    HW120354   3.857   0.136   6.576 -1.6966 -1.7352 -0.0784
 2965SOL    HW220355   3.829   0.275   6.529  1.0049 -0.1942  0.1796
 2966SOL     OW20356   0.898   1.654   3.412  0.0557  0.1099  0.3562
 2966SOL    HW120357   0.875   1.643   3.505  1.4675  0.0097  0.7013
 2966SOL    HW220358   0.908   1.562   3.387  2.9677  0.9857 -1.6018
 2967SOL     OW20359   4.476   2.518   5.917 -0.1517 -0.3068 -0.3839
 2967SOL    HW120360   4.445   2.588   5.859 -1.5719 -0.7390 -0.1526
 2967SOL    HW220361   4.439   2.543   6.002 -0.6488  0.8153 -0.9244
 2968SOL     OW20362   0.413   2.727   2.332 -0.2249 -0.1032  0.2858
 2968SOL    HW120363   0.404   2.735   2.427  0.0585  1.7476  0.1395
 2968SOL    HW220364   0.507   2.707   2.328 -0.3106 -1.3143  3.7159
 2969SOL     OW20365   2.180   0.797   6.731  0.6020  0.4183 -0.5288
 2969SOL    HW120366   2.138   0.872   6.772  2.6183  0.5277  1.3320
 2969SOL    HW220367   2.137   0.720   6.768  1.8774 -0.4310 -0.8189
 2970SOL     OW20368   4.063   2.856   4.950 -0.7168 -0.0547 -0.0665
 2970SOL    HW120369   4.106   2.875   5.033 -0.1078 -1.9606  0.0665
 2970SOL    HW220370   3.988   2.912   4.967  1.8890  4.4805 -3.3170
 2971SOL     OW20371   3.838   1.307  15.220  0.1165 -0.0173  0.0274
 2971SOL    HW120372   3.826   1.309  15.315 -1.9680 -1.0157 -0.2013
 2971SOL    HW220373   3.927   1.332  15.199  0.3784 -0.4702  0.5955
 2972SOL     OW20374   0.414   1.206   8.179  0.2635 -0.2966 -0.5982
 2972SOL    HW120375   0.441   1.153   8.104 -0.2104  1.0161 -1.6954
 2972SOL    HW220376   0.448   1.156   8.253 -0.9112 -1.0895 -0.6029
 2973SOL     OW20377   1.995   1.683   2.963 -0.1309 -0.0951 -0.1393
 2973SOL    HW120378   2.059   1.623   3.002 -0.5219  0.0321  0.7017
 2973SOL    HW220379   2.015   1.676   2.870 -0.2805 -0.6606 -0.1315
 2974SOL     OW20380   1.955   4.407   2.002 -0.1525  0.3088  0.2331
 2974SOL    HW120381   1.883   4.362   2.047  0.4440 -1.8190 -0.9462
 2974SOL    HW220382   1.985   4.463   2.073  2.8221 -1.1530  0.1082
 2975SOL     OW20383   2.075   2.963   0.244 -0.0482  0.0382  0.1053
 2975SOL    HW120384   1.989   2.949   0.283 -0.9029 -0.3046 -1.8906
 2975SOL    HW220385   2.126   2.958   0.325  0.0608 -1.6169 -0.0615
 2976SOL     OW20386   0.709   1.519  15.552 -0.4790  0.4722  0.4217
 2976SOL    HW120387   0.679   1.602  15.515 -4.2924 -1.3128 -0.4725
 2976SOL    HW220388   0.691   1.531  15.646 -1.5054 -0.2693  0.3251
 2977SOL     OW20389   3.376   4.185  15.116 -0.2520 -0.7381  0.3210
 2977SOL    HW120390   3.399   4.253  15.053  0.9958 -2.5249 -1.1633
 2977SOL    HW220391   3.283   4.201  15.130 -0.4875 -2.7786  1.0733
 2978SOL     OW20392   1.439   4.489   5.340 -0.1001 -0.6020  0.2440
 2978SOL    HW120393   1.525   4.514   5.372  0.1566 -1.1868 -0.0040
 2978SOL    HW220394   1.467   4.421   5.279  1.1585  0.7034 -0.6169
 2979SOL     OW20395   1.204   3.077   4.182  0.2827 -0.4568  0.0386
 2979SOL    HW120396   1.112   3.100   4.172  0.1119 -1.4087 -0.5628
 2979SOL    HW220397   1.215   3.021   4.106 -0.5566 -1.6874  0.8259
 2980SOL     OW20398   1.309   4.710   4.604  0.1586 -0.3865 -0.4167
 2980SOL    HW120399   1.250   4.651   4.558 -3.3772  1.9020  1.1443
 2980SOL    HW220400   1.375   4.725   4.536  0.5965  0.1213  0.1166
 2981SOL     OW20401   2.660   0.212   7.917 -0.0198  0.7232  0.2324
 2981SOL    HW120402   2.598   0.239   7.848  0.4047  3.9258  1.1165
 2981SOL    HW220403   2.669   0.121   7.888  0.0866  0.7321  0.2407
 2982SOL     OW20404   4.065   3.207   3.567  0.6873 -0.2338 -0.3889
 2982SOL    HW120405   4.064   3.113   3.588 -2.6470 -0.6722 -2.5191
 2982SOL    HW220406   4.079   3.244   3.654 -0.1077 -1.0118  0.0718
 2983SOL     OW20407   1.871   0.408  11.846 -0.4831  0.4161 -0.0089
 2983SOL    HW120408   1.935   0.360  11.794  1.2085 -0.6292  3.0144
 2983SOL    HW220409   1.860   0.483  11.787  2.2659 -0.2692 -1.3733
 2984SOL     OW20410   0.734   0.037   4.379  0.1010  0.2797 -0.0592
 2984SOL    HW120411   0.711   4.706   4.307  0.5559  2.5054 -2.0270
 2984SOL    HW220412   0.650   0.047   4.424  1.3371  0.3369  2.2347
 2985SOL     OW20413   1.517   3.701   8.064  0.4102  0.0512  0.1080
 2985SOL    HW120414   1.596   3.648   8.078 -0.1210 -0.5050  0.9832
 2985SOL    HW220415   1.485   3.688   8.153 -0.3931  2.0779  0.0997
 2986SOL     OW20416   4.486   0.334   0.584 -0.1345  0.3292 -0.4540
 2986SOL    HW120417   4.470   0.243   0.609  0.1469  0.6213  0.8048
 2986SOL    HW220418   4.450   0.372   0.664 -0.7404  1.2840 -1.1870
 2987SOL     OW20419   4.344   3.697  13.467  0.5348 -0.3809 -0.3052
 2987SOL    HW120420   4.418   3.668  13.414  0.8324  0.9846 -0.6231
 2987SOL    HW220421   4.274   3.641  13.432  0.2603  0.1914 -0.6763
 2988SOL     OW20422   4.138   3.186   6.083  0.8373 -0.2781  0.5826
 2988SOL    HW120423   4.200   3.238   6.134 -2.1460  0.1687  3.7653
 2988SOL    HW220424   4.143   3.106   6.136  0.3595 -1.3627 -0.9957
 2989SOL     OW20425   3.627   4.106   0.627  0.4832 -0.1360  0.0985
 2989SOL    HW120426   3.692   4.084   0.694 -0.3265 -2.3658  0.1515
 2989SOL    HW220427   3.655   4.190   0.591  0.5807 -0.7226 -1.1788
 2990SOL     OW20428   2.693   4.552   3.622  0.1026  0.2845 -0.4176
 2990SOL    HW120429   2.621   4.615   3.617  0.9917  1.0549 -3.3242
 2990SOL    HW220430   2.755   4.610   3.666  1.4524 -1.1441 -0.4113
 2991SOL     OW20431   3.139   3.971   5.859  0.4408  0.5947 -0.3562
 2991SOL    HW120432   3.150   4.032   5.786  2.0081  1.0879  0.2793
 2991SOL    HW220433   3.213   4.001   5.913  0.0098  1.6836 -0.3710
 2992SOL     OW20434   2.414   1.616   7.042  0.2526 -0.1300 -0.4177
 2992SOL    HW120435   2.378   1.611   7.130  2.5282  0.3071  0.5394
 2992SOL    HW220436   2.367   1.696   7.017 -0.1592 -0.8552 -1.9910
 2993SOL     OW20437   4.580   0.727  17.554  0.1052 -0.3313 -0.3927
 2993SOL    HW120438   4.667   0.749  17.522 -0.3124  0.4751 -0.9625
 2993SOL    HW220439   4.607   0.636  17.561  1.2592 -0.0494 -1.1201
 2994SOL     OW20440   0.976   1.716   8.926  0.2119  0.0356  0.2013
 2994SOL    HW120441   1.019   1.727   9.011 -0.0311  0.3821  0.2800
 2994SOL    HW220442   1.005   1.629   8.899 -3.1748 -0.8060 -0.7129
 2995SOL     OW20443   3.778   0.771   7.004  0.2005 -0.3141 -0.5615
 2995SOL    HW120444   3.848   0.820   6.963  0.6584 -0.5588 -0.0791
 2995SOL    HW220445   3.703   0.822   6.974  1.4607  1.4877 -0.6029
 2996SOL     OW20446   2.226   0.426   7.714  0.3083 -0.1112  0.5715
 2996SOL    HW120447   2.207   0.488   7.785 -1.7274 -0.0430 -0.0433
 2996SOL    HW220448   2.134   0.410   7.694  0.3255 -0.3430  0.6706
 2997SOL     OW20449   2.345   4.625  16.539 -0.6440 -0.1807 -0.0798
 2997SOL    HW120450   2.410   4.584  16.481 -0.5106  0.0111 -0.0663
 2997SOL    HW220451   2.371   4.581  16.620  1.5218 -0.6940 -1.0467
 2998SOL     OW20452   2.856   1.521   5.634 -0.2296  0.0198  0.1181
 2998SOL    HW120453   2.857   1.435   5.675  0.3736  1.6055  3.4193
 2998SOL    HW220454   2.763   1.539   5.648 -0.3043 -0.0879 -0.2405
 2999SOL     OW20455   2.925   4.404   8.789  0.1532  0.6246  0.0060
 2999SOL    HW120456   2.895   4.344   8.858 -1.2550  1.0825 -0.2029
 2999SOL    HW220457   2.894   4.492   8.810  1.6724  1.4268 -1.1400
 3000SOL     OW20458   0.541   3.005   9.045 -0.0309  0.0395  0.7182
 3000SOL    HW120459   0.585   3.083   9.080 -1.0683  0.5534  0.8940
 3000SOL    HW220460   0.453   3.042   9.044  1.5907  3.9432  1.2771
 3001SOL     OW20461   2.350   1.391   3.268  0.8071 -0.0458  0.2274
 3001SOL    HW120462   2.432   1.354   3.235 -0.0360  0.2796 -2.2420
 3001SOL    HW220463   2.303   1.308   3.278 -1.3597  0.9469 -1.9358
 3002SOL     OW20464   2.331   4.297   0.236 -0.4581  0.0791 -0.0280
 3002SOL    HW120465   2.251   4.247   0.251  0.1949 -1.0033 -0.1610
 3002SOL    HW220466   2.300   4.387   0.229  1.3990  0.6384 -0.9811
 3003SOL     OW20467   4.455   0.657   7.945 -0.6469  0.3611 -0.9711
 3003SOL    HW120468   4.428   0.566   7.959  0.1719  0.2128 -0.3928
 3003SOL    HW220469   4.545   0.654   7.978 -1.6838  3.7831  2.2435
 3004SOL     OW20470   1.897   2.057   0.388 -0.4152 -0.1096 -0.4518
 3004SOL    HW120471   1.806   2.027   0.385 -0.0547 -1.2436 -0.0271
 3004SOL    HW220472   1.906   2.125   0.321 -1.2079 -0.9993 -1.4535
 3005SOL     OW20473   3.666   1.426   3.474 -0.8701 -0.1666 -0.9050
 3005SOL    HW120474   3.720   1.495   3.512 -0.8324 -0.6911  0.0075
 3005SOL    HW220475   3.590   1.424   3.532 -0.7392 -0.5758 -0.7505
 3006SOL     OW20476   1.990   0.688   7.634 -0.9425  0.1657 -0.5384
 3006SOL    HW120477   1.984   0.602   7.591 -1.4237  0.3586 -0.8623
 3006SOL    HW220478   1.937   0.749   7.583 -1.3370 -0.7498 -1.2219
 3007SOL     OW20479   0.456   0.696  10.136 -0.1811 -0.4578  0.5691
 3007SOL    HW120480   0.443   0.733  10.223  2.7737  1.8373  0.0537
 3007SOL    HW220481   0.476   0.604  10.153 -1.1761 -0.3767  2.2050
 3008SOL     OW20482   0.199   0.321  11.946  0.2127  0.4326 -0.7907
 3008SOL    HW120483   0.258   0.270  11.890  0.3864  0.1806 -0.3815
 3008SOL    HW220484   0.198   0.391  11.882  2.9096 -1.5273 -3.0030
 3009SOL     OW20485   2.139   1.887  13.493  0.0425  0.4124 -0.2306
 3009SOL    HW120486   2.151   1.982  13.488 -1.1639  0.6779  1.7398
 3009SOL    HW220487   2.044   1.881  13.497  0.0807  0.2430  0.5618
 3010SOL     OW20488   4.238   2.535   4.891 -0.5574 -0.2444  0.1944
 3010SOL    HW120489   4.319   2.558   4.846 -1.2854 -0.6387 -1.3092
 3010SOL    HW220490   4.269   2.492   4.970 -1.8993  0.1551  0.9399
 3011SOL     OW20491   1.583   0.411  10.169 -0.1043  0.1570 -0.1980
 3011SOL    HW120492   1.652   0.457  10.217  0.6168  1.5670 -2.5983
 3011SOL    HW220493   1.627   0.330  10.142  1.7445  1.4776 -1.1388
 3012SOL     OW20494   2.840   4.363   2.916 -0.0911 -0.4838 -0.2338
 3012SOL    HW120495   2.925   4.404   2.902  0.4480 -1.5438 -0.0684
 3012SOL    HW220496   2.840   4.304   2.841 -0.0425  0.3563 -0.8907
 3013SOL     OW20497   1.125   3.571   5.154  0.7361  0.3118  0.2639
 3013SOL    HW120498   1.067   3.620   5.212 -0.4080 -0.6373 -0.0572
 3013SOL    HW220499   1.064   3.524   5.097 -0.3549 -0.1117  1.7857
 3014SOL     OW20500   2.529   1.795  16.645 -0.2501  0.2831 -0.6707
 3014SOL    HW120501   2.609   1.790  16.697 -0.4546  0.0450 -0.3783
 3014SOL    HW220502   2.532   1.889  16.632 -1.1773  0.4815  0.6008
 3015SOL     OW20503   0.749   0.496   1.275  0.2806  0.2572  0.1558
 3015SOL    HW120504   0.671   0.547   1.252  1.2480  0.8505 -1.8176
 3015SOL    HW220505   0.798   0.521   1.197 -1.6671 -0.8286 -1.4113
 3016SOL     OW20506   0.552   4.439   1.714 -0.0054 -0.1193 -0.0663
 3016SOL    HW120507   0.564   4.407   1.625  0.7012  1.0088 -0.3800
 3016SOL    HW220508   0.587   4.370   1.770 -0.4357 -0.4270 -0.1797
 3017SOL     OW20509   0.959   3.790  17.525 -0.3278 -0.3589 -0.4402
 3017SOL    HW120510   0.921   3.876  17.507  1.2397  0.6283  1.0719
 3017SOL    HW220511   0.925   3.783  17.614  1.7614 -2.1565  0.1985
 3018SOL     OW20512   1.746   2.000   9.491  0.3694  0.3437 -0.1253
 3018SOL    HW120513   1.718   2.063   9.557  1.5306 -0.1139  0.8071
 3018SOL    HW220514   1.700   1.924   9.527 -0.4590 -0.4278 -2.8358
 3019SOL     OW20515   4.724   4.649   3.915  0.4368  0.3522  0.2565
 3019SOL    HW120516   4.671   4.578   3.878  0.9697  0.0116  0.1421
 3019SOL    HW220517   4.664   4.689   3.978 -0.6167  0.7961 -1.0085
 3020SOL     OW20518   2.841   1.099   6.401 -0.6035 -0.5471 -0.2444
 3020SOL    HW120519   2.907   1.168   6.412  1.1341 -2.2413 -0.1338
 3020SOL    HW220520   2.820   1.112   6.309 -0.6821  2.7949  0.2320
 3021SOL     OW20521   4.527   3.263  11.592  0.2383 -0.3965  0.4190
 3021SOL    HW120522   4.606   3.312  11.569 -0.9977  0.8916 -1.1201
 3021SOL    HW220523   4.500   3.295  11.678 -0.3854  1.3283 -0.4155
 3022SOL     OW20524   0.543   2.391   6.850 -0.1398 -0.2783 -0.2982
 3022SOL    HW120525   0.489   2.322   6.814 -1.5491 -0.1260  1.5165
 3022SOL    HW220526   0.588   2.415   6.769  0.9886 -0.4687  0.2665
 3023SOL     OW20527   3.470   1.791  10.717 -0.2937 -0.7071  0.2872
 3023SOL    HW120528   3.404   1.806  10.650  1.5359  0.6441 -1.2038
 3023SOL    HW220529   3.545   1.789  10.659 -2.2544 -0.6201 -2.2593
 3024SOL     OW20530   2.258   1.158   3.593 -0.3258 -0.2735 -0.2904
 3024SOL    HW120531   2.337   1.104   3.587  0.9023  1.7083 -1.9327
 3024SOL    HW220532   2.279   1.225   3.657  0.2789 -0.7228 -0.0230
 3025SOL     OW20533   1.552   0.475   1.234  0.0488  0.0186 -0.3855
 3025SOL    HW120534   1.475   0.443   1.281 -0.0278  0.1010 -0.4551
 3025SOL    HW220535   1.550   0.423   1.153 -0.1674  1.7882 -1.5046
 3026SOL     OW20536   3.696   1.402  16.772  0.1923 -0.2331 -0.3705
 3026SOL    HW120537   3.734   1.490  16.767  0.0013 -0.1110  0.3040
 3026SOL    HW220538   3.631   1.403  16.703 -0.6238 -1.6672  0.3692
 3027SOL     OW20539   2.636   2.662  16.892  0.3101 -0.0449 -0.4615
 3027SOL    HW120540   2.606   2.753  16.894  2.5022  0.6133  2.1179
 3027SOL    HW220541   2.553   2.614  16.894  0.1893  0.1331 -1.0275
 3028SOL     OW20542   4.274   1.063  17.366 -0.8732 -0.3839  0.3306
 3028SOL    HW120543   4.182   1.063  17.393 -0.6968 -0.0767  0.9093
 3028SOL    HW220544   4.266   1.021  17.280 -1.1417 -0.4129  0.3701
 3029SOL     OW20545   3.019   4.192   1.908 -0.4394 -0.2452 -0.1644
 3029SOL    HW120546   3.095   4.160   1.860 -0.3028 -0.4392  0.1858
 3029SOL    HW220547   2.986   4.252   1.841 -2.2373 -0.7616  0.2383
 3030SOL     OW20548   1.591   1.361   8.216  1.1006  0.2082  0.0006
 3030SOL    HW120549   1.545   1.278   8.226 -2.4332  2.1416 -0.2642
 3030SOL    HW220550   1.652   1.348   8.289 -1.2458  0.5148  2.0354
 3031SOL     OW20551   1.033   4.676   6.729  0.0606 -0.2028 -0.1247
 3031SOL    HW120552   1.041   4.693   6.823  0.8601  0.8363 -0.3774
 3031SOL    HW220553   1.020   0.039   6.701  2.6376  0.2939  0.2094
 3032SOL     OW20554   1.853   3.166   4.523 -0.0891 -0.4006 -0.8080
 3032SOL    HW120555   1.787   3.096   4.516 -2.4536  1.6617  0.8975
 3032SOL    HW220556   1.855   3.207   4.437  2.0859  1.4100  0.1094
 3033SOL     OW20557   3.044   2.890  10.100  0.0477  0.5268 -0.9614
 3033SOL    HW120558   3.026   2.868  10.008 -1.9000 -0.7235 -0.2636
 3033SOL    HW220559   3.130   2.930  10.087  0.0197  0.3634 -1.6561
 3034SOL     OW20560   2.269   1.871   7.380  0.0803 -0.1107  0.0084
 3034SOL    HW120561   2.233   1.792   7.421 -2.9741  2.3416  2.0946
 3034SOL    HW220562   2.326   1.911   7.446 -0.6316  1.8199 -0.5455
 3035SOL     OW20563   2.023   3.211   2.973  0.1534 -0.0807 -0.0503
 3035SOL    HW120564   1.988   3.299   2.962  1.4307  0.9032  3.7746
 3035SOL    HW220565   2.112   3.235   2.997  0.4475 -0.0187 -1.2199
 3036SOL     OW20566   3.922   0.777   3.305 -0.0385 -0.1410 -0.0574
 3036SOL    HW120567   3.913   0.751   3.213 -1.3102 -1.7209  0.5077
 3036SOL    HW220568   3.908   0.870   3.288 -0.8737 -0.4463 -1.0544
 3037SOL     OW20569   4.493   2.788   2.153  0.9449  0.0172 -0.8170
 3037SOL    HW120570   4.545   2.801   2.073  1.5647  0.5134 -0.3297
 3037SOL    HW220571   4.406   2.772   2.117  1.1234 -0.3365 -1.0915
 3038SOL     OW20572   0.694   3.630  14.624 -0.1961 -0.0602 -1.0158
 3038SOL    HW120573   0.752   3.694  14.666  0.6472  0.3767 -2.8438
 3038SOL    HW220574   0.626   3.689  14.590  0.0534  0.9001  0.1606
 3039SOL     OW20575   2.386   4.236   8.687  0.0538  0.1406 -0.0342
 3039SOL    HW120576   2.416   4.153   8.723  1.8543  0.5982 -0.4533
 3039SOL    HW220577   2.306   4.252   8.737  0.6659 -1.1429  1.3397
 3040SOL     OW20578   2.327   0.622   4.079 -0.0897  0.1614  0.4550
 3040SOL    HW120579   2.341   0.563   4.005  0.4954  0.0736  0.6407
 3040SOL    HW220580   2.387   0.695   4.064  1.3714 -1.1375 -0.0603
 3041SOL     OW20581   4.210   0.228   7.914  0.3133  0.1573 -0.1690
 3041SOL    HW120582   4.215   0.316   7.876  0.4291 -1.0830 -3.0756
 3041SOL    HW220583   4.230   0.172   7.839 -0.7273  0.8943 -0.9970
 3042SOL     OW20584   3.834   1.016   5.619 -0.1020 -0.2782  0.2854
 3042SOL    HW120585   3.900   1.043   5.683  2.3008 -1.8245 -1.5608
 3042SOL    HW220586   3.862   1.057   5.537 -0.0234 -1.2071 -0.1504
 3043SOL     OW20587   0.219   2.753   6.048  0.0529  0.5448  0.3941
 3043SOL    HW120588   0.130   2.722   6.033 -0.6230  0.8282  3.8760
 3043SOL    HW220589   0.266   2.680   6.089  0.0513 -0.6269 -1.6979
 3044SOL     OW20590   2.211   4.453   8.532 -0.1639 -0.1288  0.0960
 3044SOL    HW120591   2.305   4.456   8.551 -0.2910  1.3760  0.4741
 3044SOL    HW220592   2.194   4.547   8.542  0.4041 -0.1103  0.8547
 3045SOL     OW20593   2.788   2.007  16.582 -0.8184  0.2584 -0.2491
 3045SOL    HW120594   2.793   1.971  16.493 -0.8051 -0.0089 -0.1387
 3045SOL    HW220595   2.699   2.043  16.577  0.3319  2.9403 -2.0503
 3046SOL     OW20596   2.065   0.854   3.398 -0.5301 -0.2079 -0.2457
 3046SOL    HW120597   2.102   0.904   3.326 -0.1919 -0.7829 -0.4685
 3046SOL    HW220598   2.027   0.919   3.457 -0.1293 -0.7527  0.6237
 3047SOL     OW20599   2.400   4.390   3.657  0.2854  0.7106 -0.2464
 3047SOL    HW120600   2.426   4.331   3.728 -2.3273 -0.1543  0.0029
 3047SOL    HW220601   2.369   4.468   3.702 -1.8327 -1.5544  2.2396
 3048SOL     OW20602   1.960   2.179   3.363 -0.2320 -0.0314  0.7299
 3048SOL    HW120603   2.024   2.232   3.315 -1.2700  0.1102 -0.4814
 3048SOL    HW220604   1.915   2.142   3.287  0.0994  0.0407  0.4955
 3049SOL     OW20605   3.682   4.340   0.492  0.6843 -0.0528  0.2314
 3049SOL    HW120606   3.762   4.315   0.444 -0.1459  1.1334 -1.7847
 3049SOL    HW220607   3.650   4.407   0.431  2.9959  0.0433 -0.8957
 3050SOL     OW20608   1.043   1.148   7.034  0.1329 -0.3459  0.1048
 3050SOL    HW120609   1.015   1.205   6.962 -0.9866 -2.4087 -1.0996
 3050SOL    HW220610   1.076   1.213   7.096  0.0515 -0.4665  0.2746
 3051SOL     OW20611   1.531   3.208   7.440 -0.5356  0.1523 -0.6459
 3051SOL    HW120612   1.572   3.266   7.375  1.9997 -0.1789  0.6365
 3051SOL    HW220613   1.594   3.221   7.511  0.0497 -0.0789 -1.1268
 3052SOL     OW20614   1.224   2.944   8.775  0.3354  0.0466  0.3070
 3052SOL    HW120615   1.247   2.874   8.835 -1.5057 -0.8669 -0.0377
 3052SOL    HW220616   1.312   2.965   8.744  0.5411  0.0795  0.9095
 3053SOL     OW20617   0.909   3.406  13.545 -0.3414  0.8802 -0.1069
 3053SOL    HW120618   0.890   3.389  13.453 -0.8086 -0.0248  0.1545
 3053SOL    HW220619   0.968   3.479  13.526  0.6063 -0.1406 -1.1540
 3054SOL     OW20620   2.151   1.322   5.518 -0.5961 -0.3117  0.4532
 3054SOL    HW120621   2.145   1.232   5.550 -1.0563 -0.8930 -1.2974
 3054SOL    HW220622   2.168   1.300   5.426 -1.9131 -3.0578  0.8648
 3055SOL     OW20623   4.540   4.387   6.698  0.2197 -0.0122  0.8423
 3055SOL    HW120624   4.566   4.455   6.760  0.0663  2.0620 -1.3836
 3055SOL    HW220625   4.448   4.410   6.683  0.5114  1.1569  0.8994
 3056SOL     OW20626   3.842   2.027   3.976 -0.1465 -0.3373  0.0328
 3056SOL    HW120627   3.842   2.122   3.973 -3.4102 -0.3659 -0.8777
 3056SOL    HW220628   3.835   2.013   3.881 -2.3060 -1.0597  0.3058
 3057SOL     OW20629   1.090   0.674  13.538 -0.2251  0.3317  0.1823
 3057SOL    HW120630   1.076   0.740  13.605  0.0876  0.6141 -0.0296
 3057SOL    HW220631   1.183   0.654  13.549 -0.6992 -0.7996  2.0994
 3058SOL     OW20632   2.656   4.604   2.547 -0.0141  0.2945  1.1502
 3058SOL    HW120633   2.733   4.632   2.498  0.8041  2.5615  3.7204
 3058SOL    HW220634   2.603   4.683   2.548  0.2260  0.4738 -0.2203
 3059SOL     OW20635   2.102   4.130   6.154 -0.3453 -0.0277 -0.1962
 3059SOL    HW120636   2.151   4.153   6.234  0.4828  1.3850 -1.1209
 3059SOL    HW220637   2.148   4.186   6.092 -1.3208 -0.1849 -1.0610
 3060SOL     OW20638   2.780   0.721   4.431  0.0988 -0.2622  0.4002
 3060SOL    HW120639   2.690   0.702   4.456 -0.0205  2.2549  1.7954
 3060SOL    HW220640   2.781   0.816   4.442 -0.9194 -0.5483  2.7283
 3061SOL     OW20641   0.265   0.054   0.305  0.0339 -0.8182  0.4336
 3061SOL    HW120642   0.272   0.063   0.400  2.0763 -2.5766  0.4472
 3061SOL    HW220643   0.219   0.131   0.269 -0.4051 -1.6901 -0.8709
 3062SOL     OW20644   3.658   3.725  17.606  0.4477  0.4706 -0.7629
 3062SOL    HW120645   3.578   3.681  17.635  1.6231 -1.5307 -0.5382
 3062SOL    HW220646   3.628   3.769  17.526  1.5768  1.5594 -0.5960
 3063SOL     OW20647   0.712   4.170   6.002  0.2156  0.4448  0.3331
 3063SOL    HW120648   0.765   4.092   5.983 -0.5261 -0.3721  1.6436
 3063SOL    HW220649   0.756   4.240   5.954 -0.7551  0.2114 -0.9003
 3064SOL     OW20650   1.762   2.802   1.254  0.5708 -0.4696 -0.3531
 3064SOL    HW120651   1.796   2.805   1.164  0.0380 -0.8693 -0.5709
 3064SOL    HW220652   1.682   2.855   1.245  0.6693 -0.2143  0.3316
 3065SOL     OW20653   0.981   1.116   7.616 -0.4156 -0.3979 -0.0639
 3065SOL    HW120654   0.971   1.209   7.594 -2.2540 -0.2044  1.5874
 3065SOL    HW220655   1.049   1.112   7.684  1.0939 -1.5999 -1.6261
 3066SOL     OW20656   3.681   1.865  16.125 -0.4797 -0.2276  0.4650
 3066SOL    HW120657   3.660   1.861  16.032 -0.0568  2.1133  0.2672
 3066SOL    HW220658   3.771   1.834  16.131  0.8668  3.7598  0.4380
 3067SOL     OW20659   3.120   0.915   7.134  0.1478  0.2124  0.8220
 3067SOL    HW120660   3.045   0.974   7.147  0.6683  0.6181  2.0506
 3067SOL    HW220661   3.110   0.900   7.040  0.9443  2.5821  0.3312
 3068SOL     OW20662   0.619   0.588   4.857 -0.2784 -0.3104 -0.0021
 3068SOL    HW120663   0.659   0.604   4.942 -1.4848 -1.1863  0.7289
 3068SOL    HW220664   0.620   0.492   4.856 -0.8377 -0.3172 -0.1845
 3069SOL     OW20665   4.262   4.036   5.773 -0.6408  0.2595  0.3378
 3069SOL    HW120666   4.354   4.011   5.766 -0.8298  0.0722 -1.6667
 3069SOL    HW220667   4.237   4.028   5.681  0.9613  1.6661 -0.2303
 3070SOL     OW20668   1.793   1.036  11.562 -0.4309  0.2528  0.0140
 3070SOL    HW120669   1.831   1.075  11.484 -0.8332  1.0698  0.2206
 3070SOL    HW220670   1.699   1.050  11.549 -0.6701  0.3694  1.8996
 3071SOL     OW20671   1.085   2.663   2.887 -0.0515 -0.5186 -0.6705
 3071SOL    HW120672   1.126   2.579   2.905 -1.6709 -1.2282 -0.2314
 3071SOL    HW220673   1.006   2.656   2.942  1.0929  2.0922  1.3183
 3072SOL     OW20674   3.879   3.505   7.191  0.1246  0.4127  0.2501
 3072SOL    HW120675   3.852   3.564   7.120 -3.6473  1.2783  2.3902
 3072SOL    HW220676   3.839   3.552   7.265  1.7443 -0.2878  1.5640
 3073SOL     OW20677   4.447   3.968  10.334 -0.2849  0.0735  0.5329
 3073SOL    HW120678   4.456   4.059  10.305  0.0600  0.0400  0.5319
 3073SOL    HW220679   4.402   3.980  10.417  0.7861 -1.2297  1.3133
 3074SOL     OW20680   1.632   3.390   9.135  0.3298 -0.7236  0.6172
 3074SOL    HW120681   1.685   3.367   9.059 -2.8228 -4.3075 -0.4921
 3074SOL    HW220682   1.610   3.297   9.149  0.9935 -0.7851  1.2681
 3075SOL     OW20683   0.440   1.687   3.248  0.4164  0.3164  0.5297
 3075SOL    HW120684   0.489   1.606   3.238 -0.0259  0.0521  0.5064
 3075SOL    HW220685   0.510   1.753   3.252  1.7650 -1.0740 -0.0723
 3076SOL     OW20686   1.477   4.538   3.652  0.1264  0.6897 -0.0226
 3076SOL    HW120687   1.384   4.557   3.642 -0.0390  0.4485  1.0405
 3076SOL    HW220688   1.492   4.616   3.704 -1.0869 -0.2814  1.7746
 3077SOL     OW20689   4.022   1.710   2.429 -0.8035  0.0650  0.3872
 3077SOL    HW120690   3.928   1.692   2.419 -0.5119 -1.3757  0.1571
 3077SOL    HW220691   4.025   1.802   2.404  0.1734 -0.8670 -2.8921
 3078SOL     OW20692   2.960   4.453   9.880 -0.8454  0.0105  0.1777
 3078SOL    HW120693   2.992   4.529   9.929 -0.0514 -0.1848 -0.0273
 3078SOL    HW220694   2.940   4.397   9.955  0.0836  0.2252  0.5935
 3079SOL     OW20695   4.479   2.350   9.193  0.1203 -0.3571  0.4840
 3079SOL    HW120696   4.430   2.372   9.114  1.2937 -0.2683 -0.2111
 3079SOL    HW220697   4.421   2.284   9.232 -1.3539  2.4403  2.9907
 3080SOL     OW20698   4.131   3.540  10.090 -0.5253  0.0613  0.3938
 3080SOL    HW120699   4.085   3.617  10.125  0.5059  1.3783 -1.1294
 3080SOL    HW220700   4.058   3.488  10.058 -0.5465 -0.6100  1.5214
 3081SOL     OW20701   1.902   0.593  17.314  0.5208  0.2267  0.0255
 3081SOL    HW120702   1.810   0.567  17.325  0.5185  0.0760 -0.3579
 3081SOL    HW220703   1.951   0.510  17.313  0.3997  0.1631 -0.4325
 3082SOL     OW20704   2.534   1.484  16.175  0.0228 -0.4080  0.4132
 3082SOL    HW120705   2.476   1.444  16.241  1.1165 -0.1407  1.5384
 3082SOL    HW220706   2.561   1.555  16.233  0.1762  0.8001 -1.1481
 3083SOL     OW20707   2.292   1.865   8.781 -0.0129 -0.4764 -0.3964
 3083SOL    HW120708   2.251   1.789   8.821  0.2193  0.0786  0.8883
 3083SOL    HW220709   2.218   1.926   8.788 -0.8242 -1.7257  1.8210
 3084SOL     OW20710   0.174   4.248   1.525 -0.0316 -0.0478 -0.6010
 3084SOL    HW120711   0.205   4.160   1.504  1.1528 -0.7127  3.8797
 3084SOL    HW220712   0.212   4.303   1.456  0.5013  0.3315 -0.0064
 3085SOL     OW20713   2.013   0.017  10.691  0.2570  0.0590 -0.3795
 3085SOL    HW120714   2.084   4.685  10.715  2.2330  1.0861 -3.6307
 3085SOL    HW220715   2.050   0.102  10.715  2.2429 -0.5263 -1.3737
 3086SOL     OW20716   3.331   1.184   0.529 -0.4426  0.4042  0.3656
 3086SOL    HW120717   3.425   1.166   0.525 -0.4931  0.3908 -0.6527
 3086SOL    HW220718   3.304   1.104   0.574  0.2173  0.2841  0.5421
 3087SOL     OW20719   0.705   4.416   2.145  0.2333 -0.2266 -0.1410
 3087SOL    HW120720   0.675   4.389   2.058  1.6185 -1.2778 -0.3098
 3087SOL    HW220721   0.769   4.350   2.175  0.8619  0.0849 -0.7861
 3088SOL     OW20722   1.036   4.142  12.014 -0.4051 -0.0651 -0.5881
 3088SOL    HW120723   1.034   4.054  11.975 -0.2383  1.1040 -3.1851
 3088SOL    HW220724   1.064   4.191  11.937  3.5382  0.1748  1.0179
 3089SOL     OW20725   0.774   2.832  14.023  0.0312  0.1698 -0.6538
 3089SOL    HW120726   0.829   2.868  14.092  0.4109 -1.5510 -0.0393
 3089SOL    HW220727   0.817   2.869  13.947  0.7037 -3.1042 -1.8566
 3090SOL     OW20728   0.766   3.847   2.544 -0.9345  0.1624  0.1785
 3090SOL    HW120729   0.749   3.940   2.560 -2.5122  0.0401 -0.8326
 3090SOL    HW220730   0.858   3.852   2.572 -0.1250  1.8174 -2.7578
 3091SOL     OW20731   4.473   2.803  11.315  0.4212 -0.4531  0.4588
 3091SOL    HW120732   4.500   2.729  11.261  2.3402  1.0669 -0.6619
 3091SOL    HW220733   4.443   2.857  11.242  2.0769 -0.5353 -0.2938
 3092SOL     OW20734   0.757   3.221  15.473 -0.4358  0.4136  0.9016
 3092SOL    HW120735   0.698   3.214  15.398  0.8311  0.8795 -0.1378
 3092SOL    HW220736   0.738   3.143  15.524 -2.1271  0.3067  0.1110
 3093SOL     OW20737   1.793   4.185   6.005 -0.3210 -0.3582  0.2880
 3093SOL    HW120738   1.803   4.244   6.080 -2.3862  0.2763  0.0630
 3093SOL    HW220739   1.769   4.237   5.927 -1.2749 -0.1937  0.6841
 3094SOL     OW20740   4.529   2.233   2.036 -0.3674  0.1561 -0.7532
 3094SOL    HW120741   4.519   2.149   2.082 -1.5936  0.6917 -0.0553
 3094SOL    HW220742   4.609   2.259   2.080 -0.6073  0.5465 -0.5529
 3095SOL     OW20743   3.062   4.683   0.601 -0.3959  0.3845 -0.0316
 3095SOL    HW120744   3.136   4.673   0.541 -0.1075 -0.5865  0.4913
 3095SOL    HW220745   3.004   4.624   0.552 -3.0746  2.0739  1.1051
 3096SOL     OW20746   0.955   3.921   4.150 -0.5346  0.1079 -0.1704
 3096SOL    HW120747   0.981   3.868   4.226  0.9997  0.4366 -0.4685
 3096SOL    HW220748   0.860   3.932   4.156 -0.5068 -0.5096  1.3854
 3097SOL     OW20749   2.982   3.860  13.495  0.2939 -0.3797 -0.2203
 3097SOL    HW120750   2.987   3.926  13.565  1.4201  1.2204 -1.7826
 3097SOL    HW220751   3.053   3.801  13.521 -0.1859 -0.7213  0.3003
 3098SOL     OW20752   3.798   1.895  11.745 -0.3486 -0.2804  0.4925
 3098SOL    HW120753   3.871   1.952  11.721 -1.8864  2.7225  3.0663
 3098SOL    HW220754   3.749   1.954  11.802 -0.1892  3.4159 -3.2375
 3099SOL     OW20755   0.298   3.781   3.055  0.1642 -0.0109  0.3478
 3099SOL    HW120756   0.357   3.756   3.126  0.1389 -0.3146  0.2631
 3099SOL    HW220757   0.346   3.849   3.008 -0.4900  0.9348  1.0449
 3100SOL     OW20758   3.335   4.449  10.656  0.0342  0.0125  0.4660
 3100SOL    HW120759   3.384   4.454  10.738 -0.4682 -0.3357  0.7889
 3100SOL    HW220760   3.317   4.356  10.667  0.8678 -0.3088 -0.8982
 3101SOL     OW20761   2.665   2.353   8.147 -0.3342  0.5835 -0.4401
 3101SOL    HW120762   2.591   2.386   8.197  0.1890 -0.6665  1.1697
 3101SOL    HW220763   2.730   2.355   8.217 -0.4503  2.2549 -0.3888
 3102SOL     OW20764   0.310   3.419   3.803  0.3750 -0.3243 -0.5191
 3102SOL    HW120765   0.268   3.498   3.770 -5.0808 -1.4763  3.4459
 3102SOL    HW220766   0.345   3.374   3.726  1.2314  1.0222 -0.9066
 3103SOL     OW20767   3.879   0.894   1.313 -0.0542 -0.0730 -0.0370
 3103SOL    HW120768   3.974   0.893   1.317 -0.0347 -0.6344 -0.5844
 3103SOL    HW220769   3.860   0.980   1.275  1.2970 -0.2187 -1.0504
 3104SOL     OW20770   3.173   3.139   8.960  0.3844  0.5298  0.0557
 3104SOL    HW120771   3.080   3.160   8.964  0.1603 -0.5673  0.5393
 3104SOL    HW220772   3.200   3.150   9.051 -1.5963 -0.7885  0.7987
 3105SOL     OW20773   2.510   3.705   7.750  0.4346 -0.2182  0.1579
 3105SOL    HW120774   2.593   3.686   7.792  1.1934  2.5031 -0.0919
 3105SOL    HW220775   2.475   3.776   7.804  0.6456  0.9421 -1.2387
 3106SOL     OW20776   1.766   3.302   8.924  0.2090 -0.0510  0.1618
 3106SOL    HW120777   1.769   3.270   8.834  0.8559 -1.5751  0.7352
 3106SOL    HW220778   1.850   3.274   8.960  0.3777  0.2420 -0.0086
 3107SOL     OW20779   1.068   0.665  16.979 -0.1104  0.0446  0.1330
 3107SOL    HW120780   1.089   0.635  17.068 -0.0143 -0.6390 -0.1167
 3107SOL    HW220781   1.148   0.710  16.954 -0.1528  0.1607  0.2063
 3108SOL     OW20782   1.353   0.263   4.222 -0.7432  0.1365 -0.4658
 3108SOL    HW120783   1.397   0.322   4.161 -1.2453  1.0204  0.0112
 3108SOL    HW220784   1.330   0.329   4.288  0.1995  0.1329 -0.1463
 3109SOL     OW20785   0.953   0.954   3.463 -0.0012  0.0225 -0.1614
 3109SOL    HW120786   0.988   0.976   3.549  0.1239  0.6255 -0.3632
 3109SOL    HW220787   0.875   1.009   3.466 -0.0400 -0.0154 -0.5166
 3110SOL     OW20788   1.215   4.009   8.971 -0.2342  0.4147  0.1490
 3110SOL    HW120789   1.267   4.061   8.911 -1.0283 -0.8399 -1.6246
 3110SOL    HW220790   1.274   3.934   8.978 -1.6661 -0.7949 -0.7942
 3111SOL     OW20791   0.727   1.999   3.722 -0.1637  0.2555  0.6645
 3111SOL    HW120792   0.779   2.041   3.791 -0.0708  2.8107 -0.9231
 3111SOL    HW220793   0.771   2.031   3.643  0.2513 -0.3198  0.6613
 3112SOL     OW20794   0.311   1.499   8.395  0.1034 -1.0642  0.4397
 3112SOL    HW120795   0.276   1.410   8.401 -1.0854 -0.7136 -1.2974
 3112SOL    HW220796   0.231   1.548   8.414 -0.2286 -0.5598 -2.3302
 3113SOL     OW20797   4.397   2.212   4.083 -0.4310  0.5898  0.1210
 3113SOL    HW120798   4.312   2.198   4.124 -0.1830  0.5260  0.6150
 3113SOL    HW220799   4.376   2.257   4.001 -2.7789 -0.0758  0.3477
 3114SOL     OW20800   0.079   3.107  17.685  1.3565 -0.0999 -0.4646
 3114SOL    HW120801   0.133   3.177  17.647  0.6398  0.3230 -0.7037
 3114SOL    HW220802   0.139   3.035  17.664 -0.2493 -2.1129  1.8504
 3115SOL     OW20803   0.255   3.702   4.292  0.4559  0.3026 -0.1468
 3115SOL    HW120804   0.334   3.710   4.239 -0.6099  1.4421 -1.5339
 3115SOL    HW220805   0.291   3.670   4.375  3.4375 -0.7301 -1.8416
 3116SOL     OW20806   1.510   1.352   2.323  0.5102 -0.2831 -0.4094
 3116SOL    HW120807   1.476   1.319   2.240 -2.8378  1.0055  0.4667
 3116SOL    HW220808   1.565   1.277   2.347  0.2895  0.4856  2.5192
 3117SOL     OW20809   3.248   3.438   6.967 -0.5655 -0.0299 -0.5883
 3117SOL    HW120810   3.251   3.376   6.894 -0.4320 -2.6649  1.6464
 3117SOL    HW220811   3.320   3.417   7.026  1.1851 -1.5182 -3.2634
 3118SOL     OW20812   0.001   0.344   5.620 -0.2344 -0.0117 -0.1522
 3118SOL    HW120813   0.072   0.403   5.595 -0.7298  1.0898  1.0501
 3118SOL    HW220814   0.003   0.275   5.553  1.2546 -0.6283  0.5138
 3119SOL     OW20815   2.298   2.651   6.298  0.1219  0.1326  0.3229
 3119SOL    HW120816   2.295   2.711   6.224  0.8463 -0.6691 -0.3674
 3119SOL    HW220817   2.205   2.630   6.305 -0.0684  0.4235 -1.3829
 3120SOL     OW20818   4.637   0.471  10.824 -0.4193 -0.5154 -0.0311
 3120SOL    HW120819   4.673   0.513  10.745 -1.1102  1.2105  0.5761
 3120SOL    HW220820   4.580   0.408  10.780  0.2196 -0.9437 -0.2573
 3121SOL     OW20821   3.569   2.364   8.484 -0.4930  0.1245 -0.4843
 3121SOL    HW120822   3.536   2.332   8.400  2.6704 -0.9124 -1.3045
 3121SOL    HW220823   3.608   2.282   8.513 -0.2936  1.2461  2.3873
 3122SOL     OW20824   0.225   3.460  15.316 -0.2233 -0.1939 -0.3161
 3122SOL    HW120825   0.291   3.520  15.280  1.7174 -1.4652  1.1373
 3122SOL    HW220826   0.215   3.410  15.235  2.6567 -0.6873 -0.3908
 3123SOL     OW20827   0.559   0.040   4.883 -0.3258 -0.1192 -0.7511
 3123SOL    HW120828   0.480   0.076   4.924  0.9100 -0.7640  2.1851
 3123SOL    HW220829   0.581   0.116   4.829  2.4334  0.8244  1.7105
 3124SOL     OW20830   2.431   0.101   8.439  0.0450  0.7593  1.1056
 3124SOL    HW120831   2.373   0.175   8.423 -0.0672  0.4612  0.1506
 3124SOL    HW220832   2.483   0.109   8.359  0.8693 -0.2318  1.5345
 3125SOL     OW20833   3.817   0.327  12.057 -0.0408  0.2771 -0.0137
 3125SOL    HW120834   3.825   0.277  11.976 -3.4140  1.5454 -1.1462
 3125SOL    HW220835   3.895   0.380  12.045  0.4611 -0.7463 -1.2218
 3126SOL     OW20836   3.248   0.556   2.861  0.2499  0.3977  0.0725
 3126SOL    HW120837   3.329   0.526   2.819  1.1247  2.4441  0.2873
 3126SOL    HW220838   3.179   0.522   2.804  1.2355  0.1188 -0.9411
 3127SOL     OW20839   3.370   3.987   6.939  0.1398 -0.1450  0.1460
 3127SOL    HW120840   3.459   3.973   6.906 -0.3143  0.7152 -1.4653
 3127SOL    HW220841   3.342   3.897   6.957  1.4770 -0.3679  1.1162
 3128SOL     OW20842   3.179   3.928   4.120 -0.0434  0.0899 -0.1808
 3128SOL    HW120843   3.275   3.932   4.112 -0.0231 -1.2612 -0.5769
 3128SOL    HW220844   3.164   3.983   4.043 -0.3979 -0.6186 -0.6159
 3129SOL     OW20845   0.089   4.177   8.949 -0.1549  0.4565 -0.3043
 3129SOL    HW120846   0.151   4.109   8.974 -0.0526 -0.1009 -2.0676
 3129SOL    HW220847   0.013   4.145   8.997  0.2864 -0.1537 -0.0190
 3130SOL     OW20848   2.249   0.534   1.980 -0.2125  0.5753 -0.0052
 3130SOL    HW120849   2.225   0.618   1.941 -2.2065  0.0888  0.1745
 3130SOL    HW220850   2.333   0.511   1.939 -0.0425 -1.5506  1.4848
 3131SOL     OW20851   3.652   3.259   4.480 -0.3528 -0.7257  0.8458
 3131SOL    HW120852   3.583   3.249   4.415  2.5207 -1.9753 -2.0527
 3131SOL    HW220853   3.608   3.316   4.542 -3.0643  0.5338 -2.2082
 3132SOL     OW20854   2.863   4.222   3.155 -0.2139  0.5518  0.4039
 3132SOL    HW120855   2.829   4.281   3.088 -3.7486 -0.4810  1.3054
 3132SOL    HW220856   2.948   4.199   3.116  0.0236  0.6095  0.8894
 3133SOL     OW20857   3.287   1.531   9.809  0.4123  0.1867 -0.1475
 3133SOL    HW120858   3.279   1.467   9.739  0.1576 -1.6904  1.5944
 3133SOL    HW220859   3.317   1.606   9.757 -0.4960  1.5918  1.3163
 3134SOL     OW20860   3.638   3.392   9.813  0.3529 -0.2689  0.0356
 3134SOL    HW120861   3.674   3.468   9.859 -0.5134  1.2492 -1.7681
 3134SOL    HW220862   3.706   3.335   9.848 -0.7175  0.7926  3.8076
 3135SOL     OW20863   4.014   2.242  12.331 -0.3453 -0.1891  0.2366
 3135SOL    HW120864   4.081   2.309  12.346  0.0444 -0.5641  0.1792
 3135SOL    HW220865   3.940   2.299  12.308 -1.4048 -1.4622  0.4776
 3136SOL     OW20866   2.623   1.072   8.528 -0.3355  0.6804 -0.6069
 3136SOL    HW120867   2.683   1.109   8.464  0.3763  0.4178 -0.0872
 3136SOL    HW220868   2.540   1.113   8.503 -1.2846 -1.2613 -0.6213
 3137SOL     OW20869   1.518   1.912  15.169  0.2054  0.0391  0.3002
 3137SOL    HW120870   1.502   2.006  15.174  0.1276  0.0858 -0.8081
 3137SOL    HW220871   1.454   1.880  15.233  1.6155 -1.3171  1.0391
 3138SOL     OW20872   1.708   0.029   8.006  0.0080 -0.1668  0.3651
 3138SOL    HW120873   1.619   4.720   8.016  0.6919 -2.5623 -2.0188
 3138SOL    HW220874   1.709   0.098   8.072  2.9433 -1.7534  1.9623
 3139SOL     OW20875   2.605   2.680   4.291  0.2536 -0.2550 -0.0287
 3139SOL    HW120876   2.632   2.716   4.207 -0.1495 -0.5720 -0.2967
 3139SOL    HW220877   2.613   2.756   4.348  0.3586 -0.0484 -0.3177
 3140SOL     OW20878   0.410   2.977   0.157  0.5194 -0.6138  0.0112
 3140SOL    HW120879   0.390   3.069   0.139  0.8213 -0.3787  0.9092
 3140SOL    HW220880   0.454   2.948   0.076 -2.4428 -2.7382 -0.8677
 3141SOL     OW20881   1.990   4.194  16.761 -0.0547 -0.5470 -0.7033
 3141SOL    HW120882   2.008   4.285  16.786 -3.7157 -0.5171  1.8785
 3141SOL    HW220883   1.969   4.164  16.850 -3.6883 -1.8431 -2.0007
 3142SOL     OW20884   2.976   2.026   5.784 -0.2546 -0.3309 -0.4078
 3142SOL    HW120885   2.929   2.017   5.701 -1.0165 -0.7806  0.0757
 3142SOL    HW220886   3.068   2.026   5.757  0.2721 -1.1231  1.3762
 3143SOL     OW20887   0.592   1.154   7.711  0.5851  0.1381 -0.7565
 3143SOL    HW120888   0.499   1.168   7.693  0.0288 -1.4859  0.9179
 3143SOL    HW220889   0.621   1.238   7.676 -1.7558  1.1108 -0.3883
 3144SOL     OW20890   0.336   3.218   6.260  0.6947  0.1947  0.2935
 3144SOL    HW120891   0.416   3.177   6.293 -0.0219  0.4552  2.3130
 3144SOL    HW220892   0.352   3.215   6.166  0.3513 -2.7341  0.3392
 3145SOL     OW20893   4.017   1.589   7.070 -0.5778 -0.3901  0.2718
 3145SOL    HW120894   4.080   1.635   7.013 -1.0032  2.3407  2.0055
 3145SOL    HW220895   4.039   1.641   7.148 -0.6820 -1.4923  1.0235
 3146SOL     OW20896   0.381   0.764  13.023  0.2264  0.6551 -0.4734
 3146SOL    HW120897   0.464   0.788  12.982  0.4232  0.1042 -0.4016
 3146SOL    HW220898   0.337   0.848  13.014 -1.4744 -0.3728 -1.7380
 3147SOL     OW20899   3.682   0.972   2.422 -0.0039 -0.0472 -0.2051
 3147SOL    HW120900   3.700   0.916   2.497 -3.0519  0.2519  0.7701
 3147SOL    HW220901   3.741   0.932   2.358  1.1025  0.0696  0.7479
 3148SOL     OW20902   2.099   3.971   9.329 -0.3483 -0.3559  0.2923
 3148SOL    HW120903   2.163   3.968   9.258  1.1955 -0.5875  1.6947
 3148SOL    HW220904   2.159   3.947   9.400  1.0713  1.7961 -0.1653
 3149SOL     OW20905   3.226   3.189  13.233  0.1523  0.1716 -0.4236
 3149SOL    HW120906   3.300   3.201  13.173  1.5768 -2.3895  0.8203
 3149SOL    HW220907   3.243   3.248  13.306  0.2545  0.2782 -0.5318
 3150SOL     OW20908   2.532   3.920   8.198  0.4248 -0.5993 -0.2762
 3150SOL    HW120909   2.478   3.881   8.266  0.8855  1.8078  1.4548
 3150SOL    HW220910   2.619   3.887   8.222  0.5753  0.2616  0.3565
 3151SOL     OW20911   2.430   1.758  15.169  0.5383  0.0397 -0.0956
 3151SOL    HW120912   2.512   1.710  15.182  0.4586  0.1062  0.6081
 3151SOL    HW220913   2.468   1.834  15.125 -0.3423  1.7786  2.1817
 3152SOL     OW20914   2.343   1.336  16.765 -0.4567 -0.0897  0.2728
 3152SOL    HW120915   2.303   1.367  16.846  1.4234 -0.3801  1.3169
 3152SOL    HW220916   2.353   1.243  16.781  1.1668 -0.0582 -0.5094
 3153SOL     OW20917   3.098   4.155  17.210 -0.0654  0.1111  0.5181
 3153SOL    HW120918   3.024   4.214  17.196  1.2875  1.9390  0.9943
 3153SOL    HW220919   3.169   4.219  17.220  0.8534 -1.2364  2.6080
 3154SOL     OW20920   2.727   4.460  14.278 -0.2322 -0.1520 -0.1238
 3154SOL    HW120921   2.680   4.470  14.195  0.0750 -1.6303 -0.4766
 3154SOL    HW220922   2.653   4.471  14.337 -0.6030 -0.3147 -0.5577
 3155SOL     OW20923   3.611   2.135   3.338 -0.1682 -0.3474  0.1124
 3155SOL    HW120924   3.534   2.092   3.301 -1.4278  1.6879  0.3453
 3155SOL    HW220925   3.598   2.227   3.312  1.0524  0.1878  1.4124
 3156SOL     OW20926   1.362   4.055   3.140  0.0764 -0.0445 -0.4849
 3156SOL    HW120927   1.448   4.034   3.105  0.2429 -4.2883  2.5073
 3156SOL    HW220928   1.357   4.150   3.130 -0.9023 -0.0549 -0.1101
 3157SOL     OW20929   0.359   3.703   3.429  0.1453 -0.6415  0.4804
 3157SOL    HW120930   0.264   3.715   3.432  0.1928 -0.4049  1.0380
 3157SOL    HW220931   0.376   3.724   3.521  1.6504  1.3984 -0.2884
 3158SOL     OW20932   2.767   1.215  16.702  0.5466  0.5975  0.0404
 3158SOL    HW120933   2.709   1.152  16.744 -0.6297  0.6734 -1.4552
 3158SOL    HW220934   2.701   1.277  16.670 -0.7171 -1.6940 -1.7890
 3159SOL     OW20935   3.976   3.443   3.449 -0.3041 -0.0163  0.2237
 3159SOL    HW120936   3.993   3.353   3.474  0.9732  0.1471 -0.0385
 3159SOL    HW220937   3.923   3.466   3.525  1.5976 -0.3667  1.6517
 3160SOL     OW20938   4.526   4.015   6.513 -0.2866  0.2770 -0.4321
 3160SOL    HW120939   4.451   3.993   6.568 -0.1243  0.3137 -0.1936
 3160SOL    HW220940   4.508   3.978   6.427  3.6939 -1.9219 -0.3353
 3161SOL     OW20941   4.680   1.198  12.412 -0.2421 -0.2166  0.1400
 3161SOL    HW120942   4.609   1.234  12.359 -0.1294 -1.5761 -0.9230
 3161SOL    HW220943   0.027   1.211  12.354 -0.5894  0.5465 -0.1434
 3162SOL     OW20944   3.445   1.893   8.124  0.0631  0.1580 -0.3226
 3162SOL    HW120945   3.487   1.832   8.184  0.7223  0.6269 -0.3061
 3162SOL    HW220946   3.513   1.960   8.110 -1.0353  1.1994 -0.6991
 3163SOL     OW20947   0.194   1.213   2.538  0.0413  0.5280  0.4469
 3163SOL    HW120948   0.205   1.254   2.452 -0.4800 -1.6711 -0.6518
 3163SOL    HW220949   0.215   1.124   2.512 -1.1985  0.8002 -1.4910
 3164SOL     OW20950   0.984   1.802   8.062 -0.0664  0.8300 -0.3539
 3164SOL    HW120951   0.972   1.751   8.143  0.9015  1.5850  0.2685
 3164SOL    HW220952   0.985   1.893   8.091 -1.7706  0.6171  0.3450
 3165SOL     OW20953   2.851   1.874  10.902  0.0603 -0.3245 -0.9405
 3165SOL    HW120954   2.805   1.936  10.847 -1.8819  1.2363  2.4233
 3165SOL    HW220955   2.803   1.793  10.883  1.8386 -1.8356  0.9706
 3166SOL     OW20956   3.110   3.043   7.241  0.5483 -0.1046 -0.2999
 3166SOL    HW120957   3.064   2.960   7.227  0.7176 -0.0865 -0.9607
 3166SOL    HW220958   3.120   3.069   7.149  0.8698 -0.9548 -0.5108
 3167SOL     OW20959   3.451   0.232   9.252 -0.9918  0.3255  0.5894
 3167SOL    HW120960   3.428   0.255   9.162 -1.8309  0.7224  0.9015
 3167SOL    HW220961   3.418   0.143   9.264 -0.7082  0.1246 -0.0879
 3168SOL     OW20962   2.180   2.269   7.271  0.6746 -0.3254  0.2552
 3168SOL    HW120963   2.168   2.181   7.235 -0.7899  1.1840 -2.9319
 3168SOL    HW220964   2.154   2.321   7.196  0.0709  0.2731  0.8867
 3169SOL     OW20965   4.438   0.900   8.421 -0.4720 -0.2336 -0.1803
 3169SOL    HW120966   4.376   0.917   8.492  1.8432  1.1708  1.5010
 3169SOL    HW220967   4.398   0.951   8.350 -0.6136 -0.1504 -0.0396
 3170SOL     OW20968   3.404   3.744   0.501  0.2553 -0.9083 -0.4108
 3170SOL    HW120969   3.433   3.788   0.421  0.6468  0.1968  0.3408
 3170SOL    HW220970   3.330   3.697   0.462  0.1659 -0.9478 -0.1915
 3171SOL     OW20971   1.843   0.659   9.150  0.2717  0.3171  0.5652
 3171SOL    HW120972   1.832   0.620   9.236 -0.8427  0.5153  0.5086
 3171SOL    HW220973   1.753   0.684   9.129 -0.1680 -2.1210 -0.4167
 3172SOL     OW20974   4.266   0.637  14.154 -0.2320  0.3321 -1.0090
 3172SOL    HW120975   4.215   0.631  14.073 -1.4077  1.2346 -0.3278
 3172SOL    HW220976   4.252   0.726  14.185 -0.8360 -0.3856  0.7966
 3173SOL     OW20977   1.422   4.249   8.404  0.4040 -0.2200  0.1295
 3173SOL    HW120978   1.430   4.322   8.464  0.9329 -0.5373  0.4381
 3173SOL    HW220979   1.456   4.177   8.456 -0.7276 -0.5481  0.4234
 3174SOL     OW20980   2.017   0.404  12.495  0.0742 -0.1108 -0.5260
 3174SOL    HW120981   1.957   0.458  12.442  0.4280  1.0853  0.3046
 3174SOL    HW220982   1.960   0.329  12.513 -0.7921  0.8810  0.8908
 3175SOL     OW20983   1.430   1.038   7.520 -0.5994  0.2169  0.1175
 3175SOL    HW120984   1.509   1.066   7.473  0.2739 -0.8176  0.9817
 3175SOL    HW220985   1.365   1.083   7.466  0.4725 -0.0383 -1.3780
 3176SOL     OW20986   0.777   4.472   6.046 -0.1743 -0.2918  0.2671
 3176SOL    HW120987   0.848   4.420   6.007 -0.6375 -0.1821 -0.7198
 3176SOL    HW220988   0.774   4.428   6.131  1.0261 -0.3879  0.2597
 3177SOL     OW20989   4.440   1.965   7.178 -0.0086 -0.3499  0.3518
 3177SOL    HW120990   4.512   1.904   7.160  1.4330  0.9785  1.6361
 3177SOL    HW220991   4.380   1.906   7.224  1.4391 -1.0558  1.3159
 3178SOL     OW20992   1.952   0.855   5.262  0.4010  0.5247 -0.0638
 3178SOL    HW120993   1.859   0.831   5.262  0.2145  1.1752  4.3618
 3178SOL    HW220994   1.970   0.772   5.219  0.9493  0.9765 -0.7139
 3179SOL     OW20995   0.106   0.685   1.239 -0.2799 -0.0657 -0.9307
 3179SOL    HW120996   0.086   0.778   1.232  1.2775  0.4336  1.2223
 3179SOL    HW220997   0.039   0.656   1.300  0.6651 -1.9310 -0.7839
 3180SOL     OW20998   0.966   2.835  16.700 -0.5109 -0.3584  0.2128
 3180SOL    HW120999   0.982   2.796  16.786  0.1274  1.8896  1.1106
 3180SOL    HW221000   0.991   2.926  16.715  1.7242 -1.0179  0.5407
 3181SOL     OW21001   2.142   1.963   6.783  0.3617 -0.0023 -0.3501
 3181SOL    HW121002   2.056   1.957   6.741  0.0149  3.8026 -0.1916
 3181SOL    HW221003   2.169   2.052   6.759 -0.0061  0.3574  0.5550
 3182SOL     OW21004   2.717   1.498   9.066 -0.5715  0.0977 -0.1752
 3182SOL    HW121005   2.666   1.570   9.029  0.7885 -0.7107 -3.5642
 3182SOL    HW221006   2.785   1.543   9.117 -0.6135  1.3881 -1.2599
 3183SOL     OW21007   3.640   0.551  11.128  0.9636 -0.0342  0.2081
 3183SOL    HW121008   3.553   0.514  11.145  2.2245 -2.9584  0.1988
 3183SOL    HW221009   3.687   0.470  11.109 -0.4019 -0.8205  0.1577
 3184SOL     OW21010   4.579   0.345   2.362 -0.1509 -0.5735  0.0215
 3184SOL    HW121011   4.498   0.394   2.348  1.1825  1.2117 -1.3886
 3184SOL    HW221012   4.627   0.370   2.283  1.8192  2.2838  2.1164
 3185SOL     OW21013   1.076   1.827   2.435 -0.3931 -0.4732 -0.0626
 3185SOL    HW121014   1.073   1.825   2.531 -3.1555  3.6920 -0.0375
 3185SOL    HW221015   1.070   1.922   2.424 -0.4616 -0.5280 -0.4799
 3186SOL     OW21016   0.851   3.368   2.021  0.5596  0.0916  0.4582
 3186SOL    HW121017   0.768   3.325   2.001  0.6527  0.1035  0.0454
 3186SOL    HW221018   0.905   3.301   2.063  0.8038  1.0047  1.6068
 3187SOL     OW21019   3.369   0.107   3.705 -0.2777  0.3370  0.0403
 3187SOL    HW121020   3.335   0.097   3.616  2.3195  0.2740 -0.9547
 3187SOL    HW221021   3.458   0.141   3.696  0.3982 -0.6484  3.0342
 3188SOL     OW21022   3.013   1.044  11.034 -0.0967 -0.5640  0.2181
 3188SOL    HW121023   2.978   1.133  11.027  0.9983 -0.0559  1.1843
 3188SOL    HW221024   2.997   1.013  11.124 -0.2457 -0.7707  0.1204
 3189SOL     OW21025   1.184   2.506   2.034  0.3763 -0.0702  0.2306
 3189SOL    HW121026   1.183   2.541   2.123 -0.7216  0.1033  0.1573
 3189SOL    HW221027   1.103   2.534   1.991  0.6746 -0.7114 -0.7376
 3190SOL     OW21028   3.836   2.805  15.568 -0.4073  0.5269 -0.0138
 3190SOL    HW121029   3.760   2.759  15.533 -0.8702  0.4151  1.1357
 3190SOL    HW221030   3.812   2.896  15.548 -0.9921  0.6722  1.3612
 3191SOL     OW21031   3.456   0.703   1.974  0.2473 -0.2011 -0.0060
 3191SOL    HW121032   3.368   0.698   2.012  0.2213  3.8519  0.4592
 3191SOL    HW221033   3.437   0.656   1.893 -0.6243  0.7975 -0.3716
 3192SOL     OW21034   2.370   2.062   4.783 -0.6697 -0.4080  0.2813
 3192SOL    HW121035   2.329   1.990   4.734  1.0535  0.5837 -2.5908
 3192SOL    HW221036   2.458   2.031   4.762 -1.7985 -1.5743 -2.8432
 3193SOL     OW21037   3.907   4.660   8.124  0.7021  0.4687 -0.8577
 3193SOL    HW121038   3.922   0.022   8.093 -0.5383  1.7301  2.2025
 3193SOL    HW221039   3.814   4.653   8.104  0.5023 -0.4530  0.3878
 3194SOL     OW21040   3.852   1.007   7.930 -0.2477 -0.1257 -0.0966
 3194SOL    HW121041   3.936   1.019   7.975 -0.4871 -1.0616  0.6183
 3194SOL    HW221042   3.883   0.958   7.854 -1.5318  0.6198 -1.1022
 3195SOL     OW21043   2.636   4.004   9.426 -0.4219  0.0542 -1.0455
 3195SOL    HW121044   2.666   4.093   9.408  3.1960 -1.1241 -0.8465
 3195SOL    HW221045   2.643   4.002   9.521 -1.3966 -1.8087 -1.0101
 3196SOL     OW21046   2.254   0.438   5.185  0.3267 -0.1668  0.1762
 3196SOL    HW121047   2.214   0.488   5.114 -0.5459 -1.1988 -0.0535
 3196SOL    HW221048   2.186   0.374   5.204  0.7345 -0.8159 -0.5628
 3197SOL     OW21049   1.975   3.305   6.854  0.4587 -0.2341  0.3992
 3197SOL    HW121050   2.041   3.236   6.857  0.1438 -0.5147  0.8165
 3197SOL    HW221051   2.036   3.379   6.844 -0.1826  0.0462 -1.4148
 3198SOL     OW21052   3.076   4.697  12.138 -0.1604  0.1589  0.0281
 3198SOL    HW121053   3.052   4.609  12.167 -0.1615  0.6135  1.4054
 3198SOL    HW221054   3.018   0.016  12.199 -0.0346 -1.2063  1.1864
 3199SOL     OW21055   2.714   1.907   2.502 -0.4610 -0.4977 -0.1043
 3199SOL    HW121056   2.696   1.831   2.558  1.3661 -1.2146 -0.4966
 3199SOL    HW221057   2.635   1.953   2.530 -2.5755 -3.1092 -1.7094
 3200SOL     OW21058   0.251   4.402   3.526 -0.4330 -0.3609 -0.0069
 3200SOL    HW121059   0.231   4.382   3.435 -2.4371 -0.4094  0.4548
 3200SOL    HW221060   0.323   4.463   3.510 -0.3939 -0.9192 -1.9795
 3201SOL     OW21061   3.422   4.274  11.733 -0.2773 -0.1727  0.1428
 3201SOL    HW121062   3.360   4.331  11.688 -0.9293 -0.3866  0.7720
 3201SOL    HW221063   3.494   4.273  11.669 -0.7577  0.3376 -0.4030
 3202SOL     OW21064   1.184   1.874   6.540 -0.3238  0.4369 -0.1307
 3202SOL    HW121065   1.110   1.910   6.588 -1.8199  0.6114 -2.5340
 3202SOL    HW221066   1.238   1.952   6.556 -0.2637  0.4433 -0.3640
 3203SOL     OW21067   2.084   1.651  14.326 -0.8618  0.1604  0.2291
 3203SOL    HW121068   2.137   1.595  14.382  0.1562  0.0514 -0.8489
 3203SOL    HW221069   2.100   1.740  14.358  0.7865 -0.9363  2.4057
 3204SOL     OW21070   4.139   1.846  15.222  0.1031 -0.2381  0.6042
 3204SOL    HW121071   4.137   1.936  15.190 -0.9279 -0.2117  0.7361
 3204SOL    HW221072   4.074   1.842  15.293  0.6691 -2.5178  0.9990
 3205SOL     OW21073   2.065   2.985   5.006 -0.0713 -0.1906  0.1314
 3205SOL    HW121074   2.015   2.904   5.006 -0.0318 -0.2110 -1.8785
 3205SOL    HW221075   2.000   3.045   4.969  1.3864  0.7422 -0.9206
 3206SOL     OW21076   2.886   0.215   2.239 -0.0508 -0.4122 -0.1839
 3206SOL    HW121077   2.831   0.272   2.292  0.1468  1.8693 -2.4420
 3206SOL    HW221078   2.972   0.246   2.266 -0.6664 -0.9853  2.3830
 3207SOL     OW21079   2.863   4.166   9.904  0.2342  0.1586  0.1286
 3207SOL    HW121080   2.824   4.204   9.983 -0.6088  1.2015 -0.7829
 3207SOL    HW221081   2.870   4.074   9.927 -1.0281  0.0186 -0.0431
 3208SOL     OW21082   1.072   0.043   2.226  0.3599 -0.2020 -0.5880
 3208SOL    HW121083   0.986   0.067   2.193 -0.0662 -1.0041 -0.0500
 3208SOL    HW221084   1.054   4.691   2.277  1.2811 -0.0408 -0.0110
 3209SOL     OW21085   2.447   4.253   9.891 -0.1981 -0.1442 -0.0137
 3209SOL    HW121086   2.482   4.332   9.931  0.1433 -2.2880  3.9075
 3209SOL    HW221087   2.368   4.246   9.944  0.3533 -0.1650  0.8014
 3210SOL     OW21088   3.214   3.152   9.235  0.1037 -0.2768  0.1056
 3210SOL    HW121089   3.253   3.102   9.306 -0.0239 -0.0599  0.3269
 3210SOL    HW221090   3.183   3.228   9.284  0.2217  1.2772 -2.2000
 3211SOL     OW21091   1.560   3.105   3.882  0.2913 -0.0026 -0.2940
 3211SOL    HW121092   1.503   3.036   3.847  0.1722  0.2572 -0.6147
 3211SOL    HW221093   1.607   3.061   3.952 -0.7300  0.8800  0.9350
 3212SOL     OW21094   3.968   1.849   6.931  0.4080 -0.1213 -0.0412
 3212SOL    HW121095   3.970   1.937   6.892  0.5469 -0.2705 -0.3715
 3212SOL    HW221096   3.921   1.798   6.865 -2.0419  2.5706 -0.4460
 3213SOL     OW21097   3.465   0.543   4.800 -0.6993  0.2975 -0.3284
 3213SOL    HW121098   3.520   0.618   4.782  2.8215 -2.2349 -0.1138
 3213SOL    HW221099   3.464   0.483   4.726 -0.9927  1.5545 -1.3347
 3214SOL     OW21100   4.643   2.717  13.916 -0.2761 -0.3086  0.3889
 3214SOL    HW121101   4.633   2.623  13.908 -0.3069 -0.4132  1.6036
 3214SOL    HW221102   0.008   2.731  13.934 -0.1318  1.0635 -1.3959
 3215SOL     OW21103   0.155   2.279  13.914 -0.0804  0.1123 -0.3754
 3215SOL    HW121104   0.176   2.349  13.976  1.5865 -1.8037  1.2178
 3215SOL    HW221105   0.064   2.259  13.935 -0.1749  2.4154  1.3566
 3216SOL     OW21106   2.119   1.349   1.993 -0.4536 -0.0312 -0.1395
 3216SOL    HW121107   2.146   1.349   1.902  0.6913  0.6663  0.2018
 3216SOL    HW221108   2.051   1.415   1.981 -1.9234 -1.2818  1.2164
 3217SOL     OW21109   0.618   3.615   9.102 -0.1195  0.1391  0.3717
 3217SOL    HW121110   0.674   3.577   9.170  2.3013  0.3860 -1.4422
 3217SOL    HW221111   0.538   3.612   9.154 -0.0652  2.0015  0.5878
 3218SOL     OW21112   0.535   4.664   9.330  0.3954 -0.2973 -0.0594
 3218SOL    HW121113   0.554   4.624   9.415 -2.6313 -2.6730 -0.5282
 3218SOL    HW221114   0.615   4.709   9.302 -0.1084  1.1996  0.9059
 3219SOL     OW21115   2.544   3.863   6.945  0.4958  0.4444 -0.2172
 3219SOL    HW121116   2.610   3.796   6.963 -1.2228 -1.2664 -0.3210
 3219SOL    HW221117   2.605   3.936   6.935  1.6340 -0.2341  1.9186
 3220SOL     OW21118   1.977   4.476   6.260  0.0676  0.1471 -0.4749
 3220SOL    HW121119   1.959   4.423   6.337 -0.0724 -1.8152 -1.8495
 3220SOL    HW221120   2.047   4.535   6.289  1.0707 -0.4805 -1.6258
 3221SOL     OW21121   2.860   2.601   2.621  0.3264  0.0876  0.6469
 3221SOL    HW121122   2.912   2.528   2.655  0.6900 -0.5254 -1.2145
 3221SOL    HW221123   2.857   2.656   2.699  2.6369 -0.7145  1.3119
 3222SOL     OW21124   1.252   2.993   4.756 -0.7746  0.2461 -0.1363
 3222SOL    HW121125   1.195   2.985   4.679 -1.9569  2.0443  0.5599
 3222SOL    HW221126   1.304   2.914   4.739  0.2399  1.2963 -1.8968
 3223SOL     OW21127   4.027   1.908   7.207 -0.2473  0.0104  0.2641
 3223SOL    HW121128   3.949   1.862   7.238 -0.4536 -0.4262 -0.9159
 3223SOL    HW221129   4.008   1.917   7.114 -0.1551 -1.3247  0.1225
 3224SOL     OW21130   2.667   0.176   9.488 -0.0911  0.1422  0.4131
 3224SOL    HW121131   2.668   0.259   9.537 -0.8156 -0.2035  1.0261
 3224SOL    HW221132   2.571   0.174   9.480 -0.0174 -1.8224  0.0483
 3225SOL     OW21133   1.030   3.059   5.241 -0.5374  0.0323 -0.1965
 3225SOL    HW121134   0.989   3.002   5.307  1.3900  0.1951  1.1428
 3225SOL    HW221135   0.957   3.063   5.179  0.4227 -0.7667 -1.3674
 3226SOL     OW21136   1.362   2.407  11.357  0.2005  0.0084 -0.0038
 3226SOL    HW121137   1.421   2.390  11.284  1.5585 -2.2438  1.6071
 3226SOL    HW221138   1.298   2.466  11.318  1.3125  2.0830  1.2960
 3227SOL     OW21139   2.489   3.002   0.321 -0.0001  0.6135  0.3459
 3227SOL    HW121140   2.556   3.029   0.258 -0.6687  1.7228  0.1072
 3227SOL    HW221141   2.550   2.953   0.377 -0.8571  0.4589  1.1312
 3228SOL     OW21142   0.068   2.851  12.401  0.1385  0.2622 -0.7206
 3228SOL    HW121143   0.065   2.764  12.440 -0.2066  0.6363  0.0899
 3228SOL    HW221144   0.048   2.837  12.309 -0.4262 -0.8291 -0.4372
 3229SOL     OW21145   3.366   3.350   1.662 -0.2451  0.1556 -0.2711
 3229SOL    HW121146   3.435   3.316   1.720 -1.3177 -2.5402 -0.5652
 3229SOL    HW221147   3.320   3.269   1.640  2.0652 -0.6110 -2.2307
 3230SOL     OW21148   4.515   2.853   5.557  0.2477  0.4252 -0.5014
 3230SOL    HW121149   4.485   2.912   5.626 -0.4261 -2.0206  1.3375
 3230SOL    HW221150   4.566   2.919   5.510 -1.3433  2.7422  1.0196
 3231SOL     OW21151   0.792   4.274  17.483 -0.1582 -0.3556  0.1024
 3231SOL    HW121152   0.879   4.312  17.496 -1.2751  1.7048  1.4320
 3231SOL    HW221153   0.761   4.266  17.573  1.7671  0.9761  0.8779
 3232SOL     OW21154   0.344   4.161   0.735  0.2203  0.1490 -0.4155
 3232SOL    HW121155   0.346   4.081   0.788  1.4341 -0.2437 -1.0317
 3232SOL    HW221156   0.262   4.202   0.762 -0.1795 -0.3283 -0.9047
 3233SOL     OW21157   2.800   0.527   6.024 -0.5069 -0.1892 -0.2143
 3233SOL    HW121158   2.782   0.450   5.970  0.4318  0.8358 -1.9977
 3233SOL    HW221159   2.850   0.480   6.091  1.6508  0.7547 -1.1630
 3234SOL     OW21160   0.840   3.137   9.264  0.0633 -0.3244  0.3192
 3234SOL    HW121161   0.904   3.118   9.196 -0.1312 -0.3057  0.1294
 3234SOL    HW221162   0.849   3.232   9.264  1.6077 -0.4721  2.0700
 3235SOL     OW21163   3.330   3.740   7.039 -0.0878 -0.1689 -0.6513
 3235SOL    HW121164   3.328   3.648   7.013  1.4697 -0.4701  0.2795
 3235SOL    HW221165   3.366   3.722   7.127 -0.6270 -2.0625 -0.8099
 3236SOL     OW21166   4.062   2.513  12.730  0.1519  0.2044  0.0020
 3236SOL    HW121167   4.085   2.589  12.783  1.2623 -0.5760  0.6339
 3236SOL    HW221168   4.140   2.500  12.677 -0.5574  0.3547 -1.0776
 3237SOL     OW21169   3.636   3.288   8.763 -0.6565  0.2377 -0.8115
 3237SOL    HW121170   3.624   3.347   8.688 -0.4033  2.0200  0.5508
 3237SOL    HW221171   3.639   3.355   8.831 -0.3721 -0.2881 -0.3098
 3238SOL     OW21172   4.217   0.960   4.085 -0.3150  0.2971 -0.2138
 3238SOL    HW121173   4.124   0.982   4.085  0.4050  3.3730  1.1392
 3238SOL    HW221174   4.239   1.040   4.133  3.1292 -2.4769  2.8198
 3239SOL     OW21175   0.050   3.530   3.692 -0.1203 -0.4200  0.0685
 3239SOL    HW121176   4.705   3.569   3.644  1.4254  1.5115 -0.6891
 3239SOL    HW221177   0.031   3.436   3.684 -0.9595 -0.4249  1.9728
 3240SOL     OW21178   2.453   3.580   1.853  0.2433 -0.3258  0.2859
 3240SOL    HW121179   2.379   3.602   1.909  0.2843 -0.2157  0.2974
 3240SOL    HW221180   2.490   3.668   1.857  3.4857 -1.6510 -0.2905
 3241SOL     OW21181   1.367   3.140  12.258  0.0261 -0.6219 -0.5754
 3241SOL    HW121182   1.457   3.171  12.259 -1.0434  2.4581  0.6503
 3241SOL    HW221183   1.348   3.200  12.185 -2.6537 -2.1983 -1.1879
 3242SOL     OW21184   0.225   1.374   3.882  0.2047  0.0505 -0.3692
 3242SOL    HW121185   0.132   1.353   3.888 -0.5107  3.7042  1.0053
 3242SOL    HW221186   0.225   1.454   3.935 -1.8624 -0.1951  0.0227
 3243SOL     OW21187   1.335   0.107   2.185  0.1458 -0.5446 -0.0859
 3243SOL    HW121188   1.411   0.054   2.210 -0.6616 -0.1817  3.0525
 3243SOL    HW221189   1.254   0.069   2.218  0.8459 -0.7796  1.3763
 3244SOL     OW21190   0.034   0.374  15.675  0.3886  0.3384 -0.3692
 3244SOL    HW121191   4.691   0.436  15.657  0.2702  0.7210  1.3906
 3244SOL    HW221192   0.076   0.363  15.590  1.9360  0.4162  0.3910
 3245SOL     OW21193   2.030   3.477   7.133 -0.1906 -0.1121 -0.5107
 3245SOL    HW121194   2.028   3.563   7.175  0.3706 -1.0272  1.3826
 3245SOL    HW221195   1.945   3.473   7.090 -1.0163 -0.6662  1.1776
 3246SOL     OW21196   2.031   2.945   2.960 -0.1136 -0.1646  0.1921
 3246SOL    HW121197   2.019   3.039   2.967 -2.5519 -0.2509 -2.5907
 3246SOL    HW221198   2.107   2.940   3.017 -0.8541  2.1759  1.3763
 3247SOL     OW21199   0.116   2.166   1.293 -0.0634  0.7438  0.0035
 3247SOL    HW121200   0.023   2.185   1.289 -0.2323 -0.3171 -1.4425
 3247SOL    HW221201   0.124   2.092   1.232  1.9024  0.0715  1.0797
 3248SOL     OW21202   2.426   1.008  13.389 -0.3970 -0.2958  0.4523
 3248SOL    HW121203   2.375   0.929  13.412 -0.9083  0.2300  1.1396
 3248SOL    HW221204   2.367   1.083  13.390 -1.2252 -0.9440 -0.0453
 3249SOL     OW21205   4.233   3.359   1.999  0.5388  0.6236  0.1310
 3249SOL    HW121206   4.185   3.295   1.945  2.4330 -0.8555  0.1788
 3249SOL    HW221207   4.172   3.387   2.067 -2.1379 -2.1154 -1.1371
 3250SOL     OW21208   3.664   1.043   2.743  0.4372 -0.2488  0.3768
 3250SOL    HW121209   3.605   1.053   2.667  1.8401  2.1183 -0.4119
 3250SOL    HW221210   3.603   1.070   2.812 -0.8775  1.2392 -1.3517
 3251SOL     OW21211   0.597   0.389   2.966 -0.0070  0.0066 -0.1813
 3251SOL    HW121212   0.560   0.340   2.892 -2.4829  3.1689 -1.0227
 3251SOL    HW221213   0.682   0.410   2.929 -1.0247  3.5826 -0.4813
 3252SOL     OW21214   0.715   2.522   5.539 -0.1247 -0.1556  0.3737
 3252SOL    HW121215   0.777   2.552   5.472 -0.6997  0.4905  0.1361
 3252SOL    HW221216   0.763   2.446   5.574 -0.7670 -1.4463 -1.5325
 3253SOL     OW21217   0.185   2.911   7.184  0.0453 -0.0005 -0.1829
 3253SOL    HW121218   0.224   2.827   7.209 -1.5175 -0.5130  0.5662
 3253SOL    HW221219   0.093   2.912   7.209 -0.1386  1.7292 -0.9623
 3254SOL     OW21220   1.268   2.164   2.964 -0.2367  0.3238 -0.1075
 3254SOL    HW121221   1.240   2.185   2.875 -1.4053  1.6810  0.5726
 3254SOL    HW221222   1.201   2.099   2.987  0.5435 -0.7433 -0.8682
 3255SOL     OW21223   2.682   1.815   5.546  0.0671 -0.6671  0.0418
 3255SOL    HW121224   2.640   1.739   5.588  2.5834 -1.0743  1.7740
 3255SOL    HW221225   2.729   1.765   5.479 -0.8152  0.3402 -1.3179
 3256SOL     OW21226   2.332   2.079   5.912 -0.2185 -0.4429 -0.7015
 3256SOL    HW121227   2.319   2.049   5.822 -1.6821 -0.5420 -0.4589
 3256SOL    HW221228   2.372   1.997   5.942 -2.2521 -0.9918  0.5369
 3257SOL     OW21229   0.943   1.049   2.023  0.4351 -0.2958 -0.0011
 3257SOL    HW121230   0.903   1.070   1.939 -0.5909  0.1801  0.6165
 3257SOL    HW221231   0.909   1.106   2.092  0.7380  0.1975 -0.2565
 3258SOL     OW21232   4.415   1.314   2.671 -0.1608  0.1827  0.3865
 3258SOL    HW121233   4.457   1.379   2.615 -1.8227  0.1900 -0.8443
 3258SOL    HW221234   4.460   1.333   2.753  1.7992 -1.0914 -0.4013
 3259SOL     OW21235   2.911   4.026  13.712 -0.6284  0.3074 -0.5217
 3259SOL    HW121236   2.928   4.097  13.774  1.4166  0.4191 -1.2104
 3259SOL    HW221237   2.882   3.959  13.774 -0.1446  0.2583 -0.3504
 3260SOL     OW21238   0.934   0.563  10.772 -0.4382 -0.7300  0.6413
 3260SOL    HW121239   0.839   0.556  10.769 -0.5088  0.3349  0.4035
 3260SOL    HW221240   0.941   0.642  10.827  2.7600 -0.3929 -0.2170
 3261SOL     OW21241   2.678   4.297   9.713  0.5827 -0.1807 -0.0705
 3261SOL    HW121242   2.721   4.212   9.726  0.3693 -0.0754  1.2601
 3261SOL    HW221243   2.589   4.267   9.728  0.6436  0.0743  0.7955
 3262SOL     OW21244   3.557   3.846   7.521  0.0261 -0.5847  0.0748
 3262SOL    HW121245   3.478   3.884   7.560 -0.3721 -1.3601  0.0048
 3262SOL    HW221246   3.616   3.857   7.596  1.1504 -2.6462 -0.5107
 3263SOL     OW21247   4.565   2.852  15.774 -0.1030  0.0692 -0.4980
 3263SOL    HW121248   4.494   2.801  15.736 -0.2021 -0.8984  0.9623
 3263SOL    HW221249   4.546   2.834  15.866 -0.5334 -1.6007 -0.9118
 3264SOL     OW21250   3.082   2.900   9.292 -0.0334  0.0045 -0.0346
 3264SOL    HW121251   3.110   2.956   9.220  0.0417  1.0557  0.8194
 3264SOL    HW221252   3.091   2.816   9.246 -0.0295 -0.6525  1.1648
 3265SOL     OW21253   1.485   0.204  15.426  0.1925 -0.1555 -0.4829
 3265SOL    HW121254   1.497   0.177  15.517 -0.9943 -0.8714 -0.5394
 3265SOL    HW221255   1.528   0.129  15.384  0.6291  0.1546 -0.5902
 3266SOL     OW21256   1.352   2.418   4.994 -0.1916 -0.0748  0.0246
 3266SOL    HW121257   1.368   2.418   4.900 -0.6199 -1.2681 -0.0408
 3266SOL    HW221258   1.438   2.393   5.025  0.3572  0.9778 -0.6358
 3267SOL     OW21259   1.551   0.373   2.494  0.1028 -0.2856 -0.3269
 3267SOL    HW121260   1.498   0.363   2.415 -1.2272  0.7510  0.4260
 3267SOL    HW221261   1.566   0.283   2.523  0.4934 -0.5499 -1.3723
 3268SOL     OW21262   1.042   1.870   4.534  0.1798 -0.1881 -0.0305
 3268SOL    HW121263   1.123   1.912   4.561  1.5948 -3.1213  0.3057
 3268SOL    HW221264   1.059   1.777   4.548  0.0248  0.0166  1.5557
 3269SOL     OW21265   1.137   0.739   3.594  0.2644  0.1104  0.3634
 3269SOL    HW121266   1.083   0.786   3.658 -1.6445  0.2478 -1.3642
 3269SOL    HW221267   1.103   0.653   3.618 -0.7606  0.3212 -0.3394
 3270SOL     OW21268   4.330   2.183   8.288 -0.1151 -0.1668 -1.0174
 3270SOL    HW121269   4.265   2.183   8.358  0.8477  0.4050 -0.1277
 3270SOL    HW221270   4.343   2.277   8.277 -1.3473  0.2677  1.3564
 3271SOL     OW21271   1.866   1.752   2.178  0.7020  0.1601  0.1424
 3271SOL    HW121272   1.822   1.760   2.093  1.7775  5.1319  0.0641
 3271SOL    HW221273   1.842   1.832   2.225 -4.2466 -1.1506 -0.1228
 3272SOL     OW21274   4.125   4.065   7.183  0.2196 -0.2054  0.2692
 3272SOL    HW121275   4.121   4.152   7.223 -0.0394  0.8836 -2.0991
 3272SOL    HW221276   4.219   4.048   7.196  0.3056  0.0455 -0.0116
 3273SOL     OW21277   1.775   0.190   9.778 -0.3030  0.0919 -0.3536
 3273SOL    HW121278   1.756   0.261   9.716 -1.1930  1.0262  0.9770
 3273SOL    HW221279   1.746   0.112   9.731  0.6232 -0.1479 -0.5144
 3274SOL     OW21280   0.750   0.571   4.541  0.0362 -0.3006  0.2262
 3274SOL    HW121281   0.666   0.552   4.500  0.6378 -1.3848 -0.4888
 3274SOL    HW221282   0.717   0.624   4.613  2.7759  2.4621 -0.5515
 3275SOL     OW21283   4.620   4.553   7.836 -0.5088  0.3042  0.8894
 3275SOL    HW121284   4.659   4.519   7.755  3.8985  0.4527  2.9375
 3275SOL    HW221285   4.635   4.477   7.893  0.1881 -1.1986 -1.2937
 3276SOL     OW21286   0.111   2.884   4.394  0.0072  0.0019 -0.1247
 3276SOL    HW121287   0.074   2.971   4.387 -0.0284 -0.1256 -1.4570
 3276SOL    HW221288   0.057   2.852   4.466 -2.5326  0.6391 -1.7414
 3277SOL     OW21289   2.176   3.152   8.473 -0.0405  0.1961 -0.0537
 3277SOL    HW121290   2.248   3.216   8.476 -0.5033  0.7188 -0.1697
 3277SOL    HW221291   2.159   3.135   8.381 -2.0915 -0.7527  0.5199
 3278SOL     OW21292   1.531   3.302  16.086  0.3321  0.1477 -0.0643
 3278SOL    HW121293   1.518   3.207  16.090 -1.5975  0.4560  1.1434
 3278SOL    HW221294   1.484   3.326  16.006 -0.3156 -1.6722 -0.2282
 3279SOL     OW21295   2.167   2.425  12.384  0.0538  0.1088 -0.6832
 3279SOL    HW121296   2.148   2.335  12.356  0.2210  0.5476 -2.1694
 3279SOL    HW221297   2.087   2.464  12.348 -2.0379 -1.3130  2.2958
 3280SOL     OW21298   4.570   2.494   4.965  0.1843 -0.4522  0.3032
 3280SOL    HW121299   4.619   2.574   4.946  0.0557 -0.6378 -0.8192
 3280SOL    HW221300   4.537   2.468   4.879 -1.7514 -0.0405  0.9072
 3281SOL     OW21301   3.806   0.293   3.797  0.4969 -0.5721  1.4949
 3281SOL    HW121302   3.774   0.374   3.836 -2.8568 -0.4912 -1.3657
 3281SOL    HW221303   3.729   0.268   3.745  0.3303  0.1376  1.3963
 3282SOL     OW21304   4.217   2.915   5.397  0.2593 -0.3431  0.2443
 3282SOL    HW121305   4.173   2.999   5.412  0.8484 -0.4806  2.8170
 3282SOL    HW221306   4.217   2.876   5.484 -1.5426  2.0286  1.3188
 3283SOL     OW21307   3.048   3.327   4.742  0.2238 -0.3731 -0.1158
 3283SOL    HW121308   2.989   3.328   4.817 -0.9076  0.2469 -1.0061
 3283SOL    HW221309   3.091   3.412   4.747  0.8492 -0.6146 -1.6236
 3284SOL     OW21310   1.619   2.829   8.341  0.6988 -0.4461 -0.0185
 3284SOL    HW121311   1.633   2.921   8.364  0.6400 -0.1430 -1.2169
 3284SOL    HW221312   1.552   2.844   8.275 -0.4287 -2.2540  0.7249
 3285SOL     OW21313   2.424   4.096   1.834  0.1287  0.2363 -0.5024
 3285SOL    HW121314   2.482   4.093   1.759  2.1923 -1.3623  1.1507
 3285SOL    HW221315   2.340   4.067   1.799 -0.3129  0.6171  0.2299
 3286SOL     OW21316   0.806   1.053   8.265  0.1638 -0.1895  0.8334
 3286SOL    HW121317   0.828   1.027   8.176 -0.5378  0.1551  0.5600
 3286SOL    HW221318   0.844   1.140   8.275 -1.4379  0.7059 -0.7719
 3287SOL     OW21319   0.053   0.498   3.808 -0.1674  0.7958 -0.3785
 3287SOL    HW121320   4.693   0.467   3.833  0.4815 -0.7573 -0.0623
 3287SOL    HW221321   0.059   0.446   3.727  0.9302  0.7218 -0.2463
 3288SOL     OW21322   1.599   1.482   7.023  0.0527 -0.8611  0.0318
 3288SOL    HW121323   1.693   1.474   7.042  0.0068 -2.1485 -0.2378
 3288SOL    HW221324   1.598   1.566   6.978  2.5740 -0.4787  0.6817
 3289SOL     OW21325   2.461   3.634   9.070 -0.0025 -0.2540  0.1019
 3289SOL    HW121326   2.412   3.681   9.002  0.4189 -1.5841 -1.1268
 3289SOL    HW221327   2.509   3.708   9.106 -1.8386  0.3874  1.2490
 3290SOL     OW21328   3.134   3.134   3.112 -0.7987 -0.1400  0.0548
 3290SOL    HW121329   3.230   3.134   3.119 -0.7530  0.5816 -0.5764
 3290SOL    HW221330   3.117   3.069   3.180 -1.9663 -0.8501 -0.9116
 3291SOL     OW21331   2.209   2.442   8.967 -0.6456  0.0262  0.0172
 3291SOL    HW121332   2.222   2.536   8.949  1.8097 -0.3790 -0.3136
 3291SOL    HW221333   2.293   2.407   8.994 -1.3135 -0.6401  1.2110
 3292SOL     OW21334   0.883   3.927   8.382 -0.2464 -0.2337  0.0057
 3292SOL    HW121335   0.939   3.850   8.371  1.6591  1.2848 -0.9139
 3292SOL    HW221336   0.869   3.962   8.294 -1.8693 -2.4567 -0.6249
 3293SOL     OW21337   1.558   1.175   3.059  1.0144  0.1411  0.1896
 3293SOL    HW121338   1.575   1.172   2.964 -1.9048 -0.4436 -0.3257
 3293SOL    HW221339   1.579   1.267   3.072  0.6823  0.6360 -2.7931
 3294SOL     OW21340   3.682   0.992   3.179  0.4898  0.2112  0.2174
 3294SOL    HW121341   3.674   1.057   3.249 -0.9202  0.1289  0.1378
 3294SOL    HW221342   3.777   0.985   3.169  0.2550 -2.1353 -0.3480
 3295SOL     OW21343   2.360   0.727   6.929 -0.4947  0.1025 -0.7228
 3295SOL    HW121344   2.331   0.755   6.842 -1.6241 -0.6659 -0.5970
 3295SOL    HW221345   2.281   0.681   6.958 -1.5070  2.4435  0.2111
 3296SOL     OW21346   0.622   3.080   3.735  0.3469 -0.2723 -0.3651
 3296SOL    HW121347   0.610   3.125   3.651  2.0611 -0.3885 -0.6763
 3296SOL    HW221348   0.705   3.033   3.723  1.5762  1.8792 -0.3436
 3297SOL     OW21349   3.868   0.022   5.828  0.3115 -0.4606  0.2894
 3297SOL    HW121350   3.831   0.066   5.906  1.6364  0.0124  0.6452
 3297SOL    HW221351   3.957   0.056   5.836 -0.2638  0.5760  2.4726
 3298SOL     OW21352   2.187   2.496   2.511  0.1844 -0.7782  0.2555
 3298SOL    HW121353   2.269   2.530   2.475 -0.4053 -0.1779 -0.5205
 3298SOL    HW221354   2.128   2.540   2.451  1.2554  1.2574  0.7006
 3299SOL     OW21355   3.768   1.557   8.967 -0.1468  0.2809  0.3902
 3299SOL    HW121356   3.711   1.626   9.001 -0.5919  0.1409 -0.0667
 3299SOL    HW221357   3.707   1.497   8.924  1.3986  0.0806 -1.5225
 3300SOL     OW21358   2.769   2.868   6.992 -0.5944  0.0984 -0.2676
 3300SOL    HW121359   2.851   2.825   7.017  0.0987  2.3354  1.3239
 3300SOL    HW221360   2.802   2.958   6.985 -3.0363  0.9190 -1.0151
 3301SOL     OW21361   3.269   4.260  12.040  0.5649 -0.4638  0.0009
 3301SOL    HW121362   3.216   4.326  11.996  1.6448 -1.0506 -2.1779
 3301SOL    HW221363   3.197   4.201  12.062  2.3972 -2.6339  0.1348
 3302SOL     OW21364   0.344   0.890  13.905  0.3931  0.2413 -0.4268
 3302SOL    HW121365   0.251   0.870  13.918  1.1038 -1.5766  1.8500
 3302SOL    HW221366   0.382   0.807  13.877  2.6758  1.1689 -0.0642
 3303SOL     OW21367   3.843   0.432   7.410 -0.0615 -0.5819 -0.8206
 3303SOL    HW121368   3.763   0.427   7.358  0.1051  1.0933 -1.2382
 3303SOL    HW221369   3.902   0.456   7.338  0.4428  1.5379  0.3000
 3304SOL     OW21370   3.695   3.708   4.011  0.3703  0.4875 -0.1276
 3304SOL    HW121371   3.739   3.781   4.056  1.8208  0.2304 -1.1497
 3304SOL    HW221372   3.662   3.750   3.932  0.8123 -0.6929 -0.9270
 3305SOL     OW21373   4.467   1.888   6.826 -0.1635  0.0035  0.4673
 3305SOL    HW121374   4.468   1.977   6.864 -1.5276  0.1815  0.1128
 3305SOL    HW221375   4.376   1.862   6.842  0.3512 -1.9188  0.1721
 3306SOL     OW21376   3.777   2.866   3.314  0.6238  0.5367 -0.2672
 3306SOL    HW121377   3.873   2.866   3.316  0.6263 -2.1984 -1.1594
 3306SOL    HW221378   3.768   2.773   3.297  1.5805 -0.0207  2.3123
 3307SOL     OW21379   1.959   0.589   5.456  0.0602 -0.3267  0.9127
 3307SOL    HW121380   1.931   0.662   5.510  0.4588  1.2141 -0.9842
 3307SOL    HW221381   1.892   0.602   5.389  0.4969 -2.2348  0.1047
 3308SOL     OW21382   3.290   2.219   1.961  0.2236  0.1539 -0.3722
 3308SOL    HW121383   3.227   2.184   2.024  0.5547  1.7168  0.8118
 3308SOL    HW221384   3.352   2.146   1.967  0.3576  0.2335 -0.7698
 3309SOL     OW21385   3.443   3.582   6.463  0.1423  0.3239 -0.3588
 3309SOL    HW121386   3.404   3.526   6.397  1.0358 -1.0567  0.2913
 3309SOL    HW221387   3.371   3.596   6.524  0.6840 -3.2309  1.0897
 3310SOL     OW21388   2.581   3.881   5.941 -0.0533 -0.3093  0.2127
 3310SOL    HW121389   2.570   3.917   5.853 -0.3870  0.4451  0.5673
 3310SOL    HW221390   2.510   3.922   5.989 -0.1552  0.0006 -0.2012
 3311SOL     OW21391   3.146   2.995  14.793  0.0875  0.3945 -0.2315
 3311SOL    HW121392   3.214   2.966  14.854  0.0021 -1.2201 -0.8980
 3311SOL    HW221393   3.176   2.964  14.707 -1.2962  0.8694 -0.8930
 3312SOL     OW21394   0.675   3.093   7.141  0.1647  0.0963 -0.9425
 3312SOL    HW121395   0.651   3.139   7.060  2.2298 -0.6628 -1.9879
 3312SOL    HW221396   0.733   3.158   7.181  0.4208 -0.7026 -0.0150
 3313SOL     OW21397   2.456   1.696   4.401  0.0430  0.6522 -0.1215
 3313SOL    HW121398   2.495   1.764   4.347 -1.2099  0.9211 -0.6903
 3313SOL    HW221399   2.523   1.635   4.432  2.0159  2.1179 -1.5322
 3314SOL     OW21400   2.635   3.206   0.794 -0.1188  0.2487  0.4930
 3314SOL    HW121401   2.644   3.242   0.705 -2.6076  2.7896  1.2725
 3314SOL    HW221402   2.593   3.275   0.846  0.6930  2.3539 -1.6238
 3315SOL     OW21403   1.750   1.051   8.054  0.5069 -0.0714 -0.2383
 3315SOL    HW121404   1.713   1.009   7.976  0.7184 -3.6380  1.6407
 3315SOL    HW221405   1.674   1.068   8.109  0.9319 -2.1434  0.9767
 3316SOL     OW21406   4.298   4.464   4.115 -0.4192  0.7095 -0.5404
 3316SOL    HW121407   4.203   4.467   4.104 -0.3473  3.1710 -0.6641
 3316SOL    HW221408   4.320   4.375   4.090  0.2205  0.4234  1.0263
 3317SOL     OW21409   3.488   3.177   9.963  0.3810 -0.3906  0.3782
 3317SOL    HW121410   3.443   3.094   9.978 -0.1199 -0.1503  0.2344
 3317SOL    HW221411   3.576   3.147   9.985  0.0815 -1.8868 -0.5044
 3318SOL     OW21412   2.365   1.176   5.088 -0.3187 -0.0063  0.2597
 3318SOL    HW121413   2.317   1.108   5.135 -0.3386 -0.9483 -1.1138
 3318SOL    HW221414   2.459   1.163   5.103 -0.5800 -1.7405  0.4568
 3319SOL     OW21415   4.219   4.514   5.920  0.5967 -0.1447 -0.1610
 3319SOL    HW121416   4.277   4.505   5.995  1.2866 -0.9779 -0.7913
 3319SOL    HW221417   4.216   4.425   5.886 -1.6980  0.2201 -0.8965
 3320SOL     OW21418   0.417   1.631   7.686 -0.1549  0.0444  0.3915
 3320SOL    HW121419   0.379   1.544   7.696  3.1407 -1.4948 -0.5756
 3320SOL    HW221420   0.461   1.641   7.771  0.7656  2.0705 -0.3086
 3321SOL     OW21421   2.539   2.410   4.747 -0.4353 -0.2430  0.1606
 3321SOL    HW121422   2.513   2.488   4.698  1.6048  1.8961  2.5222
 3321SOL    HW221423   2.527   2.430   4.840  0.9569  1.3686 -0.0178
 3322SOL     OW21424   4.682   4.337  14.963  0.1136 -0.3096  0.2113
 3322SOL    HW121425   4.637   4.349  14.880 -2.2358  2.3852  1.8662
 3322SOL    HW221426   4.680   4.426  14.997  0.0325 -1.0599  2.1644
 3323SOL     OW21427   0.810   1.205   2.959 -0.0439 -0.4169  0.0319
 3323SOL    HW121428   0.880   1.190   3.023  0.5957  0.4015 -0.4875
 3323SOL    HW221429   0.843   1.287   2.922  1.0678 -0.2047  1.5112
 3324SOL     OW21430   0.206   1.302   6.560 -0.4889  0.0793  0.8730
 3324SOL    HW121431   0.267   1.316   6.488 -1.8156 -2.7425 -0.8086
 3324SOL    HW221432   0.230   1.222   6.607 -2.7521 -0.2650  1.4505
 3325SOL     OW21433   2.142   4.726   2.553  0.0190  0.4248  0.6069
 3325SOL    HW121434   2.127   4.725   2.648 -2.2161 -2.1247  0.2340
 3325SOL    HW221435   2.108   4.642   2.522 -0.0933  0.1920  1.3420
 3326SOL     OW21436   3.015   2.347   0.238 -0.3033  0.1120 -0.0683
 3326SOL    HW121437   2.966   2.298   0.172  0.2885  2.0837 -2.0140
 3326SOL    HW221438   2.938   2.367   0.292 -2.2199  0.8288 -3.0468
 3327SOL     OW21439   0.570   0.835   6.601  0.6193  0.0879  0.2977
 3327SOL    HW121440   0.522   0.756   6.580  1.5427 -0.2720 -0.4789
 3327SOL    HW221441   0.528   0.894   6.539  1.0239 -1.0986 -1.1137
 3328SOL     OW21442   0.060   3.641  12.542 -0.5888 -0.2770  0.3012
 3328SOL    HW121443   0.116   3.717  12.526 -1.5138  0.4034  0.2816
 3328SOL    HW221444   0.007   3.642  12.462  1.0562 -0.1941 -0.7871
 3329SOL     OW21445   2.402   0.277   4.143  0.3154  0.4735  0.2838
 3329SOL    HW121446   2.480   0.283   4.198 -0.7547  1.0882  1.7279
 3329SOL    HW221447   2.423   0.308   4.055 -0.9192  2.0025  0.5214
 3330SOL     OW21448   0.539   2.911   3.355 -0.2132 -0.2715 -0.1297
 3330SOL    HW121449   0.588   2.854   3.295  0.6589  0.3833 -0.0321
 3330SOL    HW221450   0.447   2.888   3.341 -0.2318 -0.1912 -0.1414
 3331SOL     OW21451   2.470   3.689   3.853 -0.4011  0.0842 -0.7304
 3331SOL    HW121452   2.390   3.657   3.811 -2.7592  2.1150  2.2181
 3331SOL    HW221453   2.525   3.621   3.814 -0.1161  1.7356 -3.2131
 3332SOL     OW21454   4.408   3.819   5.470  0.3098  0.4092  0.1020
 3332SOL    HW121455   4.395   3.725   5.457  2.5534  0.3809 -1.8984
 3332SOL    HW221456   4.435   3.834   5.560 -0.8271  0.7308  0.3898
 3333SOL     OW21457   2.587   3.704   1.601  0.1793 -0.3634  0.9483
 3333SOL    HW121458   2.678   3.694   1.572 -0.1121 -0.5910  0.1322
 3333SOL    HW221459   2.605   3.738   1.689  0.5398  3.3289 -0.5767
 3334SOL     OW21460   1.009   1.858   2.697 -0.3060  0.0289 -0.5591
 3334SOL    HW121461   1.070   1.930   2.710 -0.2094  0.0831 -1.3214
 3334SOL    HW221462   0.961   1.860   2.780  2.4150  1.3209  0.9716
 3335SOL     OW21463   3.351   0.264   9.555 -0.2814 -0.0742 -0.1194
 3335SOL    HW121464   3.316   0.221   9.634  1.4743 -1.2224  0.0318
 3335SOL    HW221465   3.420   0.314   9.598  0.2806  0.4556 -1.6407
 3336SOL     OW21466   2.838   4.519   6.453 -0.5419 -0.1009 -0.4900
 3336SOL    HW121467   2.933   4.528   6.444 -0.6971  0.8506 -1.0939
 3336SOL    HW221468   2.832   4.426   6.432  2.8515 -1.1154  2.9328
 3337SOL     OW21469   2.402   1.154   2.494  0.0417  0.3718 -0.2185
 3337SOL    HW121470   2.315   1.180   2.522 -0.9957 -0.7645 -2.3958
 3337SOL    HW221471   2.394   1.204   2.413  2.3425  1.1661  0.0483
 3338SOL     OW21472   1.571   4.639   2.786  0.1597 -0.8463  0.5603
 3338SOL    HW121473   1.491   4.605   2.746  0.5340  2.7215 -3.2815
 3338SOL    HW221474   1.576   4.574   2.856 -2.4769 -0.4834  1.0595
 3339SOL     OW21475   2.562   0.226  10.514  0.0773 -0.1038 -0.7639
 3339SOL    HW121476   2.498   0.159  10.540  0.9620  0.3909  2.6614
 3339SOL    HW221477   2.507   0.304  10.514  3.1745  2.0736 -2.3322
 3340SOL     OW21478   2.071   4.330   9.406  0.5127  0.1925 -0.0580
 3340SOL    HW121479   2.077   4.262   9.473 -1.2480 -1.3012 -1.4406
 3340SOL    HW221480   2.110   4.410   9.441  0.0279  0.1214  0.6659
 3341SOL     OW21481   1.091   3.522   1.097  0.2490  0.8601  0.0540
 3341SOL    HW121482   1.123   3.498   1.184 -1.4755 -2.7426 -0.3347
 3341SOL    HW221483   0.997   3.508   1.103  0.6230 -0.8586  1.9827
 3342SOL     OW21484   2.037   0.353   8.622 -0.4848 -0.1617 -0.7449
 3342SOL    HW121485   2.100   0.296   8.666  1.9871  1.7306 -1.8901
 3342SOL    HW221486   2.018   0.296   8.547  0.2914 -2.3169  0.7036
 3343SOL     OW21487   2.948   2.474   7.761 -0.1494  0.2799 -0.0851
 3343SOL    HW121488   2.913   2.448   7.846  1.5062  0.1668  0.5624
 3343SOL    HW221489   2.989   2.559   7.779  1.1811 -0.1971 -0.9395
 3344SOL     OW21490   0.612   1.141   7.334  0.5009  0.2548 -0.2837
 3344SOL    HW121491   0.701   1.174   7.342 -0.3183  1.6218  3.3682
 3344SOL    HW221492   0.619   1.049   7.362  0.2894 -0.1392 -1.4995
 3345SOL     OW21493   1.638   1.892  12.963 -0.6182  0.1693  0.1392
 3345SOL    HW121494   1.614   1.945  12.887  2.9114  2.3086  0.5283
 3345SOL    HW221495   1.567   1.911  13.025  0.1549 -0.8856  1.3348
 3346SOL     OW21496   1.660   0.899  16.869  0.3914  0.4374 -0.9646
 3346SOL    HW121497   1.570   0.916  16.842  0.4855  1.8501 -0.3860
 3346SOL    HW221498   1.705   0.865  16.791  1.7946 -0.0844  0.0836
 3347SOL     OW21499   1.063   3.139   8.098  0.3271 -0.7036 -0.1490
 3347SOL    HW121500   1.012   3.109   8.173 -1.1283  2.8481  0.2825
 3347SOL    HW221501   1.041   3.075   8.030  1.4287  0.5364 -1.6860
 3348SOL     OW21502   3.855   0.486   5.152 -0.0451 -0.3944 -0.0894
 3348SOL    HW121503   3.838   0.400   5.113 -0.8815  0.6213 -1.9423
 3348SOL    HW221504   3.947   0.474   5.177 -0.1483  0.7387  0.8056
 3349SOL     OW21505   3.926   1.560   1.844 -0.1843 -0.7358  0.2628
 3349SOL    HW121506   3.840   1.556   1.886  0.1018  1.4535  1.0533
 3349SOL    HW221507   3.911   1.497   1.774  2.5130 -1.3364  0.2369
 3350SOL     OW21508   4.025   3.223   9.393 -0.5353 -0.4822 -0.1432
 3350SOL    HW121509   4.031   3.279   9.316 -1.9963 -0.7437 -0.4551
 3350SOL    HW221510   3.977   3.289   9.444  0.4566  0.0874  0.0550
 3351SOL     OW21511   3.117   1.474  13.608  0.0242 -0.2931 -0.1472
 3351SOL    HW121512   3.022   1.487  13.604 -0.0294 -0.4047  0.9434
 3351SOL    HW221513   3.153   1.560  13.630 -0.6249  0.5446 -2.3000
 3352SOL     OW21514   0.685   0.273   5.703  0.0899  0.5278  1.0116
 3352SOL    HW121515   0.618   0.272   5.771  0.8371 -0.0583  1.7459
 3352SOL    HW221516   0.634   0.280   5.622 -0.7245  2.8007  1.7315
 3353SOL     OW21517   0.798   2.657  17.273 -0.3894  0.1942 -0.0441
 3353SOL    HW121518   0.866   2.616  17.326 -0.9587  1.4475  1.6537
 3353SOL    HW221519   0.773   2.575  17.231  1.2016 -0.7612  0.8551
 3354SOL     OW21520   1.950   0.674   3.056 -0.0179  0.1291 -0.1091
 3354SOL    HW121521   1.903   0.617   2.995 -1.6065  1.4822 -0.1418
 3354SOL    HW221522   1.998   0.612   3.111 -1.3722 -0.3528  0.5391
 3355SOL     OW21523   1.410   1.076   9.579 -0.6055  0.2499  0.2287
 3355SOL    HW121524   1.356   1.047   9.506 -0.2413  1.3476 -0.4616
 3355SOL    HW221525   1.429   1.167   9.559  1.7161 -0.3679 -0.4665
 3356SOL     OW21526   0.907   3.352   9.096  0.3362  0.1521  0.5098
 3356SOL    HW121527   0.920   3.442   9.124  1.2418 -0.7315  2.9237
 3356SOL    HW221528   0.991   3.341   9.052 -0.4074 -1.2477 -0.5928
 3357SOL     OW21529   0.669   0.681  13.644 -0.7352 -0.0245 -0.7822
 3357SOL    HW121530   0.734   0.625  13.603  0.0682  0.9078 -0.7838
 3357SOL    HW221531   0.696   0.763  13.602 -1.3985 -0.0940 -1.3513
 3358SOL     OW21532   0.335   4.071   2.100  0.0746  0.2898  0.0524
 3358SOL    HW121533   0.405   4.073   2.035 -1.3120 -3.0564 -1.5548
 3358SOL    HW221534   0.316   4.163   2.113 -0.5051  0.2359 -0.4249
 3359SOL     OW21535   2.206   2.353   3.643 -0.0477 -0.0829  0.4463
 3359SOL    HW121536   2.279   2.293   3.655  2.4042  2.9751  0.8483
 3359SOL    HW221537   2.134   2.292   3.657  0.0249 -0.3675 -0.4005
 3360SOL     OW21538   0.220   4.617  12.137 -0.4056  0.1574  0.5609
 3360SOL    HW121539   0.136   4.578  12.113  0.5302 -1.1707 -0.6056
 3360SOL    HW221540   0.193   4.683  12.201 -0.5538 -2.1429  2.8881
 3361SOL     OW21541   3.890   4.226   5.400 -0.0175 -0.3246  0.2853
 3361SOL    HW121542   3.851   4.274   5.472  2.5361 -0.7085  1.9221
 3361SOL    HW221543   3.826   4.162   5.370 -1.8662  1.0758  1.2497
 3362SOL     OW21544   1.901   1.056   6.541 -0.1419  0.2487  0.3609
 3362SOL    HW121545   1.807   1.070   6.540 -0.0818  0.6341 -0.0644
 3362SOL    HW221546   1.916   1.001   6.465  0.2348  0.3673  0.3482
 3363SOL     OW21547   4.466   0.492  14.294 -0.0380 -0.4538 -0.1985
 3363SOL    HW121548   4.408   0.531  14.229  1.6922 -0.4779 -1.7514
 3363SOL    HW221549   4.403   0.440  14.344  0.2189  0.3136  0.9354
 3364SOL     OW21550   3.345   4.461   2.720 -0.0030 -0.7253 -0.5333
 3364SOL    HW121551   3.398   4.464   2.640 -1.3773 -1.5428 -1.4697
 3364SOL    HW221552   3.408   4.420   2.778 -0.1346 -0.3342 -0.1201
 3365SOL     OW21553   3.574   1.622   2.211 -0.2345  0.1063 -0.3943
 3365SOL    HW121554   3.549   1.572   2.289 -0.6233  1.2609  0.2230
 3365SOL    HW221555   3.527   1.704   2.221 -1.8440 -0.6977 -1.3979
 3366SOL     OW21556   1.505   1.812   4.287  0.2292 -0.4084 -0.2021
 3366SOL    HW121557   1.434   1.876   4.293 -0.9551 -1.7330  0.0609
 3366SOL    HW221558   1.560   1.856   4.223  1.3594 -0.1388  0.9503
 3367SOL     OW21559   3.158   4.324   8.638  0.2960 -0.2454 -0.0561
 3367SOL    HW121560   3.180   4.399   8.582  1.4392 -0.2543  0.3689
 3367SOL    HW221561   3.091   4.360   8.696 -0.1285 -0.2256 -0.5600
 3368SOL     OW21562   4.289   2.112  10.657  0.0617  0.0745  0.0555
 3368SOL    HW121563   4.197   2.123  10.636  0.0091 -3.5157 -1.5856
 3368SOL    HW221564   4.333   2.104  10.572  3.2018 -1.4880  1.7949
 3369SOL     OW21565   1.518   1.590   3.541  0.4205 -0.2499 -0.0621
 3369SOL    HW121566   1.568   1.554   3.614  3.0162 -0.5968 -1.9972
 3369SOL    HW221567   1.522   1.514   3.483  1.8423 -1.4093  1.5789
 3370SOL     OW21568   2.405   1.329   1.774 -0.1451 -0.1533  0.4206
 3370SOL    HW121569   2.378   1.237   1.768 -3.6203  0.9989 -1.2686
 3370SOL    HW221570   2.449   1.335   1.858 -0.2494  1.0658  0.3892
 3371SOL     OW21571   0.557   1.037   8.363  0.0887  0.1967 -0.0195
 3371SOL    HW121572   0.651   1.034   8.346  0.5100 -0.4394  2.5147
 3371SOL    HW221573   0.554   1.113   8.421  1.5939  1.4138 -1.5481
 3372SOL     OW21574   1.609   0.944   2.276  0.1495  0.5148  0.1700
 3372SOL    HW121575   1.569   0.935   2.189 -0.0853 -1.0292  0.4274
 3372SOL    HW221576   1.660   0.863   2.283 -0.4220 -0.1026 -2.8854
 3373SOL     OW21577   1.777   3.140   4.248  0.0509  0.2652  0.5038
 3373SOL    HW121578   1.788   3.045   4.250  0.4555  0.3522  2.3693
 3373SOL    HW221579   1.831   3.170   4.175 -1.0076  0.3710 -0.2404
 3374SOL     OW21580   2.672   2.213   1.444  0.2801 -0.3362 -0.3646
 3374SOL    HW121581   2.629   2.204   1.529  3.0285 -1.3321  0.9217
 3374SOL    HW221582   2.651   2.302   1.415  0.0401 -0.5815 -0.9559
 3375SOL     OW21583   3.308   0.568   4.369  0.0581  0.3198  0.2028
 3375SOL    HW121584   3.270   0.629   4.306  0.8507  1.7571  1.1223
 3375SOL    HW221585   3.400   0.583   4.346 -0.1091 -0.1765 -0.8004
 3376SOL     OW21586   1.840   0.853  16.631 -0.3089 -0.0460 -0.0517
 3376SOL    HW121587   1.877   0.878  16.546 -3.2440 -0.3114 -1.3920
 3376SOL    HW221588   1.825   0.759  16.622 -0.5439 -0.1745  1.6503
 3377SOL     OW21589   0.887   4.510   9.328 -0.3682 -0.2505  0.2369
 3377SOL    HW121590   0.847   4.550   9.251 -1.2533 -0.0659  0.7931
 3377SOL    HW221591   0.827   4.534   9.398 -0.1235 -0.4179  0.5048
 3378SOL     OW21592   1.734   3.720  10.158  0.4141  0.0433  0.1826
 3378SOL    HW121593   1.702   3.792  10.104 -0.3902 -0.6583 -0.2623
 3378SOL    HW221594   1.725   3.764  10.243  1.9264 -0.7384  0.7537
 3379SOL     OW21595   3.118   2.677   7.851  0.7649 -0.6129  0.0467
 3379SOL    HW121596   3.184   2.728   7.897 -0.5159  1.3943 -0.3493
 3379SOL    HW221597   3.149   2.595   7.890 -3.3089 -1.7174  1.0055
 3380SOL     OW21598   2.088   4.097   6.852 -0.5407 -0.1980 -0.1938
 3380SOL    HW121599   2.127   4.183   6.835  1.7169 -1.5025 -1.6725
 3380SOL    HW221600   2.084   4.101   6.948  0.9373  0.4195 -0.1561
 3381SOL     OW21601   0.189   0.080   2.199 -0.6915 -0.2717 -0.3850
 3381SOL    HW121602   0.138   0.157   2.174  1.2981  0.9266 -0.8179
 3381SOL    HW221603   0.165   0.085   2.291 -0.8321 -1.5678 -0.3440
 3382SOL     OW21604   0.910   3.919   2.921 -0.1414  0.7187 -0.3085
 3382SOL    HW121605   0.901   3.894   3.013  1.6164  0.0243 -0.3304
 3382SOL    HW221606   0.820   3.919   2.886 -0.8841  0.9344  1.6137
 3383SOL     OW21607   3.916   1.164   6.804  0.3550 -0.4779 -0.4741
 3383SOL    HW121608   3.892   1.139   6.893 -0.6414  1.4526 -0.2080
 3383SOL    HW221609   3.967   1.244   6.818  1.5757 -1.2211 -0.6595
 3384SOL     OW21610   4.037   3.321   4.994 -0.2161  0.0738 -0.8326
 3384SOL    HW121611   4.067   3.391   4.937  0.5339  2.4494  2.4933
 3384SOL    HW221612   3.949   3.302   4.961 -0.7080 -0.2209  0.6253
 3385SOL     OW21613   2.562   3.890  15.023 -0.1532 -0.8192 -0.1437
 3385SOL    HW121614   2.638   3.932  14.983 -0.4443  0.2651  0.4531
 3385SOL    HW221615   2.586   3.797  15.020  0.7540 -0.6242  1.4498
 3386SOL     OW21616   3.859   4.413   6.347 -0.1407  0.3268 -0.2331
 3386SOL    HW121617   3.895   4.417   6.259 -1.1903  2.0665 -0.5889
 3386SOL    HW221618   3.912   4.349   6.394 -2.3616 -0.7570  0.8361
 3387SOL     OW21619   2.186   3.565   9.146  0.4208  0.4598 -0.1623
 3387SOL    HW121620   2.189   3.549   9.240 -2.9945  0.1505 -0.1304
 3387SOL    HW221621   2.279   3.561   9.124  0.4667  0.1253  0.0958
 3388SOL     OW21622   4.463   3.507   6.064  0.1833 -0.1974  0.1110
 3388SOL    HW121623   4.400   3.451   6.110 -0.3435 -0.0924 -0.4837
 3388SOL    HW221624   4.495   3.559   6.138 -3.2470  1.4743  0.4186
 3389SOL     OW21625   0.209   1.214   5.219 -0.1628 -0.4913 -0.5758
 3389SOL    HW121626   0.241   1.199   5.308 -2.6354 -1.2180  0.1752
 3389SOL    HW221627   0.119   1.187   5.238  0.1827 -0.7364  0.7441
 3390SOL     OW21628   3.575   3.553   0.197 -0.4326  0.3951 -0.0299
 3390SOL    HW121629   3.588   3.643   0.228  1.1398  1.1366 -2.8663
 3390SOL    HW221630   3.491   3.554   0.153 -0.1240 -2.0541 -0.7186
 3391SOL     OW21631   3.653   1.953   8.817  0.3529 -0.0420 -0.0832
 3391SOL    HW121632   3.645   1.885   8.749 -1.0280 -0.1458  0.1947
 3391SOL    HW221633   3.743   1.984   8.803 -0.6358  2.1991 -1.5072
 3392SOL     OW21634   1.550   0.669   8.681 -0.3327  0.0971  0.7495
 3392SOL    HW121635   1.517   0.657   8.770  1.2530 -1.3454  1.1477
 3392SOL    HW221636   1.578   0.760   8.678 -2.4583  0.6775 -1.2783
 3393SOL     OW21637   2.447   3.999   3.253 -0.0160 -0.4089 -0.2396
 3393SOL    HW121638   2.535   4.023   3.282 -0.3691 -0.1980  0.6425
 3393SOL    HW221639   2.400   4.037   3.327 -2.5904  0.3526 -2.2778
 3394SOL     OW21640   4.575   4.172   2.460  0.1234 -0.0632 -0.1114
 3394SOL    HW121641   4.574   4.211   2.373 -1.3004 -0.6309 -0.3370
 3394SOL    HW221642   4.580   4.081   2.432  2.4760  0.0118  0.0663
 3395SOL     OW21643   3.144   3.887   7.329 -0.4382 -0.8949  0.5113
 3395SOL    HW121644   3.187   3.940   7.396  0.5069  0.2587 -1.0103
 3395SOL    HW221645   3.222   3.838   7.302  0.8029  1.2916  0.1975
 3396SOL     OW21646   0.012   1.177   4.920  0.1500  0.0914  0.0955
 3396SOL    HW121647   4.662   1.219   4.883  1.6331  1.6708 -1.2838
 3396SOL    HW221648   0.064   1.207   4.845 -2.5641 -0.1574 -1.8581
 3397SOL     OW21649   0.988   2.269   7.507  0.1388 -0.4371  0.5318
 3397SOL    HW121650   1.028   2.355   7.496  2.7106 -1.7071 -0.1194
 3397SOL    HW221651   0.961   2.271   7.598  1.8208 -4.2095  1.1231
 3398SOL     OW21652   1.616   1.623   6.769  0.2283  0.1012  0.0553
 3398SOL    HW121653   1.634   1.707   6.813 -0.8747  0.0512  0.5851
 3398SOL    HW221654   1.597   1.663   6.684 -0.0011 -1.8209 -0.7859
 3399SOL     OW21655   3.842   0.734   8.001  0.0248 -0.0907 -0.0619
 3399SOL    HW121656   3.877   0.822   7.987 -0.0965 -0.1473 -0.7277
 3399SOL    HW221657   3.753   0.755   7.972  0.1520 -1.8448 -1.7111
 3400SOL     OW21658   3.927   4.169  17.464  0.0224 -0.1461  0.0724
 3400SOL    HW121659   3.863   4.236  17.438 -0.0194  0.1577  0.9693
 3400SOL    HW221660   3.899   4.086  17.426  0.8570 -1.1119  1.6021
 3401SOL     OW21661   2.256   2.697  12.504 -0.5168  0.0023  0.2478
 3401SOL    HW121662   2.266   2.608  12.468 -2.7779 -0.2972  0.3526
 3401SOL    HW221663   2.173   2.692  12.550 -1.7374 -2.3127 -2.2070
 3402SOL     OW21664   2.800   4.337  15.863 -0.6064 -0.2708  0.2909
 3402SOL    HW121665   2.850   4.417  15.847 -1.2297  0.1753  0.5805
 3402SOL    HW221666   2.725   4.363  15.810  1.3346  1.6500 -1.4743
 3403SOL     OW21667   2.740   1.630   5.300 -0.5342 -0.4701 -0.0169
 3403SOL    HW121668   2.713   1.574   5.373 -0.6978 -2.6154 -1.7391
 3403SOL    HW221669   2.758   1.558   5.240 -2.0206  0.8571 -2.0416
 3404SOL     OW21670   2.736   1.280  16.393  0.5649 -0.3576  0.7484
 3404SOL    HW121671   2.815   1.260  16.443  2.2063  0.0448 -1.7000
 3404SOL    HW221672   2.715   1.373  16.404 -0.6929 -0.6773  1.0656
 3405SOL     OW21673   1.117   3.217   7.826  0.2971 -0.0851  0.0412
 3405SOL    HW121674   1.029   3.253   7.825  0.5364  0.5157  0.6361
 3405SOL    HW221675   1.135   3.240   7.917 -0.6273 -0.3620  0.2958
 3406SOL     OW21676   4.644   3.504   1.155  0.5754  0.0217 -0.5996
 3406SOL    HW121677   4.562   3.496   1.108  0.4951  0.7032 -0.5653
 3406SOL    HW221678   4.624   3.583   1.203  0.9534  0.8554 -1.8118
 3407SOL     OW21679   3.934   4.497   6.656  0.3358  0.7533  0.4638
 3407SOL    HW121680   3.855   4.493   6.602 -0.1276  1.3311  1.0815
 3407SOL    HW221681   3.952   4.403   6.657 -2.0628  0.2951  1.1570
 3408SOL     OW21682   1.386   1.324  11.812  0.2321 -0.0554 -0.0539
 3408SOL    HW121683   1.432   1.285  11.738 -2.4111 -1.2248 -1.1075
 3408SOL    HW221684   1.298   1.286  11.805  1.6483 -3.5839  1.1360
 3409SOL     OW21685   1.428   3.270   7.787  0.0832 -0.0443 -0.2323
 3409SOL    HW121686   1.403   3.354   7.748 -0.5093  0.0954  0.4519
 3409SOL    HW221687   1.347   3.250   7.835 -1.3308  0.9542 -2.1801
 3410SOL     OW21688   3.243   2.635   3.593 -0.1364  0.0545  0.3502
 3410SOL    HW121689   3.233   2.601   3.504 -4.8220 -1.1837  1.3785
 3410SOL    HW221690   3.248   2.728   3.570  0.8369 -0.7512 -2.8065
 3411SOL     OW21691   4.117   3.810   5.859  0.1770  0.1853 -0.2324
 3411SOL    HW121692   4.199   3.764   5.840  0.8884  1.3982 -0.0941
 3411SOL    HW221693   4.135   3.904   5.866 -0.3871  0.4101 -1.7825
 3412SOL     OW21694   0.128   0.806  17.483  0.3000 -0.1916 -0.2968
 3412SOL    HW121695   0.090   0.890  17.458  1.9127  0.7416  0.3911
 3412SOL    HW221696   0.220   0.824  17.465  1.4285 -2.8140  2.8612
 3413SOL     OW21697   0.712   2.289  16.100 -0.4751 -0.2257  0.1086
 3413SOL    HW121698   0.715   2.230  16.175 -1.9529 -0.1282  0.2462
 3413SOL    HW221699   0.800   2.280  16.063 -0.4310  0.5638  0.0323
 3414SOL     OW21700   2.775   3.567   8.189  0.3478  0.2161  0.1094
 3414SOL    HW121701   2.740   3.484   8.222  1.8346  0.5602  2.5733
 3414SOL    HW221702   2.847   3.574   8.251  1.0050 -1.3895 -0.4959
 3415SOL     OW21703   2.599   1.375   3.162 -0.9459  0.0475 -0.2117
 3415SOL    HW121704   2.601   1.418   3.248 -0.2588 -2.1403  0.8728
 3415SOL    HW221705   2.644   1.441   3.111  1.2450 -1.7808 -0.6510
 3416SOL     OW21706   1.128   3.724   6.180 -0.2490 -0.2371 -0.6348
 3416SOL    HW121707   1.063   3.667   6.221 -0.7951  1.0785  0.3644
 3416SOL    HW221708   1.080   3.803   6.206  1.9830  1.2432 -1.0119
 3417SOL     OW21709   3.414   1.444   3.628 -0.3839 -0.0493 -0.1377
 3417SOL    HW121710   3.353   1.374   3.606  0.5278 -1.2984  1.2493
 3417SOL    HW221711   3.371   1.521   3.591 -1.4606 -1.0237 -0.8972
 3418SOL     OW21712   4.258   0.353  14.395 -0.0216  0.2883 -0.3455
 3418SOL    HW121713   4.249   0.285  14.328 -0.9501 -0.5726  0.6504
 3418SOL    HW221714   4.175   0.346  14.442 -0.2265 -0.9673 -0.8955
 3419SOL     OW21715   1.060   0.500   7.223  0.1046  0.5775 -0.4404
 3419SOL    HW121716   1.073   0.561   7.151  0.9744  2.8422  1.6413
 3419SOL    HW221717   1.146   0.468   7.251 -0.5638 -1.2015 -0.4038
 3420SOL     OW21718   2.884   3.139   2.315  0.2357  0.0536 -0.4334
 3420SOL    HW121719   2.834   3.082   2.374  0.9517 -2.2273 -2.0344
 3420SOL    HW221720   2.836   3.124   2.234 -0.6169 -0.3663  0.1468
 3421SOL     OW21721   2.745   1.913   3.923  0.0976  0.3120 -0.1594
 3421SOL    HW121722   2.819   1.874   3.877 -0.5749 -0.9777 -0.1321
 3421SOL    HW221723   2.713   1.851   3.989  1.0725 -1.7712 -1.6561
 3422SOL     OW21724   1.715   1.248  14.337 -0.3382 -0.0793 -0.3929
 3422SOL    HW121725   1.793   1.264  14.284  0.2765  0.2950  0.6253
 3422SOL    HW221726   1.649   1.241  14.268 -0.9846  0.7649  0.1229
 3423SOL     OW21727   3.319   4.062   7.961 -0.2473 -0.4640  0.1576
 3423SOL    HW121728   3.355   4.072   8.049  0.1413  1.5340 -0.2321
 3423SOL    HW221729   3.396   4.089   7.912 -0.8695  0.5114 -0.2814
 3424SOL     OW21730   0.482   2.240  10.522  0.0671  0.4405  0.0445
 3424SOL    HW121731   0.465   2.149  10.499  1.1080  0.0248  0.9433
 3424SOL    HW221732   0.578   2.246  10.528 -0.2052  4.6744  0.4208
 3425SOL     OW21733   2.995   2.690   3.700 -0.8269 -0.2483 -0.5038
 3425SOL    HW121734   3.080   2.661   3.667 -0.8356 -0.3357 -0.4477
 3425SOL    HW221735   3.014   2.759   3.764 -0.3494 -0.5724 -0.2993
 3426SOL     OW21736   1.838   2.685  12.357  0.2446  0.2397 -0.3382
 3426SOL    HW121737   1.767   2.707  12.417  1.0384  0.9043  0.3482
 3426SOL    HW221738   1.884   2.768  12.345 -0.8365  0.7535 -0.9481
 3427SOL     OW21739   0.746   4.624  13.891  1.0215 -0.3085  0.0405
 3427SOL    HW121740   0.696   4.671  13.958 -0.7944 -1.6936 -0.3535
 3427SOL    HW221741   0.831   4.623  13.936  0.5645 -1.4734  0.8885
 3428SOL     OW21742   4.376   3.773  12.284 -0.5623 -0.1503 -0.4587
 3428SOL    HW121743   4.356   3.771  12.378 -0.8191  0.6601 -0.4947
 3428SOL    HW221744   4.297   3.730  12.252 -0.6900  0.8615 -1.4935
 3429SOL     OW21745   2.909   3.177   0.935  0.2270  0.1017  0.1774
 3429SOL    HW121746   2.830   3.220   0.903  1.0348  1.2664 -0.2563
 3429SOL    HW221747   2.916   3.216   1.022  0.7010  0.1596  0.1148
 3430SOL     OW21748   3.571   1.071   1.681 -0.2344 -0.2142 -0.5507
 3430SOL    HW121749   3.607   1.021   1.608 -1.6650 -0.3060 -1.1965
 3430SOL    HW221750   3.480   1.044   1.678 -0.8439  1.6023  1.7548
 3431SOL     OW21751   0.622   3.143   0.453 -0.0207  0.3786 -0.7142
 3431SOL    HW121752   0.613   3.231   0.415 -0.8623  2.0113  3.2168
 3431SOL    HW221753   0.616   3.168   0.545 -0.9409 -2.8082  0.0860
 3432SOL     OW21754   0.369   3.131  17.651 -0.4379 -0.3800 -0.0413
 3432SOL    HW121755   0.350   3.223  17.670 -2.5973 -0.9766  0.7118
 3432SOL    HW221756   0.465   3.126  17.650 -0.4386 -1.0635  3.9783
 3433SOL     OW21757   1.870   4.418   4.265  0.8338  0.6356  0.3427
 3433SOL    HW121758   1.835   4.377   4.344 -0.8230 -2.2583 -1.8978
 3433SOL    HW221759   1.841   4.509   4.273 -0.1102  0.5812 -2.2111
 3434SOL     OW21760   3.518   2.130   0.787 -0.4027  0.3729 -0.3408
 3434SOL    HW121761   3.545   2.185   0.714 -0.3344 -1.2226 -1.5301
 3434SOL    HW221762   3.422   2.135   0.783 -0.2769  0.2978 -3.1561
 3435SOL     OW21763   4.004   1.027  15.737  0.0690 -0.4862 -0.1156
 3435SOL    HW121764   3.912   1.009  15.717 -0.3246 -1.1744  2.3290
 3435SOL    HW221765   4.010   1.087  15.812 -0.8292 -2.0306  1.1997
 3436SOL     OW21766   3.370   1.683   4.644  0.5597  1.0098 -0.1573
 3436SOL    HW121767   3.417   1.764   4.660  2.2440 -0.0340  0.2455
 3436SOL    HW221768   3.289   1.691   4.694  0.3717  1.8019 -0.5902
 3437SOL     OW21769   2.266   1.316   4.868 -0.6425  0.1641  0.2702
 3437SOL    HW121770   2.318   1.279   4.939 -0.8285 -0.5609  0.0286
 3437SOL    HW221771   2.190   1.258   4.864 -0.3055 -0.1859 -0.9977
 3438SOL     OW21772   0.843   2.457   5.781  0.7760  0.1998  0.2871
 3438SOL    HW121773   0.928   2.501   5.770  1.4449 -0.2991  3.4161
 3438SOL    HW221774   0.803   2.483   5.864 -0.3566 -0.5828 -0.0165
 3439SOL     OW21775   0.423   4.720   8.344  0.1144 -0.6632  0.0980
 3439SOL    HW121776   0.477   4.684   8.414 -0.4849 -0.5316  0.6387
 3439SOL    HW221777   0.356   0.026   8.404 -1.7518 -2.9085 -0.7378
 3440SOL     OW21778   3.673   3.125   1.571  0.7988  0.5346  0.2699
 3440SOL    HW121779   3.600   3.065   1.586  0.9456  0.1995 -0.3664
 3440SOL    HW221780   3.707   3.121   1.660 -2.1821  1.9847  1.4675
 3441SOL     OW21781   3.038   1.494   5.381 -0.5456 -0.5792 -0.9105
 3441SOL    HW121782   2.965   1.460   5.433 -1.2585  0.1020 -1.4677
 3441SOL    HW221783   3.080   1.542   5.452 -4.5308  1.0234  0.3809
 3442SOL     OW21784   2.874   3.239  11.978  0.1553 -0.4983  0.1167
 3442SOL    HW121785   2.894   3.230  11.885  0.0427  0.0747  0.0399
 3442SOL    HW221786   2.853   3.150  12.008 -0.6320 -0.9667 -1.8360
 3443SOL     OW21787   3.416   0.689   7.684  0.0932  0.1080  0.7294
 3443SOL    HW121788   3.363   0.683   7.764  0.7942  0.4316  1.2193
 3443SOL    HW221789   3.439   0.781   7.689 -0.7785  0.2265  2.6756
 3444SOL     OW21790   4.044   0.556  14.327 -0.6278 -0.1011  0.2613
 3444SOL    HW121791   4.123   0.561  14.273 -1.8102  2.2357 -1.2867
 3444SOL    HW221792   4.056   0.476  14.377  0.2110 -0.6390 -0.7903
 3445SOL     OW21793   1.914   4.487   4.607  0.2573 -0.1519  0.0862
 3445SOL    HW121794   1.988   4.519   4.658  1.4322 -2.2859 -0.2560
 3445SOL    HW221795   1.948   4.408   4.564  0.1323  0.5170 -1.2544
 3446SOL     OW21796   3.151   0.728  15.598  0.4098  0.0473 -0.4301
 3446SOL    HW121797   3.089   0.799  15.580 -0.5079 -0.4552  0.7670
 3446SOL    HW221798   3.133   0.717  15.691 -1.7824  1.1664 -0.7236
 3447SOL     OW21799   0.226   3.277   5.551 -0.3783 -0.0081  0.1741
 3447SOL    HW121800   0.160   3.300   5.616  0.1551 -2.4471  1.5639
 3447SOL    HW221801   0.301   3.321   5.590  0.5953 -2.0922  0.6040
 3448SOL     OW21802   1.202   2.718   8.569 -0.4722  0.2569  0.0454
 3448SOL    HW121803   1.222   2.812   8.565 -0.2891  0.2293  0.4290
 3448SOL    HW221804   1.115   2.722   8.610  0.5052  5.3917  1.6559
 3449SOL     OW21805   4.335   1.322  17.376  0.0976  0.3537  0.4179
 3449SOL    HW121806   4.336   1.226  17.377  0.1483  0.3113 -1.9304
 3449SOL    HW221807   4.240   1.333  17.380  0.0045 -0.7791  1.3203
 3450SOL     OW21808   4.141   2.413  17.602  0.2470 -0.4159 -0.7468
 3450SOL    HW121809   4.102   2.338  17.557  0.0833 -1.2590  0.7853
 3450SOL    HW221810   4.063   2.432  17.655  0.4670 -1.1470 -0.1566
 3451SOL     OW21811   1.182   1.794   5.654 -0.5565  0.1623 -0.3269
 3451SOL    HW121812   1.251   1.844   5.696  0.6411 -1.1440 -0.7553
 3451SOL    HW221813   1.124   1.857   5.611  0.7608  0.9862 -0.8810
 3452SOL     OW21814   0.365   1.480  12.956 -0.3465 -0.3753 -0.3932
 3452SOL    HW121815   0.312   1.513  12.883  2.0366  3.8296 -0.2283
 3452SOL    HW221816   0.335   1.532  13.031 -2.1258 -1.5828 -0.2804
 3453SOL     OW21817   0.493   1.459   9.429  0.1363 -0.7560 -0.2633
 3453SOL    HW121818   0.454   1.485   9.513  0.4087  1.2868 -0.7633
 3453SOL    HW221819   0.465   1.369   9.413 -0.8294 -0.3979 -0.6251
 3454SOL     OW21820   0.746   2.892   6.793 -0.0542  0.0439  0.7089
 3454SOL    HW121821   0.700   2.952   6.851  1.7327 -1.3021  3.5732
 3454SOL    HW221822   0.805   2.854   6.859 -1.1703 -0.0090  1.6637
 3455SOL     OW21823   2.342   1.674  15.692 -0.9143 -0.4916 -0.2944
 3455SOL    HW121824   2.366   1.664  15.600  3.0813  2.0777  0.4926
 3455SOL    HW221825   2.407   1.623  15.740 -1.2241  0.0821  0.7415
 3456SOL     OW21826   4.364   0.364   4.705  0.0583 -0.2280 -0.2822
 3456SOL    HW121827   4.361   0.282   4.655  0.8347 -0.7041  0.4418
 3456SOL    HW221828   4.272   0.386   4.719 -0.4496 -2.7695  0.4628
 3457SOL     OW21829   2.100   3.990  12.017  0.0152 -0.3616  1.2283
 3457SOL    HW121830   2.142   3.982  11.932 -1.7155 -0.7781  0.4267
 3457SOL    HW221831   2.156   3.943  12.079 -1.6176  0.2924  3.2182
 3458SOL     OW21832   2.593   3.149  15.216  0.2576 -0.3707  0.1912
 3458SOL    HW121833   2.622   3.196  15.138  1.5938 -0.9398  0.3514
 3458SOL    HW221834   2.612   3.217  15.281  1.6083 -0.8892  0.3421
 3459SOL     OW21835   0.992   1.609   7.158 -0.7009 -0.4707  0.2281
 3459SOL    HW121836   1.072   1.642   7.117  0.1392 -1.1363  1.3456
 3459SOL    HW221837   1.001   1.658   7.239 -0.9624 -0.0523  0.0033
 3460SOL     OW21838   0.714   1.282   0.104  0.0041 -0.1195 -0.8145
 3460SOL    HW121839   0.695   1.376   0.100  0.8889  0.1338  1.1289
 3460SOL    HW221840   0.722   1.265   0.198 -0.6337 -0.6477 -0.8564
 3461SOL     OW21841   1.353   1.793   7.037  0.4616  0.0817 -0.1250
 3461SOL    HW121842   1.352   1.867   6.977 -2.6814 -0.7993 -1.1724
 3461SOL    HW221843   1.279   1.742   7.003  0.1522  0.6668 -0.3297
 3462SOL     OW21844   1.126   4.081  14.940  0.0563 -0.4060  0.1271
 3462SOL    HW121845   1.079   4.117  14.865 -0.5111 -1.9102 -0.2333
 3462SOL    HW221846   1.155   4.155  14.994 -1.2602  0.9117 -0.9628
 3463SOL     OW21847   0.708   4.572   1.109 -0.0078 -0.9334  0.1683
 3463SOL    HW121848   0.713   4.564   1.204 -1.7819  2.8129  0.5841
 3463SOL    HW221849   0.795   4.605   1.086 -1.1400  1.1319 -1.1434
 3464SOL     OW21850   3.770   3.984  17.319 -0.3047  0.2079 -0.3555
 3464SOL    HW121851   3.808   3.948  17.239 -1.5474  0.2743 -0.9800
 3464SOL    HW221852   3.719   3.907  17.345 -0.4537  0.4867  0.1740
 3465SOL     OW21853   1.945   0.728   4.305  0.1799 -0.5885  0.4540
 3465SOL    HW121854   1.947   0.807   4.358  0.7581 -1.0129  1.0707
 3465SOL    HW221855   2.038   0.709   4.319  0.2282 -0.6781 -0.0069
 3466SOL     OW21856   4.299   3.010   7.250  0.1683  0.2757 -0.0559
 3466SOL    HW121857   4.314   2.934   7.194  0.3386  2.0390 -2.3940
 3466SOL    HW221858   4.246   3.064   7.192 -0.2166  0.1409  0.1719
 3467SOL     OW21859   1.330   4.388   0.701  0.5057  0.1828 -0.4278
 3467SOL    HW121860   1.406   4.348   0.743  1.0900  0.4595 -1.2120
 3467SOL    HW221861   1.357   4.480   0.693 -2.2826  0.9637 -0.8433
 3468SOL     OW21862   3.230   2.306   1.083  0.1511  0.0004 -0.1357
 3468SOL    HW121863   3.265   2.249   1.151  2.9107 -0.1770 -1.7354
 3468SOL    HW221864   3.281   2.387   1.080 -0.6044  0.4519 -1.0478
 3469SOL     OW21865   3.836   2.552   2.303  0.4771  0.2442  0.0018
 3469SOL    HW121866   3.931   2.558   2.316  0.7635 -1.0743 -1.6392
 3469SOL    HW221867   3.821   2.627   2.245  0.7226 -0.8512 -1.4433
 3470SOL     OW21868   3.060   2.634   0.539 -0.4897 -0.4652  0.3083
 3470SOL    HW121869   3.122   2.669   0.603 -0.5194  1.2272 -0.5882
 3470SOL    HW221870   3.110   2.562   0.500  1.0631 -0.0826  1.5953
 3471SOL     OW21871   1.549   3.686   5.062  0.6565  0.0055  0.0046
 3471SOL    HW121872   1.518   3.753   5.123  3.1503  2.0754 -1.0240
 3471SOL    HW221873   1.500   3.615   5.105 -1.1065  0.9377 -0.4737
 3472SOL     OW21874   3.260   2.089   6.893 -0.0861  0.4673  0.1634
 3472SOL    HW121875   3.333   2.092   6.832 -0.2617 -0.2905 -0.0865
 3472SOL    HW221876   3.186   2.122   6.842 -0.8275 -0.8125  0.4007
 3473SOL     OW21877   1.407   2.257   7.338 -0.1463 -0.7130  0.3990
 3473SOL    HW121878   1.496   2.221   7.345  0.0930  0.1395  1.7408
 3473SOL    HW221879   1.423   2.346   7.310  0.8027 -0.7542  0.8066
 3474SOL     OW21880   1.600   3.093   9.457  0.2373  0.1259 -0.1467
 3474SOL    HW121881   1.590   3.127   9.546  1.0624  0.3819 -0.1466
 3474SOL    HW221882   1.688   3.056   9.470 -0.5827 -0.4066  3.8313
 3475SOL     OW21883   3.905   1.477   6.354 -0.0230 -0.2276 -0.0361
 3475SOL    HW121884   3.979   1.448   6.301 -1.1816 -0.6445 -1.4250
 3475SOL    HW221885   3.836   1.488   6.289  0.9747  1.4634 -0.7971
 3476SOL     OW21886   1.971   2.214   6.246 -0.0055  0.7041 -0.0341
 3476SOL    HW121887   1.975   2.175   6.159 -0.2807  1.4599 -0.3770
 3476SOL    HW221888   2.034   2.158   6.291 -0.0723  1.5921  1.1877
 3477SOL     OW21889   2.659   1.003   7.064  0.4727 -0.5863  0.1552
 3477SOL    HW121890   2.687   0.912   7.053 -3.0889 -1.7064  0.2454
 3477SOL    HW221891   2.577   0.986   7.111  0.7078  1.0864  1.1789
 3478SOL     OW21892   3.246   2.508   6.955 -0.1476 -0.1764  0.4680
 3478SOL    HW121893   3.157   2.483   6.980 -0.5129 -1.2245 -1.9052
 3478SOL    HW221894   3.228   2.544   6.868  0.2083  0.7777  0.7838
 3479SOL     OW21895   1.267   3.930   6.732 -0.1473  0.1248  0.3125
 3479SOL    HW121896   1.295   4.008   6.685 -0.7711 -1.4104 -2.5640
 3479SOL    HW221897   1.312   3.861   6.684 -0.2071 -0.7952  1.5781
 3480SOL     OW21898   1.007   0.335   2.187 -0.7121 -0.1945 -0.4391
 3480SOL    HW121899   0.947   0.410   2.179 -0.3935  0.0439 -0.5727
 3480SOL    HW221900   0.948   0.266   2.154 -2.6970  1.7634 -0.9762
 3481SOL     OW21901   4.039   1.516  11.150 -0.5276 -0.1619 -0.0136
 3481SOL    HW121902   4.021   1.432  11.192 -1.1384 -0.4064 -0.7706
 3481SOL    HW221903   4.061   1.486  11.062  1.5198  0.4999  0.2778
 3482SOL     OW21904   3.356   1.243  10.546  0.2751 -0.1636  0.1827
 3482SOL    HW121905   3.374   1.226  10.453 -0.4468  0.0378  0.0037
 3482SOL    HW221906   3.335   1.335  10.555 -0.0993 -0.3088  0.7455
 3483SOL     OW21907   2.447   0.330   6.941  0.6981 -0.4086  0.0394
 3483SOL    HW121908   2.514   0.291   6.997  0.0239 -2.0978 -0.3080
 3483SOL    HW221909   2.382   0.367   7.000  0.6004  2.2208 -1.7260
 3484SOL     OW21910   3.729   0.534  10.036  0.3665 -0.3329  0.5088
 3484SOL    HW121911   3.730   0.542   9.941  2.5756 -1.9121  0.3952
 3484SOL    HW221912   3.690   0.446  10.041  0.7310 -0.3868  2.4347
 3485SOL     OW21913   0.900   4.198  14.521  0.2746  0.6525 -0.7277
 3485SOL    HW121914   0.934   4.242  14.599  0.8444  0.8832 -1.1103
 3485SOL    HW221915   0.820   4.169  14.565  0.8962 -0.6684 -0.4942
 3486SOL     OW21916   0.995   4.370   6.859  0.2551 -0.0996 -0.1196
 3486SOL    HW121917   0.966   4.278   6.857  0.5106 -0.1809 -0.1467
 3486SOL    HW221918   0.935   4.406   6.794 -0.0495  0.9760  0.7474
 3487SOL     OW21919   1.816   2.892   3.115 -0.9446  0.0193 -0.1875
 3487SOL    HW121920   1.848   2.930   3.197 -0.5994 -2.2617  0.7115
 3487SOL    HW221921   1.892   2.898   3.057  1.2429  0.1133  2.6655
 3488SOL     OW21922   3.721   3.903   5.620 -0.8148  0.0380  0.1751
 3488SOL    HW121923   3.803   3.857   5.640  0.3160  1.0256 -2.2527
 3488SOL    HW221924   3.743   3.982   5.668 -0.1880  0.5744 -0.9979
 3489SOL     OW21925   3.233   2.833   5.386  0.0660  0.2751 -0.3773
 3489SOL    HW121926   3.324   2.844   5.413 -0.1639  3.1578 -0.7752
 3489SOL    HW221927   3.192   2.907   5.430 -0.4861 -0.5644  0.5143
 3490SOL     OW21928   4.373   1.657   3.768 -0.3088 -0.4105 -1.0060
 3490SOL    HW121929   4.456   1.694   3.737 -1.0973  2.8124  0.7034
 3490SOL    HW221930   4.321   1.736   3.755  0.1783 -0.0547 -0.7799
 3491SOL     OW21931   4.304   2.967   6.187  0.4195  0.3122  0.7796
 3491SOL    HW121932   4.269   2.878   6.180 -1.1453  1.1914 -2.7989
 3491SOL    HW221933   4.328   2.956   6.279  1.1124  0.0342  0.5649
 3492SOL     OW21934   1.176   0.330   4.536  0.6885  0.1763  0.1200
 3492SOL    HW121935   1.196   0.382   4.458 -1.8335  1.8076  0.5631
 3492SOL    HW221936   1.089   0.301   4.509  0.0604  0.0544  2.2943
 3493SOL     OW21937   4.130   3.483   0.987 -0.3828 -0.3679  0.2412
 3493SOL    HW121938   4.189   3.544   1.030 -1.7318  1.7621 -0.9392
 3493SOL    HW221939   4.055   3.493   1.046  0.2873 -1.4488  1.2986
 3494SOL     OW21940   1.741   1.821   7.914 -0.1233 -0.8546  0.4161
 3494SOL    HW121941   1.714   1.797   8.003  3.5058 -1.3225  1.3682
 3494SOL    HW221942   1.695   1.744   7.879  1.7030 -2.0141  0.5467
 3495SOL     OW21943   3.168   2.848   8.992 -0.3756 -0.3033  0.2979
 3495SOL    HW121944   3.110   2.806   8.929 -0.0157 -0.6260  0.1813
 3495SOL    HW221945   3.188   2.935   8.960 -2.2089 -0.5181 -1.4332
 3496SOL     OW21946   2.015   2.741   0.832  0.4923 -0.4209  0.3041
 3496SOL    HW121947   1.999   2.755   0.739 -0.3905  0.4522  0.5831
 3496SOL    HW221948   1.932   2.710   0.868  0.3737  0.4054  0.7640
 3497SOL     OW21949   3.285   0.793   9.597 -0.2153  0.2912  0.2933
 3497SOL    HW121950   3.342   0.788   9.520 -1.1560 -1.4632 -0.3014
 3497SOL    HW221951   3.199   0.778   9.558 -0.9301  1.8882  1.3137
 3498SOL     OW21952   3.375   1.784   5.496 -0.0465 -0.8044  0.1173
 3498SOL    HW121953   3.462   1.750   5.474  1.3888  1.7104  1.9772
 3498SOL    HW221954   3.372   1.859   5.436  0.7540 -1.6490 -0.9736
 3499SOL     OW21955   1.242   4.340   8.048  0.4318  0.0520 -0.1946
 3499SOL    HW121956   1.225   4.421   8.097  2.8935  1.4388 -1.6721
 3499SOL    HW221957   1.337   4.341   8.049  0.4009  1.8057  0.6318
 3500SOL     OW21958   0.686   0.423  10.855  0.4467 -0.7659  0.5163
 3500SOL    HW121959   0.683   0.437  10.950  0.5158 -0.6243  0.4978
 3500SOL    HW221960   0.680   0.328  10.856  0.9876 -0.8081 -1.0150
 3501SOL     OW21961   4.228   0.007   5.763  0.4085  0.0816  0.3423
 3501SOL    HW121962   4.200   4.684   5.687  0.8090  0.4099 -0.0225
 3501SOL    HW221963   4.217   4.657   5.819 -1.2130 -0.1521 -0.3037
 3502SOL     OW21964   2.212   4.191  17.624  0.1243  0.5274 -0.6784
 3502SOL    HW121965   2.277   4.245  17.579  0.9665  1.0612  1.2173
 3502SOL    HW221966   2.247   4.148  17.702  1.4425 -0.9260 -2.0794
 3503SOL     OW21967   0.406   2.162   6.781  0.3310  0.3694 -0.0988
 3503SOL    HW121968   0.336   2.125   6.728  1.4001 -0.3676 -0.9941
 3503SOL    HW221969   0.460   2.087   6.806 -3.6515 -2.6574 -0.5590
 3504SOL     OW21970   3.115   2.226   9.374 -0.3204 -0.1754  0.3375
 3504SOL    HW121971   3.191   2.241   9.432 -1.5167 -1.4593  2.2385
 3504SOL    HW221972   3.070   2.165   9.433  0.2049  1.9482  2.9624
 3505SOL     OW21973   2.430   0.734   7.690 -0.0546 -0.7305  0.4068
 3505SOL    HW121974   2.518   0.739   7.728  0.7690  0.2768 -1.6543
 3505SOL    HW221975   2.424   0.642   7.663  1.1347 -0.8506  0.5204
 3506SOL     OW21976   1.391   2.201  17.297 -0.2508  0.0082  0.5257
 3506SOL    HW121977   1.400   2.285  17.253 -2.4210 -0.3924 -0.6636
 3506SOL    HW221978   1.466   2.205  17.357  1.3054 -0.8033 -1.3688
 3507SOL     OW21979   1.948   0.953   6.094  0.0239 -0.0409 -0.1014
 3507SOL    HW121980   1.863   0.951   6.050  0.5470 -0.1773 -1.1244
 3507SOL    HW221981   1.915   0.986   6.177 -2.5395 -0.8087 -0.8319
 3508SOL     OW21982   1.513   2.107   4.581 -0.1987 -1.1062  0.1698
 3508SOL    HW121983   1.587   2.132   4.526  0.5981 -1.6270  0.9941
 3508SOL    HW221984   1.533   2.016   4.604  0.5672 -1.4408 -1.8148
 3509SOL     OW21985   2.662   3.377   4.721  0.1512 -0.3483  0.5729
 3509SOL    HW121986   2.741   3.377   4.774  0.4595  1.7200  0.1049
 3509SOL    HW221987   2.700   3.435   4.655  1.1255 -1.4718  0.1335
 3510SOL     OW21988   2.133   2.059  14.194 -0.0141 -0.1314  0.8366
 3510SOL    HW121989   2.218   2.034  14.157 -1.5013 -4.3172  0.2468
 3510SOL    HW221990   2.172   2.126  14.251 -0.8434  2.3580 -1.5110
 3511SOL     OW21991   0.797   1.425  12.934 -0.3859  0.7563 -0.5052
 3511SOL    HW121992   0.742   1.483  12.986 -1.1065 -0.0246 -0.3897
 3511SOL    HW221993   0.857   1.381  12.995  0.8095  0.8260 -1.6321
 3512SOL     OW21994   4.601   1.730   3.509 -0.2334  0.5812  0.0735
 3512SOL    HW121995   4.651   1.775   3.577 -2.3379  0.6109  1.5549
 3512SOL    HW221996   4.564   1.796   3.450  1.3990 -1.8419 -3.7081
 3513SOL     OW21997   0.172   4.520   0.777 -0.0127 -0.3623 -0.2266
 3513SOL    HW121998   0.266   4.500   0.785  0.2857  0.6559 -1.2038
 3513SOL    HW221999   0.143   4.465   0.704 -0.7790 -0.7738  0.3829
 3514SOL     OW22000   0.134   2.139   6.931 -0.0477  0.4567 -0.4231
 3514SOL    HW122001   0.185   2.075   6.882 -0.7659  0.5102 -1.2316
 3514SOL    HW222002   0.203   2.187   6.976 -0.4006 -1.3779  2.0422
 3515SOL     OW22003   2.567   3.358   1.539 -0.3405 -0.1807 -0.2414
 3515SOL    HW122004   2.530   3.427   1.485 -0.3366 -0.4749 -0.6204
 3515SOL    HW222005   2.625   3.313   1.476  1.3214  0.3728  0.8881
 3516SOL     OW22006   1.891   4.495   3.142  0.1691  0.0251  0.0329
 3516SOL    HW122007   1.876   4.572   3.197 -0.1828  0.1651 -0.2575
 3516SOL    HW222008   1.805   4.452   3.141  0.4805 -0.5517 -1.0053
 3517SOL     OW22009   4.086   0.356   0.280  0.7226  0.3584  0.2054
 3517SOL    HW122010   4.078   0.291   0.211  0.3758 -0.2255  0.7974
 3517SOL    HW222011   4.061   0.435   0.231  0.0639  1.8457  2.9449
 3518SOL     OW22012   0.265   2.476   5.883 -0.0663  0.1607 -0.2874
 3518SOL    HW122013   0.353   2.471   5.846  0.6123  3.5531  0.9364
 3518SOL    HW222014   0.282   2.535   5.956 -0.9733  0.5407 -0.3732
 3519SOL     OW22015   4.008   3.449  12.381 -0.2675 -0.0168  0.4070
 3519SOL    HW122016   4.054   3.531  12.366  0.6489 -0.2651  1.7983
 3519SOL    HW222017   3.995   3.451  12.476 -0.9184  1.1300  0.2825
 3520SOL     OW22018   4.007   0.517   3.746 -0.5184 -0.0377  0.3698
 3520SOL    HW122019   3.918   0.482   3.748 -0.1823 -0.8952  0.3364
 3520SOL    HW222020   4.066   0.446   3.719 -0.8710  0.5160 -1.8856
 3521SOL     OW22021   4.120   0.853   6.646  0.0877  0.5072 -0.3143
 3521SOL    HW122022   4.031   0.837   6.614  0.3286  0.8752 -1.1698
 3521SOL    HW222023   4.087   0.881   6.731  0.8575 -0.0227  0.1522
 3522SOL     OW22024   1.597   1.788   2.372  0.0413  0.1411  0.0237
 3522SOL    HW122025   1.552   1.732   2.309  0.0776  0.1758 -0.0333
 3522SOL    HW222026   1.541   1.769   2.447  0.3249  0.7186  0.3842
 3523SOL     OW22027   2.957   1.676   3.158  0.7040 -0.5205 -0.4933
 3523SOL    HW122028   3.043   1.633   3.170 -0.1263 -2.0110  0.1988
 3523SOL    HW222029   2.909   1.621   3.096  1.6432  0.0538 -1.7227
 3524SOL     OW22030   4.319   2.669   1.194  0.1060 -0.2174  0.3138
 3524SOL    HW122031   4.343   2.761   1.183  3.1638 -1.0422  0.0718
 3524SOL    HW222032   4.228   2.677   1.163 -0.0675 -1.6576  0.4623
 3525SOL     OW22033   4.715   2.279   4.990  0.0426  0.0990  0.3431
 3525SOL    HW122034   4.664   2.250   5.066  2.6049 -1.3964  1.4906
 3525SOL    HW222035   4.678   2.365   4.974  0.4124  0.9685  4.2924
 3526SOL     OW22036   2.845   3.061   0.531 -0.6089 -0.0360 -0.0204
 3526SOL    HW122037   2.772   3.112   0.497 -0.2843  0.8423  0.5888
 3526SOL    HW222038   2.856   2.998   0.459 -0.7971  1.0146 -0.9563
 3527SOL     OW22039   0.964   1.311   8.316 -0.2025  0.2675  0.1178
 3527SOL    HW122040   0.965   1.401   8.349 -1.9655 -0.0035  0.9147
 3527SOL    HW222041   0.917   1.319   8.233 -1.9832  0.0032  1.0936
 3528SOL     OW22042   3.974   3.614   1.201 -0.0044 -0.0309  0.1514
 3528SOL    HW122043   4.054   3.655   1.234  0.1853  0.5569 -1.0181
 3528SOL    HW222044   3.926   3.695   1.189 -0.6953 -0.3432  0.8328
 3529SOL     OW22045   3.023   0.179  11.505  0.3873 -0.0525 -0.1856
 3529SOL    HW122046   2.957   0.163  11.437  1.2970 -1.6769 -0.6805
 3529SOL    HW222047   2.973   0.236  11.564 -0.7021 -0.2407 -0.9179
 3530SOL     OW22048   1.854   3.183   6.143 -0.0849 -0.8495  0.2305
 3530SOL    HW122049   1.875   3.099   6.183 -3.6278 -0.8465  2.0913
 3530SOL    HW222050   1.936   3.197   6.096  0.5867 -1.8672  1.1165
 3531SOL     OW22051   4.614   3.952   7.869  0.7207 -0.0871 -0.1290
 3531SOL    HW122052   4.649   3.953   7.958  0.9342  2.5553 -0.2606
 3531SOL    HW222053   4.590   3.859   7.867  1.5150 -0.2672 -0.9149
 3532SOL     OW22054   2.836   4.669   8.809  0.1092 -0.1374  0.2310
 3532SOL    HW122055   2.750   4.679   8.768 -0.6086  2.0209  2.3087
 3532SOL    HW222056   2.878   0.022   8.777 -1.4104  1.0388  1.2045
 3533SOL     OW22057   4.007   3.229   1.902 -0.4902 -0.4596 -0.2746
 3533SOL    HW122058   3.917   3.261   1.891 -0.3958 -0.2759 -0.5174
 3533SOL    HW222059   4.028   3.226   1.808  3.5508  0.7717  0.6189
 3534SOL     OW22060   1.771   3.827  14.168 -0.6932 -0.1818  0.1638
 3534SOL    HW122061   1.806   3.908  14.204  0.4546 -0.5304 -0.1439
 3534SOL    HW222062   1.680   3.825  14.195 -0.0547  0.2487  2.3257
 3535SOL     OW22063   2.099   1.926  12.178  0.3567 -0.0336 -0.8247
 3535SOL    HW122064   2.033   1.857  12.173 -1.0533  1.3150 -0.7618
 3535SOL    HW222065   2.138   1.933  12.091  2.2418 -2.1876 -0.1444
 3536SOL     OW22066   1.565   1.660   6.467 -0.3590  0.0659 -0.2986
 3536SOL    HW122067   1.645   1.628   6.425 -0.4408 -1.5161  0.7525
 3536SOL    HW222068   1.547   1.746   6.429 -4.0552  0.3672  2.2127
 3537SOL     OW22069   0.826   1.896  16.726 -0.1592 -0.4679  0.0361
 3537SOL    HW122070   0.812   1.879  16.633 -1.3230  0.4356  0.0350
 3537SOL    HW222071   0.783   1.982  16.731  4.1156  1.5281  1.8125
 3538SOL     OW22072   3.053   3.300   6.328  0.2550  0.4562 -0.5547
 3538SOL    HW122073   2.981   3.359   6.348  1.8074  1.7335  1.2726
 3538SOL    HW222074   3.039   3.232   6.394  2.5640  0.8319  0.3335
 3539SOL     OW22075   1.963   1.897   9.687 -0.4143 -0.0978  0.2751
 3539SOL    HW122076   2.024   1.968   9.707 -1.4513  0.6089  0.8850
 3539SOL    HW222077   2.002   1.822   9.732  2.4352  0.4534 -1.2368
 3540SOL     OW22078   3.970   2.911   0.243 -0.2093 -0.2659  0.5285
 3540SOL    HW122079   3.915   2.975   0.198  1.3891 -0.3694 -1.5476
 3540SOL    HW222080   4.054   2.955   0.250 -0.6470  0.1712  2.8405
 3541SOL     OW22081   2.771   0.863   7.935 -0.6059  0.1403 -0.2418
 3541SOL    HW122082   2.829   0.902   8.001 -0.8753  0.6257 -0.2982
 3541SOL    HW222083   2.689   0.878   7.981 -0.1418  3.2531 -0.4230
 3542SOL     OW22084   1.917   4.241   9.858 -0.6900  0.7997 -0.2417
 3542SOL    HW122085   1.833   4.276   9.890 -1.7190 -1.1258 -0.8692
 3542SOL    HW222086   1.975   4.316   9.849 -0.4015  0.4011 -1.5891
 3543SOL     OW22087   2.178   0.420  10.972  0.3330 -0.6403 -0.0163
 3543SOL    HW122088   2.220   0.506  10.977  1.0898 -1.2114  3.6829
 3543SOL    HW222089   2.259   0.373  10.991  1.1999  0.5311 -0.8506
 3544SOL     OW22090   1.077   2.802   3.753 -0.0888  0.0334  0.7518
 3544SOL    HW122091   1.123   2.731   3.708 -1.9418 -0.2526 -0.6802
 3544SOL    HW222092   0.999   2.821   3.701 -0.5472 -0.6402  1.1785
 3545SOL     OW22093   0.473   3.919   4.744  0.2762  0.1805 -0.0462
 3545SOL    HW122094   0.524   3.872   4.678 -0.2447 -0.6148  0.1315
 3545SOL    HW222095   0.485   3.865   4.822 -0.9305 -0.6413 -0.4433
 3546SOL     OW22096   2.924   1.526  16.224 -0.3179 -0.5161 -0.3637
 3546SOL    HW122097   3.017   1.504  16.215 -0.1034  0.2366  0.0037
 3546SOL    HW222098   2.921   1.565  16.311  0.5961 -1.6005  0.1475
 3547SOL     OW22099   2.616   0.298   7.477  0.3198 -0.2349  0.0759
 3547SOL    HW122100   2.626   0.203   7.480 -0.3198 -0.3222 -0.6367
 3547SOL    HW222101   2.705   0.322   7.451 -0.3009 -0.7802 -2.4879
 3548SOL     OW22102   1.898   1.252   1.012 -0.2793 -0.3101 -0.0469
 3548SOL    HW122103   1.977   1.242   0.958 -0.6205 -1.1097 -0.3944
 3548SOL    HW222104   1.931   1.213   1.092 -0.0047 -1.2496 -0.6164
 3549SOL     OW22105   4.650   1.030  13.332  0.4473  0.2182 -0.8077
 3549SOL    HW122106   4.698   1.050  13.412 -1.1063  1.0489 -0.0888
 3549SOL    HW222107   4.670   1.104  13.274 -1.3056  1.1283 -0.2460
 3550SOL     OW22108   0.295   3.231   3.188 -0.5594 -0.4425  0.0024
 3550SOL    HW122109   0.326   3.151   3.144 -0.7703 -0.6019  0.1436
 3550SOL    HW222110   0.222   3.267   3.137 -0.0408 -2.7509 -2.3659
 3551SOL     OW22111   1.657   0.684   7.276 -0.2630  0.1701 -0.1921
 3551SOL    HW122112   1.733   0.648   7.230  1.0015  0.3931  1.7396
 3551SOL    HW222113   1.693   0.708   7.361  1.6638  0.1497 -1.0043
 3552SOL     OW22114   1.728   0.802   5.989  0.1247  0.3703 -0.5871
 3552SOL    HW122115   1.654   0.742   5.978  1.6439 -1.9519  1.7237
 3552SOL    HW222116   1.727   0.854   5.909 -1.0089  0.1571 -0.7138
 3553SOL     OW22117   1.498   3.855   5.337 -0.6722  0.1580 -0.2188
 3553SOL    HW122118   1.412   3.818   5.358 -0.0312 -1.3604 -0.2342
 3553SOL    HW222119   1.562   3.784   5.329  0.5603  1.3782 -1.1252
 3554SOL     OW22120   0.918   3.314   4.456  0.4364  0.1415  0.1513
 3554SOL    HW122121   0.985   3.268   4.508  0.1827 -0.1374  0.2277
 3554SOL    HW222122   0.899   3.246   4.391  1.2527  0.7641 -0.7366
 3555SOL     OW22123   4.559   0.391   3.877  0.1883  0.7510 -0.1273
 3555SOL    HW122124   4.512   0.325   3.927  0.8888 -1.6028 -2.5651
 3555SOL    HW222125   4.487   0.447   3.849  0.2666  0.9482  0.0608
 3556SOL     OW22126   2.791   2.235  16.910  0.0493 -0.4722 -0.0136
 3556SOL    HW122127   2.723   2.288  16.951 -1.1336 -0.5145 -1.9020
 3556SOL    HW222128   2.820   2.180  16.983  1.4491  0.1781 -0.0821
 3557SOL     OW22129   0.371   4.150   1.776  0.1215  0.4401  0.8607
 3557SOL    HW122130   0.289   4.194   1.756  0.5884  0.5911 -0.6619
 3557SOL    HW222131   0.411   4.131   1.692  1.6573  3.1522  0.9843
 3558SOL     OW22132   3.873   3.507   3.885  0.0301  0.3245  0.0085
 3558SOL    HW122133   3.817   3.567   3.934 -1.4119  0.0186 -1.2688
 3558SOL    HW222134   3.956   3.534   3.926  0.8543 -1.5617 -0.4447
 3559SOL     OW22135   2.612   4.474   3.012  1.0679  0.3668  0.2670
 3559SOL    HW122136   2.676   4.422   2.965  0.5211 -0.7407  0.7501
 3559SOL    HW222137   2.671   4.532   3.061  0.3550 -1.2443  3.0324
 3560SOL     OW22138   4.161   3.356   4.179  0.0396 -0.0744  0.1814
 3560SOL    HW122139   4.077   3.324   4.146 -1.1887  0.3264  2.8544
 3560SOL    HW222140   4.155   3.341   4.274  1.3791  0.0149  0.2686
 3561SOL     OW22141   0.403   0.846   7.309 -0.0562 -0.1452  0.0160
 3561SOL    HW122142   0.480   0.873   7.358 -1.5049  3.0422  0.5139
 3561SOL    HW222143   0.441   0.839   7.221 -0.7602 -0.3159 -0.2775
 3562SOL     OW22144   0.031   0.159   6.652  0.2498  0.1353 -0.4587
 3562SOL    HW122145   0.057   0.222   6.719  0.3631  1.0758 -1.3693
 3562SOL    HW222146   4.665   0.157   6.673  0.3618 -0.8241 -0.0668
 3563SOL     OW22147   1.552   2.082   2.811 -0.5608  0.1563 -0.2683
 3563SOL    HW122148   1.467   2.106   2.849 -0.3295  1.6918 -0.7298
 3563SOL    HW222149   1.554   1.988   2.827 -0.4321  0.2217  0.0980
 3564SOL     OW22150   1.210   2.630   5.060 -0.5613  0.3487 -0.2769
 3564SOL    HW122151   1.158   2.661   4.986 -2.2113  3.7146  2.3069
 3564SOL    HW222152   1.242   2.549   5.020  2.4257  1.8011 -0.8251
 3565SOL     OW22153   3.547   4.606   3.488  0.2247 -0.2590  0.4162
 3565SOL    HW122154   3.573   4.600   3.580 -0.0515 -1.8075  0.3975
 3565SOL    HW222155   3.452   4.594   3.494 -0.1407  2.5684  0.2153
 3566SOL     OW22156   2.963   4.502   7.970  0.5101  0.1974 -0.4102
 3566SOL    HW122157   2.984   4.433   8.034  0.4761  0.6154  0.0519
 3566SOL    HW222158   2.932   4.451   7.896 -2.1273  0.9056  0.2350
 3567SOL     OW22159   1.696   3.297   7.882 -0.0208 -0.0504 -0.0911
 3567SOL    HW122160   1.719   3.318   7.791 -0.1314 -2.4269 -0.6842
 3567SOL    HW222161   1.608   3.262   7.869 -0.7877  1.4079  1.2753
 3568SOL     OW22162   2.948   1.203  12.090  0.0515 -0.1645 -0.3027
 3568SOL    HW122163   3.016   1.152  12.135  1.5600  2.2177  0.1193
 3568SOL    HW222164   2.972   1.178  12.000  0.5035  0.4217 -0.3449
 3569SOL     OW22165   1.990   3.592   4.159  0.2633 -0.0621  0.0090
 3569SOL    HW122166   2.025   3.681   4.160 -1.4102  0.5760  1.2918
 3569SOL    HW222167   1.937   3.595   4.080  1.3811  0.1749 -0.7237
 3570SOL     OW22168   2.690   2.228  15.910 -0.0563 -0.3551 -0.4329
 3570SOL    HW122169   2.620   2.283  15.945  2.0353  1.4447  0.9990
 3570SOL    HW222170   2.671   2.227  15.817 -0.9209  0.4428 -0.2661
 3571SOL     OW22171   4.662   3.721   6.997  0.1035  0.2612 -0.0719
 3571SOL    HW122172   4.624   3.809   6.994  0.3138  0.4119  1.8150
 3571SOL    HW222173   4.622   3.673   7.070  0.5542 -3.0029 -1.9942
 3572SOL     OW22174   0.027   2.842  12.146 -0.4097 -1.2284  0.1755
 3572SOL    HW122175   0.067   2.922  12.113 -3.5535  0.4328  0.4356
 3572SOL    HW222176   4.666   2.871  12.126  0.4429  0.8176 -0.5842
 3573SOL     OW22177   0.967   1.435  15.168 -0.3119  0.0148  0.8917
 3573SOL    HW122178   0.942   1.494  15.239  2.3978  0.7968  1.1983
 3573SOL    HW222179   0.927   1.484  15.096 -0.4509  0.3394  1.1905
 3574SOL     OW22180   2.612   2.207   5.459  0.5288 -0.1215  0.2987
 3574SOL    HW122181   2.598   2.241   5.547 -0.7664  2.8832 -1.0773
 3574SOL    HW222182   2.521   2.209   5.428  0.5277 -0.6887  0.2689
 3575SOL     OW22183   4.443   3.017   3.829  0.3003  0.0749 -0.7461
 3575SOL    HW122184   4.435   3.047   3.919 -0.7275 -3.9581  0.5226
 3575SOL    HW222185   4.525   2.969   3.841 -0.5891 -1.4567 -0.7933
 3576SOL     OW22186   0.395   0.734   5.649  0.0525  0.4194  0.0337
 3576SOL    HW122187   0.439   0.817   5.632 -0.0617  0.4860  0.0674
 3576SOL    HW222188   0.342   0.767   5.721 -1.5022  1.8896 -1.8007
 3577SOL     OW22189   1.987   1.146  13.610  0.7610 -0.2995 -0.3117
 3577SOL    HW122190   1.979   1.236  13.640 -0.2713 -0.7448  0.7807
 3577SOL    HW222191   1.977   1.157  13.516  3.0254  0.5289 -0.4384
 3578SOL     OW22192   4.405   2.427   5.635 -0.1840  0.2192 -0.2709
 3578SOL    HW122193   4.372   2.515   5.656  0.0191  0.0160  0.8925
 3578SOL    HW222194   4.480   2.449   5.581 -1.2754  2.5830 -0.8210
 3579SOL     OW22195   3.214   3.118  11.822 -0.4353  0.0547  0.2432
 3579SOL    HW122196   3.153   3.056  11.782 -1.4039  1.6566 -0.8035
 3579SOL    HW222197   3.193   3.125  11.915 -2.4788 -0.1508 -0.2088
 3580SOL     OW22198   4.658   0.683   8.980 -0.2904  0.1915  0.2767
 3580SOL    HW122199   0.022   0.659   8.964 -0.0866  1.7637 -0.9304
 3580SOL    HW222200   4.612   0.622   8.923 -1.2703 -0.3434  1.6374
 3581SOL     OW22201   3.855   4.095   5.766 -0.1724  0.5972 -0.1539
 3581SOL    HW122202   3.819   4.178   5.799 -0.8839 -0.2055  1.0904
 3581SOL    HW222203   3.940   4.129   5.740  0.3546  0.1929  1.0278
 3582SOL     OW22204   1.077   2.202  15.380  0.3679  1.0853  0.0582
 3582SOL    HW122205   1.105   2.118  15.342  0.6966  0.9420  0.6151
 3582SOL    HW222206   1.034   2.180  15.463 -1.2531 -1.3402 -1.3823
 3583SOL     OW22207   2.549   1.567   4.746 -0.0922  0.1891 -0.5402
 3583SOL    HW122208   2.587   1.501   4.688 -2.3002 -1.6344  0.0909
 3583SOL    HW222209   2.616   1.634   4.735  0.3301 -0.1299  0.0813
 3584SOL     OW22210   1.262   0.842  13.710 -0.4638 -0.2362 -0.4258
 3584SOL    HW122211   1.347   0.871  13.678  1.7590 -3.4958  2.5416
 3584SOL    HW222212   1.285   0.818  13.800  0.9784  0.1156 -0.7126
 3585SOL     OW22213   0.898   2.471   8.317  0.5933 -0.3814  0.5715
 3585SOL    HW122214   0.824   2.514   8.360  0.0140 -0.2375 -0.5692
 3585SOL    HW222215   0.946   2.544   8.277  2.1129 -1.1158  1.0623
 3586SOL     OW22216   3.017   2.387   3.035 -0.1369 -0.1752 -0.2633
 3586SOL    HW122217   2.945   2.449   3.024 -0.8049 -0.8308  0.4196
 3586SOL    HW222218   3.053   2.415   3.119  0.2520  2.3459 -1.2912
 3587SOL     OW22219   4.606   2.892   7.634  0.4787 -0.1262 -0.4762
 3587SOL    HW122220   4.676   2.957   7.640 -0.8002  1.2155 -0.0866
 3587SOL    HW222221   4.650   2.825   7.687 -1.2627 -0.2243  0.8623
 3588SOL     OW22222   3.888   0.168   8.632  0.2571  0.0321  0.4603
 3588SOL    HW122223   3.876   0.081   8.669 -0.1996  0.4886  1.3931
 3588SOL    HW222224   3.928   0.154   8.547 -0.5873  0.0795  0.0548
 3589SOL     OW22225   1.081   1.577   2.712  0.6980  0.0770  0.2787
 3589SOL    HW122226   1.129   1.555   2.632  1.1571  2.3297 -0.0513
 3589SOL    HW222227   1.074   1.672   2.704  0.1613 -0.0060 -0.2057
 3590SOL     OW22228   3.452   1.538   2.852  0.2780  0.1354 -0.3605
 3590SOL    HW122229   3.445   1.498   2.939  1.7034 -0.3107 -0.4416
 3590SOL    HW222230   3.451   1.458   2.801 -1.1046  0.1719 -0.3814
 3591SOL     OW22231   1.231   0.781   2.315 -0.2793 -0.1488  0.8325
 3591SOL    HW122232   1.239   0.824   2.400  0.1378 -0.4572  0.9496
 3591SOL    HW222233   1.141   0.751   2.311 -0.2022 -0.2612 -0.2316
 3592SOL     OW22234   1.726   3.165   2.996  0.3521 -0.0425  0.6199
 3592SOL    HW122235   1.743   3.212   3.078  3.0959 -1.0098  0.6120
 3592SOL    HW222236   1.817   3.160   2.967 -0.4253  0.2842 -1.8319
 3593SOL     OW22237   4.292   1.361   3.131 -0.0731  0.5347  0.4509
 3593SOL    HW122238   4.216   1.317   3.093 -0.9501  1.3662  1.2659
 3593SOL    HW222239   4.274   1.453   3.114  0.1749  0.8812  2.1057
 3594SOL     OW22240   4.550   4.334   4.427 -0.5099 -0.6777 -0.2551
 3594SOL    HW122241   4.500   4.253   4.442 -0.7733 -0.8224 -1.9570
 3594SOL    HW222242   4.584   4.325   4.338  1.9998 -0.0584  0.6493
 3595SOL     OW22243   2.094   0.313   8.230  0.4216  0.0103  0.0829
 3595SOL    HW122244   2.142   0.303   8.148  0.5548 -1.4866  0.3455
 3595SOL    HW222245   2.066   0.405   8.227 -2.0891 -0.7512  0.2987
 3596SOL     OW22246   1.961   0.898   4.965  0.3389  0.0311  0.4722
 3596SOL    HW122247   2.030   0.839   4.995  0.8969 -0.1656 -1.1913
 3596SOL    HW222248   1.938   0.944   5.046  1.1313 -0.7023  1.1096
 3597SOL     OW22249   3.498   4.304   7.491 -0.1847  0.5297 -0.1201
 3597SOL    HW122250   3.551   4.270   7.563  0.6137 -0.9092 -1.3944
 3597SOL    HW222251   3.561   4.360   7.446 -0.2450  1.4532  0.9660
 3598SOL     OW22252   4.517   3.940  14.143 -0.0416 -0.1619  0.4908
 3598SOL    HW122253   4.455   3.958  14.073 -0.4698 -0.2917  0.8327
 3598SOL    HW222254   4.532   4.030  14.172 -3.1089  0.7245 -0.5982
 3599SOL     OW22255   0.196   2.764  16.704 -0.1411 -0.2516 -0.4099
 3599SOL    HW122256   0.234   2.827  16.766 -0.6926 -1.0840  0.7626
 3599SOL    HW222257   0.265   2.698  16.705 -0.3600 -0.4846 -1.5206
 3600SOL     OW22258   3.692   0.001   2.687  0.1076 -0.2723  0.0733
 3600SOL    HW122259   3.619   4.717   2.748 -0.0681  1.3031  0.1756
 3600SOL    HW222260   3.756   0.032   2.751 -0.7800  1.5888  0.0724
 3601SOL     OW22261   1.582   1.204   2.796 -0.3735 -0.0179  0.1417
 3601SOL    HW122262   1.666   1.175   2.759 -1.7324 -1.3707 -1.9073
 3601SOL    HW222263   1.534   1.231   2.718 -2.9473  2.0018  2.4758
 3602SOL     OW22264   3.196   3.106   6.600  0.2077  0.3232 -0.5788
 3602SOL    HW122265   3.105   3.086   6.621  0.8352  0.0015  1.8076
 3602SOL    HW222266   3.225   3.037   6.541  0.0159 -0.1318 -0.1379
 3603SOL     OW22267   0.461   1.985  10.806 -0.1477  0.2196  0.5141
 3603SOL    HW122268   0.397   2.048  10.771 -0.1455 -0.8076 -1.3079
 3603SOL    HW222269   0.427   1.904  10.767  0.4674 -0.3052  1.0765
 3604SOL     OW22270   4.089   2.868   8.923  0.2429 -0.5006  0.1109
 3604SOL    HW122271   4.145   2.800   8.961  0.1936 -0.4772  0.2261
 3604SOL    HW222272   4.062   2.906   9.006 -1.0880 -0.4727 -0.3350
 3605SOL     OW22273   3.242   1.482   4.535  0.5780 -0.5097  0.1194
 3605SOL    HW122274   3.266   1.499   4.444 -0.2099  0.3504  0.0781
 3605SOL    HW222275   3.294   1.546   4.584  0.7208 -1.1451  0.8084
 3606SOL     OW22276   3.994   4.194   4.113  0.5110 -0.3171 -0.0936
 3606SOL    HW122277   4.047   4.253   4.166  0.9837 -2.0106  1.3332
 3606SOL    HW222278   3.937   4.165   4.184  0.4125  0.7968  0.2883
 3607SOL     OW22279   2.999   0.796  11.237 -0.0643 -0.1328 -0.0387
 3607SOL    HW122280   2.936   0.764  11.302  0.6841 -0.7484  0.3781
 3607SOL    HW222281   3.066   0.832  11.296  0.6081  0.7355 -1.3366
 3608SOL     OW22282   4.220   4.404  14.580 -0.3195  0.0256 -0.1914
 3608SOL    HW122283   4.184   4.486  14.547  4.1120  1.6792 -0.8838
 3608SOL    HW222284   4.311   4.405  14.550  0.4802  0.3976  2.2916
 3609SOL     OW22285   1.318   0.591   6.906 -0.0318  0.4188  0.0801
 3609SOL    HW122286   1.225   0.608   6.919 -0.3228  0.0909 -1.5046
 3609SOL    HW222287   1.331   0.518   6.966 -1.9929  0.3850  0.4654
 3610SOL     OW22288   0.829   1.828   6.054 -0.2487 -0.4333 -0.6302
 3610SOL    HW122289   0.820   1.733   6.048  0.1139 -0.5156  0.0944
 3610SOL    HW222290   0.849   1.840   6.147  0.0394  2.8385 -1.1222
 3611SOL     OW22291   3.657   1.171   7.822  0.3135 -0.6630 -0.3096
 3611SOL    HW122292   3.690   1.110   7.888 -1.5031 -0.7266  0.5677
 3611SOL    HW222293   3.696   1.140   7.741 -0.8244 -1.7250 -0.4542
 3612SOL     OW22294   0.455   0.560  12.628 -0.1305 -0.0344 -0.2147
 3612SOL    HW122295   0.443   0.487  12.568 -0.9558  0.4947 -0.6974
 3612SOL    HW222296   0.362   0.574  12.646 -0.2378 -0.0323 -0.7875
 3613SOL     OW22297   3.100   3.880   2.006 -0.6812 -0.8939  0.7552
 3613SOL    HW122298   3.138   3.942   2.068 -0.1168 -1.1266  0.6429
 3613SOL    HW222299   3.183   3.831   2.003 -0.7856 -1.0637  0.6366
 3614SOL     OW22300   0.266   3.779   0.170 -0.3630 -0.0985  0.0478
 3614SOL    HW122301   0.240   3.869   0.149  0.0165  0.2171  0.9051
 3614SOL    HW222302   0.211   3.749   0.242 -1.1592  1.5153  0.1204
 3615SOL     OW22303   1.087   1.794   8.684 -0.0008  0.1803 -0.5505
 3615SOL    HW122304   1.037   1.766   8.760 -1.7799  2.7239 -0.7786
 3615SOL    HW222305   1.042   1.878   8.675 -1.0168 -0.2757  0.1882
 3616SOL     OW22306   2.965   3.554  10.394  0.1061  0.1716  0.2948
 3616SOL    HW122307   3.047   3.547  10.443 -0.9403  0.7158  2.1165
 3616SOL    HW222308   2.987   3.505  10.315 -0.8162 -1.1669  0.8875
 3617SOL     OW22309   2.228   4.702  10.341  0.7014 -0.2758 -0.2310
 3617SOL    HW122310   2.268   4.625  10.381  0.9087  1.0759  2.1825
 3617SOL    HW222311   2.141   4.668  10.321  0.0200  2.8479 -2.5895
 3618SOL     OW22312   1.578   1.008   3.661  0.1628  0.1881 -0.9544
 3618SOL    HW122313   1.618   1.083   3.616  0.7590 -0.5395 -1.6323
 3618SOL    HW222314   1.489   1.020   3.628  0.3466 -0.1659 -1.5696
 3619SOL     OW22315   4.101   4.005  15.746  0.5343 -0.2700 -0.1902
 3619SOL    HW122316   4.166   4.071  15.771 -1.0030  1.4066 -0.6409
 3619SOL    HW222317   4.077   4.039  15.660  0.8877 -2.4424 -1.1331
 3620SOL     OW22318   0.839   3.314   7.191 -0.3913  0.1893 -0.1587
 3620SOL    HW122319   0.864   3.394   7.145  0.4825 -0.6241 -1.0804
 3620SOL    HW222320   0.769   3.351   7.245 -0.8984 -0.4898 -0.3450
 3621SOL     OW22321   0.773   3.884   7.653 -0.1896 -0.3243 -0.3268
 3621SOL    HW122322   0.829   3.926   7.588 -2.9295  2.8857 -0.5946
 3621SOL    HW222323   0.698   3.868   7.596  0.6701 -2.7671 -0.7797
 3622SOL     OW22324   0.049   3.347   8.262 -0.0671 -0.2666  0.1808
 3622SOL    HW122325   0.050   3.291   8.185  1.2381  1.3542 -0.9849
 3622SOL    HW222326   4.700   3.313   8.309 -0.3679  1.9815  1.3468
 3623SOL     OW22327   1.559   2.197  12.174 -0.1558 -0.4650 -0.5681
 3623SOL    HW122328   1.516   2.271  12.131  0.3611  0.0179 -0.2553
 3623SOL    HW222329   1.498   2.124  12.176 -0.2974 -0.3235  0.1613
 3624SOL     OW22330   2.281   0.194   5.709 -0.2017 -0.2311  0.3618
 3624SOL    HW122331   2.328   0.250   5.646 -1.1117  0.7064  0.5097
 3624SOL    HW222332   2.203   0.160   5.666  0.3679 -0.7710 -0.2469
 3625SOL     OW22333   4.522   3.096   7.946  0.5456 -0.8956 -0.2453
 3625SOL    HW122334   4.473   3.138   7.875 -0.0933 -0.7117  0.3035
 3625SOL    HW222335   4.450   3.066   8.001  2.5364 -0.6966  2.4756
 3626SOL     OW22336   4.389   4.014   4.218  0.0705  0.0200  0.0789
 3626SOL    HW122337   4.457   3.963   4.176 -2.0218 -0.0789 -3.2261
 3626SOL    HW222338   4.403   4.100   4.178  1.9528 -0.4304 -0.1984
 3627SOL     OW22339   0.463   3.743   7.951 -0.1946 -0.2264  0.6664
 3627SOL    HW122340   0.525   3.745   8.023  0.6000 -1.5053  0.0134
 3627SOL    HW222341   0.376   3.755   7.990 -0.8332 -1.9770 -0.1716
 3628SOL     OW22342   2.329   0.507   9.282 -0.2415 -0.3174  0.5981
 3628SOL    HW122343   2.327   0.567   9.356 -0.1803 -0.5200  0.7662
 3628SOL    HW222344   2.251   0.455   9.303 -1.7781  0.8522 -2.1534
 3629SOL     OW22345   2.270   0.002  10.792 -0.3996  0.1683 -0.0371
 3629SOL    HW122346   2.251   0.095  10.788 -0.3776  0.3396  3.9151
 3629SOL    HW222347   2.364   4.718  10.803 -0.4104 -0.8857 -0.9685
 3630SOL     OW22348   4.595   3.024   2.225  0.0675 -0.2461  0.0271
 3630SOL    HW122349   4.548   2.941   2.212  1.1481 -0.6203 -1.4573
 3630SOL    HW222350   4.680   3.000   2.262  0.0285  0.7841  0.7922
 3631SOL     OW22351   2.839   0.968   5.769 -0.0574  0.3183 -0.5255
 3631SOL    HW122352   2.751   0.937   5.747  0.3467 -1.3095  0.1418
 3631SOL    HW222353   2.842   0.940   5.860 -0.4226  0.4642 -0.4705
 3632SOL     OW22354   3.840   2.322  16.505  0.3558 -0.6856 -0.2771
 3632SOL    HW122355   3.869   2.314  16.596  1.4517 -1.9411 -0.7292
 3632SOL    HW222356   3.875   2.406  16.475  0.3981 -0.5086  0.2630
 3633SOL     OW22357   2.437   0.560   6.450 -0.0628  0.9097 -0.0224
 3633SOL    HW122358   2.459   0.536   6.540  0.3259 -1.6385 -0.7795
 3633SOL    HW222359   2.399   0.484   6.405 -0.1386 -0.2201  1.9820
 3634SOL     OW22360   1.728   4.135   5.605  0.3689  0.3171 -0.1254
 3634SOL    HW122361   1.765   4.088   5.530  0.9133 -3.2311  2.4104
 3634SOL    HW222362   1.640   4.098   5.613  0.6579 -0.6726 -1.6256
 3635SOL     OW22363   0.961   0.895   3.176  0.1958 -0.0079  0.0683
 3635SOL    HW122364   0.904   0.824   3.145  2.4896 -1.4813 -0.7266
 3635SOL    HW222365   0.956   0.887   3.271 -3.1513  1.9796  0.0922
 3636SOL     OW22366   0.011   3.527   3.954 -0.7619  0.0944  0.0961
 3636SOL    HW122367   4.694   3.443   3.967  0.6702 -0.8030 -0.7262
 3636SOL    HW222368   0.017   3.533   3.858  1.1518 -2.0053  0.0822
 3637SOL     OW22369   0.043   2.415   2.389 -0.4596  0.1111  0.1439
 3637SOL    HW122370   4.699   2.352   2.395 -1.1410  0.7283 -1.7886
 3637SOL    HW222371   0.112   2.366   2.345 -0.4296  1.6562 -1.5325
 3638SOL     OW22372   0.241   1.296   1.700 -0.2808  0.0316  0.0449
 3638SOL    HW122373   0.146   1.306   1.692 -0.2470  1.4167  1.5046
 3638SOL    HW222374   0.271   1.305   1.609 -0.4622  1.1227  0.1013
 3639SOL     OW22375   0.799   3.767  12.182  0.3453 -0.1117 -0.0809
 3639SOL    HW122376   0.831   3.776  12.092 -0.3108  0.3822 -0.2606
 3639SOL    HW222377   0.861   3.701  12.213 -0.3905 -0.3372  0.8774
 3640SOL     OW22378   0.154   3.484   8.627 -0.1600  0.3196 -0.0672
 3640SOL    HW122379   0.163   3.398   8.587 -0.5838  0.5434 -0.6419
 3640SOL    HW222380   0.244   3.514   8.641 -0.2177 -0.1756  1.3283
 3641SOL     OW22381   3.570   1.450  14.206  0.4342  0.3953  0.2906
 3641SOL    HW122382   3.483   1.483  14.186  0.0349 -1.9461 -1.8492
 3641SOL    HW222383   3.629   1.525  14.196  0.8814  0.2365  1.7814
 3642SOL     OW22384   4.262   4.104   3.645  0.2014  0.2315  0.5087
 3642SOL    HW122385   4.176   4.099   3.687 -0.5646 -0.9026 -1.1862
 3642SOL    HW222386   4.303   4.041   3.704  1.2905 -0.6665 -1.2118
 3643SOL     OW22387   0.592   4.586   9.964  1.0522 -0.2525 -0.7760
 3643SOL    HW122388   0.619   4.573  10.055  0.1335 -0.7104 -0.5663
 3643SOL    HW222389   0.555   4.503   9.935 -0.5658  0.6620 -1.3678
 3644SOL     OW22390   3.052   2.087   3.750 -0.5181  0.1628 -0.3472
 3644SOL    HW122391   2.961   2.115   3.755 -0.5559 -0.2259  1.0981
 3644SOL    HW222392   3.081   2.097   3.840 -0.7426  1.2532 -0.3914
 3645SOL     OW22393   4.714   3.391   4.461  0.1929 -0.6689  0.2555
 3645SOL    HW122394   0.017   3.450   4.391  0.2397 -0.3373  0.5553
 3645SOL    HW222395   0.001   3.455   4.531 -2.3477  0.2912 -0.0945
 3646SOL     OW22396   3.353   0.461   2.175  0.2699 -0.2570  0.5896
 3646SOL    HW122397   3.348   0.548   2.216  3.0945  0.2084 -0.0613
 3646SOL    HW222398   3.439   0.429   2.204 -0.0195 -1.1274  0.4712
 3647SOL     OW22399   4.102   3.181   6.770 -0.2096 -0.0653 -0.5336
 3647SOL    HW122400   4.112   3.086   6.775  1.3755  0.1915  1.0940
 3647SOL    HW222401   4.010   3.194   6.792  0.2028  1.2434  0.4039
 3648SOL     OW22402   0.952   2.694  10.674  0.3334 -0.4595 -0.5748
 3648SOL    HW122403   0.988   2.616  10.632 -0.5182  0.3503 -2.8293
 3648SOL    HW222404   0.949   2.755  10.600 -1.4781 -0.5638 -0.5959
 3649SOL     OW22405   2.816   1.655   6.711 -0.0016  0.1137 -0.0549
 3649SOL    HW122406   2.723   1.632   6.708 -0.0756  0.5583 -1.2732
 3649SOL    HW222407   2.808   1.702   6.628  0.9039  0.3677  0.0059
 3650SOL     OW22408   2.942   1.943   4.569  0.2084  0.2701  0.3754
 3650SOL    HW122409   3.001   1.970   4.640  1.0808  0.6787 -0.4977
 3650SOL    HW222410   3.002   1.888   4.518  0.2643 -0.7455  1.5076
 3651SOL     OW22411   0.357   3.292   2.246 -0.1471 -0.1735 -0.1747
 3651SOL    HW122412   0.433   3.318   2.298 -0.4477 -0.8743  0.6067
 3651SOL    HW222413   0.372   3.199   2.231  1.9100  0.3539 -1.3845
 3652SOL     OW22414   0.791   3.255   0.202 -0.4109  0.2641  0.5141
 3652SOL    HW122415   0.718   3.300   0.246  0.4900 -0.0894  2.3521
 3652SOL    HW222416   0.744   3.198   0.141  2.0435  0.1620 -1.2378
 3653SOL     OW22417   0.288   1.481   6.004  0.4108  0.0077 -0.6290
 3653SOL    HW122418   0.207   1.487   6.055  2.0480  1.2335  1.8557
 3653SOL    HW222419   0.270   1.414   5.939 -0.3351 -2.7750  2.4615
 3654SOL     OW22420   3.187   3.600   6.623  0.1674 -0.0613 -0.3619
 3654SOL    HW122421   3.121   3.642   6.677 -1.4772 -2.6413 -0.3595
 3654SOL    HW222422   3.184   3.510   6.656 -0.7234  0.0995 -0.0052
 3655SOL     OW22423   2.648   0.316   6.320  0.3058  0.3612 -0.8355
 3655SOL    HW122424   2.608   0.322   6.407 -1.8357 -2.1351 -1.6476
 3655SOL    HW222425   2.588   0.361   6.260 -1.9010 -0.8114  0.4975
 3656SOL     OW22426   3.447   1.225  13.442 -0.1049  0.2573 -0.6510
 3656SOL    HW122427   3.495   1.158  13.394 -0.4266 -0.2914 -0.1961
 3656SOL    HW222428   3.461   1.208  13.535  0.8938 -3.4286 -1.5037
 3657SOL     OW22429   0.554   4.079   3.858 -0.6098 -0.6735 -0.9257
 3657SOL    HW122430   0.536   4.135   3.783  1.9807  0.8704 -0.3935
 3657SOL    HW222431   0.472   4.029   3.855 -1.9304  1.3498  1.5697
 3658SOL     OW22432   3.943   2.645   1.384  0.3430 -0.4354 -0.3407
 3658SOL    HW122433   4.024   2.631   1.433  1.9142 -0.5274 -2.9171
 3658SOL    HW222434   3.975   2.694   1.308 -4.0140  0.7059 -1.4536
 3659SOL     OW22435   4.325   0.737   8.792 -0.4227  0.4788  0.1821
 3659SOL    HW122436   4.306   0.650   8.826  0.0034 -0.2266 -1.3604
 3659SOL    HW222437   4.418   0.729   8.772 -0.1758  1.0296  1.1179
 3660SOL     OW22438   2.175   0.712   4.725 -0.3727 -0.1069  0.4127
 3660SOL    HW122439   2.212   0.757   4.801  0.4633  0.2641 -0.2061
 3660SOL    HW222440   2.238   0.642   4.708  0.2822  0.2576  1.3141
 3661SOL     OW22441   2.005   3.205  11.349  0.2186  0.1032 -0.3852
 3661SOL    HW122442   1.994   3.135  11.285 -1.8657 -0.0975  0.1719
 3661SOL    HW222443   2.027   3.151  11.424  0.1463  1.9698  0.9829
 3662SOL     OW22444   1.235   3.358   0.465  0.0293 -0.0176  0.4451
 3662SOL    HW122445   1.275   3.271   0.464 -0.0972 -0.0754  0.3441
 3662SOL    HW222446   1.142   3.343   0.449  0.1231  0.0901 -0.2062
 3663SOL     OW22447   1.800   0.316   2.802 -0.6381  0.2767 -0.1279
 3663SOL    HW122448   1.707   0.340   2.803 -0.3509  1.3242  1.8695
 3663SOL    HW222449   1.812   0.263   2.880 -0.5853  2.2445  1.2110
 3664SOL     OW22450   4.367   3.570   5.402 -0.4092 -0.3325  0.6142
 3664SOL    HW122451   4.393   3.521   5.324 -1.4909  1.3023 -0.7901
 3664SOL    HW222452   4.272   3.563   5.398 -0.3089 -1.0049 -0.5376
 3665SOL     OW22453   3.116   1.906   3.088 -0.1138  0.1080  0.5059
 3665SOL    HW122454   3.064   1.847   3.143 -0.0648 -0.8389 -0.4530
 3665SOL    HW222455   3.071   1.987   3.110 -1.0875 -0.2800 -0.0871
 3666SOL     OW22456   3.854   0.452   8.219 -0.0935  0.1697 -0.0753
 3666SOL    HW122457   3.832   0.532   8.267  3.6514  0.1297  1.6337
 3666SOL    HW222458   3.944   0.441   8.248 -0.5583 -1.7261  0.6724
 3667SOL     OW22459   0.686   4.634   3.444  0.2122  0.3332 -0.0636
 3667SOL    HW122460   0.692   4.685   3.363  0.7893  0.8598  0.3144
 3667SOL    HW222461   0.721   4.551   3.412  0.1022  0.0486  0.5680
 3668SOL     OW22462   4.061   2.433   6.524  0.1541  0.1223  0.7986
 3668SOL    HW122463   3.966   2.428   6.529  0.0118  1.3927 -0.4738
 3668SOL    HW222464   4.072   2.445   6.618  1.4710  2.3585  0.3551
 3669SOL     OW22465   0.124   2.803   2.188  0.0307 -0.5495 -0.0342
 3669SOL    HW122466   0.082   2.750   2.120 -1.8619 -0.4482  1.0555
 3669SOL    HW222467   0.084   2.762   2.265  0.9547 -0.9187  0.2485
 3670SOL     OW22468   0.682   1.988   7.291  0.2362  0.2868 -0.0132
 3670SOL    HW122469   0.721   2.066   7.252 -3.8017  1.0866 -2.4106
 3670SOL    HW222470   0.609   2.029   7.337 -1.0701 -0.6192 -1.2740
 3671SOL     OW22471   3.185   4.523   1.867 -0.6641 -0.3640  0.1326
 3671SOL    HW122472   3.183   4.619   1.862 -0.2185 -0.2664  1.9610
 3671SOL    HW222473   3.095   4.505   1.840 -0.8429  1.9730 -0.8256
 3672SOL     OW22474   2.168   1.456   6.976  0.1190  0.1236  0.0910
 3672SOL    HW122475   2.192   1.369   6.945  1.1607  0.4398  0.0274
 3672SOL    HW222476   2.251   1.491   7.010  0.8096 -1.2869 -0.1840
 3673SOL     OW22477   3.327   1.731   5.763  0.0379  0.2200 -0.2488
 3673SOL    HW122478   3.235   1.707   5.749 -1.2425  4.1031  1.5464
 3673SOL    HW222479   3.353   1.749   5.672  0.7417  2.4965  0.4178
 3674SOL     OW22480   1.480   2.347   6.109  0.1659 -0.1261  0.0523
 3674SOL    HW122481   1.428   2.274   6.142  2.9756 -2.0132  0.3143
 3674SOL    HW222482   1.426   2.424   6.126 -1.9155 -1.6638  0.3562
 3675SOL     OW22483   1.099   0.978   8.456  0.5505 -0.3817  0.5169
 3675SOL    HW122484   1.192   0.976   8.478  0.3811  0.5425  1.3491
 3675SOL    HW222485   1.103   0.950   8.364  3.5503 -2.3597  1.2399
 3676SOL     OW22486   3.007   3.826   0.164 -0.3188  0.2965 -0.5419
 3676SOL    HW122487   3.089   3.875   0.169  0.2776 -0.7796  0.4611
 3676SOL    HW222488   3.015   3.758   0.231 -0.3641  1.0288  0.2119
 3677SOL     OW22489   4.722   2.421   2.976 -0.4568  0.1507  0.0378
 3677SOL    HW122490   4.722   2.512   3.004 -2.4206 -0.8644  3.3862
 3677SOL    HW222491   4.673   2.425   2.894  1.4670  1.2713 -1.0548
 3678SOL     OW22492   2.873   1.236   2.671 -0.6864  0.2868 -0.0966
 3678SOL    HW122493   2.924   1.165   2.710 -0.3953  0.5831  0.0560
 3678SOL    HW222494   2.783   1.206   2.684 -0.0898 -1.3253  0.3217
 3679SOL     OW22495   0.844   1.385   5.539  0.5345 -0.4263 -0.2389
 3679SOL    HW122496   0.913   1.445   5.570 -0.2943 -0.0346  0.8666
 3679SOL    HW222497   0.887   1.311   5.496  2.9393  0.5696  0.4525
 3680SOL     OW22498   3.062   4.347   1.561  0.3732 -0.3420  0.1732
 3680SOL    HW122499   3.046   4.296   1.482 -1.7002  0.2530  0.2193
 3680SOL    HW222500   2.981   4.326   1.609  1.8865 -0.7065  2.5951
 3681SOL     OW22501   3.047   0.902  14.569 -0.2958 -0.1479  0.3189
 3681SOL    HW122502   2.953   0.916  14.559  0.1581  0.9537 -2.6248
 3681SOL    HW222503   3.063   0.889  14.662  1.4984  2.0955  0.3240
 3682SOL     OW22504   1.745   2.308  16.379 -0.5370 -0.6267 -0.2270
 3682SOL    HW122505   1.793   2.317  16.462 -0.9409  1.9631 -0.2836
 3682SOL    HW222506   1.762   2.395  16.343 -0.1829 -0.4335  0.3903
 3683SOL     OW22507   4.487   0.379   5.758 -0.0088 -0.6321  0.7805
 3683SOL    HW122508   4.468   0.460   5.711 -1.7139 -0.9476  0.9112
 3683SOL    HW222509   4.578   0.361   5.733 -0.3070  0.7080 -1.2604
 3684SOL     OW22510   2.507   3.204   5.001 -0.0293 -0.0127 -0.3375
 3684SOL    HW122511   2.484   3.287   4.959  0.6610 -0.0095 -0.7199
 3684SOL    HW222512   2.538   3.250   5.079 -1.7249 -0.3548  0.5350
 3685SOL     OW22513   3.534   3.507   4.099  0.1383  0.0933 -0.2438
 3685SOL    HW122514   3.591   3.581   4.080 -0.1730  0.1720 -0.8801
 3685SOL    HW222515   3.518   3.477   4.010  1.5378 -0.5203 -0.2915
 3686SOL     OW22516   4.075   0.903   8.868  0.1563 -0.3295  0.2090
 3686SOL    HW122517   4.097   0.996   8.863  0.5975 -0.3558  1.5611
 3686SOL    HW222518   4.158   0.859   8.884  0.5916 -0.2823 -1.9394
 3687SOL     OW22519   3.589   3.546   7.792 -0.4624  0.2369  0.2693
 3687SOL    HW122520   3.578   3.498   7.711  1.7856 -0.7688  0.5616
 3687SOL    HW222521   3.498   3.576   7.791 -0.3205  0.6786  0.3842
 3688SOL     OW22522   2.139   0.844   5.910 -0.1282  0.1486  0.1606
 3688SOL    HW122523   2.151   0.938   5.892  2.2099 -0.4630 -1.5251
 3688SOL    HW222524   2.066   0.844   5.972  0.2704 -1.0767  0.6240
 3689SOL     OW22525   3.290   4.239   7.045  0.1491 -0.3258 -0.0858
 3689SOL    HW122526   3.213   4.190   7.072  0.3980  0.0300  1.2693
 3689SOL    HW222527   3.348   4.166   7.024 -0.8661 -0.6691 -1.7509
 3690SOL     OW22528   3.693   2.981   4.074 -0.0179 -0.3707  0.1079
 3690SOL    HW122529   3.732   2.904   4.033 -1.6094 -2.1268  1.8933
 3690SOL    HW222530   3.766   3.041   4.058 -0.7390  0.1851 -1.1444
 3691SOL     OW22531   0.791   2.730  12.512  0.5798 -0.2174  0.5113
 3691SOL    HW122532   0.743   2.730  12.595 -3.0421 -1.1866 -1.6063
 3691SOL    HW222533   0.854   2.661  12.533  1.2803  0.2556 -0.0207
 3692SOL     OW22534   1.790   3.685   4.834 -0.0680 -0.0435 -0.8541
 3692SOL    HW122535   1.703   3.703   4.799 -1.2767 -1.8107  1.2066
 3692SOL    HW222536   1.764   3.611   4.889 -2.6182  0.2056 -1.6852
 3693SOL     OW22537   3.601   3.620   1.171 -0.3335 -0.0639 -0.0737
 3693SOL    HW122538   3.643   3.686   1.114 -1.0742 -0.5792 -1.2051
 3693SOL    HW222539   3.599   3.551   1.105  0.4086  0.6944 -0.9176
 3694SOL     OW22540   0.065   3.560  13.155 -0.1719 -0.2281  0.2180
 3694SOL    HW122541   0.108   3.643  13.135 -0.8707 -0.0483 -0.5455
 3694SOL    HW222542   0.137   3.519  13.202 -1.0061 -0.7386  1.0414
 3695SOL     OW22543   3.350   2.548   1.070  0.3178 -0.0374  0.2454
 3695SOL    HW122544   3.444   2.527   1.064  0.9412  3.0941 -1.0999
 3695SOL    HW222545   3.347   2.636   1.033  3.2981  0.2974  0.7661
 3696SOL     OW22546   4.426   3.336   2.254  0.6625 -0.2148  0.1943
 3696SOL    HW122547   4.464   3.272   2.314 -1.9580 -0.1205  1.9352
 3696SOL    HW222548   4.485   3.358   2.183  0.2211 -1.1915 -0.4708
 3697SOL     OW22549   3.197   0.614  16.142 -0.3931  0.3588 -0.5969
 3697SOL    HW122550   3.179   0.522  16.124  0.0905 -0.3093  2.4310
 3697SOL    HW222551   3.106   0.643  16.132 -1.6693 -2.7278  2.2045
 3698SOL     OW22552   1.313   4.359  16.495 -0.3007  0.0198 -0.3848
 3698SOL    HW122553   1.245   4.335  16.557 -1.3873  0.4231 -1.4323
 3698SOL    HW222554   1.386   4.311  16.534 -1.5226 -1.5861 -0.0577
 3699SOL     OW22555   3.570   0.817   7.951 -0.3235 -0.0076  0.2842
 3699SOL    HW122556   3.482   0.792   7.978 -0.8821 -0.4644 -1.9712
 3699SOL    HW222557   3.558   0.859   7.867  2.0038 -2.1453 -1.1319
 3700SOL     OW22558   2.014   0.863   7.858  0.7157 -0.1151 -0.2858
 3700SOL    HW122559   2.089   0.912   7.824 -0.3902  2.5275  1.1517
 3700SOL    HW222560   1.999   0.803   7.785  3.0225  2.2480 -2.7033
 3701SOL     OW22561   0.935   2.812   2.700 -0.2298  0.3774  0.4425
 3701SOL    HW122562   0.977   2.742   2.750 -1.7376 -0.1550  0.9593
 3701SOL    HW222563   0.891   2.763   2.631 -1.3976  0.1391  1.3482
 3702SOL     OW22564   0.909   2.936   7.961  0.2150 -0.2822 -0.0379
 3702SOL    HW122565   0.895   2.910   8.052 -2.2967  0.3237 -0.2574
 3702SOL    HW222566   0.973   2.877   7.920 -0.7343 -0.7858 -0.7893
 3703SOL     OW22567   1.000   1.631   1.770  0.3342  0.1741 -0.0606
 3703SOL    HW122568   1.019   1.716   1.810 -0.0508  0.4105 -0.3809
 3703SOL    HW222569   0.917   1.612   1.813  0.1975  1.0519  0.0640
 3704SOL     OW22570   0.514   0.556   5.479  0.3567  0.1073 -0.6403
 3704SOL    HW122571   0.474   0.472   5.501 -2.3700  1.6661  0.2463
 3704SOL    HW222572   0.459   0.607   5.537 -0.6603  0.1176 -1.6020
 3705SOL     OW22573   2.108   3.280   2.155 -0.4312 -0.5743 -0.0311
 3705SOL    HW122574   2.138   3.365   2.187 -1.2465 -0.7477  1.1684
 3705SOL    HW222575   2.184   3.231   2.185  1.3178  0.9055 -1.9867
 3706SOL     OW22576   0.609   4.063   8.198 -0.7279  0.1122  0.0942
 3706SOL    HW122577   0.655   4.121   8.259 -1.2211  1.0743 -0.4492
 3706SOL    HW222578   0.680   4.011   8.161 -0.2004  0.5383  0.5097
 3707SOL     OW22579   2.958   0.274   7.380  0.4775 -0.1642 -0.0858
 3707SOL    HW122580   3.026   0.223   7.337  0.6524 -1.0220  1.1870
 3707SOL    HW222581   2.969   0.236   7.468 -1.4780 -1.0598 -0.2149
 3708SOL     OW22582   3.265   0.135   6.221 -0.2087 -0.1536  0.3382
 3708SOL    HW122583   3.208   0.111   6.147  1.1155  2.5532 -1.5363
 3708SOL    HW222584   3.281   0.229   6.211  2.3777 -0.6071  0.2203
 3709SOL     OW22585   4.276   0.426   3.154  0.1237  0.3272  0.2436
 3709SOL    HW122586   4.268   0.452   3.062 -1.1997 -0.9677  0.0004
 3709SOL    HW222587   4.219   0.491   3.195 -0.7089 -0.5135  0.4075
 3710SOL     OW22588   0.554   3.764   7.506  0.0157  0.2413  0.3547
 3710SOL    HW122589   0.569   3.709   7.582  1.6810  1.3820  0.8527
 3710SOL    HW222590   0.511   3.705   7.445 -1.7748 -0.0728  1.9204
 3711SOL     OW22591   0.436   4.076   8.659 -0.1773 -0.1179  0.0768
 3711SOL    HW122592   0.514   4.022   8.646 -0.0284  0.6998 -2.3692
 3711SOL    HW222593   0.466   4.125   8.736  2.2887 -0.3465 -0.7585
 3712SOL     OW22594   2.264   3.578  17.444 -0.2223  0.4430 -0.1588
 3712SOL    HW122595   2.252   3.546  17.533  0.5756 -0.1763 -0.2698
 3712SOL    HW222596   2.348   3.540  17.419 -1.1335 -1.1816 -0.7409
 3713SOL     OW22597   0.612   1.317  17.147  0.6803 -0.3109  0.1611
 3713SOL    HW122598   0.544   1.310  17.215 -0.9478  0.7451 -1.3817
 3713SOL    HW222599   0.666   1.242  17.174 -0.9099 -1.9886 -1.3220
 3714SOL     OW22600   3.281   3.050   0.277 -0.1483 -0.3800  0.4129
 3714SOL    HW122601   3.365   3.025   0.238  0.2067  0.2505  0.7708
 3714SOL    HW222602   3.231   2.969   0.278 -3.2621  1.5571  1.2269
 3715SOL     OW22603   1.250   0.316   7.507  0.0152 -0.4392 -0.0981
 3715SOL    HW122604   1.270   0.259   7.432 -2.2011 -0.5073 -0.6402
 3715SOL    HW222605   1.157   0.305   7.526 -0.0249 -1.1304 -0.6699
 3716SOL     OW22606   3.165   2.578   8.423  0.0699  0.1009 -0.1819
 3716SOL    HW122607   3.202   2.666   8.437  1.1029 -0.4360  0.4450
 3716SOL    HW222608   3.179   2.541   8.510  1.3788  3.5833  1.1128
 3717SOL     OW22609   0.417   2.138   3.963  0.2667 -0.0628 -0.1168
 3717SOL    HW122610   0.439   2.067   3.903 -1.0660 -1.9239  1.5754
 3717SOL    HW222611   0.451   2.211   3.912 -1.2320  1.8239  1.5795
 3718SOL     OW22612   1.495   1.184   2.096 -0.4731 -0.3373 -0.4650
 3718SOL    HW122613   1.565   1.196   2.031  0.8975 -2.1287  0.6856
 3718SOL    HW222614   1.485   1.089   2.098 -1.5917 -0.2237 -0.4052
 3719SOL     OW22615   1.118   2.121   3.999  0.0116  0.3421  0.0942
 3719SOL    HW122616   1.139   2.194   4.058  1.0604 -0.3035  0.5095
 3719SOL    HW222617   1.195   2.065   4.008 -2.1615 -2.7995 -0.8054
 3720SOL     OW22618   0.738   4.374   5.009 -0.4484 -0.1509 -1.3452
 3720SOL    HW122619   0.833   4.384   4.999 -0.2943 -0.2108  0.1173
 3720SOL    HW222620   0.737   4.318   5.086 -1.0467  2.1414  0.3012
 3721SOL     OW22621   4.599   2.902   6.924  0.1434  0.6198 -0.5665
 3721SOL    HW122622   4.513   2.938   6.902  0.0475 -0.3577 -1.8149
 3721SOL    HW222623   4.606   2.915   7.018  1.3165 -0.7871 -0.4618
 3722SOL     OW22624   0.713   4.569   9.556 -0.4624 -0.0735 -0.0264
 3722SOL    HW122625   0.674   4.488   9.591  2.0689 -0.4032  2.0590
 3722SOL    HW222626   0.681   4.630   9.622 -0.6401  0.0705 -0.2483
 3723SOL     OW22627   4.352   1.135   7.981 -0.4000 -0.7233 -0.0996
 3723SOL    HW122628   4.392   1.151   7.895  0.3377  0.9060  0.5614
 3723SOL    HW222629   4.358   1.221   8.023 -0.9270 -0.6374 -0.2067
 3724SOL     OW22630   2.935   4.406   8.434  0.1664  0.2334 -0.0144
 3724SOL    HW122631   2.961   4.373   8.520 -0.9955 -2.0070 -0.5288
 3724SOL    HW222632   2.939   4.501   8.447  1.4975  0.4300 -1.9037
 3725SOL     OW22633   0.592   1.406   7.595  0.6115 -0.1634 -0.1046
 3725SOL    HW122634   0.674   1.453   7.582  0.0930  1.1808  1.3896
 3725SOL    HW222635   0.527   1.465   7.558 -1.3777 -0.7678  2.3943
 3726SOL     OW22636   0.942   3.575   2.984  0.3014 -0.3493 -0.0680
 3726SOL    HW122637   0.871   3.637   3.000  0.5738  0.5065 -2.1570
 3726SOL    HW222638   0.911   3.516   3.053 -2.0477  0.5610 -0.3617
 3727SOL     OW22639   0.402   0.694   2.522 -0.3545 -0.5351 -0.6126
 3727SOL    HW122640   0.396   0.657   2.610  0.0906 -1.8481 -1.1299
 3727SOL    HW222641   0.319   0.740   2.526  0.9096  1.5357  1.5808
 3728SOL     OW22642   4.481   2.856   5.997 -0.1555 -0.6430 -0.3958
 3728SOL    HW122643   4.456   2.920   6.063 -0.7559 -1.1382 -0.1506
 3728SOL    HW222644   4.410   2.872   5.935 -0.3875 -1.0852 -0.2408
 3729SOL     OW22645   2.155   2.519   5.835 -0.3970  0.0008  1.1443
 3729SOL    HW122646   2.183   2.448   5.892 -0.2804  0.5278  1.7356
 3729SOL    HW222647   2.065   2.486   5.833 -0.2723 -0.2357 -0.5926
 3730SOL     OW22648   1.745   0.558   4.091 -0.1809  0.1397  0.2198
 3730SOL    HW122649   1.725   0.617   4.019  2.7101  0.9001  0.0419
 3730SOL    HW222650   1.811   0.610   4.136 -1.9947 -0.0303  3.0992
 3731SOL     OW22651   2.411   2.030   8.622  0.2369 -0.0131 -0.5221
 3731SOL    HW122652   2.378   1.948   8.659  0.3233  1.1816  2.1599
 3731SOL    HW222653   2.337   2.071   8.577  1.2307  2.5117  0.1429
 3732SOL     OW22654   0.564   3.336   4.440 -0.3164 -0.0894  0.0340
 3732SOL    HW122655   0.631   3.324   4.372 -1.0130 -0.7614 -0.5415
 3732SOL    HW222656   0.575   3.252   4.486  0.6841  0.4991  0.8559
 3733SOL     OW22657   2.430   3.019   0.756  0.2640 -0.1215  0.7685
 3733SOL    HW122658   2.476   2.949   0.710 -0.0211  0.7816 -0.8776
 3733SOL    HW222659   2.502   3.081   0.761  0.3709 -0.2693  1.0556
 3734SOL     OW22660   1.204   0.515  14.571  0.8097 -0.4446  0.1190
 3734SOL    HW122661   1.287   0.530  14.526  0.6860 -0.5999 -0.1618
 3734SOL    HW222662   1.163   0.601  14.579  0.8215 -0.3883 -0.4925
 3735SOL     OW22663   3.928   2.530   9.100  0.1977 -0.4600 -0.7284
 3735SOL    HW122664   3.970   2.454   9.060 -1.2729 -0.1617 -2.8673
 3735SOL    HW222665   3.998   2.595   9.097  0.8077 -1.0505  0.7237
 3736SOL     OW22666   4.143   4.046   7.578 -0.2490  0.6522  1.0758
 3736SOL    HW122667   4.224   4.015   7.618 -0.1381  1.4491  1.4601
 3736SOL    HW222668   4.172   4.075   7.491 -0.1527  0.9661  1.2145
 3737SOL     OW22669   0.424   4.544   2.028 -0.0794 -0.0699 -0.0639
 3737SOL    HW122670   0.362   4.509   1.964  0.6922  0.2205 -0.9803
 3737SOL    HW222671   0.367   4.556   2.104  0.9845 -0.0799  0.7390
 3738SOL     OW22672   3.507   3.149   7.860 -0.2870  0.0005 -0.1320
 3738SOL    HW122673   3.529   3.203   7.936  0.0153  1.2712 -1.1216
 3738SOL    HW222674   3.570   3.190   7.801  0.0874  0.7217  0.7597
 3739SOL     OW22675   2.799   1.979   9.339  0.0368  0.5931 -0.1232
 3739SOL    HW122676   2.744   1.920   9.288 -0.5612  0.7562  0.3317
 3739SOL    HW222677   2.784   2.062   9.293 -2.4553  0.9174  1.2642
 3740SOL     OW22678   3.695   3.050   3.683 -0.0940  0.4426  0.0734
 3740SOL    HW122679   3.777   3.072   3.727 -1.0105  1.3046  1.3320
 3740SOL    HW222680   3.703   2.955   3.675  1.2312  0.4578  1.2864
 3741SOL     OW22681   0.529   1.197   2.554  0.0823  0.0526 -0.2541
 3741SOL    HW122682   0.537   1.102   2.549 -1.0430 -0.1193  1.1383
 3741SOL    HW222683   0.442   1.202   2.593  0.3930  1.3770  0.2816
 3742SOL     OW22684   0.010   3.055   8.494 -0.2002  0.4031 -0.2942
 3742SOL    HW122685   4.687   3.117   8.441 -1.5750 -2.0326 -1.8364
 3742SOL    HW222686   0.061   3.005   8.430 -1.8199 -1.0558 -0.4689
 3743SOL     OW22687   1.749   3.701   3.401  0.0184  0.6506 -0.3390
 3743SOL    HW122688   1.699   3.622   3.423  0.1649  1.4878  3.0741
 3743SOL    HW222689   1.707   3.763   3.460 -1.7379 -0.0910 -0.8074
 3744SOL     OW22690   0.056   0.826   6.229 -0.4085 -0.0475 -0.2218
 3744SOL    HW122691   0.014   0.769   6.165  2.1007 -1.2547 -0.7870
 3744SOL    HW222692   0.015   0.792   6.309  1.5266 -0.9392  0.3991
 3745SOL     OW22693   1.974   4.538   6.950 -0.2316 -0.0092 -0.1261
 3745SOL    HW122694   1.952   4.599   6.879 -1.3841  0.5837  0.7351
 3745SOL    HW222695   2.069   4.540   6.945 -0.2130  1.6831  0.9079
 3746SOL     OW22696   0.301   4.416  10.134  0.1648  0.2229 -0.0905
 3746SOL    HW122697   0.377   4.379  10.089  0.7392  1.7314 -0.3896
 3746SOL    HW222698   0.235   4.424  10.066 -0.6502  0.8893  0.7896
 3747SOL     OW22699   1.237   4.054   7.007  0.5674  0.4347  0.4697
 3747SOL    HW122700   1.163   4.036   6.949 -0.5217  2.1025  1.3498
 3747SOL    HW222701   1.244   3.972   7.056 -1.2195  0.1170  0.1983
 3748SOL     OW22702   1.312   4.518  13.381  0.3571 -0.3981  0.6679
 3748SOL    HW122703   1.284   4.606  13.406 -0.6077 -1.0840  2.0114
 3748SOL    HW222704   1.239   4.466  13.415 -2.3628  0.8483 -3.2259
 3749SOL     OW22705   1.746   2.592   6.001  0.0728  0.0025  0.4081
 3749SOL    HW122706   1.769   2.506   6.034 -0.1038  0.0864  0.7497
 3749SOL    HW222707   1.836   2.624   6.002 -0.6534  2.0790  1.1446
 3750SOL     OW22708   1.952   0.338   8.979 -0.4467 -0.4363  0.0788
 3750SOL    HW122709   1.899   0.333   8.899 -1.3932  0.1895  0.6712
 3750SOL    HW222710   1.887   0.319   9.046 -0.8252  2.2921  0.5099
 3751SOL     OW22711   3.470   2.589   3.140 -0.1645 -0.1951  0.3975
 3751SOL    HW122712   3.503   2.500   3.135 -0.2369 -0.1804 -0.3210
 3751SOL    HW222713   3.501   2.628   3.059  0.3055 -1.1572  0.1127
 3752SOL     OW22714   3.427   3.397   5.351 -0.4962  0.3782  0.0360
 3752SOL    HW122715   3.418   3.489   5.373  0.0043  0.1007  1.3939
 3752SOL    HW222716   3.341   3.366   5.380  1.1455 -2.2319  2.0680
 3753SOL     OW22717   0.059   2.100   2.664 -0.4729  0.3800  0.5457
 3753SOL    HW122718   0.021   2.013   2.648  1.0812 -0.2345  0.2437
 3753SOL    HW222719   0.117   2.076   2.736  0.3182  1.1860  0.1707
 3754SOL     OW22720   2.788   0.417   1.599  0.1958 -0.0913 -0.0527
 3754SOL    HW122721   2.719   0.483   1.594 -0.7917 -0.9363  2.2300
 3754SOL    HW222722   2.866   0.471   1.613  0.9878 -1.5678  1.2011
 3755SOL     OW22723   4.183   3.151   6.374  0.1419  0.7750  0.0806
 3755SOL    HW122724   4.258   3.092   6.368  0.7948  1.5771  0.3536
 3755SOL    HW222725   4.225   3.224   6.420 -0.8917  1.2992  0.2075
 3756SOL     OW22726   1.428   2.116   5.081  0.6592  0.3641 -0.1810
 3756SOL    HW122727   1.500   2.166   5.041 -1.3866  2.3207 -1.4099
 3756SOL    HW222728   1.397   2.178   5.147 -1.7331 -0.8279 -0.1770
 3757SOL     OW22729   3.569   3.476   8.083 -0.5653  0.8882 -0.4194
 3757SOL    HW122730   3.624   3.510   8.012 -0.3544 -0.0406 -0.6921
 3757SOL    HW222731   3.595   3.384   8.080 -1.5416  0.5985 -0.1008
 3758SOL     OW22732   1.745   4.356   5.750 -0.1393 -0.2698  0.5626
 3758SOL    HW122733   1.666   4.397   5.715  0.4272  0.0432 -0.3580
 3758SOL    HW222734   1.733   4.268   5.715 -0.1899 -1.6586  4.0290
 3759SOL     OW22735   0.077   2.405  12.932 -0.5516  0.6538  0.4897
 3759SOL    HW122736   0.049   2.496  12.943 -0.0809  0.5793  2.2350
 3759SOL    HW222737   0.009   2.356  12.977 -0.7271  0.4340 -0.0077
 3760SOL     OW22738   4.257   1.144  16.619 -0.2035  0.1535  0.4790
 3760SOL    HW122739   4.161   1.147  16.625 -0.2124  0.3090  0.2697
 3760SOL    HW222740   4.269   1.161  16.525 -1.0331 -1.4596  0.0814
 3761SOL     OW22741   2.112   2.600   4.753  0.2745  0.2561 -0.4928
 3761SOL    HW122742   2.163   2.681   4.756  0.9776 -0.2562  1.6426
 3761SOL    HW222743   2.170   2.543   4.804 -0.7549  1.2742  1.7924
 3762SOL     OW22744   2.256   2.811   4.490 -0.5203 -0.1855  0.5217
 3762SOL    HW122745   2.309   2.757   4.549 -1.1844  2.9923  3.9784
 3762SOL    HW222746   2.313   2.807   4.413 -1.6656 -0.3537 -0.3134
 3763SOL     OW22747   4.079   0.860  16.805  0.0122  0.1040 -0.2604
 3763SOL    HW122748   4.041   0.788  16.855 -0.7490 -0.2268 -1.3125
 3763SOL    HW222749   4.171   0.834  16.792 -0.2593 -0.5705 -0.8266
 3764SOL     OW22750   1.901   2.459  15.275  0.0030 -0.4956 -0.3863
 3764SOL    HW122751   1.841   2.385  15.270  0.1623 -0.5862 -0.9146
 3764SOL    HW222752   1.853   2.540  15.293  0.4306 -1.4245  5.1432
 3765SOL     OW22753   0.398   4.340   5.014 -0.3119 -1.0512  0.7541
 3765SOL    HW122754   0.489   4.369   5.017 -0.9233  0.9099  0.3194
 3765SOL    HW222755   0.394   4.283   4.937 -1.5185  0.1496 -0.0778
 3766SOL     OW22756   1.025   3.173   2.103 -0.4081  0.5124  0.0843
 3766SOL    HW122757   0.984   3.088   2.119 -0.9752  0.3675 -2.1143
 3766SOL    HW222758   1.075   3.147   2.026  2.6589  3.8469  0.9567
 3767SOL     OW22759   1.654   2.581   1.948  0.4130  0.2292 -0.2100
 3767SOL    HW122760   1.563   2.593   1.921  1.0693  0.3668 -2.3306
 3767SOL    HW222761   1.688   2.649   1.890 -0.0143  1.1670  0.6358
 3768SOL     OW22762   4.607   2.574   8.155 -0.0728  0.7431 -0.3980
 3768SOL    HW122763   4.683   2.556   8.100  0.5454  0.4835  0.5307
 3768SOL    HW222764   4.629   2.526   8.234 -2.0913  1.1563  0.4129
 3769SOL     OW22765   1.064   1.485   4.403 -0.7045  0.0606 -0.1236
 3769SOL    HW122766   1.126   1.420   4.369  1.2449  2.2224 -0.6893
 3769SOL    HW222767   1.027   1.441   4.479  0.5819 -1.9323 -0.6664
 3770SOL     OW22768   3.580   1.937  17.272 -0.2215  0.0591  0.4726
 3770SOL    HW122769   3.530   1.994  17.330  2.1378  0.4469  2.0997
 3770SOL    HW222770   3.647   2.001  17.248 -1.4381  0.3221 -2.2220
 3771SOL     OW22771   0.958   2.023   7.693 -0.0497 -0.2841 -0.4346
 3771SOL    HW122772   0.866   2.016   7.668 -0.3159 -1.1758  0.7492
 3771SOL    HW222773   1.001   1.944   7.660 -1.4152  0.1825 -3.2878
 3772SOL     OW22774   1.902   4.082   6.352 -0.7511  0.7792 -0.3288
 3772SOL    HW122775   1.825   4.125   6.315 -1.0826  0.8358  0.4149
 3772SOL    HW222776   1.948   4.053   6.273  2.2719 -1.7839  2.3663
 3773SOL     OW22777   2.742   4.148   5.280  0.1761  0.7740 -0.1626
 3773SOL    HW122778   2.656   4.138   5.238 -0.9376  1.1021  2.0442
 3773SOL    HW222779   2.766   4.238   5.255 -0.4103  1.5356  2.0265
 3774SOL     OW22780   1.435   3.437   6.336  0.0195  0.0388  0.2432
 3774SOL    HW122781   1.426   3.530   6.312 -0.3959 -0.3637 -1.1609
 3774SOL    HW222782   1.404   3.393   6.257  0.5925  2.0616 -1.1015
 3775SOL     OW22783   3.814   0.519  17.214 -0.0642  0.1866  0.3419
 3775SOL    HW122784   3.896   0.527  17.167  0.2579  3.3915  1.4265
 3775SOL    HW222785   3.835   0.568  17.294  2.9263 -0.1868 -0.2179
 3776SOL     OW22786   2.104   4.139   7.109 -0.6185  0.0384  0.1411
 3776SOL    HW122787   2.181   4.137   7.166 -1.5332 -0.0717  1.3770
 3776SOL    HW222788   2.036   4.169   7.170 -0.8627  1.6778 -0.9643
 3777SOL     OW22789   1.259   4.272  14.496  0.1464  0.0091 -0.2654
 3777SOL    HW122790   1.295   4.345  14.445  2.2255 -0.2849  0.7648
 3777SOL    HW222791   1.288   4.295  14.584 -0.5629  0.4853 -0.1580
 3778SOL     OW22792   2.677   0.421   8.780  0.0700  0.1445 -0.0258
 3778SOL    HW122793   2.608   0.373   8.826  1.0313 -0.6529  0.5942
 3778SOL    HW222794   2.667   0.511   8.810  1.9869  0.6418 -0.8735
 3779SOL     OW22795   1.738   4.286  11.914 -0.7061  0.1942 -0.2845
 3779SOL    HW122796   1.821   4.243  11.898 -1.8942 -1.5049 -1.8154
 3779SOL    HW222797   1.760   4.379  11.910  1.4229 -0.2304  1.3534
 3780SOL     OW22798   3.477   0.458   2.717 -0.1179  0.2297  0.1161
 3780SOL    HW122799   3.534   0.513   2.664 -0.9258 -0.5343 -1.5310
 3780SOL    HW222800   3.432   0.398   2.658 -2.1666  1.5563  0.2933
 3781SOL     OW22801   2.619   0.458   3.276  0.3358 -0.6239  0.9137
 3781SOL    HW122802   2.570   0.444   3.195  2.2357 -0.2879 -0.2866
 3781SOL    HW222803   2.601   0.379   3.327 -0.8897  0.2653  1.8743
 3782SOL     OW22804   3.037   3.878   2.935 -0.0600 -0.6332  0.0566
 3782SOL    HW122805   3.114   3.825   2.915  0.6549 -0.2362  1.7795
 3782SOL    HW222806   3.021   3.905   2.844  0.6555 -1.6150 -0.3696
 3783SOL     OW22807   1.198   1.412   8.843  0.0790 -0.3972  0.4165
 3783SOL    HW122808   1.189   1.361   8.763 -1.0860  0.3149  0.0931
 3783SOL    HW222809   1.105   1.427   8.859 -0.1788 -1.9148  0.3420
 3784SOL     OW22810   2.018   4.206   4.502  0.0805  0.8794  0.6105
 3784SOL    HW122811   1.979   4.165   4.425 -1.6969  2.3434  0.7379
 3784SOL    HW222812   1.988   4.149   4.573 -0.3367  0.8087  0.3784
 3785SOL     OW22813   3.246   1.432   5.012 -0.0693 -0.1524  0.0102
 3785SOL    HW122814   3.181   1.363   5.025  0.6449 -0.7390  0.5122
 3785SOL    HW222815   3.330   1.386   5.019  0.6532  0.8505 -2.1872
 3786SOL     OW22816   3.388   2.751   2.086 -0.4151 -0.0789  0.1182
 3786SOL    HW122817   3.316   2.802   2.123  1.5460  2.2148  0.7400
 3786SOL    HW222818   3.347   2.669   2.058  0.0457 -0.0008 -0.7724
 3787SOL     OW22819   3.745   2.320   8.867 -0.0151  0.5035  0.3914
 3787SOL    HW122820   3.792   2.286   8.943 -1.1901 -2.6562 -0.3225
 3787SOL    HW222821   3.702   2.394   8.909  0.5897  1.6226 -0.9508
 3788SOL     OW22822   0.654   4.078  12.385  0.1904 -0.4430  0.2654
 3788SOL    HW122823   0.717   4.108  12.320 -0.6634 -1.5506 -1.0606
 3788SOL    HW222824   0.623   4.167  12.401 -0.6746 -0.7304  0.1675
 3789SOL     OW22825   2.751   1.584  16.026 -0.2211  0.2213  0.3882
 3789SOL    HW122826   2.673   1.546  16.067  0.8368 -3.7217 -1.2136
 3789SOL    HW222827   2.812   1.573  16.099 -0.8352 -1.3385  0.6786
 3790SOL     OW22828   1.773   2.680   2.420 -0.8831  0.3391 -0.0433
 3790SOL    HW122829   1.865   2.663   2.442 -1.8085 -1.9844  2.0144
 3790SOL    HW222830   1.774   2.772   2.393 -1.6578  0.5499  0.6606
 3791SOL     OW22831   3.767   1.993   8.373  0.3208  0.0818  0.2011
 3791SOL    HW122832   3.774   1.918   8.432  0.5143  0.3731  0.5548
 3791SOL    HW222833   3.674   2.008   8.358  0.2177 -0.6774  0.1032
 3792SOL     OW22834   4.001   1.097   4.021  0.0857 -0.7119  0.2635
 3792SOL    HW122835   3.946   1.041   3.967  0.5070 -1.3491  0.5021
 3792SOL    HW222836   3.944   1.139   4.086 -0.2960 -1.9735  0.7407
 3793SOL     OW22837   3.960   1.278   2.091 -0.5967 -0.0764 -0.0508
 3793SOL    HW122838   3.889   1.273   2.026 -1.1505  1.2480  0.4364
 3793SOL    HW222839   3.935   1.358   2.138 -0.1877  0.9244 -1.5098
 3794SOL     OW22840   0.499   4.019   6.058  0.1209  0.4571  0.0353
 3794SOL    HW122841   0.438   4.080   6.098 -1.5645 -1.2892  0.1119
 3794SOL    HW222842   0.561   4.085   6.026  0.0221  1.6225  2.2479
 3795SOL     OW22843   4.161   4.345   9.565  0.2657 -0.4682 -0.4671
 3795SOL    HW122844   4.205   4.420   9.605  0.6539  0.2637 -2.2525
 3795SOL    HW222845   4.070   4.371   9.578  0.1673 -1.7907  1.5110
 3796SOL     OW22846   0.884   4.038  17.074 -0.3817  0.1971 -0.2012
 3796SOL    HW122847   0.883   4.001  17.163  2.7661  1.0606  0.1975
 3796SOL    HW222848   0.824   3.979  17.030  0.7731 -1.1254 -0.0050
 3797SOL     OW22849   1.682   4.633   7.288 -0.1337  0.4587 -0.6261
 3797SOL    HW122850   1.742   4.560   7.302 -2.5104 -0.7878  3.0761
 3797SOL    HW222851   1.629   4.632   7.367  1.2016  1.4663  0.2784
 3798SOL     OW22852   4.463   1.925  11.334 -0.0014  0.0461 -1.0666
 3798SOL    HW122853   4.503   1.963  11.256  1.1502  1.3305  0.1531
 3798SOL    HW222854   4.378   1.969  11.338 -1.3302 -2.6683  1.1637
 3799SOL     OW22855   1.564   0.904   7.892 -0.0127 -0.0055 -0.1447
 3799SOL    HW122856   1.580   0.846   7.817 -0.9124  2.1607 -1.9983
 3799SOL    HW222857   1.509   0.855   7.952 -1.7650  3.0229  0.7320
 3800SOL     OW22858   2.565   4.438  15.772  0.3098 -0.4453  0.5556
 3800SOL    HW122859   2.481   4.424  15.815  0.3345 -0.4939  0.5874
 3800SOL    HW222860   2.543   4.503  15.705  2.3298 -0.2785  0.0498
 3801SOL     OW22861   4.192   3.200   3.834  0.4185 -0.7208  0.4163
 3801SOL    HW122862   4.260   3.190   3.901  1.1501 -0.8913 -0.3577
 3801SOL    HW222863   4.246   3.242   3.767  0.7214 -1.4363  0.2164
 3802SOL     OW22864   0.932   4.631   7.595  0.0746  0.1607  0.1756
 3802SOL    HW122865   0.932   4.547   7.640  1.9302  0.0689 -0.0125
 3802SOL    HW222866   0.856   4.673   7.635 -0.8787 -2.6023  1.2565
 3803SOL     OW22867   4.038   2.924   7.110  0.0170  0.1284  0.7594
 3803SOL    HW122868   3.968   2.860   7.116  0.3011 -0.4077 -1.6113
 3803SOL    HW222869   3.993   3.006   7.131 -1.0768 -0.3973  0.4330
 3804SOL     OW22870   4.063   1.520   3.354  0.6407  0.6045 -0.5907
 3804SOL    HW122871   4.125   1.521   3.427 -0.3853 -1.3741  0.3056
 3804SOL    HW222872   3.993   1.572   3.393  0.6033  1.6767 -2.1103
 3805SOL     OW22873   4.677   3.383  15.796  0.4536 -0.2367  0.3608
 3805SOL    HW122874   0.032   3.429  15.782 -1.4362  2.8909 -0.4461
 3805SOL    HW222875   4.699   3.294  15.823  1.3049 -0.4072 -0.9105
 3806SOL     OW22876   1.690   1.815   5.596  0.0351 -0.2639 -0.5936
 3806SOL    HW122877   1.741   1.750   5.548  0.9960 -1.6914  2.4002
 3806SOL    HW222878   1.729   1.895   5.561  0.3675  0.4863  1.5413
 3807SOL     OW22879   3.469   0.415   6.508  0.2622  0.5888 -0.2855
 3807SOL    HW122880   3.438   0.463   6.432  1.9526  0.6831 -0.9189
 3807SOL    HW222881   3.519   0.344   6.467 -1.4045 -1.1390  0.6898
 3808SOL     OW22882   3.201   3.177  17.171  0.7560 -0.3624  0.1058
 3808SOL    HW122883   3.225   3.261  17.131  0.8689  0.2328  1.4441
 3808SOL    HW222884   3.225   3.194  17.262 -2.0378  0.3906  0.6999
 3809SOL     OW22885   3.478   2.996  17.431  0.3293 -0.3686 -0.1612
 3809SOL    HW122886   3.562   3.035  17.455 -0.3902  0.8424  0.3790
 3809SOL    HW222887   3.441   2.995  17.520 -1.3683  0.2871 -0.8621
 3810SOL     OW22888   2.790   3.028   7.891 -0.1866  0.3132 -0.6155
 3810SOL    HW122889   2.862   3.011   7.830  2.8345  2.3520  2.3929
 3810SOL    HW222890   2.782   3.122   7.876  0.1548  0.2541 -1.1528
 3811SOL     OW22891   4.315   3.639  17.170 -0.0084 -0.1590  0.9811
 3811SOL    HW122892   4.340   3.731  17.172 -0.9938  0.0960  1.8700
 3811SOL    HW222893   4.378   3.590  17.223 -0.5589 -0.1524  1.6365
 3812SOL     OW22894   1.061   3.570   4.087  0.3148  0.5632  0.2736
 3812SOL    HW122895   1.083   3.543   4.176 -1.0366  0.0196  0.4362
 3812SOL    HW222896   1.115   3.510   4.036 -0.7069 -1.4764  1.5664
 3813SOL     OW22897   0.091   2.280  15.104  0.5041  0.3077  0.0278
 3813SOL    HW122898   0.149   2.352  15.125  1.0969 -0.3458  0.6135
 3813SOL    HW222899   0.079   2.299  15.011  0.4941  2.7220  0.5094
 3814SOL     OW22900   2.575   0.762   2.091 -0.1773  0.3141  0.8237
 3814SOL    HW122901   2.662   0.744   2.055  0.4505  0.2400  2.3587
 3814SOL    HW222902   2.538   0.799   2.011  0.6360 -3.9729 -1.5200
 3815SOL     OW22903   0.680   1.061   9.227 -0.3734 -0.5961  0.0037
 3815SOL    HW122904   0.707   1.021   9.309  1.4077  2.0372  0.6990
 3815SOL    HW222905   0.665   1.151   9.255  1.6469  0.1157 -1.2152
 3816SOL     OW22906   2.553   2.166   0.642 -0.1028  0.4622 -0.0892
 3816SOL    HW122907   2.585   2.091   0.692 -1.5587 -1.4237 -2.0160
 3816SOL    HW222908   2.601   2.148   0.561  0.5688 -0.6448  0.5433
 3817SOL     OW22909   2.006   2.175   3.636 -0.0471 -0.0620  0.0329
 3817SOL    HW122910   1.997   2.173   3.541  0.7401  0.1567 -0.0464
 3817SOL    HW222911   2.039   2.087   3.654 -1.4403 -0.3406  1.1394
 3818SOL     OW22912   1.291   0.098   2.591 -0.4382  0.3982 -0.1535
 3818SOL    HW122913   1.245   0.129   2.513  0.0407  0.7149 -0.3164
 3818SOL    HW222914   1.366   0.158   2.596  0.6881 -1.1506  1.3250
 3819SOL     OW22915   3.046   1.742   4.340 -0.1700  0.7409 -0.0940
 3819SOL    HW122916   3.106   1.692   4.284 -0.6313 -0.9330  0.9284
 3819SOL    HW222917   3.010   1.678   4.401  0.6377  1.1194  0.7682
 3820SOL     OW22918   2.014   4.546  13.080 -0.4962  0.0236  0.0147
 3820SOL    HW122919   2.058   4.611  13.135 -0.8168  0.6887 -0.5152
 3820SOL    HW222920   1.947   4.605  13.045  1.8038  2.6015 -0.0758
 3821SOL     OW22921   0.458   2.271   3.742  0.0981  0.2061 -0.1612
 3821SOL    HW122922   0.442   2.206   3.673  0.5586 -1.1153  0.9584
 3821SOL    HW222923   0.374   2.317   3.749 -0.8232 -1.3410 -0.8956
 3822SOL     OW22924   0.174   0.178   7.440 -0.2696 -0.2788 -0.1683
 3822SOL    HW122925   0.257   0.135   7.421  0.3687  1.9255 -2.3194
 3822SOL    HW222926   0.185   0.269   7.414  1.2458 -0.6331 -0.7644
 3823SOL     OW22927   3.137   0.287   2.321 -0.0230  0.0716  0.3983
 3823SOL    HW122928   3.143   0.315   2.413  1.5059  2.9478 -0.5809
 3823SOL    HW222929   3.230   0.290   2.301  0.1814  2.2281  1.6293
 3824SOL     OW22930   4.362   0.146  15.870  0.4428  0.8655  0.6068
 3824SOL    HW122931   4.363   0.134  15.775  2.0631  0.3006  0.6977
 3824SOL    HW222932   4.454   0.136  15.893  0.6262 -1.5939 -1.0979
 3825SOL     OW22933   1.069   4.451   9.619  0.1742  0.2244 -0.0667
 3825SOL    HW122934   1.124   4.381   9.584  1.7287  1.0277  0.8012
 3825SOL    HW222935   1.012   4.468   9.543 -2.4566  0.1964  1.9026
 3826SOL     OW22936   3.847   3.207   6.892  0.0071  0.4719  0.3500
 3826SOL    HW122937   3.884   3.247   6.971 -1.2610  1.3084  0.5271
 3826SOL    HW222938   3.812   3.120   6.912 -1.3840  1.1273  0.8007
 3827SOL     OW22939   4.072   2.071  16.028  0.2362  0.1997 -0.3694
 3827SOL    HW122940   3.993   2.086  15.976 -0.4725 -2.4594 -0.0840
 3827SOL    HW222941   4.138   2.127  15.987  1.5221  0.0985  1.5786
 3828SOL     OW22942   4.497   4.089  12.018 -0.2457 -0.4415  0.1739
 3828SOL    HW122943   4.542   4.051  12.093  2.4879 -0.8045 -1.6634
 3828SOL    HW222944   4.519   4.019  11.956 -0.0222  1.7979 -2.2592
 3829SOL     OW22945   0.388   3.625   5.153  0.1268  0.0531  0.6869
 3829SOL    HW122946   0.293   3.627   5.135 -0.0142 -0.3472  1.4097
 3829SOL    HW222947   0.381   3.548   5.209 -1.7777 -0.2658  0.0213
 3830SOL     OW22948   3.053   1.315  13.879  0.4553 -0.4478 -0.2181
 3830SOL    HW122949   3.030   1.364  13.958 -0.3789 -3.0370  1.1698
 3830SOL    HW222950   3.058   1.383  13.813  0.4545  1.8202  2.1236
 3831SOL     OW22951   2.926   3.081  17.386 -0.3082  0.4134  0.8484
 3831SOL    HW122952   2.902   3.170  17.359 -2.6331 -0.7557 -1.0216
 3831SOL    HW222953   2.949   3.101  17.476 -0.9544 -2.7914  1.7243
 3832SOL     OW22954   1.147   0.050  17.649 -0.2526  0.4980  0.4760
 3832SOL    HW122955   1.221   0.052  17.710  1.4382  2.5499 -1.6430
 3832SOL    HW222956   1.194   0.005  17.578  1.2025  1.4366  0.8366
 3833SOL     OW22957   0.941   3.757  16.877 -0.3927 -0.3145  0.4314
 3833SOL    HW122958   0.972   3.847  16.861 -0.3093 -0.3300  0.5065
 3833SOL    HW222959   0.855   3.776  16.915 -0.0965  0.3563  0.7603
 3834SOL     OW22960   1.156   3.438   7.526 -0.3681 -0.1270 -0.1510
 3834SOL    HW122961   1.117   3.510   7.576 -0.0336  1.6032 -2.4273
 3834SOL    HW222962   1.248   3.445   7.550 -0.2218 -2.5422 -0.0499
 3835SOL     OW22963   3.328   3.293  17.694 -0.3188  0.0134 -0.1180
 3835SOL    HW122964   3.364   3.206  17.708  0.3122  0.3619  0.4652
 3835SOL    HW222965   3.271   3.313   0.059  1.4415 -0.7944  1.4067
 3836SOL     OW22966   4.617   0.916   8.851 -0.6928 -0.4757  0.5838
 3836SOL    HW122967   4.602   0.866   8.771 -0.0784  1.4064 -0.7045
 3836SOL    HW222968   4.662   0.846   8.899  2.0454  0.1585 -1.1050
 3837SOL     OW22969   1.893   2.103  12.277 -0.4226 -0.0240  0.2728
 3837SOL    HW122970   1.886   2.129  12.369 -0.1936  0.3982  0.1666
 3837SOL    HW222971   1.977   2.058  12.279  0.2959  1.3211  0.0223
 3838SOL     OW22972   0.625   0.155  12.768  0.5959  0.5948  0.0640
 3838SOL    HW122973   0.586   0.089  12.826 -0.0330  0.9046 -0.0098
 3838SOL    HW222974   0.545   0.202  12.747  0.9651  1.2240  0.0645
 3839SOL     OW22975   0.088   2.051   5.202 -0.5794 -0.2167 -0.2072
 3839SOL    HW122976   0.163   2.105   5.227  0.3328 -0.8335 -1.6543
 3839SOL    HW222977   0.081   2.009   5.288 -2.1165  0.2764 -0.0849
 3840SOL     OW22978   3.301   2.190   2.763  0.0397  0.0373  0.1915
 3840SOL    HW122979   3.320   2.120   2.825  0.1822 -0.4106 -0.3613
 3840SOL    HW222980   3.386   2.198   2.720 -0.1137  0.4915 -0.0371
 3841SOL     OW22981   4.439   1.070   7.183 -0.5172  0.3500 -0.2766
 3841SOL    HW122982   4.480   0.995   7.226 -3.0336 -0.9374 -0.1083
 3841SOL    HW222983   4.432   1.140   7.249  1.9676 -0.7290  1.1461
 3842SOL     OW22984   2.740   3.075   2.520 -0.4861  0.3713  0.1827
 3842SOL    HW122985   2.725   2.986   2.551 -0.2989 -0.6406 -2.6457
 3842SOL    HW222986   2.781   3.105   2.602 -1.7439  2.3020  0.0903
 3843SOL     OW22987   0.072   3.794   6.016 -0.1780 -0.3653 -0.0021
 3843SOL    HW122988   0.109   3.781   5.928  3.2050 -3.3432  1.8848
 3843SOL    HW222989   0.126   3.745   6.078 -1.5232 -0.5716  0.9846
 3844SOL     OW22990   1.812   3.505  16.903  0.2420 -1.1648  0.1538
 3844SOL    HW122991   1.815   3.429  16.845 -0.3597 -0.2076 -1.1509
 3844SOL    HW222992   1.797   3.462  16.987  2.1014 -0.2269  0.9493
 3845SOL     OW22993   0.526   0.639   1.215 -0.1289  0.6386  0.0445
 3845SOL    HW122994   0.565   0.717   1.256  0.8604 -0.4374  1.1201
 3845SOL    HW222995   0.474   0.676   1.143  0.6129  3.6762  1.0599
 3846SOL     OW22996   2.676   2.176   2.049 -0.4623  0.0476 -0.3443
 3846SOL    HW122997   2.716   2.094   2.077  0.4750  0.6128 -0.0391
 3846SOL    HW222998   2.604   2.156   1.988  0.5229 -3.0322 -0.5002
 3847SOL     OW22999   1.357   0.158   6.112 -0.3183  0.6708 -0.4383
 3847SOL    HW123000   1.271   0.166   6.072 -0.5087  0.4210 -0.0725
 3847SOL    HW223001   1.370   0.252   6.123  0.1683  0.7206 -1.3677
 3848SOL     OW23002   3.436   1.462  10.789 -0.6934 -0.8055 -0.0260
 3848SOL    HW123003   3.385   1.485  10.711 -0.2115  0.6887  0.0885
 3848SOL    HW223004   3.521   1.444  10.750 -0.2443 -1.3050  1.1886
 3849SOL     OW23005   2.898   1.595   9.239  0.2013 -0.8280 -0.0367
 3849SOL    HW123006   2.936   1.642   9.313  0.8081 -1.8349  0.2878
 3849SOL    HW223007   2.973   1.554   9.197 -0.1413 -1.0129 -0.4668
 3850SOL     OW23008   0.145   2.699   9.478 -0.2090  0.3468  0.4694
 3850SOL    HW123009   0.220   2.757   9.487 -1.6105  2.0101  1.3287
 3850SOL    HW223010   0.150   2.652   9.562 -1.6863 -0.9308 -0.1650
 3851SOL     OW23011   2.451   1.923   1.300 -0.6454 -0.4999 -0.5517
 3851SOL    HW123012   2.464   1.839   1.255 -0.0554  0.6779 -2.5804
 3851SOL    HW223013   2.449   1.986   1.228 -1.7659  0.8448  0.6485
 3852SOL     OW23014   3.656   1.888  10.544 -0.0887  0.2140  0.0423
 3852SOL    HW123015   3.585   1.915  10.486  2.5950 -0.2925 -3.4593
 3852SOL    HW223016   3.706   1.839  10.479 -0.4475 -1.0556  0.7138
 3853SOL     OW23017   3.871   1.320   8.571  0.9573  0.2250 -0.7343
 3853SOL    HW123018   3.795   1.284   8.616  1.2892  0.4108 -0.0218
 3853SOL    HW223019   3.938   1.253   8.583 -1.2574 -1.3712  2.5985
 3854SOL     OW23020   1.926   2.392   5.887 -0.0247  0.1798  0.2034
 3854SOL    HW123021   1.869   2.449   5.836  0.9363  0.9539 -0.0044
 3854SOL    HW223022   1.865   2.355   5.952 -0.8919 -0.7633 -1.1445
 3855SOL     OW23023   3.450   2.173   0.482  0.1862 -0.1103 -0.6933
 3855SOL    HW123024   3.474   2.103   0.420 -1.7031 -0.0796 -1.4382
 3855SOL    HW223025   3.505   2.248   0.460 -1.7714  1.5622  0.2012
 3856SOL     OW23026   0.243   2.590   5.176 -0.2371 -0.1726 -0.0549
 3856SOL    HW123027   0.211   2.541   5.100 -1.5988 -0.3419  0.6251
 3856SOL    HW223028   0.323   2.539   5.191  1.4239  1.1742 -4.3142
 3857SOL     OW23029   1.145   3.162  17.107  0.0170  0.2881 -0.2329
 3857SOL    HW123030   1.082   3.173  17.036  0.9784  0.3810 -1.0712
 3857SOL    HW223031   1.211   3.101  17.074  1.2868  0.6777  1.6209
 3858SOL     OW23032   1.857   3.753   3.092 -0.3631  0.9202  0.5513
 3858SOL    HW123033   1.904   3.829   3.057 -1.2256  0.8525 -0.7693
 3858SOL    HW223034   1.940   3.714   3.121 -0.3927  0.1918 -0.3495
 3859SOL     OW23035   2.354   1.318  14.172  0.9196  0.1084 -0.4973
 3859SOL    HW123036   2.340   1.408  14.142 -0.8656 -0.4506 -1.3567
 3859SOL    HW223037   2.373   1.277  14.087  0.9168 -0.0403 -0.4249
 3860SOL     OW23038   4.266   1.237   5.514 -0.0884 -0.1197  0.3678
 3860SOL    HW123039   4.343   1.202   5.558  0.1933  0.0478  0.0013
 3860SOL    HW223040   4.276   1.186   5.434  1.6335  1.1540 -0.2410
 3861SOL     OW23041   2.226   3.743  13.999 -0.4731  0.0050 -0.5123
 3861SOL    HW123042   2.153   3.685  13.979  0.5281 -1.2698 -0.4271
 3861SOL    HW223043   2.186   3.825  14.029  0.7684  0.7206 -0.8151
 3862SOL     OW23044   2.896   0.743  10.694 -0.1403  0.0314  0.3334
 3862SOL    HW123045   2.957   0.743  10.769  0.9974  0.5041 -0.6010
 3862SOL    HW223046   2.909   0.831  10.660  0.1540 -0.1270  0.0359
 3863SOL     OW23047   0.070   1.798   7.454 -0.3619 -0.3857 -0.2300
 3863SOL    HW123048   0.113   1.841   7.381  0.7858  0.5120  0.9630
 3863SOL    HW223049   0.132   1.815   7.525 -2.4067 -1.5164  1.8323
 3864SOL     OW23050   2.299   0.289   2.307  0.3642  0.2219 -0.2738
 3864SOL    HW123051   2.317   0.238   2.386 -2.6962 -0.2453  0.1084
 3864SOL    HW223052   2.218   0.244   2.282  0.0474  1.0277 -0.6919
 3865SOL     OW23053   2.560   1.444   5.025 -0.7926  0.9264  0.2670
 3865SOL    HW123054   2.466   1.428   5.014 -0.5292  0.4066 -1.1137
 3865SOL    HW223055   2.580   1.492   4.945 -3.9986 -1.5947 -2.0240
 3866SOL     OW23056   4.001   2.480   7.417 -0.3869  0.0644 -0.5184
 3866SOL    HW123057   3.933   2.536   7.455  0.3952 -1.3707  2.9670
 3866SOL    HW223058   3.977   2.389   7.434 -3.1116  1.3171  2.3154
 3867SOL     OW23059   2.870   3.717   3.115 -0.1184  0.5398  0.2676
 3867SOL    HW123060   2.792   3.715   3.060  0.2245 -3.4040 -0.0842
 3867SOL    HW223061   2.920   3.777   3.060 -0.9494 -0.0125 -1.0881
 3868SOL     OW23062   2.908   0.625   5.228 -0.0929 -0.1745  0.1722
 3868SOL    HW123063   2.955   0.611   5.145 -0.7506  2.9762 -0.7339
 3868SOL    HW223064   2.970   0.594   5.294  0.6425 -0.1867 -0.5100
 3869SOL     OW23065   3.766   1.800   8.589  0.1714 -0.3138  0.1086
 3869SOL    HW123066   3.822   1.726   8.611  0.8922  0.1497 -0.1795
 3869SOL    HW223067   3.677   1.764   8.582 -0.9283  2.1571  1.7102
 3870SOL     OW23068   3.887   3.167   5.547 -0.3910  0.0627 -0.0973
 3870SOL    HW123069   3.844   3.169   5.462 -0.6331 -0.7590  0.0029
 3870SOL    HW223070   3.975   3.144   5.517 -0.3150 -0.1326  0.2669
 3871SOL     OW23071   3.251   0.350   5.718  0.3874  0.0748 -0.5253
 3871SOL    HW123072   3.211   0.290   5.780  0.5935  1.0850  0.5961
 3871SOL    HW223073   3.180   0.367   5.657  0.8752  3.0636 -0.2604
 3872SOL     OW23074   4.340   1.119   6.075 -0.4444  0.5358 -0.2502
 3872SOL    HW123075   4.262   1.065   6.085  2.1394 -3.2519 -0.5174
 3872SOL    HW223076   4.408   1.098   6.140 -2.0156 -0.2151  1.1558
 3873SOL     OW23077   3.247   3.307  17.408  0.1344 -0.4842  0.6550
 3873SOL    HW123078   3.159   3.336  17.429  0.5915  0.3897  1.3986
 3873SOL    HW223079   3.276   3.263  17.488  0.1492 -2.9284 -0.7036
 3874SOL     OW23080   1.407   3.603   4.227 -0.0706 -0.1641  0.2772
 3874SOL    HW123081   1.486   3.654   4.209 -1.6878  2.0565 -0.6420
 3874SOL    HW223082   1.393   3.565   4.141 -0.4856 -1.4493  0.9098
 3875SOL     OW23083   4.650   1.274   8.863  0.2895  0.7178  0.1120
 3875SOL    HW123084   4.566   1.240   8.833 -0.1561  1.7057  0.2353
 3875SOL    HW223085   4.623   1.326   8.939  0.3246 -0.1820  0.7398
 3876SOL     OW23086   1.060   0.558   5.623 -0.6706 -0.5002 -0.4617
 3876SOL    HW123087   1.144   0.527   5.588 -0.3616 -1.1401  0.8644
 3876SOL    HW223088   0.997   0.502   5.576 -0.0776  1.1400 -3.2221
 3877SOL     OW23089   2.329   3.975   5.849 -0.2826 -0.4434 -0.1023
 3877SOL    HW123090   2.355   3.994   5.939 -1.0594 -0.4853  0.1307
 3877SOL    HW223091   2.246   3.928   5.864 -0.3931 -0.3697 -0.4974
 3878SOL     OW23092   2.395   3.258   1.235  0.2392 -0.4178 -0.4182
 3878SOL    HW123093   2.468   3.305   1.195  1.1051 -0.6231  0.9403
 3878SOL    HW223094   2.338   3.218   1.169 -1.8516  1.4423  0.2095
 3879SOL     OW23095   0.957   3.618   9.107  0.3538  0.0090  0.2564
 3879SOL    HW123096   0.974   3.653   9.194 -1.2149 -0.9022  0.9111
 3879SOL    HW223097   1.046   3.631   9.072  1.0410 -1.3156  1.4908
 3880SOL     OW23098   2.468   4.681   0.842 -0.1050  0.2545 -0.5994
 3880SOL    HW123099   2.434   4.708   0.928  1.1197 -1.8508  0.5571
 3880SOL    HW223100   2.478   4.593   0.878 -4.2714  0.1802  0.3312
 3881SOL     OW23101   3.147   0.338  15.219  0.3247 -0.7302 -0.0618
 3881SOL    HW123102   3.097   0.258  15.233  0.0992 -0.8928 -1.8389
 3881SOL    HW223103   3.225   0.305  15.173  0.8934 -0.2030  0.5155
 3882SOL     OW23104   3.827   2.155  15.928  0.6562  0.1950  0.0718
 3882SOL    HW123105   3.744   2.132  15.887  0.9104 -0.4994 -0.0634
 3882SOL    HW223106   3.817   2.139  16.022  4.3444  0.3017  0.4988
 3883SOL     OW23107   2.682   0.533  14.042 -0.0660  0.5211 -0.6708
 3883SOL    HW123108   2.663   0.456  13.989 -1.4751  1.6962 -1.9100
 3883SOL    HW223109   2.600   0.546  14.089  0.1141 -2.6455  0.4632
 3884SOL     OW23110   2.119   1.260   7.948  0.0288  0.3402 -0.7094
 3884SOL    HW123111   2.054   1.201   7.910  2.9074 -0.9204 -3.5933
 3884SOL    HW223112   2.161   1.200   8.009 -0.7330  1.7510  1.2041
 3885SOL     OW23113   0.954   0.529   8.794 -0.7124  0.4509 -0.1729
 3885SOL    HW123114   0.984   0.518   8.884  2.3453 -1.9143 -1.4602
 3885SOL    HW223115   0.957   0.439   8.762  1.3674 -0.9825  3.9554
 3886SOL     OW23116   1.749   0.012   9.569 -0.6766  0.1408  0.4728
 3886SOL    HW123117   1.790   4.653   9.563  0.3209  0.6580 -0.2202
 3886SOL    HW223118   1.696   0.013   9.490  1.3131 -1.4082 -0.8816
 3887SOL     OW23119   3.757   3.387   4.221  0.0655  0.4203  0.2728
 3887SOL    HW123120   3.745   3.355   4.311  0.1770 -0.6591 -0.0936
 3887SOL    HW223121   3.667   3.410   4.201 -0.3086 -1.7868 -0.5228
 3888SOL     OW23122   0.811   4.066   9.259 -0.3838 -0.2267  0.0581
 3888SOL    HW123123   0.897   4.031   9.235 -1.6739 -2.5309 -1.1167
 3888SOL    HW223124   0.767   4.020   9.188  1.0436 -0.9864 -0.3337
 3889SOL     OW23125   0.434   3.100   8.369  0.1957 -0.2092 -0.7570
 3889SOL    HW123126   0.412   3.069   8.457 -1.8894  1.7102 -0.6211
 3889SOL    HW223127   0.434   3.194   8.383  2.1149  0.0677 -2.6092
 3890SOL     OW23128   0.877   1.500   2.121  0.1232  0.3047  0.2229
 3890SOL    HW123129   0.902   1.588   2.090  0.4319  0.3323  0.5464
 3890SOL    HW223130   0.867   1.512   2.215  0.8152 -1.5274  0.5422
 3891SOL     OW23131   2.967   1.727  10.099 -0.0637 -0.0612  0.2396
 3891SOL    HW123132   3.017   1.748  10.178 -0.9579 -0.1114  0.8200
 3891SOL    HW223133   2.892   1.785  10.110 -0.0762  0.0957 -0.6337
 3892SOL     OW23134   3.162   1.285  16.598  0.3753  0.6012  0.0563
 3892SOL    HW123135   3.144   1.282  16.692  0.8930  0.5891  0.1551
 3892SOL    HW223136   3.160   1.190  16.587  1.5826  0.7216 -1.1841
 3893SOL     OW23137   2.270   0.437   4.703  0.5634  0.4703  0.0161
 3893SOL    HW123138   2.348   0.393   4.737 -0.7198 -1.9416 -0.0707
 3893SOL    HW223139   2.277   0.428   4.608 -0.0771  0.2749 -0.0166
 3894SOL     OW23140   0.718   2.216   5.752 -0.3658  0.5284  0.1510
 3894SOL    HW123141   0.769   2.294   5.771 -0.3143  1.1697 -2.6177
 3894SOL    HW223142   0.756   2.157   5.817  0.1265 -1.5927 -2.0536
 3895SOL     OW23143   3.823   4.156   7.333  0.7766  0.3910 -0.6763
 3895SOL    HW123144   3.788   4.117   7.253  1.7849  0.1078 -0.9761
 3895SOL    HW223145   3.909   4.192   7.312  0.5286 -0.3410 -2.8921
 3896SOL     OW23146   3.435   3.483   2.524  0.5640 -0.1456  0.3676
 3896SOL    HW123147   3.507   3.484   2.587  0.0419  2.5066  0.9637
 3896SOL    HW223148   3.484   3.484   2.442 -1.9675 -0.5003 -1.1611
 3897SOL     OW23149   3.251   4.089   3.853  0.1757 -0.4252 -0.4037
 3897SOL    HW123150   3.167   4.128   3.828 -0.0478 -1.2237 -0.9001
 3897SOL    HW223151   3.297   4.149   3.912 -1.2849  0.8232 -0.5263
 3898SOL     OW23152   2.263   1.851   7.771 -0.4613 -0.0387 -0.3825
 3898SOL    HW123153   2.252   1.782   7.706  1.9387  1.3308 -2.2108
 3898SOL    HW223154   2.339   1.824   7.823  0.8393 -0.1821 -2.3766
 3899SOL     OW23155   2.496   3.280   6.267  0.1696 -0.2176  0.2105
 3899SOL    HW123156   2.454   3.359   6.232 -0.2051 -0.3467  0.3676
 3899SOL    HW223157   2.532   3.314   6.349 -0.2469 -0.0272  0.3138
 3900SOL     OW23158   2.537   3.935   2.138  0.1625 -0.1467  0.0398
 3900SOL    HW123159   2.607   3.912   2.198 -0.1288 -3.3461 -0.8547
 3900SOL    HW223160   2.547   4.029   2.125 -1.0457  0.2231  1.7627
 3901SOL     OW23161   0.098   2.838   5.147  0.2365  0.7351  0.4442
 3901SOL    HW123162   0.107   2.885   5.230 -0.0299  2.0812 -0.2770
 3901SOL    HW223163   0.131   2.755   5.179 -2.1322 -0.2758  0.2802
 3902SOL     OW23164   1.837   0.669   6.875 -0.2199  0.2985  0.0465
 3902SOL    HW123165   1.827   0.695   6.966 -1.7405 -0.1906  0.0210
 3902SOL    HW223166   1.745   0.665   6.848 -0.3294  0.5424  0.3818
 3903SOL     OW23167   1.584   4.634   3.207  0.0829  0.1650 -0.5244
 3903SOL    HW123168   1.618   4.572   3.143 -0.1540  2.0166 -2.4302
 3903SOL    HW223169   1.527   4.582   3.265  0.2677  2.2265  1.4864
 3904SOL     OW23170   0.474   1.503   2.861  0.2359 -0.1330  0.5910
 3904SOL    HW123171   0.415   1.445   2.909  2.0503 -0.3497  2.5545
 3904SOL    HW223172   0.551   1.503   2.918 -0.2647 -2.0146  1.2537
 3905SOL     OW23173   3.690   1.457   5.779 -0.2866 -0.3713  0.0124
 3905SOL    HW123174   3.748   1.460   5.855 -1.5226 -4.0599  1.1056
 3905SOL    HW223175   3.613   1.505   5.809 -0.4972  0.4484 -1.7896
 3906SOL     OW23176   1.900   0.076  16.453 -0.2384 -0.3318 -0.3530
 3906SOL    HW123177   1.955   0.106  16.526 -1.9809  1.4484  0.2243
 3906SOL    HW223178   1.826   0.136  16.458  1.2175  1.3712  0.6971
 3907SOL     OW23179   3.809   3.818   8.560  0.2731  0.0937  0.3836
 3907SOL    HW123180   3.886   3.871   8.581  0.0079 -1.1178  4.3830
 3907SOL    HW223181   3.844   3.729   8.558  0.9659  0.3424  1.6760
 3908SOL     OW23182   4.541   4.057  15.946  0.3765 -0.1952  0.1463
 3908SOL    HW123183   4.506   4.099  16.024 -1.3641 -0.2834 -0.5978
 3908SOL    HW223184   4.617   4.111  15.926  1.8724 -2.7276 -1.1090
 3909SOL     OW23185   2.903   3.756   5.543 -0.1569  0.0415 -0.0529
 3909SOL    HW123186   2.823   3.772   5.493 -1.0580 -0.9975  1.0341
 3909SOL    HW223187   2.950   3.828   5.502  0.3534 -0.0198  0.4350
 3910SOL     OW23188   1.202   2.841   6.906  0.8971  0.4790  0.1874
 3910SOL    HW123189   1.268   2.779   6.875  1.2611 -0.1496  2.2387
 3910SOL    HW223190   1.155   2.788   6.969 -0.4905  0.5195 -0.8180
 3911SOL     OW23191   2.604   3.477   0.845  0.1520  0.2733  0.3227
 3911SOL    HW123192   2.673   3.482   0.779 -0.2753  0.9575 -0.0713
 3911SOL    HW223193   2.535   3.482   0.779  2.5866  0.0113 -2.2868
 3912SOL     OW23194   2.291   3.513  10.274  0.3939 -0.6076 -0.5543
 3912SOL    HW123195   2.320   3.440  10.220  0.5932  0.0599 -1.3507
 3912SOL    HW223196   2.196   3.502  10.274  0.0289  2.4874 -1.6711
 3913SOL     OW23197   2.974   1.676   0.822 -0.5680  0.5445 -0.3159
 3913SOL    HW123198   3.018   1.591   0.827 -2.8151 -0.5907  0.0822
 3913SOL    HW223199   3.018   1.709   0.901  0.2212  1.6336 -1.1928
 3914SOL     OW23200   3.388   1.971   4.650  0.6514 -0.0203  0.1446
 3914SOL    HW123201   3.293   1.986   4.648  0.6160 -0.1938  0.4919
 3914SOL    HW223202   3.409   2.040   4.712  0.7177  0.5404 -0.5091
 3915SOL     OW23203   0.463   0.682   3.086 -0.1832 -0.2944 -0.0703
 3915SOL    HW123204   0.404   0.749   3.122  0.0148 -0.8718  1.3402
 3915SOL    HW223205   0.542   0.688   3.139 -0.0931  0.1811 -0.2623
 3916SOL     OW23206   1.086   2.632   3.282 -0.2975  0.2511 -0.1436
 3916SOL    HW123207   1.049   2.578   3.212  0.3391 -2.3343  1.4992
 3916SOL    HW223208   1.031   2.710   3.277 -1.6122 -0.8386 -2.6315
 3917SOL     OW23209   0.544   0.778  17.091 -0.0084  0.1311 -0.2286
 3917SOL    HW123210   0.497   0.818  17.018  1.8220 -0.3584 -1.6741
 3917SOL    HW223211   0.522   0.835  17.165  0.1697  2.6665 -2.1430
 3918SOL     OW23212   2.986   3.437  10.130 -0.2474  0.1699 -0.2722
 3918SOL    HW123213   2.912   3.395  10.174  1.0081 -0.7705  0.9444
 3918SOL    HW223214   2.982   3.414  10.037  0.6055 -0.7522 -0.0761
 3919SOL     OW23215   2.424   2.624   2.051 -0.1338 -0.1935  0.3516
 3919SOL    HW123216   2.404   2.676   2.128 -2.8645  0.4995 -0.8245
 3919SOL    HW223217   2.384   2.541   2.075  0.8413 -1.1521 -1.2860
 3920SOL     OW23218   0.157   2.210   8.317 -0.0034 -0.1866 -0.0176
 3920SOL    HW123219   0.210   2.283   8.285  0.8326 -0.0098  1.7293
 3920SOL    HW223220   0.179   2.144   8.251  1.7348 -2.4703  2.8439
 3921SOL     OW23221   2.391   4.659  11.502  0.0606 -0.0402 -0.1403
 3921SOL    HW123222   2.418   4.591  11.441 -0.3633 -0.0232 -0.3511
 3921SOL    HW223223   2.351   4.719  11.438  2.3113  2.0243  0.3586
 3922SOL     OW23224   4.633   1.547   9.340  0.0082 -0.1229 -0.1644
 3922SOL    HW123225   4.678   1.546   9.424  0.8233  1.7297 -0.5730
 3922SOL    HW223226   4.549   1.586   9.366 -0.2986 -1.2661  0.5471
 3923SOL     OW23227   4.710   3.994  15.370  0.4943  0.1713 -0.6790
 3923SOL    HW123228   0.010   4.056  15.302  0.4327  0.7543 -0.1740
 3923SOL    HW223229   0.015   3.912  15.333 -1.0776  0.6768 -3.1636
 3924SOL     OW23230   2.689   2.500   1.813  0.3679  0.1396  0.6953
 3924SOL    HW123231   2.646   2.415   1.806  1.9659 -0.3030 -3.4243
 3924SOL    HW223232   2.782   2.483   1.795  0.3614  1.2905 -0.3904
 3925SOL     OW23233   4.600   1.808   2.697 -0.3500  0.1799 -0.0298
 3925SOL    HW123234   4.606   1.783   2.789 -3.3249 -1.7021 -0.3191
 3925SOL    HW223235   4.510   1.837   2.680 -0.5023  1.1424  2.5624
 3926SOL     OW23236   4.316   4.050   3.126 -0.0038  0.6067  0.1166
 3926SOL    HW123237   4.292   3.958   3.114 -2.7482  1.7336 -2.8848
 3926SOL    HW223238   4.316   4.055   3.222 -1.1653  0.1253  0.1470
 3927SOL     OW23239   1.786   3.584   8.345 -0.9042  0.5347 -0.7493
 3927SOL    HW123240   1.772   3.548   8.257 -0.8246 -0.0009 -0.5396
 3927SOL    HW223241   1.755   3.515   8.403  1.7412 -0.7945 -0.9169
 3928SOL     OW23242   2.862   1.413  11.944  0.3547  0.1481  0.8289
 3928SOL    HW123243   2.903   1.352  12.006 -0.3442 -0.6792  0.4794
 3928SOL    HW223244   2.904   1.387  11.861  1.0168 -0.6100  1.4001
 3929SOL     OW23245   3.771   1.508   8.328  0.3166  0.9849 -0.0226
 3929SOL    HW123246   3.818   1.585   8.294  0.7251  0.6813 -0.1473
 3929SOL    HW223247   3.840   1.442   8.334 -2.0070 -1.4177  0.1323
 3930SOL     OW23248   0.513   0.100   5.228 -0.2749 -0.1802 -0.5646
 3930SOL    HW123249   0.452   0.103   5.155  0.1198  3.5475 -0.7668
 3930SOL    HW223250   0.503   0.009   5.254  1.9527 -0.4815 -0.7898
 3931SOL     OW23251   1.915   3.437   2.859 -0.1716 -0.1308  0.1948
 3931SOL    HW123252   1.972   3.484   2.798 -0.8565 -0.9925 -1.1152
 3931SOL    HW223253   1.860   3.511   2.888  0.7451  0.2269  1.0139
 3932SOL     OW23254   1.729   0.368  16.593  0.0050  0.5158  0.0029
 3932SOL    HW123255   1.797   0.427  16.627 -0.1116  0.2115  0.7587
 3932SOL    HW223256   1.738   0.378  16.498 -0.6910 -0.0643 -0.1186
 3933SOL     OW23257   2.158   0.608   7.926  0.5319 -1.2556  0.3610
 3933SOL    HW123258   2.210   0.673   7.974  2.7587 -2.1965 -0.8237
 3933SOL    HW223259   2.086   0.661   7.891  0.4343 -0.5445  1.5971
 3934SOL     OW23260   4.093   1.686   5.427 -0.6645 -0.0913  0.2178
 3934SOL    HW123261   4.022   1.672   5.364 -0.1097  1.4865 -0.7579
 3934SOL    HW223262   4.164   1.627   5.401 -0.3911 -0.1625  1.1558
 3935SOL     OW23263   2.610   0.123  11.591  0.2539  0.2705 -0.0660
 3935SOL    HW123264   2.662   0.100  11.514 -2.9287 -1.0970 -1.7709
 3935SOL    HW223265   2.520   0.104  11.568 -0.5145  3.4497  0.3041
 3936SOL     OW23266   1.956   1.118   3.866 -0.1666 -0.0718  0.6597
 3936SOL    HW123267   2.014   1.193   3.878 -0.5969  0.5882 -1.4517
 3936SOL    HW223268   1.873   1.150   3.901 -0.2548 -1.0762  1.3581
 3937SOL     OW23269   3.943   4.328   3.555  0.1196 -0.2601  0.2880
 3937SOL    HW123270   3.914   4.393   3.490 -2.1922 -1.5794 -0.0151
 3937SOL    HW223271   4.031   4.359   3.577  0.5413 -1.1831 -0.0912
 3938SOL     OW23272   4.351   2.657   6.520 -0.7321 -0.5903  0.2377
 3938SOL    HW123273   4.424   2.635   6.578 -0.5226 -0.9375 -0.1509
 3938SOL    HW223274   4.280   2.612   6.565 -0.4538 -1.1521  0.1079
 3939SOL     OW23275   3.970   4.439   6.066  0.0618  0.0316 -0.2305
 3939SOL    HW123276   4.034   4.507   6.042 -0.3679  0.3786 -0.4041
 3939SOL    HW223277   4.024   4.361   6.077  0.5152 -0.0170 -2.7374
 3940SOL     OW23278   3.478   4.725   2.846  0.0293  0.4005 -0.1303
 3940SOL    HW123279   3.392   0.029   2.821  0.4718  3.0906  1.6443
 3940SOL    HW223280   3.452   4.659   2.910  1.7385 -1.3402 -1.2043
 3941SOL     OW23281   4.708   2.479   9.262  0.0680  0.5703 -0.3381
 3941SOL    HW123282   0.054   2.449   9.208  0.6101  1.0821  0.1029
 3941SOL    HW223283   4.641   2.417   9.234  0.6638 -1.1549  2.0481
 3942SOL     OW23284   0.566   4.341   4.533  0.3216 -0.1053 -0.1302
 3942SOL    HW123285   0.548   4.416   4.590  0.9318  1.0610 -1.4871
 3942SOL    HW223286   0.564   4.269   4.596 -0.1625 -0.5728 -0.6806
 3943SOL     OW23287   1.028   3.629  13.410  0.4764  0.1475 -0.5640
 3943SOL    HW123288   0.965   3.642  13.339  1.0128  0.7987 -0.9183
 3943SOL    HW223289   1.102   3.615  13.351 -2.0680  0.5907 -3.8528
 3944SOL     OW23290   4.172   3.102   2.337  0.0355 -0.6995  0.1480
 3944SOL    HW123291   4.136   3.086   2.249  2.7806  0.6388 -1.2282
 3944SOL    HW223292   4.169   3.198   2.337 -0.3100 -0.7156 -2.8893
 3945SOL     OW23293   1.925   4.476   3.550  0.2053  0.1834  0.3782
 3945SOL    HW123294   2.003   4.448   3.502  0.3968  0.1631  0.7095
 3945SOL    HW223295   1.935   4.570   3.563 -2.1080  0.5933 -0.7691
 3946SOL     OW23296   2.937   1.302   9.024 -0.5721  0.1551 -0.1051
 3946SOL    HW123297   2.927   1.211   9.052  0.1948  0.3039  0.6562
 3946SOL    HW223298   2.876   1.350   9.079 -0.4207  1.2545 -0.9097
 3947SOL     OW23299   2.506   1.904  13.527  0.4489  0.0262  0.1438
 3947SOL    HW123300   2.435   1.885  13.465 -1.1430 -0.7677  2.2117
 3947SOL    HW223301   2.571   1.945  13.469  1.3110  1.6551  2.2343
 3948SOL     OW23302   0.527   3.518  11.506  1.1697  0.1882 -0.1400
 3948SOL    HW123303   0.529   3.438  11.453  1.6608  0.9372 -1.2332
 3948SOL    HW223304   0.563   3.485  11.588 -2.8543 -4.4700 -0.1655
 3949SOL     OW23305   1.383   0.248   4.665  0.6430  0.0241  0.2488
 3949SOL    HW123306   1.305   0.289   4.628  0.4491  0.2121  0.8588
 3949SOL    HW223307   1.344   0.164   4.691 -3.2774  1.4042 -1.2205
 3950SOL     OW23308   4.094   0.966   2.912  0.0870 -0.0381  0.1258
 3950SOL    HW123309   4.175   0.979   2.961  0.5652 -0.1903 -0.6456
 3950SOL    HW223310   4.117   1.020   2.836  0.8381  0.4393  0.6965
 3951SOL     OW23311   3.059   1.195   7.111  0.1849 -0.3746  0.7578
 3951SOL    HW123312   3.088   1.223   7.024  0.3954  0.9039  1.2345
 3951SOL    HW223313   3.140   1.185   7.162  0.6000 -0.2198  0.1243
 3952SOL     OW23314   3.555   1.363   2.535  0.0003  0.4420  0.2069
 3952SOL    HW123315   3.497   1.297   2.574  2.1801 -0.7694  1.4109
 3952SOL    HW223316   3.503   1.443   2.532 -0.1561  0.3663  0.8412
 3953SOL     OW23317   3.021   0.993   7.790  0.0558  0.2924  0.3392
 3953SOL    HW123318   3.001   0.978   7.698  1.1601 -0.3615  0.2030
 3953SOL    HW223319   2.956   0.935   7.831  0.9366 -1.6356 -1.0105
 3954SOL     OW23320   3.684   4.599   2.229  0.3432  0.5105 -0.4057
 3954SOL    HW123321   3.716   4.688   2.213  1.6016 -0.3758 -2.7437
 3954SOL    HW223322   3.593   4.617   2.207  1.2108 -0.0159 -4.4967
 3955SOL     OW23323   3.002   4.471   3.287  0.5049 -1.0349  0.2577
 3955SOL    HW123324   3.077   4.440   3.235 -1.1499 -1.2098 -2.0114
 3955SOL    HW223325   2.945   4.510   3.220  0.9120  2.9151  2.2110
 3956SOL     OW23326   4.090   3.051  10.111  0.3366 -0.0072  0.4809
 3956SOL    HW123327   4.183   3.067  10.098  0.2191  0.8728  0.7708
 3956SOL    HW223328   4.058   3.134  10.144  1.1219  0.5660 -0.1915
 3957SOL     OW23329   1.107   4.145   4.154 -0.1073  0.0500 -0.0779
 3957SOL    HW123330   1.050   4.069   4.144 -1.3352  0.8701  0.7149
 3957SOL    HW223331   1.187   4.118   4.111  0.4434  3.3661 -1.1870
 3958SOL     OW23332   3.243   2.380  11.959  0.0308 -0.9370 -0.2729
 3958SOL    HW123333   3.255   2.290  11.928 -0.8191 -0.8286 -0.9061
 3958SOL    HW223334   3.325   2.425  11.940 -1.1822  2.0066  1.3281
 3959SOL     OW23335   4.564   1.763  17.545  0.0479 -0.0180  0.0870
 3959SOL    HW123336   4.640   1.761  17.486  0.3809 -2.1554  0.5868
 3959SOL    HW223337   4.555   1.668  17.551 -0.1501 -0.0410 -0.5584
 3960SOL     OW23338   4.639   1.288  15.469  0.0725  0.0592  0.2671
 3960SOL    HW123339   4.623   1.232  15.393  0.1505  1.3271 -0.6810
 3960SOL    HW223340   4.653   1.375  15.431 -0.9007  0.8410  1.7056
 3961SOL     OW23341   0.665   3.677   6.289 -0.1906  0.4320 -0.5667
 3961SOL    HW123342   0.612   3.699   6.212 -0.1547 -2.1752 -1.3126
 3961SOL    HW223343   0.622   3.599   6.322  1.9797 -0.5723 -0.1185
 3962SOL     OW23344   3.187   4.318  14.829 -0.2326  0.4652 -0.1618
 3962SOL    HW123345   3.273   4.357  14.848  0.0697  0.3052 -1.2291
 3962SOL    HW223346   3.217   4.228  14.821 -1.2371  0.2156 -1.1364
 3963SOL     OW23347   3.049   0.165  14.441  0.2107  0.5733 -0.4098
 3963SOL    HW123348   3.122   0.226  14.432  0.5132  0.3455  0.5285
 3963SOL    HW223349   3.080   0.086  14.484 -1.7316 -0.0986 -0.2617
 3964SOL     OW23350   0.631   3.097  17.699  0.2538  0.1488 -0.2095
 3964SOL    HW123351   0.620   3.010  17.659 -2.1648 -1.0814  3.1035
 3964SOL    HW223352   0.719   3.121  17.670  0.8431 -0.6794  0.8755
 3965SOL     OW23353   0.788   0.561   5.392  0.7967  0.3596 -0.3678
 3965SOL    HW123354   0.701   0.591   5.417 -0.1599 -0.8778 -2.1643
 3965SOL    HW223355   0.793   0.481   5.445 -0.0246  1.0256  0.7265
 3966SOL     OW23356   3.206   3.768   8.816  0.0077 -0.6094 -0.2893
 3966SOL    HW123357   3.178   3.858   8.829  1.5799 -0.3866  1.6338
 3966SOL    HW223358   3.274   3.770   8.749 -1.1105  0.2765 -1.3773
 3967SOL     OW23359   2.693   3.997   4.163 -0.3800  0.4789 -0.3401
 3967SOL    HW123360   2.626   3.983   4.096  0.5467  1.5858 -1.5076
 3967SOL    HW223361   2.701   4.092   4.172 -0.8788  0.3640  1.2550
 3968SOL     OW23362   2.464   1.918   7.582  0.3704 -0.0341  0.4737
 3968SOL    HW123363   2.480   1.824   7.574  0.4299 -0.1534  1.9282
 3968SOL    HW223364   2.483   1.927   7.676  0.6074 -1.4685  0.5608
 3969SOL     OW23365   2.555   2.821  12.096  0.4225  0.1145 -0.2231
 3969SOL    HW123366   2.549   2.732  12.061 -1.1146 -0.3984  1.3319
 3969SOL    HW223367   2.497   2.810  12.171  0.5000 -1.0249 -0.3305
 3970SOL     OW23368   1.828   0.186   2.225  0.2901 -0.2706  0.0011
 3970SOL    HW123369   1.873   0.214   2.146  1.3042 -0.3318  0.5569
 3970SOL    HW223370   1.896   0.170   2.291 -0.7335  0.6342  1.2821
 3971SOL     OW23371   3.390   3.311   8.286 -0.1047 -0.1552 -0.8647
 3971SOL    HW123372   3.340   3.370   8.229  0.4603  0.2925 -0.8984
 3971SOL    HW223373   3.397   3.355   8.371 -3.1911  0.1579 -0.7673
 3972SOL     OW23374   3.207   1.397   7.929 -0.1081  0.1949  0.0414
 3972SOL    HW123375   3.292   1.442   7.923 -0.6569  0.9877 -1.7715
 3972SOL    HW223376   3.178   1.391   7.838  0.2176 -0.7503  0.0023
 3973SOL     OW23377   0.142   0.017   2.570 -0.7794  0.1106 -0.5204
 3973SOL    HW123378   0.056   4.702   2.570 -1.2150  1.0137 -1.9841
 3973SOL    HW223379   0.129   0.088   2.507  1.8575  0.8870 -0.1917
 3974SOL     OW23380   3.038   2.799   7.062  0.1437  0.5060  0.2470
 3974SOL    HW123381   3.047   2.715   7.105  0.9823  0.4746 -0.0059
 3974SOL    HW223382   3.058   2.770   6.973  1.1214  0.1032  0.6086
 3975SOL     OW23383   0.553   0.597   8.843  0.2556 -0.1698  0.0803
 3975SOL    HW123384   0.457   0.594   8.846  0.1130  3.2301 -1.5359
 3975SOL    HW223385   0.564   0.594   8.748 -3.3351  0.2521 -0.3411
 3976SOL     OW23386   3.031   2.331   6.532  0.4393 -0.3913  0.0476
 3976SOL    HW123387   3.113   2.351   6.488  0.8181 -0.3963  0.7483
 3976SOL    HW223388   2.969   2.340   6.460  1.1428  1.3289 -0.3323
 3977SOL     OW23389   4.287   1.149   1.803 -0.1012  0.2195 -0.2783
 3977SOL    HW123390   4.340   1.136   1.724 -0.2099  0.9395 -0.4686
 3977SOL    HW223391   4.292   1.243   1.818 -0.8221  0.4958 -1.7541
 3978SOL     OW23392   4.034   1.116   3.533 -0.0779  0.3213 -0.5608
 3978SOL    HW123393   4.014   1.184   3.469 -0.8784 -0.5504 -1.2191
 3978SOL    HW223394   4.130   1.120   3.524  0.0725  1.3586  1.3734
 3979SOL     OW23395   3.581   0.620  15.856  0.4175  0.1475  0.7035
 3979SOL    HW123396   3.508   0.682  15.856  0.7904  0.5968 -0.3401
 3979SOL    HW223397   3.571   0.580  15.942 -2.1663 -0.7744 -0.0327
 3980SOL     OW23398   0.723   3.127   8.722 -0.5743  0.0197  0.3857
 3980SOL    HW123399   0.817   3.116   8.735 -0.8564 -0.9883  1.5298
 3980SOL    HW223400   0.696   3.194   8.785  0.6621 -0.6727  1.6262
 3981SOL     OW23401   1.332   0.099   0.167  0.3047 -0.2833  0.4315
 3981SOL    HW123402   1.342   0.165   0.236  1.0776 -0.0038  0.0543
 3981SOL    HW223403   1.277   0.034   0.210 -2.6010  0.8001 -1.6307
 3982SOL     OW23404   4.242   3.390  15.454  0.0392  0.6210  0.2126
 3982SOL    HW123405   4.248   3.476  15.411 -1.1606 -0.4778 -2.1734
 3982SOL    HW223406   4.288   3.416  15.534  0.9749 -2.1307  0.5695
 3983SOL     OW23407   1.524   1.348   3.433  0.0457  0.2377 -0.3282
 3983SOL    HW123408   1.597   1.307   3.480  0.1229 -0.2309 -0.8677
 3983SOL    HW223409   1.472   1.268   3.427 -1.2409  1.1055 -0.7105
 3984SOL     OW23410   1.182   1.358   8.571  0.3322 -0.2049 -1.0109
 3984SOL    HW123411   1.216   1.431   8.519  0.3121  1.5774  1.4340
 3984SOL    HW223412   1.120   1.321   8.508  0.6197 -0.4186 -1.1676
 3985SOL     OW23413   3.657   2.221   5.866  0.4604  0.4478 -0.5187
 3985SOL    HW123414   3.697   2.172   5.938 -0.7434  1.6480  0.9387
 3985SOL    HW223415   3.597   2.273   5.918  0.1754 -0.5395  0.1409
 3986SOL     OW23416   0.903   0.814  13.241 -0.1077  0.1845 -0.3650
 3986SOL    HW123417   0.852   0.737  13.220  0.3379 -0.9118  2.5669
 3986SOL    HW223418   0.858   0.831  13.323 -1.4913  1.1168 -1.3198
 3987SOL     OW23419   1.862   3.433   4.674  0.4729  0.3224  0.1046
 3987SOL    HW123420   1.856   3.447   4.579  1.5943 -0.1204 -0.0240
 3987SOL    HW223421   1.770   3.420   4.699  0.9722  1.3275  2.3637
 3988SOL     OW23422   2.896   3.477   5.885 -0.6612 -0.2778  0.2274
 3988SOL    HW123423   2.962   3.525   5.936  0.9768 -0.4815 -1.6862
 3988SOL    HW223424   2.834   3.548   5.871  0.7121  1.1762  1.5057
 3989SOL     OW23425   2.917   1.332   7.562  0.1428  0.1599 -0.4633
 3989SOL    HW123426   3.011   1.314   7.569 -0.0657 -1.1597 -1.1922
 3989SOL    HW223427   2.892   1.303   7.650 -1.6942 -0.8273 -1.3286
 3990SOL     OW23428   2.145   0.055   7.897  0.0073 -0.2888 -0.5644
 3990SOL    HW123429   2.172   0.054   7.805 -1.4514 -1.9960 -0.9778
 3990SOL    HW223430   2.143   0.148   7.920 -0.5276  0.3458 -3.1237
 3991SOL     OW23431   3.518   0.699   6.033  0.0585 -0.1143 -0.4638
 3991SOL    HW123432   3.470   0.644   5.971 -0.2233 -1.7364  1.1815
 3991SOL    HW223433   3.595   0.711   5.977 -0.5458  0.5410 -1.1462
 3992SOL     OW23434   1.426   0.872  15.815 -0.0647 -0.1578 -0.2796
 3992SOL    HW123435   1.380   0.797  15.852 -0.5507 -0.5031 -1.5950
 3992SOL    HW223436   1.392   0.943  15.869 -0.6100  0.4502 -1.4142
 3993SOL     OW23437   0.699   2.697   3.638 -0.2600  0.1958 -0.0655
 3993SOL    HW123438   0.670   2.656   3.556 -1.0724  1.4424 -0.4052
 3993SOL    HW223439   0.613   2.729   3.666 -1.9942 -1.0804 -3.9882
 3994SOL     OW23440   0.154   3.913   5.421  0.0174  0.0313  0.6467
 3994SOL    HW123441   0.097   3.874   5.488 -1.7802 -1.3351 -1.6627
 3994SOL    HW223442   0.095   3.908   5.346  0.4929 -1.7313  0.3728
 3995SOL     OW23443   4.568   3.022   8.714 -0.0300  0.3117 -0.7711
 3995SOL    HW123444   4.624   3.043   8.639  0.3020  0.4833 -0.4730
 3995SOL    HW223445   4.535   3.106   8.744 -1.5506 -0.9108  1.0234
 3996SOL     OW23446   1.500   1.511   1.519  0.0071  0.2373 -0.0440
 3996SOL    HW123447   1.555   1.529   1.443 -0.1504 -0.0272 -0.2226
 3996SOL    HW223448   1.487   1.595   1.563  2.9006  0.8344 -0.3049
 3997SOL     OW23449   4.146   2.591   8.120 -0.1102  0.1334 -0.1959
 3997SOL    HW123450   4.093   2.515   8.144 -0.2965  0.7376  1.3146
 3997SOL    HW223451   4.183   2.558   8.038  2.9981 -0.5571  1.4732
 3998SOL     OW23452   3.599   1.563   8.541  0.3204  0.9139  0.5017
 3998SOL    HW123453   3.582   1.477   8.581  1.8788  1.0679  1.4448
 3998SOL    HW223454   3.685   1.545   8.503  0.0708 -0.4043  0.5587
 3999SOL     OW23455   2.646   2.224  15.636  0.6056  0.4783  0.4995
 3999SOL    HW123456   2.711   2.221  15.566 -0.2015  2.0005 -0.3184
 3999SOL    HW223457   2.628   2.131  15.649 -2.5359  0.9297 -0.4693
 4000SOL     OW23458   3.306   1.408  13.005  0.0192  0.2316 -0.0965
 4000SOL    HW123459   3.395   1.436  13.023  0.1543 -0.2727  0.0359
 4000SOL    HW223460   3.283   1.380  13.094  0.3627  2.9720  0.8459
 4001SOL     OW23461   3.378   4.371   6.732  0.3150 -0.0500 -0.5950
 4001SOL    HW123462   3.377   4.282   6.696 -0.2619  0.4966 -1.9098
 4001SOL    HW223463   3.285   4.387   6.746  0.8193  2.3696  0.0323
 4002SOL     OW23464   3.386   0.652   5.348  0.6708 -0.4756  0.3031
 4002SOL    HW123465   3.481   0.659   5.344  0.5390  1.2906  0.6680
 4002SOL    HW223466   3.363   0.568   5.389 -0.4366 -0.3830 -0.1222
 4003SOL     OW23467   2.656   1.980   8.547 -0.1699  0.0690  0.8647
 4003SOL    HW123468   2.564   1.998   8.566  0.1671  1.9455  0.6871
 4003SOL    HW223469   2.695   2.064   8.573  0.4417 -0.8195  2.8770
 4004SOL     OW23470   3.465   2.979   9.338 -0.5184 -0.0089  0.4350
 4004SOL    HW123471   3.429   2.970   9.249 -0.7919 -0.7196  0.6205
 4004SOL    HW223472   3.559   2.980   9.321 -0.3982  0.7432  1.1687
 4005SOL     OW23473   4.269   2.044   9.517  0.7383 -0.2066  0.3169
 4005SOL    HW123474   4.307   1.958   9.534  0.2269 -0.7835 -1.4125
 4005SOL    HW223475   4.177   2.027   9.533  0.4294  1.6361  0.5023
 4006SOL     OW23476   0.200   4.485   4.084 -0.2138 -0.4537  0.1308
 4006SOL    HW123477   0.195   4.415   4.019 -0.4143 -0.8413  0.5725
 4006SOL    HW223478   0.153   4.550   4.031  1.2648  0.2015 -0.3768
 4007SOL     OW23479   2.057   2.543   3.916  0.0353 -0.0835  0.0948
 4007SOL    HW123480   2.078   2.468   3.971 -4.5582 -1.0924  0.4740
 4007SOL    HW223481   2.137   2.553   3.864  0.8639 -0.5853  1.2764
 4008SOL     OW23482   2.278   3.406  17.656  0.7262  0.1039 -0.0919
 4008SOL    HW123483   2.226   3.350   0.003  0.4173  0.0090 -0.4619
 4008SOL    HW223484   2.356   3.352  17.648  0.1648 -0.9231  1.4841
 4009SOL     OW23485   0.773   2.027   0.338 -0.1209  0.3516 -0.1954
 4009SOL    HW123486   0.810   2.088   0.402 -1.8754  1.2219  0.0011
 4009SOL    HW223487   0.754   2.093   0.272  1.1633  2.8061  1.8894
 4010SOL     OW23488   2.967   3.353   4.444 -0.5106  0.4992  0.2319
 4010SOL    HW123489   2.879   3.391   4.445  0.5415  2.9544  0.5424
 4010SOL    HW223490   2.976   3.343   4.539 -1.0456  1.2354  0.3619
 4011SOL     OW23491   2.184   1.467   8.692 -0.2722  0.0564 -0.3876
 4011SOL    HW123492   2.276   1.445   8.710 -0.1189  1.3807  0.4253
 4011SOL    HW223493   2.158   1.381   8.660 -2.7432  0.5869  0.2257
 4012SOL     OW23494   2.484   2.992   1.836 -0.2321 -0.1693  0.0604
 4012SOL    HW123495   2.518   2.909   1.804  2.6448  0.9886  0.0596
 4012SOL    HW223496   2.401   2.967   1.877  2.1334 -3.5808  2.7804
 4013SOL     OW23497   4.634   0.069  13.167 -0.1483 -0.0027  0.4822
 4013SOL    HW123498   4.580   4.720  13.185 -0.5436  0.1459 -0.0891
 4013SOL    HW223499   4.640   0.044  13.075  0.6764  1.2260  0.2037
 4014SOL     OW23500   1.692   3.938   7.958 -0.5737 -0.2488 -0.2326
 4014SOL    HW123501   1.717   4.005   8.021  2.2338 -0.3730 -1.2191
 4014SOL    HW223502   1.626   3.886   8.005  2.2156 -0.5354  3.3681
 4015SOL     OW23503   1.008   1.349   1.948 -0.2798  0.0378  0.2566
 4015SOL    HW123504   0.977   1.261   1.971 -1.2923  0.7194  1.4930
 4015SOL    HW223505   0.972   1.404   2.018 -2.2916  1.3784 -1.8235
 4016SOL     OW23506   3.046   4.105  12.057  0.1486 -0.7103 -0.6053
 4016SOL    HW123507   3.012   4.097  11.968 -0.6955  0.3579 -0.3724
 4016SOL    HW223508   2.967   4.110  12.111 -0.2400 -1.0702 -1.1338
 4017SOL     OW23509   1.550   2.858  14.537 -0.1158  0.0524 -0.3954
 4017SOL    HW123510   1.503   2.891  14.460  1.4821 -0.9822 -1.8329
 4017SOL    HW223511   1.488   2.830  14.604 -1.0322  0.1762 -1.1910
 4018SOL     OW23512   1.727   0.820   2.856 -0.2447 -0.3206 -0.4387
 4018SOL    HW123513   1.781   0.819   2.777 -0.3366 -0.0363 -0.5066
 4018SOL    HW223514   1.721   0.727   2.878  0.8040 -0.0745  0.8631
 4019SOL     OW23515   3.555   3.316   7.001 -0.6144 -0.3946 -0.5971
 4019SOL    HW123516   3.574   3.235   7.049  0.0830 -0.3303 -0.7745
 4019SOL    HW223517   3.518   3.272   6.924 -1.2921 -1.2991  0.2402
 4020SOL     OW23518   1.614   1.806   7.088  0.4296  0.0604  0.2995
 4020SOL    HW123519   1.612   1.759   7.171 -1.3648  0.9041  0.7323
 4020SOL    HW223520   1.523   1.818   7.062  0.2942  4.0464  2.5370
 4021SOL     OW23521   3.397   1.182  13.693  0.6796  0.6392  0.0728
 4021SOL    HW123522   3.303   1.192  13.677  1.0805  1.8380 -1.4931
 4021SOL    HW223523   3.405   1.201  13.787  1.5372 -2.0566  0.5570
 4022SOL     OW23524   3.051   1.804   5.932 -0.0788  0.4249  0.4628
 4022SOL    HW123525   3.118   1.844   5.988  0.2490  1.4976 -0.6849
 4022SOL    HW223526   3.008   1.890   5.929 -0.9692 -0.0485 -0.1326
 4023SOL     OW23527   3.306   3.054   4.388 -0.3417 -0.3060  0.3418
 4023SOL    HW123528   3.279   3.131   4.338 -0.7656 -2.3234 -2.5606
 4023SOL    HW223529   3.400   3.060   4.371 -0.7265 -1.0683 -2.1469
 4024SOL     OW23530   4.407   2.121   6.952  0.5157  0.5641 -0.0649
 4024SOL    HW123531   4.425   2.077   7.035  1.5773 -0.2934 -0.7450
 4024SOL    HW223532   4.490   2.164   6.933  0.6147 -0.8321 -2.7800
 4025SOL     OW23533   0.765   0.117   6.850  0.4976 -0.7318  0.0106
 4025SOL    HW123534   0.722   0.031   6.849  1.2654 -1.1147 -0.9614
 4025SOL    HW223535   0.849   0.095   6.891  0.9899  1.9751  0.4372
 4026SOL     OW23536   1.123   3.808   4.952 -0.0981  0.3226 -0.0730
 4026SOL    HW123537   1.187   3.844   4.890 -0.1914  1.1522  0.3008
 4026SOL    HW223538   1.107   3.719   4.922  1.3840  0.0862 -0.1824
 4027SOL     OW23539   1.702   2.331  11.313 -0.9233  0.4005  0.7550
 4027SOL    HW123540   1.720   2.417  11.350 -2.1155  0.0813  2.0774
 4027SOL    HW223541   1.649   2.361  11.239 -0.3059  0.7795  0.4662
 4028SOL     OW23542   4.689   4.092   8.697  0.4822  0.1058 -0.3237
 4028SOL    HW123543   4.726   4.134   8.774 -0.1444  1.5401 -0.8038
 4028SOL    HW223544   0.032   4.028   8.689 -1.2563 -1.8758  0.4573
 4029SOL     OW23545   2.524   1.474  15.782  0.2735 -0.0708  0.2085
 4029SOL    HW123546   2.531   1.427  15.865  2.2453 -2.3490 -1.2434
 4029SOL    HW223547   2.582   1.412  15.737  0.8134 -2.0989  3.7541
 4030SOL     OW23548   4.669   4.304   4.170 -0.1391 -0.0444 -0.1824
 4030SOL    HW123549   0.025   4.265   4.144 -0.1592 -2.0435  2.7714
 4030SOL    HW223550   4.651   4.346   4.086  3.4389  1.4306 -0.2357
 4031SOL     OW23551   0.214   4.219   4.759 -0.0782 -0.2670  0.0789
 4031SOL    HW123552   0.223   4.198   4.666 -0.2170  1.4377 -0.3380
 4031SOL    HW223553   0.149   4.152   4.776 -0.4052 -0.2620 -1.1049
 4032SOL     OW23554   2.475   4.504   6.655  0.3743 -0.3382  0.0618
 4032SOL    HW123555   2.497   4.427   6.603  1.9796  0.1246  0.0533
 4032SOL    HW223556   2.382   4.489   6.671 -0.4807  2.1959 -2.4984
 4033SOL     OW23557   3.684   3.254   3.135  0.4712 -0.0134 -0.2216
 4033SOL    HW123558   3.715   3.205   3.211  0.4298 -0.0154 -0.2055
 4033SOL    HW223559   3.747   3.225   3.070 -0.2764 -0.9493 -0.5326
 4034SOL     OW23560   1.884   2.850   9.024 -0.6293  0.0652  0.4737
 4034SOL    HW123561   1.965   2.893   8.996 -1.3423 -0.0562 -1.7428
 4034SOL    HW223562   1.910   2.758   9.023 -0.0830  0.2147  0.6955
 4035SOL     OW23563   2.920   0.263   8.773 -0.5003  0.7845 -0.0375
 4035SOL    HW123564   2.955   0.320   8.842  0.1848  1.6889 -1.1525
 4035SOL    HW223565   2.832   0.300   8.765 -0.8529  0.2004  1.1193
 4036SOL     OW23566   1.899   0.432   4.810 -0.8428  0.4662 -0.0622
 4036SOL    HW123567   1.808   0.426   4.841 -0.8363 -1.8380 -0.5242
 4036SOL    HW223568   1.910   0.358   4.751  2.1911  1.5900 -0.8795
 4037SOL     OW23569   2.118   1.206   8.593 -0.0902 -0.1390 -0.1664
 4037SOL    HW123570   2.098   1.115   8.571  0.1219  0.1084 -1.4162
 4037SOL    HW223571   2.200   1.187   8.638 -1.8080  1.1561  3.4600
 4038SOL     OW23572   1.950   2.064   4.813 -0.3683  0.6621  0.4589
 4038SOL    HW123573   1.988   2.050   4.726  0.9087 -1.0860  1.3007
 4038SOL    HW223574   1.978   2.153   4.832 -2.2946  1.4072 -0.1752
 4039SOL     OW23575   1.217   4.278  11.562 -0.1012 -0.1081  0.0871
 4039SOL    HW123576   1.220   4.262  11.657 -1.5139 -2.5506 -0.3054
 4039SOL    HW223577   1.255   4.365  11.547 -0.8305  0.4903  1.6362
 4040SOL     OW23578   4.507   2.938  12.049 -0.0561  0.0466  0.0511
 4040SOL    HW123579   4.447   2.995  12.097 -2.1161 -0.4075 -2.0106
 4040SOL    HW223580   4.439   2.878  12.020  0.9329 -0.0548 -2.0851
 4041SOL     OW23581   0.285   1.179   7.783 -0.1426 -0.2908 -0.1352
 4041SOL    HW123582   0.321   1.254   7.831 -0.0363  0.3741 -1.2498
 4041SOL    HW223583   0.271   1.117   7.854 -0.9325  0.5095  0.3852
 4042SOL     OW23584   1.381   3.304   2.229  0.3643  0.1207 -0.3694
 4042SOL    HW123585   1.359   3.231   2.170  2.4196  0.4072 -1.5173
 4042SOL    HW223586   1.476   3.305   2.215  0.1983  1.9999 -1.4036
 4043SOL     OW23587   4.344   3.947   2.866  0.1234  0.4230  0.8148
 4043SOL    HW123588   4.331   3.988   2.952 -1.3088  0.8339  0.4055
 4043SOL    HW223589   4.331   4.020   2.805  1.4683 -0.4503 -0.5122
 4044SOL     OW23590   3.097   3.164   3.934 -0.3365  0.2213 -0.1488
 4044SOL    HW123591   3.049   3.239   3.968 -0.7465  1.2195 -2.9212
 4044SOL    HW223592   3.175   3.167   3.989 -1.1810  0.4408  1.0373
 4045SOL     OW23593   2.080   1.583   5.556  0.3579  0.4662 -0.5013
 4045SOL    HW123594   2.113   1.493   5.544 -0.0813  0.2998 -0.4702
 4045SOL    HW223595   2.089   1.587   5.652 -1.7023 -0.5488 -0.2414
 4046SOL     OW23596   2.597   2.935  16.831  0.2755 -0.3773  0.1204
 4046SOL    HW123597   2.526   2.978  16.784 -1.6801 -1.4874  2.0307
 4046SOL    HW223598   2.670   2.981  16.790  0.5666 -3.8932 -3.2330
 4047SOL     OW23599   3.772   4.226   2.488 -0.1715 -0.5579  0.1420
 4047SOL    HW123600   3.820   4.144   2.474  0.7788  0.1829 -0.9745
 4047SOL    HW223601   3.704   4.191   2.545 -0.9158  1.1677  0.3070
 4048SOL     OW23602   1.624   0.931   8.657  0.0810 -0.3776 -0.0250
 4048SOL    HW123603   1.572   1.011   8.647 -1.8952 -1.8995 -1.8092
 4048SOL    HW223604   1.690   0.960   8.720  1.3317 -0.8195 -1.1463
 4049SOL     OW23605   4.043   1.756   2.786  0.0153  0.0171  0.5494
 4049SOL    HW123606   3.985   1.699   2.736  0.8348  0.3613 -0.8174
 4049SOL    HW223607   4.099   1.690   2.828  2.3452  1.7326  0.1350
 4050SOL     OW23608   4.320   3.301   7.518  0.0655 -0.4490 -0.8160
 4050SOL    HW123609   4.244   3.246   7.498  0.0391 -0.6937 -0.0483
 4050SOL    HW223610   4.395   3.248   7.492 -0.1578 -0.9857 -0.3762
 4051SOL     OW23611   3.182   3.276   7.386  0.1617  0.4418  0.5139
 4051SOL    HW123612   3.153   3.201   7.335  3.4334 -0.4320 -0.0372
 4051SOL    HW223613   3.260   3.241   7.428 -1.9951 -4.2419  0.5099
 4052SOL     OW23614   2.858   4.613   3.103 -0.1760  0.6614 -0.7424
 4052SOL    HW123615   2.876   4.707   3.109 -0.2022  0.6931 -1.1479
 4052SOL    HW223616   2.896   4.597   3.016  0.5128  0.3544 -0.3868
 4053SOL     OW23617   2.334   3.449   8.113 -0.4018 -0.1118  0.5502
 4053SOL    HW123618   2.409   3.504   8.093 -1.5845  0.4482 -2.3438
 4053SOL    HW223619   2.317   3.423   8.022 -0.7962 -0.4312  0.7108
 4054SOL     OW23620   3.705   4.646   7.667 -0.4274 -0.3287  0.2471
 4054SOL    HW123621   3.640   4.685   7.608  0.4502  1.4039  0.4462
 4054SOL    HW223622   3.703   4.706   7.741  2.2959 -0.3133  0.2810
 4055SOL     OW23623   2.402   1.273  17.655  0.1289 -0.7006  0.1750
 4055SOL    HW123624   2.358   1.216   0.007 -0.0186 -0.4110  0.3376
 4055SOL    HW223625   2.489   1.264  17.693  0.4197  0.2075 -0.2729
 4056SOL     OW23626   3.783   2.723   3.966 -0.4309  0.1634 -0.3501
 4056SOL    HW123627   3.868   2.679   3.962 -1.3719 -1.6649 -0.5795
 4056SOL    HW223628   3.715   2.657   3.978  0.6499 -0.6295  1.5741
 4057SOL     OW23629   3.070   2.506  12.802  0.3287 -0.1379 -0.1928
 4057SOL    HW123630   2.998   2.496  12.865  1.3633  1.9511  1.3415
 4057SOL    HW223631   3.126   2.574  12.839  0.5664  0.9487 -2.5592
 4058SOL     OW23632   1.983   3.597   8.062  0.5886 -0.0840  0.2497
 4058SOL    HW123633   1.996   3.638   8.148 -0.8151 -0.7173  0.7759
 4058SOL    HW223634   2.025   3.658   8.001 -0.8803  1.2168  0.5273
 4059SOL     OW23635   2.884   3.973   4.762  0.1546  0.9321  0.8107
 4059SOL    HW123636   2.875   3.953   4.669  1.9478 -0.0003  0.8261
 4059SOL    HW223637   2.822   3.917   4.809  0.0457  0.5064  0.1568
 4060SOL     OW23638   1.649   4.478   4.695 -0.2205 -0.0205 -0.4797
 4060SOL    HW123639   1.660   4.550   4.756  1.4032 -0.4348 -0.2832
 4060SOL    HW223640   1.730   4.489   4.646  0.9637 -2.9247  0.8167
 4061SOL     OW23641   4.598   2.124   6.137  0.1421 -0.8133 -0.9351
 4061SOL    HW123642   4.621   2.199   6.191 -0.3747 -0.7019 -0.8651
 4061SOL    HW223643   4.521   2.146   6.084 -1.7014 -2.3944  1.0692
 4062SOL     OW23644   1.291   4.223   2.605 -0.3680 -0.1836 -0.1390
 4062SOL    HW123645   1.327   4.222   2.516  0.8301 -0.4325  0.3396
 4062SOL    HW223646   1.346   4.173   2.666 -0.5370 -2.3654 -1.8029
 4063SOL     OW23647   2.272   2.310   6.055  0.7175  0.1186  0.6058
 4063SOL    HW123648   2.294   2.327   6.147  2.0609  2.4491 -0.1712
 4063SOL    HW223649   2.304   2.220   6.047 -0.4428 -0.2434  0.0877
 4064SOL     OW23650   4.691   1.518   5.290 -0.4486  0.6354  0.2237
 4064SOL    HW123651   4.622   1.499   5.353 -0.1818 -0.0217  0.3173
 4064SOL    HW223652   0.035   1.552   5.344  0.4929 -1.0280  0.0117
 4065SOL     OW23653   0.271   4.656   4.512 -0.2746  0.0959 -0.5335
 4065SOL    HW123654   0.232   4.574   4.484 -1.7677  0.3468  0.7899
 4065SOL    HW223655   0.285   4.640   4.606 -1.3260  2.2881  0.0030
 4066SOL     OW23656   3.483   3.167   5.950 -0.3101  0.2075 -0.1084
 4066SOL    HW123657   3.515   3.255   5.972  0.5555 -0.0994 -0.1126
 4066SOL    HW223658   3.392   3.173   5.979  0.5725  2.0808  2.3755
 4067SOL     OW23659   0.925   0.975   0.432 -0.1884  0.8556 -0.0649
 4067SOL    HW123660   0.904   0.881   0.426  0.9278  0.6998 -1.6826
 4067SOL    HW223661   1.021   0.977   0.433 -0.1622 -0.5223  0.4861
 4068SOL     OW23662   0.277   3.123   1.548  1.1793 -0.0794  0.2749
 4068SOL    HW123663   0.270   3.028   1.551  1.1033 -0.0759  0.1924
 4068SOL    HW223664   0.187   3.155   1.559  0.5686 -1.0608 -1.7668
 4069SOL     OW23665   3.300   4.407   5.727  0.3149 -0.0646 -0.4951
 4069SOL    HW123666   3.394   4.401   5.746  0.8142  1.4305 -2.6219
 4069SOL    HW223667   3.286   4.500   5.743 -1.1038 -0.0997 -1.5855
 4070SOL     OW23668   0.894   4.132   3.547  0.3075  0.0913  0.3451
 4070SOL    HW123669   0.922   4.046   3.516 -1.0937  0.0455 -0.7633
 4070SOL    HW223670   0.859   4.109   3.633 -3.2840 -1.3266 -1.5167
 4071SOL     OW23671   1.633   2.707  13.842  0.0197 -0.3316  0.1238
 4071SOL    HW123672   1.570   2.779  13.843  0.4682  0.0533  0.2260
 4071SOL    HW223673   1.710   2.750  13.879  0.7205 -1.3605 -0.1236
 4072SOL     OW23674   3.573   0.042  11.868  0.8374  0.2741 -0.1334
 4072SOL    HW123675   3.530   4.711  11.805  0.4064  0.6638 -0.2043
 4072SOL    HW223676   3.493   0.087  11.896  2.3149  0.4464  3.6950
 4073SOL     OW23677   0.089   1.052   3.673 -0.2957  0.3605  0.0007
 4073SOL    HW123678   0.182   1.065   3.692 -0.7688  0.6801  2.0751
 4073SOL    HW223679   0.060   1.031   3.761 -2.9211  0.7474 -0.7616
 4074SOL     OW23680   2.266   2.969   1.995 -0.4305  0.6985 -0.3227
 4074SOL    HW123681   2.220   3.007   1.920  0.5039 -0.4959 -1.4988
 4074SOL    HW223682   2.234   2.879   1.992  0.0431  0.5925 -2.1855
 4075SOL     OW23683   0.046   0.738   4.773  0.1138 -0.1775 -0.3188
 4075SOL    HW123684   4.697   0.692   4.808 -0.0332 -0.9613 -1.6725
 4075SOL    HW223685   0.087   0.787   4.844  0.6052 -0.9093 -0.0905
 4076SOL     OW23686   1.591   1.850   8.683  0.7630 -0.0483 -0.2241
 4076SOL    HW123687   1.543   1.821   8.761  0.1307 -1.1565 -1.0303
 4076SOL    HW223688   1.682   1.841   8.714  0.4879 -1.7382  0.1340
 4077SOL     OW23689   3.590   4.046  11.637 -0.4861  0.4583  0.5170
 4077SOL    HW123690   3.527   4.078  11.701 -2.7098 -2.6739 -0.1015
 4077SOL    HW223691   3.658   4.113  11.636 -0.9300  0.9148  1.0407
 4078SOL     OW23692   1.322   2.282   4.400 -0.1317  0.1135  0.3671
 4078SOL    HW123693   1.355   2.196   4.374 -0.1291  0.1779  0.1509
 4078SOL    HW223694   1.405   2.330   4.393 -0.4236  0.3266 -1.7885
 4079SOL     OW23695   2.325   2.449   1.834  0.6542 -0.2322  0.5026
 4079SOL    HW123696   2.351   2.540   1.851 -0.0136 -0.0603  0.6355
 4079SOL    HW223697   2.343   2.441   1.740  0.4848  0.8399  0.3740
 4080SOL     OW23698   3.258   1.116   7.833  0.0232 -0.0610  0.3144
 4080SOL    HW123699   3.286   1.144   7.921  2.8924 -3.5252  0.5275
 4080SOL    HW223700   3.175   1.070   7.845  0.2614 -0.2879  1.1400
 4081SOL     OW23701   0.099   0.971   8.226 -0.0052 -0.4379 -0.4313
 4081SOL    HW123702   0.090   0.903   8.293 -0.3345 -1.8638 -1.9373
 4081SOL    HW223703   0.016   0.966   8.178 -0.8874  3.2691  0.7190
 4082SOL     OW23704   1.297   2.082  10.095  0.1186  0.3164 -0.3366
 4082SOL    HW123705   1.379   2.051  10.134  0.7350  2.4959  0.0828
 4082SOL    HW223706   1.296   2.167  10.138 -0.4885 -0.4420  1.1445
 4083SOL     OW23707   4.111   1.768  11.304 -0.0261 -0.3618 -0.0841
 4083SOL    HW123708   4.105   1.690  11.250 -0.7647  1.0501 -2.0515
 4083SOL    HW223709   4.082   1.838  11.245 -2.0471 -2.1189 -1.1951
 4084SOL     OW23710   3.108   0.845   3.495  0.2668 -0.3251  0.0713
 4084SOL    HW123711   3.069   0.758   3.496  1.4154 -0.8381  0.3819
 4084SOL    HW223712   3.166   0.824   3.422  0.9164  1.7528 -0.0202
 4085SOL     OW23713   2.376   2.761   0.946  0.2846  0.9773 -0.3180
 4085SOL    HW123714   2.289   2.791   0.971 -0.0712 -0.9926  0.7638
 4085SOL    HW223715   2.415   2.846   0.966  1.3535  0.5890 -0.7545
 4086SOL     OW23716   1.932   3.206   4.041 -0.5796  0.2650 -0.1712
 4086SOL    HW123717   2.007   3.266   4.042 -1.7361  1.7058 -0.3145
 4086SOL    HW223718   1.987   3.143   3.993  0.5299  0.4170  0.8757
 4087SOL     OW23719   2.343   3.500   7.367  0.2221 -0.4799 -0.2390
 4087SOL    HW123720   2.337   3.466   7.278 -2.0487  0.0482 -0.2959
 4087SOL    HW223721   2.420   3.555   7.352 -1.1728  1.3267 -0.7566
 4088SOL     OW23722   0.292   3.265   6.769  0.0481 -0.0430 -0.3423
 4088SOL    HW123723   0.279   3.223   6.854 -0.1897 -1.2902 -1.0065
 4088SOL    HW223724   0.387   3.280   6.773 -0.2825  2.5781 -2.1349
 4089SOL     OW23725   3.073   3.182   9.732  0.3193 -0.6669 -0.0570
 4089SOL    HW123726   3.052   3.258   9.786  0.0031 -2.4521  2.3496
 4089SOL    HW223727   2.987   3.141   9.731 -0.1238  0.3065 -1.3166
 4090SOL     OW23728   0.065   0.150  12.108 -0.0134  0.2227  0.1431
 4090SOL    HW123729   0.098   0.218  12.050  0.3214  1.2747  1.5683
 4090SOL    HW223730   0.067   0.200  12.189 -2.6956  0.5620  0.0225
 4091SOL     OW23731   0.381   2.658   2.592 -0.8378  0.2980  0.6003
 4091SOL    HW123732   0.315   2.590   2.604  0.5963 -1.2571 -0.4171
 4091SOL    HW223733   0.344   2.729   2.644 -0.9246  0.2866  0.5547
 4092SOL     OW23734   3.410   1.962   5.321 -0.2124 -0.0713 -0.0421
 4092SOL    HW123735   3.455   2.046   5.304  0.9333 -0.5788  0.4635
 4092SOL    HW223736   3.413   1.914   5.238  1.7192 -0.2251  0.1182
 4093SOL     OW23737   1.516   2.281   6.637 -0.3852 -0.1057 -0.4849
 4093SOL    HW123738   1.558   2.249   6.717 -0.4179  2.4206  0.5445
 4093SOL    HW223739   1.574   2.231   6.579  1.2338  0.3031  0.7854
 4094SOL     OW23740   1.825   0.490  10.254 -0.3773  0.1422  0.2242
 4094SOL    HW123741   1.824   0.480  10.159  0.0195  1.1987  0.1081
 4094SOL    HW223742   1.910   0.453  10.275 -1.2229 -1.8632  0.0704
 4095SOL     OW23743   0.306   3.078  11.473 -0.4207  0.4918 -0.2706
 4095SOL    HW123744   0.254   3.104  11.549  1.9931  0.0670  1.5261
 4095SOL    HW223745   0.367   3.018  11.518 -1.3974 -0.4849 -0.2381
 4096SOL     OW23746   1.952   2.938  12.353  0.5230  0.3432  0.0140
 4096SOL    HW123747   1.951   2.954  12.447 -3.4682 -2.3248  0.4192
 4096SOL    HW223748   1.870   2.975  12.320  0.5081 -0.1431 -0.4832
 4097SOL     OW23749   3.200   4.149   8.340 -0.4738 -0.3505  0.3825
 4097SOL    HW123750   3.131   4.177   8.401  0.0085 -0.4362  0.9670
 4097SOL    HW223751   3.281   4.150   8.391  0.3037  2.6582 -0.9331
 4098SOL     OW23752   3.745   4.346   2.067  0.0537 -0.0532  0.4541
 4098SOL    HW123753   3.673   4.285   2.083  0.5655 -0.8777 -0.3097
 4098SOL    HW223754   3.719   4.425   2.113  1.0280  0.5642 -0.0661
 4099SOL     OW23755   3.408   4.469   8.801 -0.3071  0.0098  0.4275
 4099SOL    HW123756   3.415   4.538   8.736  0.9527  0.5446  1.1362
 4099SOL    HW223757   3.326   4.495   8.843 -0.4132  2.8081 -1.5742
 4100SOL     OW23758   3.177   2.979   6.050  0.2937  0.1157  0.3167
 4100SOL    HW123759   3.190   3.074   6.045  1.7117 -0.1097 -0.3805
 4100SOL    HW223760   3.239   2.952   5.982 -0.2135  0.6230 -0.3534
 4101SOL     OW23761   4.176   4.622   8.568  0.5004 -0.0605  0.0190
 4101SOL    HW123762   4.194   4.716   8.557 -1.1384  0.3983  1.2371
 4101SOL    HW223763   4.179   4.606   8.663  1.0733 -0.5551 -0.0855
 4102SOL     OW23764   0.342   1.601   6.865  0.3619 -0.0742 -0.1825
 4102SOL    HW123765   0.380   1.573   6.781  0.4876  0.8161 -0.4235
 4102SOL    HW223766   0.342   1.518   6.913  0.2415 -0.3752 -0.6989
 4103SOL     OW23767   0.316   4.566  12.593  0.2289 -0.3347 -0.2914
 4103SOL    HW123768   0.277   4.504  12.531 -1.0669 -0.1851  0.3842
 4103SOL    HW223769   0.310   4.524  12.678  1.5282 -0.0313 -0.0512
 4104SOL     OW23770   3.984   1.549   7.419 -0.0679 -0.0542  0.9668
 4104SOL    HW123771   4.002   1.642   7.412 -1.1129  0.2501  2.1144
 4104SOL    HW223772   4.066   1.503   7.438 -0.1246 -0.3727  0.4383
 4105SOL     OW23773   4.471   4.338   9.611 -0.2639  0.5638  0.5200
 4105SOL    HW123774   4.520   4.323   9.530 -1.6688  1.8426 -0.5636
 4105SOL    HW223775   4.395   4.280   9.612 -0.7886  1.2361 -0.7052
 4106SOL     OW23776   1.780   2.234   6.429 -0.1122 -0.7689  0.0575
 4106SOL    HW123777   1.847   2.233   6.360 -0.0135 -0.9478  0.1547
 4106SOL    HW223778   1.808   2.307   6.484 -3.3735  0.0594  0.5762
 4107SOL     OW23779   1.831   2.265   7.723 -0.1231  0.1688 -0.2867
 4107SOL    HW123780   1.820   2.170   7.712 -2.9268  0.4182  0.5565
 4107SOL    HW223781   1.836   2.299   7.634  0.0673  0.7225 -0.0604
 4108SOL     OW23782   4.054   1.591   4.369 -0.3058  0.7006 -0.1878
 4108SOL    HW123783   4.110   1.669   4.364 -1.5032  1.2625 -4.5506
 4108SOL    HW223784   4.126   1.531   4.389 -1.2998 -1.6029 -3.6417
 4109SOL     OW23785   0.147   1.061   6.689 -0.1789  0.2716 -0.0673
 4109SOL    HW123786   0.085   1.010   6.637 -0.2551  0.8171 -0.5146
 4109SOL    HW223787   0.198   0.996   6.737 -1.5961  0.1350  1.2864
 4110SOL     OW23788   1.072   1.900   7.247  0.4913 -0.4194 -0.1742
 4110SOL    HW123789   1.132   1.952   7.299  0.6226  0.6005 -1.3399
 4110SOL    HW223790   1.098   1.933   7.161  3.7055  1.8291  1.6820
 4111SOL     OW23791   2.198   2.187  12.229 -0.2348 -0.2533 -0.3899
 4111SOL    HW123792   2.290   2.176  12.207 -0.3495  0.6131 -1.3343
 4111SOL    HW223793   2.153   2.188  12.144 -0.3116 -1.1992 -0.3616
 4112SOL     OW23794   2.577   3.187  10.775 -0.6480 -0.0626  0.0683
 4112SOL    HW123795   2.571   3.096  10.802 -2.4206  1.2429  4.0592
 4112SOL    HW223796   2.484   3.207  10.762 -0.6553  1.3208  2.2127
 4113SOL     OW23797   1.091   2.719   7.888  0.0024  0.1877 -0.0882
 4113SOL    HW123798   1.114   2.627   7.900 -0.5117 -0.1194 -1.4913
 4113SOL    HW223799   1.091   2.739   7.795 -1.5262 -0.3849 -0.2064
 4114SOL     OW23800   1.011   0.579  11.875  0.5141  0.5201 -0.1067
 4114SOL    HW123801   0.961   0.552  11.798 -1.2687  3.9366 -0.1020
 4114SOL    HW223802   1.100   0.550  11.854 -0.1007 -0.4222 -1.4237
 4115SOL     OW23803   1.725   1.221   1.924  0.1223  0.5381  0.2154
 4115SOL    HW123804   1.679   1.247   1.844 -0.2905  0.2157  0.3511
 4115SOL    HW223805   1.793   1.172   1.878 -1.0181  0.9207 -1.8360
 4116SOL     OW23806   1.155   4.616  13.655 -0.4493  0.3708 -0.6525
 4116SOL    HW123807   1.143   4.678  13.584 -0.1603 -0.4943 -1.4572
 4116SOL    HW223808   1.161   4.674  13.731  0.7379 -2.0337  1.1101
 4117SOL     OW23809   1.956   2.298   4.274 -0.1084  0.3214  0.2817
 4117SOL    HW123810   1.958   2.209   4.240 -0.2662 -0.1653  1.5574
 4117SOL    HW223811   2.006   2.324   4.196 -0.4259  1.3035  0.4018
 4118SOL     OW23812   2.150   2.392  12.693  0.3649 -0.3899  0.0424
 4118SOL    HW123813   2.226   2.402  12.635  1.9881 -0.9925  2.0905
 4118SOL    HW223814   2.178   2.391  12.784 -0.5305 -1.5253  0.3079
 4119SOL     OW23815   1.187   1.248  15.265 -0.2245  0.4563  0.4711
 4119SOL    HW123816   1.246   1.224  15.337  1.3111  1.1818 -0.5310
 4119SOL    HW223817   1.101   1.214  15.288 -0.4179 -0.8700 -2.1259
 4120SOL     OW23818   0.472   3.025   4.241  0.0206 -0.3129 -0.3232
 4120SOL    HW123819   0.525   3.102   4.226 -1.3042  0.9391  1.4039
 4120SOL    HW223820   0.448   3.025   4.334 -1.2501 -1.1595 -0.6462
 4121SOL     OW23821   2.599   2.852   7.810 -0.0058  0.1125  0.0760
 4121SOL    HW123822   2.676   2.902   7.838 -1.1498  0.5045  2.5707
 4121SOL    HW223823   2.539   2.924   7.830  0.0422  0.2549 -0.3015
 4122SOL     OW23824   1.521   3.125  14.931  0.3414  0.3241 -0.2541
 4122SOL    HW123825   1.480   3.177  15.000 -2.9018 -1.8459 -0.5480
 4122SOL    HW223826   1.490   3.167  14.851  2.7204  0.5361 -1.0790
 4123SOL     OW23827   3.381   1.797   4.005  0.2950 -0.0216  0.6578
 4123SOL    HW123828   3.427   1.813   3.922  0.9135  0.4780  1.1020
 4123SOL    HW223829   3.383   1.702   4.008  2.7768  0.0539  1.1871
 4124SOL     OW23830   3.916   3.154   3.879  0.4484  0.5495  0.2896
 4124SOL    HW123831   3.940   3.198   3.961 -2.6470 -0.1650  1.5808
 4124SOL    HW223832   4.008   3.152   3.852  0.9287 -0.7282  2.0291
 4125SOL     OW23833   2.651   4.332   3.955  0.1362 -0.7650  0.7960
 4125SOL    HW123834   2.588   4.283   3.902 -0.0330 -1.3782  1.5729
 4125SOL    HW223835   2.637   4.296   4.042  1.8147  1.6610  2.0687
 4126SOL     OW23836   2.251   3.392   3.450  0.1135 -0.2830 -0.1303
 4126SOL    HW123837   2.333   3.441   3.458  0.1771 -0.8365  2.9991
 4126SOL    HW223838   2.185   3.461   3.450 -0.2199 -0.6065 -0.8619
 4127SOL     OW23839   1.913   2.687   7.622 -0.0865 -0.5399 -0.5292
 4127SOL    HW123840   1.928   2.726   7.708 -1.0378 -1.1668 -0.0868
 4127SOL    HW223841   1.982   2.621   7.626  0.4723  0.1294  0.9604
 4128SOL     OW23842   2.075   3.797  14.829 -0.0814  0.2409 -0.6161
 4128SOL    HW123843   2.023   3.863  14.783 -0.6511  0.3515  0.1870
 4128SOL    HW223844   2.126   3.844  14.895 -0.5052 -1.2995  0.7854
 4129SOL     OW23845   0.803   1.784   7.868 -0.2259 -0.2112  0.1282
 4129SOL    HW123846   0.749   1.859   7.893  0.5104  0.8788 -1.6114
 4129SOL    HW223847   0.879   1.800   7.923  1.4423 -0.6059 -2.0947
 4130SOL     OW23848   2.821   0.297  11.609  0.1686 -0.4305  0.4383
 4130SOL    HW123849   2.748   0.241  11.582 -0.0077  0.2034 -0.3946
 4130SOL    HW223850   2.820   0.353  11.531  1.2876 -1.0202  0.0105
 4131SOL     OW23851   2.445   2.982   1.082 -0.2983  0.1640 -0.1557
 4131SOL    HW123852   2.523   3.000   1.030 -0.5280  2.4067  0.3145
 4131SOL    HW223853   2.470   2.988   1.174 -3.3017 -0.2812  0.6878
 4132SOL     OW23854   1.158   3.361   8.967  0.0945 -0.3962 -0.3307
 4132SOL    HW123855   1.185   3.450   8.992 -1.4862  0.1557 -0.6127
 4132SOL    HW223856   1.194   3.301   9.032 -0.7734  0.8760  1.3346
 4133SOL     OW23857   1.962   4.621   8.048  0.0437 -0.1263  0.0149
 4133SOL    HW123858   1.895   4.682   8.017 -1.8042 -2.1498  0.0873
 4133SOL    HW223859   2.028   4.641   7.981 -3.1627  2.5822 -2.3306
 4134SOL     OW23860   4.653   4.414   4.678  0.1262 -0.2026 -0.4877
 4134SOL    HW123861   4.581   4.468   4.711 -0.1020  0.3028 -1.7958
 4134SOL    HW223862   4.614   4.374   4.600 -1.3434  0.7954 -0.2629
 4135SOL     OW23863   3.353   4.555  11.932 -0.0134 -0.1239 -0.3248
 4135SOL    HW123864   3.267   4.552  11.973 -0.0593 -0.3866 -0.4370
 4135SOL    HW223865   3.365   4.649  11.922  3.0547 -0.5243 -0.4353
 4136SOL     OW23866   1.250   0.572   8.160  0.1811 -0.4126  0.3463
 4136SOL    HW123867   1.195   0.615   8.226 -1.4678 -3.3505  0.8912
 4136SOL    HW223868   1.206   0.588   8.077  1.1393 -2.4035 -0.5364
 4137SOL     OW23869   3.934   4.367   0.889  0.0287 -0.2367 -0.0055
 4137SOL    HW123870   3.890   4.451   0.889  2.2874  0.9514 -0.4286
 4137SOL    HW223871   3.946   4.341   0.797  1.8144  0.6447 -0.0274
 4138SOL     OW23872   0.360   4.044   1.426 -0.0912 -0.8247 -0.5169
 4138SOL    HW123873   0.443   4.053   1.474  0.1732 -0.0434 -1.1168
 4138SOL    HW223874   0.319   3.960   1.449 -3.1167  0.6908 -0.4169
 4139SOL     OW23875   3.450   0.541  16.087  0.3915 -0.3612  0.1749
 4139SOL    HW123876   3.363   0.573  16.110 -0.2914 -1.4890 -0.8315
 4139SOL    HW223877   3.455   0.476  16.158  1.3146 -0.4072  0.0768
 4140SOL     OW23878   2.528   3.573  10.384 -0.1377  0.7096  0.0573
 4140SOL    HW123879   2.448   3.587  10.334 -1.4288  3.2703  2.8436
 4140SOL    HW223880   2.526   3.478  10.397 -3.0055  0.4843 -2.0607
 4141SOL     OW23881   4.599   0.726   2.293 -0.2196  0.5296  0.3494
 4141SOL    HW123882   4.529   0.661   2.298 -1.4949  1.7417 -1.6743
 4141SOL    HW223883   4.649   0.710   2.373 -0.6134 -0.0406  0.4805
 4142SOL     OW23884   4.565   2.220   2.566 -0.1646  0.3451 -0.2488
 4142SOL    HW123885   4.656   2.199   2.586 -0.5467  1.9097  3.1880
 4142SOL    HW223886   4.515   2.213   2.647 -2.1075 -1.2308 -1.5517
 4143SOL     OW23887   1.489   0.680   3.378 -0.2702  0.3071  0.3058
 4143SOL    HW123888   1.399   0.664   3.406  0.5653 -2.4794  1.4073
 4143SOL    HW223889   1.468   0.701   3.287  0.4128 -1.3523 -0.2256
 4144SOL     OW23890   2.119   1.724   0.399  0.0314  0.1854  0.1340
 4144SOL    HW123891   2.047   1.730   0.335  0.2516 -2.3728 -0.3528
 4144SOL    HW223892   2.085   1.660   0.461  0.1316  0.2045  0.2082
 4145SOL     OW23893   0.048   3.007   3.398 -0.5098 -0.3564  0.2464
 4145SOL    HW123894   0.068   3.019   3.491 -0.0818 -4.3519  0.6885
 4145SOL    HW223895   0.037   3.098   3.370  1.5239  0.1921  1.1984
 4146SOL     OW23896   3.600   2.754   6.982 -0.0313  0.2203  0.1235
 4146SOL    HW123897   3.526   2.735   7.040  1.2155  2.2147  2.3853
 4146SOL    HW223898   3.570   2.696   6.912 -0.2108  1.2936 -0.6887
 4147SOL     OW23899   1.558   4.071   8.591  0.4707 -0.4246 -0.6446
 4147SOL    HW123900   1.587   4.004   8.529  0.1765 -1.1098 -0.0425
 4147SOL    HW223901   1.637   4.122   8.608 -0.4400  0.7331  0.1599
 4148SOL     OW23902   0.945   3.321   5.710 -0.4644  0.3566 -0.1666
 4148SOL    HW123903   0.935   3.238   5.757 -0.7967 -0.0508 -0.9499
 4148SOL    HW223904   0.875   3.300   5.648 -1.0553 -0.7066  0.8517
 4149SOL     OW23905   0.331   4.046  15.087  0.4458 -0.3270 -0.0072
 4149SOL    HW123906   0.330   3.954  15.112  1.9578 -0.3950 -0.1532
 4149SOL    HW223907   0.243   4.072  15.114  0.4985 -0.0702 -0.0743
 4150SOL     OW23908   1.465   4.584   6.844  0.0465  0.5384 -0.2133
 4150SOL    HW123909   1.444   4.529   6.919 -1.0763  1.3865  0.1024
 4150SOL    HW223910   1.488   4.658   6.901  1.2599 -0.3955  0.5203
 4151SOL     OW23911   0.206   2.016   6.591  0.1896 -0.6020 -0.2656
 4151SOL    HW123912   0.208   1.990   6.499  0.1955 -0.2104 -0.3747
 4151SOL    HW223913   0.122   1.988   6.628 -0.5728  2.3989  0.2462
 4152SOL     OW23914   1.021   3.314   8.583 -0.4090 -0.0628  0.3404
 4152SOL    HW123915   0.972   3.344   8.506  0.4973  2.3388  0.7029
 4152SOL    HW223916   1.021   3.404   8.615  0.7004  0.5223 -1.3308
 4153SOL     OW23917   0.022   1.896   0.055  0.6351 -0.1153  0.1318
 4153SOL    HW123918   0.088   1.827   0.067  0.2472 -0.6897 -1.0931
 4153SOL    HW223919   4.667   1.851   0.071  0.5531  0.0984  0.3157
 4154SOL     OW23920   0.628   1.609   5.756  0.3727 -0.0302 -0.3385
 4154SOL    HW123921   0.651   1.602   5.849 -1.4253 -0.5568  0.0718
 4154SOL    HW223922   0.592   1.521   5.748 -2.9499  1.2445  0.4478
 4155SOL     OW23923   4.307   3.392   2.825 -0.3249  0.2972  0.5593
 4155SOL    HW123924   4.346   3.357   2.744  0.3329 -1.2171  1.5296
 4155SOL    HW223925   4.251   3.453   2.777  1.9124  0.3407 -2.0486
 4156SOL     OW23926   4.009   2.498  10.131 -0.3651 -0.3887  0.1106
 4156SOL    HW123927   3.980   2.497  10.040 -3.3955  2.0606  1.0540
 4156SOL    HW223928   4.040   2.588  10.143  1.9316 -1.2528  0.5150
 4157SOL     OW23929   1.904   2.887   2.055 -0.1277  0.0232 -0.5443
 4157SOL    HW123930   1.967   2.832   2.009 -0.3211 -0.5979 -0.0682
 4157SOL    HW223931   1.921   2.966   2.004  1.7717 -0.7415 -1.0773
 4158SOL     OW23932   2.360   3.755   8.850  0.1828  0.6451  0.0458
 4158SOL    HW123933   2.381   3.838   8.805  2.2999 -0.4567 -1.0175
 4158SOL    HW223934   2.265   3.767   8.850 -0.0244 -1.0325  1.9914
 4159SOL     OW23935   1.327   4.339   3.149 -0.2596 -0.5200 -0.0919
 4159SOL    HW123936   1.280   4.422   3.150  0.7021  0.0742 -2.8306
 4159SOL    HW223937   1.373   4.349   3.232  1.5625  1.3190 -1.3371
 4160SOL     OW23938   4.591   1.357   4.568  0.3802  0.0164  0.0869
 4160SOL    HW123939   4.646   1.351   4.489  0.7517  0.3649  0.3132
 4160SOL    HW223940   4.661   1.337   4.630  0.7409 -1.5764 -0.8520
 4161SOL     OW23941   2.792   0.201   0.789  0.3525 -0.7174  0.0069
 4161SOL    HW123942   2.881   0.210   0.823  0.9121 -1.6556 -1.2117
 4161SOL    HW223943   2.765   0.285   0.751  1.6740 -0.5245 -0.4987
 4162SOL     OW23944   0.566   1.823   9.436  0.0754  0.0273 -0.2007
 4162SOL    HW123945   0.582   1.764   9.509 -1.5476  0.1205  0.2247
 4162SOL    HW223946   0.548   1.908   9.476 -0.7973 -0.2575  0.0234
 4163SOL     OW23947   0.483   1.302   6.099  0.4914  0.0289 -0.6919
 4163SOL    HW123948   0.429   1.371   6.059 -0.0178 -0.1922 -0.3849
 4163SOL    HW223949   0.480   1.235   6.031  0.1169 -0.1221 -0.5277
 4164SOL     OW23950   0.490   3.771   4.110  0.0438 -0.4091  0.5518
 4164SOL    HW123951   0.572   3.819   4.100 -1.0615  1.2867 -0.4819
 4164SOL    HW223952   0.501   3.706   4.041  0.2974 -0.5261  0.7017
 4165SOL     OW23953   2.093   3.726   7.303 -0.3596 -0.0768 -0.6138
 4165SOL    HW123954   2.045   3.808   7.312 -0.3100 -0.3141  1.9560
 4165SOL    HW223955   2.158   3.751   7.238 -2.0765 -0.1344 -2.3473
 4166SOL     OW23956   2.302   4.611   3.786 -0.1301 -0.4686 -0.5657
 4166SOL    HW123957   2.209   4.595   3.800 -0.2343  1.2296  0.7661
 4166SOL    HW223958   2.336   4.592   3.874 -0.4804 -0.0656 -0.3401
 4167SOL     OW23959   4.016   1.049  11.464  0.5193  0.5667  0.6638
 4167SOL    HW123960   4.065   1.130  11.481  3.1290 -1.2199  1.7337
 4167SOL    HW223961   3.962   1.044  11.543 -1.4399  0.9965 -0.6489
 4168SOL     OW23962   4.631   2.864   6.649 -0.1447  0.2723 -0.3769
 4168SOL    HW123963   4.630   2.874   6.745  0.4188  0.2236 -0.3695
 4168SOL    HW223964   4.609   2.771   6.646  1.6856 -0.1294 -0.8927
 4169SOL     OW23965   2.990   1.324   9.584 -0.2464 -0.4874  0.3816
 4169SOL    HW123966   2.999   1.276   9.666  0.5287  0.3233  0.7713
 4169SOL    HW223967   3.081   1.326   9.555 -0.3285  0.6767  0.2273
 4170SOL     OW23968   2.031   3.677   0.458  0.1073  0.4205 -0.1057
 4170SOL    HW123969   1.958   3.711   0.511 -0.8911  1.0648 -1.9025
 4170SOL    HW223970   1.997   3.665   0.369 -2.3282  1.3285  0.6943
 4171SOL     OW23971   1.117   1.864  16.049 -0.7906  0.6740 -0.1000
 4171SOL    HW123972   1.160   1.919  16.115  3.3421 -0.7905 -1.5921
 4171SOL    HW223973   1.066   1.808  16.108  1.3377 -0.1870  0.9103
 4172SOL     OW23974   0.800   4.664   7.942 -0.1993 -0.8294 -1.0907
 4172SOL    HW123975   0.811   0.023   7.982 -2.9171  0.0483 -2.3026
 4172SOL    HW223976   0.743   4.676   7.866  1.6453  1.6630 -2.0670
 4173SOL     OW23977   3.578   3.223   8.135 -0.0454  0.3428  0.2368
 4173SOL    HW123978   3.617   3.144   8.173 -0.7913 -0.3290 -0.4085
 4173SOL    HW223979   3.518   3.253   8.203 -0.4888  0.4467 -0.2054
 4174SOL     OW23980   4.168   2.670   1.558  0.2707 -0.1541 -0.0426
 4174SOL    HW123981   4.249   2.688   1.606  0.3569 -0.9338  0.1062
 4174SOL    HW223982   4.139   2.761   1.555  1.0898  0.0563 -1.4530
 4175SOL     OW23983   0.487   4.392  17.131  0.9586 -0.3671  0.4838
 4175SOL    HW123984   0.530   4.328  17.075  1.4543  1.3066 -1.0350
 4175SOL    HW223985   0.425   4.439  17.075 -0.3788  0.9962  3.0708
 4176SOL     OW23986   1.586   2.900  13.079 -0.1390  0.2496  0.5416
 4176SOL    HW123987   1.497   2.869  13.061  0.1003 -0.1394  0.0076
 4176SOL    HW223988   1.634   2.882  12.998  4.1080  2.2266  2.6595
 4177SOL     OW23989   2.828   4.075   1.595  0.7926  0.4691  0.3659
 4177SOL    HW123990   2.830   4.018   1.517 -0.5426 -0.9085  1.3251
 4177SOL    HW223991   2.858   4.005   1.653  2.1754 -0.3084 -1.2671
 4178SOL     OW23992   0.494   3.825   0.330  0.2518  0.3095  0.0317
 4178SOL    HW123993   0.449   3.766   0.270  1.7020 -0.9185  0.1591
 4178SOL    HW223994   0.580   3.784   0.333 -0.6180 -1.5591 -0.7448
 4179SOL     OW23995   0.485   2.770   6.384  0.0950 -0.1173  0.0280
 4179SOL    HW123996   0.438   2.708   6.439  1.6972 -1.5629 -0.2565
 4179SOL    HW223997   0.565   2.787   6.433  0.8396  0.1521 -1.2708
 4180SOL     OW23998   2.815   4.539   7.056  0.1081  0.4115 -0.0378
 4180SOL    HW123999   2.855   4.475   6.996  1.8464  1.9808 -0.5454
 4180SOL    HW224000   2.769   4.595   6.994  1.2376  0.8530 -0.4696
 4181SOL     OW24001   1.211   3.956   2.890  0.0733  0.6163  0.0009
 4181SOL    HW124002   1.290   4.009   2.892  1.8860 -2.0801  0.3730
 4181SOL    HW224003   1.149   4.029   2.884  3.0669  3.1145  0.0452
 4182SOL     OW24004   2.122   2.320   4.071  0.2400  0.0446  0.1533
 4182SOL    HW124005   2.194   2.317   4.134  0.2477  0.5302  0.1687
 4182SOL    HW224006   2.115   2.227   4.046  0.7064 -0.0443  0.3561
 4183SOL     OW24007   2.297   2.506   8.503 -0.7726 -0.1295  0.0308
 4183SOL    HW124008   2.208   2.482   8.530 -0.7738  0.3405  0.4347
 4183SOL    HW224009   2.355   2.447   8.550 -0.5509  1.7317  2.1151
 4184SOL     OW24010   3.190   4.573   8.569  0.2786 -0.1841 -0.4607
 4184SOL    HW124011   3.256   4.643   8.573  1.2094 -1.1026  0.1573
 4184SOL    HW224012   3.136   4.606   8.497  0.3608  0.0389 -0.4198
 4185SOL     OW24013   1.364   0.754   6.685  0.4284  0.0040 -0.0784
 4185SOL    HW124014   1.313   0.725   6.760  0.2217  0.8375  0.1064
 4185SOL    HW224015   1.369   0.847   6.707  0.8101 -0.0385  0.0047
 4186SOL     OW24016   1.124   2.444   7.928  0.1695 -0.0550 -0.4374
 4186SOL    HW124017   1.086   2.357   7.941  1.9787 -0.6742  0.6711
 4186SOL    HW224018   1.180   2.457   8.004  0.1098  0.7853 -0.5447
 4187SOL     OW24019   0.264   1.428   8.724  0.0794 -0.3220  0.0499
 4187SOL    HW124020   0.303   1.345   8.700  0.0505 -0.5135  0.6523
 4187SOL    HW224021   0.338   1.488   8.719  0.3830 -0.7250 -0.1845
 4188SOL     OW24022   0.218   0.701   4.500  0.6343  0.3873  0.0849
 4188SOL    HW124023   0.225   0.684   4.594  0.7044 -0.6901 -0.1181
 4188SOL    HW224024   0.123   0.698   4.490  0.8380 -0.6687 -1.3935
 4189SOL     OW24025   1.470   2.670  12.665  0.0923  0.2708  0.0419
 4189SOL    HW124026   1.425   2.608  12.608  1.7590 -2.6023  1.8411
 4189SOL    HW224027   1.464   2.643  12.757  1.0606  1.6860  0.5333
 4190SOL     OW24028   3.704   4.317   8.023  0.2889 -0.4455 -0.6274
 4190SOL    HW124029   3.745   4.241   8.064  1.4681  0.3180 -0.3851
 4190SOL    HW224030   3.639   4.273   7.969  0.3797 -1.1978 -0.1206
 4191SOL     OW24031   2.901   3.876  10.874  0.0549 -0.1020  0.5990
 4191SOL    HW124032   2.890   3.950  10.813  3.4859 -0.6171 -0.6518
 4191SOL    HW224033   2.826   3.874  10.933 -0.1724 -1.1004  0.2724
 4192SOL     OW24034   0.923   4.516   7.088 -0.0112  0.2173  0.1172
 4192SOL    HW124035   0.994   4.486   7.032 -2.4629  1.0219 -3.3823
 4192SOL    HW224036   0.845   4.472   7.055 -0.1990 -0.3529  1.3045
 4193SOL     OW24037   2.592   0.076   9.812  0.1292 -0.1107  0.7756
 4193SOL    HW124038   2.534   0.141   9.851  0.9835  0.6315  0.8057
 4193SOL    HW224039   2.590   0.112   9.723 -2.5564  1.1302  1.3353
 4194SOL     OW24040   3.237   2.179  11.740  0.2646 -0.2113  0.0041
 4194SOL    HW124041   3.332   2.170  11.743  0.5524  2.3481 -0.7601
 4194SOL    HW224042   3.227   2.220  11.654 -1.0046 -1.4848 -0.4534
 4195SOL     OW24043   3.918   1.545   9.195 -0.1805  0.5883  0.1314
 4195SOL    HW124044   3.906   1.640   9.201  0.0425  0.7563 -2.2113
 4195SOL    HW224045   3.873   1.534   9.112 -2.4657  0.5524  1.3778
 4196SOL     OW24046   2.516   2.519   1.399  0.3296 -0.3582 -0.6396
 4196SOL    HW124047   2.474   2.556   1.322 -0.6121 -0.6132 -0.2446
 4196SOL    HW224048   2.608   2.523   1.373  0.5885 -1.0851  0.1582
 4197SOL     OW24049   1.557   3.472  12.396  0.1642 -0.4076  0.1156
 4197SOL    HW124050   1.575   3.432  12.310 -0.3023  3.5963 -1.8167
 4197SOL    HW224051   1.609   3.552  12.390 -0.4300 -0.1340 -1.4471
 4198SOL     OW24052   1.688   1.567   4.285 -0.0405 -0.0929 -0.0309
 4198SOL    HW124053   1.700   1.579   4.379  1.7839  1.2286 -0.4342
 4198SOL    HW224054   1.619   1.633   4.279 -0.7639 -0.9136 -0.7317
 4199SOL     OW24055   1.962   1.312   3.461 -0.1130  0.0895 -0.7672
 4199SOL    HW124056   1.913   1.299   3.380  0.0714  1.8970 -1.1830
 4199SOL    HW224057   1.946   1.405   3.479  0.9257  0.1469 -0.1532
 4200SOL     OW24058   3.297   1.433  14.030  0.3236 -0.8762 -0.3709
 4200SOL    HW124059   3.257   1.396  14.109  0.4451  1.4078  0.7679
 4200SOL    HW224060   3.345   1.363  13.986 -0.3902 -0.9713 -0.9909
 4201SOL     OW24061   4.298   3.866   8.368 -0.2217  0.4743 -0.2322
 4201SOL    HW124062   4.252   3.941   8.331 -0.0513 -0.5227 -2.4650
 4201SOL    HW224063   4.322   3.896   8.455  1.4437 -2.9066  0.4775
 4202SOL     OW24064   0.001   2.758   3.338  0.0346 -0.1394  0.5448
 4202SOL    HW124065   4.726   2.847   3.371 -4.2192 -0.7157  1.7399
 4202SOL    HW224066   4.634   2.748   3.347 -0.1251 -0.4782 -1.4494
 4203SOL     OW24067   2.691   4.117   6.942  0.7396  0.1640 -0.0225
 4203SOL    HW124068   2.659   4.157   6.861  1.7238  0.9249 -0.0386
 4203SOL    HW224069   2.666   4.190   6.999  0.4693  0.0010  0.0625
 4204SOL     OW24070   4.588   4.609   2.050  0.5099  0.5980 -0.0400
 4204SOL    HW124071   4.599   4.519   2.018 -0.7643  0.4528 -0.0425
 4204SOL    HW224072   4.605   4.604   2.144 -2.3312  1.8978  0.5263
 4205SOL     OW24073   2.727   3.411   8.882  0.1656  0.4844 -0.7530
 4205SOL    HW124074   2.707   3.488   8.828 -2.4744 -0.0387 -0.5278
 4205SOL    HW224075   2.645   3.390   8.928  0.1501 -0.6155 -1.2846
 4206SOL     OW24076   2.606   4.621   9.449  0.2520 -0.4302 -0.1079
 4206SOL    HW124077   2.676   4.653   9.506  0.1038 -0.1072 -0.1079
 4206SOL    HW224078   2.643   4.583   9.369 -1.8822  0.2330 -1.4122
 4207SOL     OW24079   1.947   1.734   8.478 -0.3743 -0.3428  0.3188
 4207SOL    HW124080   1.879   1.677   8.445 -2.4777  3.5440 -1.9429
 4207SOL    HW224081   1.936   1.743   8.573 -1.0697 -1.8538  0.3713
 4208SOL     OW24082   3.968   3.774  10.144  0.2284 -0.3944  0.3468
 4208SOL    HW124083   4.037   3.839  10.145 -0.1542  0.0051  0.6329
 4208SOL    HW224084   3.896   3.820  10.187  1.8006 -0.1408  2.6829
 4209SOL     OW24085   2.418   0.302  11.015  0.4482  0.0531 -0.5274
 4209SOL    HW124086   2.486   0.287  11.081 -0.4453  0.8428  0.5903
 4209SOL    HW224087   2.457   0.277  10.932  3.3758  2.1220  0.2200
 4210SOL     OW24088   4.709   1.105  14.911 -0.0734  0.5978 -0.3606
 4210SOL    HW124089   4.669   1.022  14.885 -0.0035 -0.1827  1.9469
 4210SOL    HW224090   0.026   1.120  14.828 -0.9097 -1.2056 -1.1210
 4211SOL     OW24091   0.518   3.369   0.332 -0.3679 -0.1695 -0.3307
 4211SOL    HW124092   0.475   3.433   0.276 -0.5244  1.5078  1.6836
 4211SOL    HW224093   0.459   3.365   0.407  0.5289  0.9747  0.4374
 4212SOL     OW24094   2.310   2.708   4.130  0.1468 -0.0440 -0.6047
 4212SOL    HW124095   2.346   2.794   4.108  1.3371 -0.6500 -1.0049
 4212SOL    HW224096   2.365   2.648   4.080 -0.7758 -0.6061 -0.9411
 4213SOL     OW24097   3.149   4.357   9.665  0.3296 -1.0616  0.0947
 4213SOL    HW124098   3.182   4.438   9.703 -1.2611 -1.1934  1.8003
 4213SOL    HW224099   3.061   4.371   9.699  0.0541  0.6258 -1.3347
 4214SOL     OW24100   1.567   4.394   6.379 -0.0966  0.7159 -0.0787
 4214SOL    HW124101   1.523   4.419   6.461 -0.8004 -0.2992 -0.1467
 4214SOL    HW224102   1.652   4.436   6.388 -0.5101  2.2299 -3.5050
 4215SOL     OW24103   3.071   2.552   9.483 -0.0367 -0.3863 -0.2561
 4215SOL    HW124104   3.154   2.508   9.503  1.1183  1.4389 -1.0579
 4215SOL    HW224105   3.017   2.505   9.547 -0.2487 -1.7951 -1.4790
 4216SOL     OW24106   1.338   3.515   4.469  0.0003 -0.2690  0.2047
 4216SOL    HW124107   1.367   3.424   4.476  0.4816 -0.1619 -0.4273
 4216SOL    HW224108   1.362   3.538   4.379  1.9856  1.5972  1.2022
 4217SOL     OW24109   1.322   1.832   8.854  0.1819 -0.8184 -0.2908
 4217SOL    HW124110   1.270   1.842   8.934  0.5178  0.9026 -0.2889
 4217SOL    HW224111   1.382   1.766   8.888 -1.0425 -0.8387  1.8697
 4218SOL     OW24112   0.670   3.317   8.984  0.5291  0.0797 -0.7201
 4218SOL    HW124113   0.762   3.333   9.001 -0.1134  2.2663  0.6579
 4218SOL    HW224114   0.624   3.381   9.039  0.8428 -1.0707  0.8698
 4219SOL     OW24115   2.617   0.085   8.645  0.2116 -0.6567 -0.0606
 4219SOL    HW124116   2.682   0.109   8.579 -3.4072  0.5452 -3.1857
 4219SOL    HW224117   2.545   0.114   8.589  1.4674  1.0345 -0.7774
 4220SOL     OW24118   4.372   1.905   4.754  0.1506 -0.4581  0.1109
 4220SOL    HW124119   4.405   1.817   4.733  1.2687 -0.3765  1.5506
 4220SOL    HW224120   4.442   1.951   4.800  1.4441 -0.4769 -1.8292
 4221SOL     OW24121   1.628   1.996   2.076  0.3584  0.6524  0.4177
 4221SOL    HW124122   1.690   2.007   2.148  0.0364 -0.0113  0.7971
 4221SOL    HW224123   1.616   2.082   2.035  0.4232  0.0650 -0.8227
 4222SOL     OW24124   2.151   3.500   8.591 -0.5368  0.0075 -0.0514
 4222SOL    HW124125   2.092   3.575   8.598 -1.2308 -0.3781 -1.7437
 4222SOL    HW224126   2.133   3.479   8.500  0.2699 -1.7041  0.1887
 4223SOL     OW24127   4.586   2.029   4.796 -0.1567 -0.1098  0.0754
 4223SOL    HW124128   4.629   2.087   4.858  0.5953  0.2837 -0.8150
 4223SOL    HW224129   4.638   2.040   4.716  1.2438  0.9550  1.1402
 4224SOL     OW24130   0.709   3.888  11.873 -0.1324 -0.0118 -0.1013
 4224SOL    HW124131   0.662   3.916  11.795 -0.5061  0.8678  0.4383
 4224SOL    HW224132   0.773   3.829  11.833 -1.5703 -1.5290 -0.1678
 4225SOL     OW24133   2.696   0.052  11.830 -0.5249  0.0134 -0.1014
 4225SOL    HW124134   2.657   0.070  11.744 -2.2679 -0.0296  0.6867
 4225SOL    HW224135   2.704   0.141  11.864  0.8189  0.2516 -1.0168
 4226SOL     OW24136   4.706   1.654   4.284 -0.1344  0.9125 -0.6213
 4226SOL    HW124137   0.000   1.562   4.302 -0.9538  0.7125 -0.6567
 4226SOL    HW224138   0.063   1.697   4.271  0.4493  0.1536  0.6519
 4227SOL     OW24139   2.185   2.144   8.478  0.5100  0.1000 -0.4076
 4227SOL    HW124140   2.205   2.186   8.395 -1.0665  1.1414 -0.2663
 4227SOL    HW224141   2.103   2.103   8.450  0.9101 -1.7334  1.1107
 4228SOL     OW24142   0.652   0.425   9.023  0.0744  0.8410 -0.5502
 4228SOL    HW124143   0.643   0.346   8.969 -0.5978 -0.9231  2.1268
 4228SOL    HW224144   0.603   0.489   8.971 -0.0820  0.4612 -0.8747
 4229SOL     OW24145   4.494   3.684   7.934  0.1579 -0.6864 -0.0956
 4229SOL    HW124146   4.503   3.727   8.019 -1.0333  2.9141 -1.7728
 4229SOL    HW224147   4.478   3.593   7.958  0.5118 -0.9836 -0.9936
 4230SOL     OW24148   1.361   3.646   0.890 -0.1107  0.4087 -0.1921
 4230SOL    HW124149   1.442   3.604   0.861 -1.4370 -0.6467 -2.3228
 4230SOL    HW224150   1.339   3.686   0.805  1.3175 -0.9461 -1.1910
 4231SOL     OW24151   3.683   3.915   2.659  0.0349  0.0513 -0.2704
 4231SOL    HW124152   3.760   3.908   2.602 -0.0709  0.6290 -0.4925
 4231SOL    HW224153   3.628   3.848   2.617  0.3919 -1.1815  1.2444
 4232SOL     OW24154   3.452   2.669   4.847  0.3968  0.0867  0.0812
 4232SOL    HW124155   3.463   2.690   4.754  0.4628  0.4186  0.1631
 4232SOL    HW224156   3.542   2.658   4.878  0.7356  0.0178 -0.9163
 4233SOL     OW24157   4.636   3.080   6.484  0.1892  0.0163 -0.0907
 4233SOL    HW124158   4.657   3.035   6.566  0.0698  0.2275  0.0569
 4233SOL    HW224159   4.720   3.118   6.461 -0.3770  0.9988 -0.5496
 4234SOL     OW24160   3.342   0.892   2.757  0.5971  0.2864 -0.7573
 4234SOL    HW124161   3.413   0.845   2.713 -1.4952 -1.4343 -2.2319
 4234SOL    HW224162   3.277   0.897   2.688 -0.5017 -1.5674  0.1690
 4235SOL     OW24163   0.488   2.814   1.911 -0.2116  0.5945  0.0675
 4235SOL    HW124164   0.458   2.813   1.820 -5.8161 -1.7831  1.9511
 4235SOL    HW224165   0.405   2.777   1.941 -0.5648  1.0378 -0.3620
 4236SOL     OW24166   2.625   3.360   2.780  0.2991  0.5118  0.3823
 4236SOL    HW124167   2.542   3.318   2.756  1.3290 -1.6800  0.7089
 4236SOL    HW224168   2.681   3.286   2.804 -0.5617  0.1056  1.1515
 4237SOL     OW24169   2.775   3.260   3.437 -0.2508  0.0515  0.0007
 4237SOL    HW124170   2.719   3.227   3.506 -4.3170  3.1502 -1.8305
 4237SOL    HW224171   2.724   3.284   3.359 -0.6706  0.8799  0.5306
 4238SOL     OW24172   3.274   3.294  11.617  0.0909  0.1875 -0.1908
 4238SOL    HW124173   3.239   3.239  11.687 -1.0363 -0.1307 -1.0060
 4238SOL    HW224174   3.251   3.382  11.648  0.4732 -0.1788  1.1457
 4239SOL     OW24175   4.124   3.556   2.705  0.2062  0.4319 -0.6058
 4239SOL    HW124176   4.122   3.651   2.717 -2.0309  0.3328 -0.1931
 4239SOL    HW224177   4.035   3.544   2.740  0.6404 -1.2820 -0.0430
 4240SOL     OW24178   3.693   2.527  11.025  0.6048 -0.1720 -0.3868
 4240SOL    HW124179   3.633   2.546  11.097  2.8232  2.5467  0.7073
 4240SOL    HW224180   3.728   2.446  11.061 -1.5352 -0.2473  1.5176
 4241SOL     OW24181   4.445   1.290  15.695  0.2337  0.4476 -0.4772
 4241SOL    HW124182   4.355   1.301  15.664  0.6221  1.4494 -1.2798
 4241SOL    HW224183   4.491   1.272  15.613  0.8691 -2.7713  0.6153
 4242SOL     OW24184   1.285   4.470   5.059 -0.3917 -0.3876  0.1899
 4242SOL    HW124185   1.346   4.404   5.091  1.6297  1.8977  1.0223
 4242SOL    HW224186   1.338   4.503   4.986 -1.1615  2.0040  0.6815
 4243SOL     OW24187   0.666   1.593   5.404  0.0561  0.1945  0.4426
 4243SOL    HW124188   0.712   1.579   5.487 -0.4440  1.2739  0.9097
 4243SOL    HW224189   0.722   1.544   5.344  3.4128  4.5572  0.0569
 4244SOL     OW24190   3.379   0.588   1.743 -0.1669 -0.2962 -0.2457
 4244SOL    HW124191   3.366   0.505   1.698 -0.4250 -0.0222 -0.6753
 4244SOL    HW224192   3.371   0.643   1.665  1.7539  0.0769 -0.1754
 4245SOL     OW24193   2.021   1.359  11.501 -0.1122  0.8464 -0.1182
 4245SOL    HW124194   1.966   1.318  11.434  0.1903 -1.5823  1.1169
 4245SOL    HW224195   2.095   1.299  11.493  0.0733  0.9291  1.0433
 4246SOL     OW24196   1.413   3.894   8.803  0.2649 -0.3648  0.7924
 4246SOL    HW124197   1.497   3.851   8.813  0.4999 -0.5377 -2.0516
 4246SOL    HW224198   1.446   3.973   8.760 -1.8143 -0.6179 -1.2734
 4247SOL     OW24199   4.134   3.600  15.284  0.0598 -0.1024  0.7247
 4247SOL    HW124200   4.133   3.685  15.330 -2.9007 -0.9751  2.2560
 4247SOL    HW224201   4.039   3.593  15.274  0.5218 -2.1573 -1.8807
 4248SOL     OW24202   3.974   0.952   8.290 -0.0283 -1.0181 -0.0543
 4248SOL    HW124203   4.038   1.023   8.293  0.8361 -1.8122  0.2379
 4248SOL    HW224204   4.021   0.881   8.334 -0.6182 -1.4733 -0.1619
 4249SOL     OW24205   2.300   1.792   3.185 -0.5075 -0.2836 -0.0925
 4249SOL    HW124206   2.212   1.788   3.224  0.0386 -0.9676  1.0669
 4249SOL    HW224207   2.341   1.861   3.236 -1.3667 -1.6004  2.3857
 4250SOL     OW24208   0.691   1.234   9.788  0.1394  0.1079  0.8285
 4250SOL    HW124209   0.687   1.312   9.843 -0.3506 -0.7109  1.9611
 4250SOL    HW224210   0.716   1.169   9.854  1.1398 -0.5007 -0.1433
 4251SOL     OW24211   4.693   3.132   4.255  0.4474 -0.1745  0.0929
 4251SOL    HW124212   4.672   3.211   4.304 -0.5473 -1.0837  1.1532
 4251SOL    HW224213   4.607   3.095   4.232  1.4808 -1.1445 -2.2893
 4252SOL     OW24214   4.694   2.657   5.997 -0.1039  0.3931  0.7316
 4252SOL    HW124215   4.629   2.595   5.967 -0.4629  1.0093  0.2343
 4252SOL    HW224216   4.641   2.736   5.984 -1.1923 -0.5765 -0.6190
 4253SOL     OW24217   4.342   2.406  13.272  0.3263  0.3557  0.2785
 4253SOL    HW124218   4.368   2.488  13.314  0.8798  0.1311  0.3787
 4253SOL    HW224219   4.366   2.356  13.350 -0.1876 -1.2675 -0.6049
 4254SOL     OW24220   2.279   4.290  15.240  0.1287  0.0648  0.1068
 4254SOL    HW124221   2.258   4.283  15.147  1.8914 -0.8396 -0.2078
 4254SOL    HW224222   2.294   4.197  15.258 -2.0612  0.1074  2.1593
 4255SOL     OW24223   2.510   2.612   5.017 -0.0298 -0.0372  0.2728
 4255SOL    HW124224   2.600   2.587   5.037 -0.3198 -2.2011 -1.1284
 4255SOL    HW224225   2.483   2.668   5.090 -1.5660  1.8773 -1.7636
 4256SOL     OW24226   0.714   3.887   5.304  0.0234 -0.0580  0.4274
 4256SOL    HW124227   0.668   3.946   5.364  0.2445 -1.8126  2.3215
 4256SOL    HW224228   0.710   3.937   5.222 -3.0104 -1.6521 -0.4231
 4257SOL     OW24229   0.965   0.489   9.995  0.3346 -0.0077  0.6730
 4257SOL    HW124230   0.876   0.511   9.968 -0.6958 -0.5814  3.5592
 4257SOL    HW224231   0.971   0.514  10.087 -0.2275 -0.3779  0.8059
 4258SOL     OW24232   0.491   2.208  11.825  0.0367 -0.1040 -0.4360
 4258SOL    HW124233   0.404   2.245  11.840 -1.3090 -2.1615 -3.0866
 4258SOL    HW224234   0.475   2.117  11.848 -1.5950  0.5838  1.1700
 4259SOL     OW24235   2.910   0.437  15.412 -0.2013  0.4914 -0.2608
 4259SOL    HW124236   2.984   0.497  15.416  0.3785 -0.1700 -1.0537
 4259SOL    HW224237   2.937   0.381  15.339  0.8777 -0.3454  0.7754
 4260SOL     OW24238   4.566   4.337   1.942  0.3532  0.2512  0.1211
 4260SOL    HW124239   4.636   4.361   1.882  2.0878  1.3245  2.5532
 4260SOL    HW224240   4.485   4.349   1.892  0.5155  1.0774  0.0569
 4261SOL     OW24241   0.712   1.044  17.239 -0.0736 -0.0000 -0.0179
 4261SOL    HW124242   0.752   1.005  17.316  1.1257  1.7239  0.2417
 4261SOL    HW224243   0.767   0.996  17.177 -1.6167 -0.4399 -1.0587
 4262SOL     OW24244   2.941   2.208   7.006  0.1027 -0.4199 -0.4295
 4262SOL    HW124245   2.847   2.207   7.022  0.2702  0.6193  0.6329
 4262SOL    HW224246   2.940   2.160   6.923 -0.0164 -0.6030 -0.3233
 4263SOL     OW24247   4.484   1.869   5.377 -0.3678 -0.0851 -0.2878
 4263SOL    HW124248   4.547   1.853   5.448  0.9944  1.1976 -1.2128
 4263SOL    HW224249   4.431   1.943   5.405 -0.5511  0.1115 -1.1621
 4264SOL     OW24250   4.586   2.192   5.235  0.1014 -0.3855  0.3075
 4264SOL    HW124251   4.553   2.193   5.325 -0.1856  2.6626  0.1588
 4264SOL    HW224252   4.674   2.158   5.250  0.7552  1.3179  0.3147
 4265SOL     OW24253   0.738   1.136   9.497  0.2195  0.5414 -0.1093
 4265SOL    HW124254   0.706   1.072   9.561  2.3428 -0.5193 -0.1016
 4265SOL    HW224255   0.832   1.144   9.515 -0.2097  4.9666  0.2060
 4266SOL     OW24256   1.615   3.286   2.783  0.2803 -0.3220  0.2897
 4266SOL    HW124257   1.633   3.240   2.865  0.4550 -0.7297  0.0253
 4266SOL    HW224258   1.699   3.267   2.743  0.9292  2.2826  0.4337
 4267SOL     OW24259   1.323   0.163   8.134 -0.1836 -0.0675 -0.0203
 4267SOL    HW124260   1.328   0.240   8.191  0.6988  1.6258 -2.4132
 4267SOL    HW224261   1.284   0.197   8.054  0.3236  1.3800  0.3529
 4268SOL     OW24262   1.815   0.609   1.877  0.1548  0.7148 -0.4162
 4268SOL    HW124263   1.848   0.647   1.959 -0.4469 -2.4616  1.3233
 4268SOL    HW224264   1.725   0.642   1.882  0.9286  2.9192 -1.0363
 4269SOL     OW24265   1.975   3.133   1.936  0.4066  0.0624 -0.0090
 4269SOL    HW124266   2.042   3.151   1.870  0.2106 -1.4620 -0.6091
 4269SOL    HW224267   2.021   3.166   2.013  0.8802 -0.5951 -0.0144
 4270SOL     OW24268   3.568   3.772   1.562 -0.0433  0.0112  1.0324
 4270SOL    HW124269   3.581   3.684   1.526 -1.9210  0.6259 -1.1284
 4270SOL    HW224270   3.659   3.797   1.572  0.3006 -0.4423 -1.0112
 4271SOL     OW24271   1.663   0.329   4.380  0.2045  0.4134 -0.3440
 4271SOL    HW124272   1.636   0.421   4.384 -0.3774  0.3327 -2.3266
 4271SOL    HW224273   1.724   0.315   4.453  0.2322  2.5737  0.0457
 4272SOL     OW24274   1.105   4.424   1.987  0.0522  0.6037  0.0048
 4272SOL    HW124275   1.169   4.495   1.996 -0.4877  1.1217 -0.2121
 4272SOL    HW224276   1.024   4.464   1.955  0.5626  0.3878 -1.5545
 4273SOL     OW24277   0.333   0.688   3.954 -0.4186  0.1357 -0.1060
 4273SOL    HW124278   0.354   0.605   3.998 -0.6441 -0.0740 -0.3942
 4273SOL    HW224279   0.298   0.668   3.867 -1.4265  0.7656  0.1585
 4274SOL     OW24280   4.613   2.262   6.866  0.7859 -0.0687  0.1954
 4274SOL    HW124281   4.700   2.222   6.871  0.9786  0.5205  1.6786
 4274SOL    HW224282   4.643   2.348   6.897 -1.8817  1.5064 -1.6422
 4275SOL     OW24283   0.741   2.507  12.248 -0.1424 -0.1209 -0.5311
 4275SOL    HW124284   0.721   2.440  12.183 -0.3779 -0.6835  0.1158
 4275SOL    HW224285   0.783   2.575  12.195  2.2399 -0.8639  0.3602
 4276SOL     OW24286   3.356   1.144  16.371 -0.0245  0.3818 -0.4874
 4276SOL    HW124287   3.284   1.133  16.310  1.0663 -0.8671 -1.5454
 4276SOL    HW224288   3.346   1.236  16.393 -3.9991  0.3527 -2.3323
 4277SOL     OW24289   2.935   0.575  12.633  0.3252  0.4808  0.0566
 4277SOL    HW124290   2.951   0.664  12.663  1.9367  0.2841 -0.2358
 4277SOL    HW224291   3.024   0.542  12.620  0.7686  1.3888  0.8303
 4278SOL     OW24292   1.025   0.186  10.086 -0.6389  0.1759  0.2839
 4278SOL    HW124293   0.947   0.226  10.123  0.2484  1.8298  0.3653
 4278SOL    HW224294   1.010   0.187   9.992  0.5219 -0.3415  0.0872
 4279SOL     OW24295   3.464   1.066   8.840  0.1777 -0.1540  0.3236
 4279SOL    HW124296   3.444   0.977   8.812 -0.5025  0.4587 -1.1391
 4279SOL    HW224297   3.402   1.071   8.913  0.1471  2.2759  0.1269
 4280SOL     OW24298   1.962   0.065  10.153  0.7103  0.4229 -0.3016
 4280SOL    HW124299   1.962   4.697  10.154  0.8168  0.3978 -3.0790
 4280SOL    HW224300   1.948   0.094  10.243 -0.0637  0.9877 -0.6012
 4281SOL     OW24301   0.609   1.875  16.498 -0.1335  0.3701  0.3789
 4281SOL    HW124302   0.544   1.892  16.566  0.4139 -0.1261  1.0250
 4281SOL    HW224303   0.637   1.787  16.523 -2.5589 -0.8165 -1.0316
 4282SOL     OW24304   4.202   1.778   6.702  0.0383  0.2218  0.1055
 4282SOL    HW124305   4.109   1.794   6.688 -0.1779  0.0469  1.3504
 4282SOL    HW224306   4.234   1.845   6.641  0.3668 -0.0796 -0.0549
 4283SOL     OW24307   1.746   4.086   8.169 -0.3399  0.0415 -0.0594
 4283SOL    HW124308   1.787   4.048   8.247 -0.2218 -1.1724 -0.7161
 4283SOL    HW224309   1.757   4.181   8.168 -0.4390  0.0347 -2.1839
 4284SOL     OW24310   2.871   3.721   8.948  0.2559  0.2750  0.3031
 4284SOL    HW124311   2.946   3.662   8.958  0.0817  0.0871  0.5075
 4284SOL    HW224312   2.843   3.703   9.038  0.7256 -1.1435  0.1741
 4285SOL     OW24313   1.263   3.048   6.239 -0.3315  0.3506  0.1625
 4285SOL    HW124314   1.286   3.003   6.321 -1.9652 -2.3236 -0.8463
 4285SOL    HW224315   1.308   2.992   6.176 -0.7955  1.1509 -0.8709
 4286SOL     OW24316   0.894   2.488   4.047 -0.3985  0.3571  0.3166
 4286SOL    HW124317   0.804   2.472   4.077  0.0995  0.8373  2.0713
 4286SOL    HW224318   0.872   2.486   3.954  4.2868 -3.1714 -0.6870
 4287SOL     OW24319   2.474   1.376  15.095 -0.0337  0.2291  0.0745
 4287SOL    HW124320   2.418   1.391  15.019  0.5150  1.2138 -0.1407
 4287SOL    HW224321   2.492   1.283  15.080 -0.7430 -0.0463  0.9576
 4288SOL     OW24322   3.589   3.227  15.435  0.1444  0.1819 -0.2682
 4288SOL    HW124323   3.582   3.259  15.346  2.0566  2.7367  0.5080
 4288SOL    HW224324   3.524   3.283  15.477  1.2966  0.2110  1.4886
 4289SOL     OW24325   2.293   2.869   6.781  0.2332  0.7677  0.0504
 4289SOL    HW124326   2.367   2.813   6.806  1.6788  1.4120 -2.8543
 4289SOL    HW224327   2.236   2.795   6.759 -1.4197  2.0391  0.0344
 4290SOL     OW24328   1.701   0.451  10.542  0.7668  0.7288  0.1592
 4290SOL    HW124329   1.759   0.505  10.488  1.4371  0.4709  0.6201
 4290SOL    HW224330   1.626   0.509  10.528  0.4099  0.1677 -0.2416
 4291SOL     OW24331   3.709   3.743   2.428 -0.0485 -0.6718 -0.0171
 4291SOL    HW124332   3.785   3.691   2.456  1.4644  1.3594 -0.3591
 4291SOL    HW224333   3.655   3.669   2.398  0.1509 -0.5107 -0.7777
 4292SOL     OW24334   2.007   4.279   9.154 -0.0099 -0.3492  0.1418
 4292SOL    HW124335   2.061   4.340   9.103 -2.2855  0.8851 -0.8107
 4292SOL    HW224336   2.035   4.293   9.245  1.2551  1.5144 -0.5224
 4293SOL     OW24337   3.820   2.240   4.348  0.0577 -0.6251 -0.2774
 4293SOL    HW124338   3.875   2.206   4.418 -0.3011 -2.3086 -0.8034
 4293SOL    HW224339   3.768   2.170   4.309 -0.1338 -1.3035  1.2050
 4294SOL     OW24340   2.058   2.907   8.284  0.4144 -0.4123 -0.1137
 4294SOL    HW124341   2.067   2.812   8.288  1.8793 -0.2408  0.4966
 4294SOL    HW224342   2.010   2.917   8.366 -0.1744  1.1635 -0.6532
 4295SOL     OW24343   1.798   1.052   8.870 -0.4126 -0.8661  0.6621
 4295SOL    HW124344   1.834   1.136   8.897  0.6517 -1.2628  0.5168
 4295SOL    HW224345   1.849   0.993   8.926 -1.1099 -1.9577  0.1557
 4296SOL     OW24346   1.897   2.833   6.281  0.4247  0.7646 -0.1523
 4296SOL    HW124347   1.945   2.903   6.324  3.2479 -1.8269  0.8408
 4296SOL    HW224348   1.938   2.823   6.195  1.5742 -0.0647  0.4948
 4297SOL     OW24349   4.042   4.557   4.415 -0.1522  0.1620 -0.3480
 4297SOL    HW124350   4.036   4.551   4.320 -2.3672  3.0642 -0.3735
 4297SOL    HW224351   3.958   4.513   4.430 -1.4155  1.9545 -2.3361
 4298SOL     OW24352   0.177   0.831  11.330  0.2059 -0.3636 -0.1129
 4298SOL    HW124353   0.137   0.917  11.316 -2.3260 -1.4406  0.6543
 4298SOL    HW224354   0.234   0.858  11.402  2.5105 -0.9333 -1.7179
 4299SOL     OW24355   4.714   4.698   0.633  0.4258  0.7570 -0.2043
 4299SOL    HW124356   0.043   4.643   0.688 -0.8034 -0.7969 -0.4792
 4299SOL    HW224357   4.664   0.022   0.697 -2.3655 -1.1898 -0.8312
 4300SOL     OW24358   4.079   0.390  17.029  0.1539 -0.5572  0.0129
 4300SOL    HW124359   4.045   0.308  16.995 -0.6001  0.0389 -0.6780
 4300SOL    HW224360   4.126   0.352  17.103  2.6173 -0.8589 -1.7087
 4301SOL     OW24361   4.593   2.417   3.273 -0.0164  0.2890  0.0530
 4301SOL    HW124362   4.625   2.454   3.191  2.3058  0.9238  1.2694
 4301SOL    HW224363   4.542   2.340   3.247  1.5926 -0.4368 -0.9726
 4302SOL     OW24364   4.088   3.283  14.265  0.8535  0.1057 -1.2205
 4302SOL    HW124365   4.113   3.329  14.345  0.0867 -1.5925 -0.0046
 4302SOL    HW224366   4.173   3.266  14.222  0.3116  0.5972 -2.4866
 4303SOL     OW24367   4.261   1.458   7.453  0.4994  0.6327 -0.3864
 4303SOL    HW124368   4.269   1.365   7.431  1.2396  0.6438 -0.1594
 4303SOL    HW224369   4.354   1.481   7.459  0.6728  0.2675 -1.5143
 4304SOL     OW24370   3.176   2.572   5.381 -0.3526  0.2988  0.4496
 4304SOL    HW124371   3.187   2.667   5.371  1.0555  0.2900  2.0433
 4304SOL    HW224372   3.223   2.538   5.305  0.4254  0.1924  0.9830
 4305SOL     OW24373   3.903   1.036  14.346 -0.0655 -0.2769 -0.3583
 4305SOL    HW124374   3.968   1.041  14.416 -1.7935 -0.6930  1.2927
 4305SOL    HW224375   3.888   0.942  14.362 -0.2706 -0.2967 -0.6646
 4306SOL     OW24376   3.527   3.520  14.957  0.1770  0.0216 -0.0668
 4306SOL    HW124377   3.522   3.551  15.048  2.0985  1.5385 -0.4735
 4306SOL    HW224378   3.443   3.553  14.925 -0.2924 -1.0074  0.1178
 4307SOL     OW24379   3.047   2.728   6.797  0.6193  0.1024 -0.8246
 4307SOL    HW124380   3.135   2.708   6.765  0.8454 -0.5259  0.1786
 4307SOL    HW224381   3.002   2.694   6.719 -1.3919 -0.7117  0.6741
 4308SOL     OW24382   0.888   3.356   7.843 -0.0457  0.1838 -0.0699
 4308SOL    HW124383   0.844   3.420   7.786 -0.4410  0.1391  0.1856
 4308SOL    HW224384   0.949   3.410   7.893 -0.7352  1.6709 -0.8394
 4309SOL     OW24385   0.662   2.389   4.143  0.2686  0.0360  0.5619
 4309SOL    HW124386   0.689   2.298   4.131  1.2485  0.4729 -0.5710
 4309SOL    HW224387   0.615   2.390   4.227 -3.0330  3.0649 -1.3486
 4310SOL     OW24388   3.893   2.834  10.411 -0.4858 -0.0642  0.4654
 4310SOL    HW124389   3.866   2.777  10.482 -2.6647  2.0849  1.3940
 4310SOL    HW224390   3.823   2.820  10.347  1.0125 -1.7194 -0.8246
 4311SOL     OW24391   0.595   1.125   7.979 -0.1863 -0.0559 -0.0520
 4311SOL    HW124392   0.587   1.098   7.888  1.4691  1.9195 -0.7679
 4311SOL    HW224393   0.668   1.187   7.978 -1.0458  0.9757  1.2591
 4312SOL     OW24394   2.297   1.524   7.261  0.5721  0.7381  0.8740
 4312SOL    HW124395   2.373   1.468   7.244  0.5683  0.5281  1.5354
 4312SOL    HW224396   2.297   1.504   7.354  0.7080  0.4026  0.8019
 4313SOL     OW24397   4.657   3.680  15.843 -0.0448  0.1162  0.4885
 4313SOL    HW124398   4.649   3.734  15.922  1.4692 -1.2413  1.5892
 4313SOL    HW224399   4.676   3.592  15.877  0.6719  0.2892  0.5323
 4314SOL     OW24400   2.851   2.354   6.296  0.9432 -0.1830 -0.3525
 4314SOL    HW124401   2.909   2.386   6.228  0.6824 -1.2074 -1.0457
 4314SOL    HW224402   2.785   2.423   6.305  0.7380 -0.6335  1.7665
 4315SOL     OW24403   4.190   3.593   7.742  0.1341 -0.7425  0.1054
 4315SOL    HW124404   4.278   3.603   7.704  0.7136 -2.8689  0.9195
 4315SOL    HW224405   4.189   3.670   7.800  1.4826  0.6039 -1.6404
 4316SOL     OW24406   0.868   3.380  16.374 -0.1979 -0.1049  1.0763
 4316SOL    HW124407   0.949   3.426  16.355 -1.4684  1.4728 -0.5654
 4316SOL    HW224408   0.807   3.412  16.307  0.0474  0.5528  1.1686
 4317SOL     OW24409   2.520   2.764  10.104  0.3269 -1.0878  0.5977
 4317SOL    HW124410   2.442   2.741  10.053 -0.5482  0.7099  1.1156
 4317SOL    HW224411   2.479   2.805  10.180 -1.8327 -0.1821 -1.0626
 4318SOL     OW24412   3.427   1.978   9.185 -0.3387  0.1898  0.3222
 4318SOL    HW124413   3.401   1.997   9.275  1.1119  0.6871  0.6365
 4318SOL    HW224414   3.344   1.988   9.138 -0.1245  3.1611  0.5712
 4319SOL     OW24415   3.259   0.382   7.269 -0.8941 -0.9023 -0.4942
 4319SOL    HW124416   3.282   0.393   7.361 -1.6174 -0.2465 -0.3905
 4319SOL    HW224417   3.173   0.424   7.260 -1.4849 -1.9204  0.3675
 4320SOL     OW24418   1.905   0.253   5.900 -0.4132  0.2348 -0.1752
 4320SOL    HW124419   1.849   0.215   5.832 -3.4890 -1.7342  3.4537
 4320SOL    HW224420   1.944   0.321   5.846 -0.0991  2.7939  3.2924
 4321SOL     OW24421   0.527   3.430   1.469 -0.0477 -0.0148 -0.0093
 4321SOL    HW124422   0.464   3.498   1.488  2.4234  2.2299  0.1346
 4321SOL    HW224423   0.471   3.363   1.428 -0.3835 -0.2284  0.8014
 4322SOL     OW24424   0.487   0.530   4.421 -0.3521  0.6488  0.3788
 4322SOL    HW124425   0.412   0.476   4.444  0.6242 -0.3350  1.2596
 4322SOL    HW224426   0.441   0.613   4.432  0.9323  1.5457 -0.9934
 4323SOL     OW24427   0.265   0.290   7.738  0.5622 -0.6105 -0.0755
 4323SOL    HW124428   0.183   0.244   7.718 -0.2057  0.5003  0.5003
 4323SOL    HW224429   0.266   0.360   7.672  2.5207  0.6695  1.3279
 4324SOL     OW24430   3.457   1.478   0.460  0.0401  0.5516  0.7103
 4324SOL    HW124431   3.539   1.455   0.504 -1.8150 -2.0264  2.7935
 4324SOL    HW224432   3.400   1.411   0.497  1.1746  1.0945  3.4214
 4325SOL     OW24433   1.592   1.779   3.182  0.2454 -0.3497  0.1544
 4325SOL    HW124434   1.621   1.812   3.267 -2.5413  1.0124  0.5835
 4325SOL    HW224435   1.669   1.799   3.130 -1.4331 -0.5267 -2.3914
 4326SOL     OW24436   4.036   1.385  17.389  0.0925  0.0383  0.2912
 4326SOL    HW124437   4.039   1.292  17.412 -0.6818  0.1723  0.9170
 4326SOL    HW224438   3.959   1.394  17.332 -1.0337  1.5659  2.0738
 4327SOL     OW24439   1.837   1.118   4.259 -0.2499 -0.0209  0.0250
 4327SOL    HW124440   1.917   1.154   4.221 -0.3236 -1.0396 -1.0806
 4327SOL    HW224441   1.863   1.063   4.333  0.9183  0.3480 -0.1174
 4328SOL     OW24442   1.550   4.352  10.328  0.5142  0.0319 -0.2190
 4328SOL    HW124443   1.470   4.385  10.368  1.2630  2.5416 -0.7980
 4328SOL    HW224444   1.514   4.296  10.259 -1.0095 -0.5795  1.0843
 4329SOL     OW24445   2.729   0.409   5.090 -0.7644  0.1088 -0.4789
 4329SOL    HW124446   2.724   0.389   4.996  0.0009  1.2001 -0.7536
 4329SOL    HW224447   2.794   0.480   5.090  2.0135 -2.4145  0.9742
 4330SOL     OW24448   3.544   2.368   6.716  0.0982 -0.3310 -0.1096
 4330SOL    HW124449   3.596   2.292   6.745 -0.8656 -1.7849 -2.1471
 4330SOL    HW224450   3.480   2.332   6.654  0.6080 -0.4455 -0.5762
 4331SOL     OW24451   0.059   0.322   6.868  0.1007 -0.5089 -0.1380
 4331SOL    HW124452   0.121   0.343   6.938 -1.0585  0.7873  0.4827
 4331SOL    HW224453   4.725   0.278   6.926 -0.3828 -0.1724 -0.3995
 4332SOL     OW24454   3.959   3.267  10.224 -0.4429 -0.1643  0.3730
 4332SOL    HW124455   3.980   3.260  10.317  1.6377  1.2293  0.0236
 4332SOL    HW224456   3.925   3.357  10.221  0.2407 -0.0354 -3.2676
 4333SOL     OW24457   1.993   3.532  14.787  0.7613 -0.4950  0.5579
 4333SOL    HW124458   2.016   3.485  14.867  1.8528 -1.5141 -0.3646
 4333SOL    HW224459   2.038   3.616  14.798 -2.3794  1.0041  2.0007
 4334SOL     OW24460   0.920   3.757  10.403  0.8320  0.1235  0.9065
 4334SOL    HW124461   0.948   3.716  10.485  1.2718  2.3062  1.8369
 4334SOL    HW224462   0.978   3.832  10.395  0.9819 -0.3421 -2.6061
 4335SOL     OW24463   4.274   1.494   3.527 -0.1864 -0.1041  0.7998
 4335SOL    HW124464   4.350   1.474   3.472 -1.0978 -2.2980  0.3353
 4335SOL    HW224465   4.308   1.544   3.601 -0.1166  1.3209 -0.1796
 4336SOL     OW24466   3.182   3.715   5.686  0.3243 -0.4969 -0.1333
 4336SOL    HW124467   3.199   3.808   5.672  0.2221 -0.4552  0.0182
 4336SOL    HW224468   3.088   3.710   5.668  0.1993 -0.3414  0.4582
 4337SOL     OW24469   3.197   0.024   2.801 -0.2450  0.1770  0.2760
 4337SOL    HW124470   3.153   4.667   2.795  0.7724 -0.4061  1.0297
 4337SOL    HW224471   3.159   0.059   2.882  0.0153  1.6520 -0.2277
 4338SOL     OW24472   3.814   3.490  17.486 -0.0980 -0.2789 -0.3015
 4338SOL    HW124473   3.767   3.414  17.519  0.8388 -1.3334 -1.3645
 4338SOL    HW224474   3.756   3.560  17.513 -0.6035 -0.8524  0.0979
 4339SOL     OW24475   1.686   1.627   1.340 -0.0771  0.0485  0.0528
 4339SOL    HW124476   1.653   1.679   1.267 -0.1848 -0.1914 -0.0696
 4339SOL    HW224477   1.748   1.570   1.295 -3.2669 -1.1889 -2.7758
 4340SOL     OW24478   1.280   0.580   0.905 -0.1880  0.1217 -0.2950
 4340SOL    HW124479   1.188   0.553   0.904 -0.0881 -0.2610  0.5861
 4340SOL    HW224480   1.334   0.503   0.888 -1.4044 -0.7376 -0.2928
 4341SOL     OW24481   0.236   0.065   6.080  0.2779  0.6885  0.8368
 4341SOL    HW124482   0.265   0.034   6.166  0.6190 -1.7595 -0.1344
 4341SOL    HW224483   0.309   0.033   6.026  0.6396  0.4190  1.4804
 4342SOL     OW24484   4.342   1.403   4.815 -0.4004 -0.2217 -0.0345
 4342SOL    HW124485   4.431   1.390   4.846 -1.1175 -2.4042  1.0991
 4342SOL    HW224486   4.311   1.468   4.879 -1.1835 -0.7868  0.1619
 4343SOL     OW24487   4.315   0.220   0.377 -0.0380 -0.4225  0.1079
 4343SOL    HW124488   4.325   0.279   0.451 -2.0539  0.8365 -0.6143
 4343SOL    HW224489   4.233   0.266   0.360  0.2088 -0.1715 -0.3857
 4344SOL     OW24490   3.068   2.619   9.238 -0.2388  0.2476  0.2478
 4344SOL    HW124491   2.975   2.595   9.228 -0.4981  0.8109  1.3198
 4344SOL    HW224492   3.075   2.598   9.331  0.8064 -0.2311  0.0616
 4345SOL     OW24493   3.713   2.418   1.929 -0.3129  0.6246  0.1696
 4345SOL    HW124494   3.757   2.343   1.888 -4.4714 -1.7711  0.0222
 4345SOL    HW224495   3.628   2.422   1.885 -0.7534  1.2675  1.0961
 4346SOL     OW24496   1.144   0.485   9.786  0.0542 -0.3706 -0.3091
 4346SOL    HW124497   1.121   0.396   9.759 -0.5864  0.4570 -2.5160
 4346SOL    HW224498   1.084   0.492   9.860 -0.6034  2.3953 -1.0883
 4347SOL     OW24499   2.558   1.822   7.821 -0.5651 -0.1317  0.3237
 4347SOL    HW124500   2.626   1.755   7.827 -0.9448 -0.4129  1.4210
 4347SOL    HW224501   2.617   1.894   7.841 -1.1680  0.2128  0.8480
 4348SOL     OW24502   0.925   2.450   4.303  0.3646 -0.4450  0.9147
 4348SOL    HW124503   0.908   2.455   4.209 -0.1597  1.5117  1.0995
 4348SOL    HW224504   0.849   2.399   4.331 -0.7273  1.0982  0.7739
 4349SOL     OW24505   1.631   4.420   8.941  0.0685 -0.3518 -0.0074
 4349SOL    HW124506   1.662   4.446   9.028  2.2140  1.1646 -1.2135
 4349SOL    HW224507   1.552   4.474   8.940  0.8615  0.8358  1.1351
 4350SOL     OW24508   3.859   1.187  10.924  0.1824 -0.5407  0.1766
 4350SOL    HW124509   3.940   1.236  10.915 -0.2561 -0.0196 -1.0274
 4350SOL    HW224510   3.866   1.128  10.999 -1.1997 -0.1905  0.5860
 4351SOL     OW24511   1.519   2.011  12.731 -0.5863  0.1316  0.1757
 4351SOL    HW124512   1.507   2.033  12.638 -0.5006  1.8561  0.5728
 4351SOL    HW224513   1.598   2.059  12.755 -0.4709 -0.5312  1.1359
 4352SOL     OW24514   0.551   4.217   6.405 -0.5533  0.1135 -0.4778
 4352SOL    HW124515   0.502   4.255   6.478  0.9433  2.1133 -0.5003
 4352SOL    HW224516   0.487   4.155   6.369 -0.4453 -0.9635  1.2124
 4353SOL     OW24517   1.267   3.746   2.596 -0.2412 -0.0212  0.4756
 4353SOL    HW124518   1.345   3.699   2.566  0.1086 -0.4608  2.0240
 4353SOL    HW224519   1.202   3.696   2.547 -0.0195  1.6609 -1.5159
 4354SOL     OW24520   0.357   0.649   3.417 -0.2173  0.4973 -0.0037
 4354SOL    HW124521   0.348   0.555   3.428 -0.5876  0.4388 -0.8429
 4354SOL    HW224522   0.452   0.659   3.418 -0.1082 -0.4345 -1.0993
 4355SOL     OW24523   0.661   4.469  10.218  0.4536 -0.4136  0.4206
 4355SOL    HW124524   0.737   4.412  10.202  2.1344  1.7628  0.6737
 4355SOL    HW224525   0.602   4.403  10.255  1.9457 -1.5640  0.7421
 4356SOL     OW24526   1.411   0.564  15.368 -0.4396  0.3886  0.0312
 4356SOL    HW124527   1.481   0.503  15.394 -2.0774 -1.6277 -0.3274
 4356SOL    HW224528   1.443   0.644  15.410 -0.1101 -0.2033  0.9015
 4357SOL     OW24529   3.911   0.193  16.901  0.2207  0.4838 -0.8063
 4357SOL    HW124530   3.884   0.114  16.854  0.0486 -1.0185  1.8035
 4357SOL    HW224531   3.854   0.187  16.978  1.5458  2.0153  0.3003
 4358SOL     OW24532   2.347   3.332   1.739  0.1262  0.3339 -0.2662
 4358SOL    HW124533   2.383   3.328   1.650  1.9133 -0.4815  0.5171
 4358SOL    HW224534   2.363   3.424   1.763  0.7130  0.2963 -0.5242
 4359SOL     OW24535   0.617   3.302   8.490 -0.0222  0.0080 -0.3401
 4359SOL    HW124536   0.638   3.253   8.570 -2.2662  0.1103  0.3085
 4359SOL    HW224537   0.559   3.369   8.524 -2.5378 -1.6645 -1.2989
 4360SOL     OW24538   1.456   4.407   5.687  0.5168 -0.4106 -0.5106
 4360SOL    HW124539   1.441   4.371   5.600  1.2431  3.1599 -2.1125
 4360SOL    HW224540   1.463   4.501   5.669 -0.3627 -0.1927  0.2914
 4361SOL     OW24541   2.408   2.323   3.121  0.2238 -0.3066 -0.2510
 4361SOL    HW124542   2.413   2.244   3.175 -2.7538  0.8713  1.7651
 4361SOL    HW224543   2.480   2.317   3.059  0.6787  1.2216  0.1279
 4362SOL     OW24544   3.906   3.723   4.358  0.3891 -0.3751  0.3652
 4362SOL    HW124545   3.885   3.796   4.300  0.5873 -0.6226 -0.0177
 4362SOL    HW224546   3.900   3.653   4.293 -1.8734 -0.5458  0.7621
 4363SOL     OW24547   1.610   0.397   2.034 -0.2054  0.2232  0.0332
 4363SOL    HW124548   1.633   0.464   1.969 -1.8759 -0.1556 -0.9446
 4363SOL    HW224549   1.686   0.386   2.091 -0.2598 -2.2515 -0.4057
 4364SOL     OW24550   0.131   0.563   7.660 -0.0056  0.6119  0.7758
 4364SOL    HW124551   0.077   0.639   7.638 -3.1602 -1.2832  2.0231
 4364SOL    HW224552   0.192   0.568   7.586  0.3378 -0.8139  0.9727
 4365SOL     OW24553   4.388   2.344   6.685  0.3154  0.1600  0.2786
 4365SOL    HW124554   4.379   2.439   6.698 -0.0863  0.3066 -1.0360
 4365SOL    HW224555   4.465   2.326   6.739  0.7396  2.1638  0.3532
 4366SOL     OW24556   4.423   4.124   6.783 -0.1941  0.2722 -0.6163
 4366SOL    HW124557   4.342   4.168   6.807  0.2449 -0.1082  1.5993
 4366SOL    HW224558   4.462   4.200   6.740  0.7101 -1.2348 -2.5010
 4367SOL     OW24559   2.865   2.875   0.341 -0.0646  0.6051  0.4757
 4367SOL    HW124560   2.958   2.864   0.322 -0.3260  2.8563 -2.1291
 4367SOL    HW224561   2.830   2.852   0.255 -1.5716  0.4180  1.1383
 4368SOL     OW24562   2.450   0.782   5.185 -0.1051 -0.3975  0.2257
 4368SOL    HW124563   2.482   0.717   5.248 -0.2685  0.7084  1.4474
 4368SOL    HW224564   2.531   0.829   5.167 -0.8805 -0.2533 -2.7835
 4369SOL     OW24565   2.129   3.550   6.840 -0.1545  0.8856 -0.2298
 4369SOL    HW124566   2.084   3.617   6.892  0.8484  1.0051  0.4831
 4369SOL    HW224567   2.104   3.582   6.754  0.8362  0.8410 -0.5273
 4370SOL     OW24568   3.772   2.584  15.885  0.0088  0.1794 -0.2975
 4370SOL    HW124569   3.799   2.675  15.895  1.8558 -0.4045  0.0188
 4370SOL    HW224570   3.860   2.548  15.875  0.3645  0.7349  0.8561
 4371SOL     OW24571   0.461   2.888   6.157  0.2338  0.2080 -0.1532
 4371SOL    HW124572   0.368   2.878   6.137  0.4048 -0.1942 -0.7287
 4371SOL    HW224573   0.473   2.838   6.237  1.3058  0.6849 -0.0179
 4372SOL     OW24574   0.031   1.596  12.471 -0.3023 -0.3100  0.1100
 4372SOL    HW124575   0.030   1.517  12.524  0.1458  0.0214  0.6153
 4372SOL    HW224576   0.082   1.644  12.536 -0.5605  1.3248 -0.8765
 4373SOL     OW24577   1.918   0.564  16.668  0.2170  0.3328 -0.2683
 4373SOL    HW124578   2.011   0.552  16.648  0.3385  0.7468  0.0585
 4373SOL    HW224579   1.933   0.581  16.761 -0.1278  4.3927 -0.9634
 4374SOL     OW24580   4.353   1.674   6.094  0.0324  0.0722 -0.1341
 4374SOL    HW124581   4.356   1.662   5.999 -0.3953 -1.2723  0.0181
 4374SOL    HW224582   4.268   1.716   6.110  1.6572  2.7057  1.5318
 4375SOL     OW24583   4.140   0.220   3.758 -0.6118  0.1230 -0.6493
 4375SOL    HW124584   4.172   0.301   3.719  1.1779 -1.2284 -2.0261
 4375SOL    HW224585   4.204   0.152   3.737  0.7998  1.2602  0.0591
 4376SOL     OW24586   1.544   1.797   4.591  0.6566 -0.4583  0.4304
 4376SOL    HW124587   1.604   1.723   4.583 -0.6977 -1.8192  2.8165
 4376SOL    HW224588   1.561   1.827   4.502  2.7212 -1.0765  0.6048
 4377SOL     OW24589   4.134   3.231   5.392 -0.1027 -0.0390 -0.7215
 4377SOL    HW124590   4.176   3.279   5.463 -0.3038 -0.0514 -0.5926
 4377SOL    HW224591   4.075   3.301   5.363 -1.1272 -1.4730 -2.1252
 4378SOL     OW24592   0.941   3.518  12.220 -0.7190 -0.2255 -0.0799
 4378SOL    HW124593   0.980   3.540  12.135 -2.5966  2.6146 -0.1943
 4378SOL    HW224594   0.996   3.442  12.242  0.5350  0.9228  0.7622
 4379SOL     OW24595   4.002   3.936  11.871 -0.1618 -0.0647 -0.3670
 4379SOL    HW124596   4.088   3.939  11.914  0.2576 -2.8838 -0.9805
 4379SOL    HW224597   3.944   3.920  11.946 -0.9175  2.5658 -0.4121
 4380SOL     OW24598   3.143   2.352  10.683  0.4211 -0.0764  0.4685
 4380SOL    HW124599   3.108   2.264  10.687 -2.9596  1.3398  1.8824
 4380SOL    HW224600   3.073   2.404  10.722 -0.5966 -1.4857  0.4791
 4381SOL     OW24601   2.522   1.067   3.634  0.0541 -0.4534  0.7180
 4381SOL    HW124602   2.504   1.011   3.710  0.1351  0.2320  1.2404
 4381SOL    HW224603   2.534   1.004   3.563 -1.4390 -1.1723  1.1156
 4382SOL     OW24604   1.490   2.386   2.910  0.0009 -0.0582  0.0846
 4382SOL    HW124605   1.548   2.369   2.836 -0.8162 -2.3056 -0.0601
 4382SOL    HW224606   1.537   2.336   2.977 -1.5557 -1.7385 -0.0738
 4383SOL     OW24607   2.152   4.259   8.856  0.3499  0.1330  0.2685
 4383SOL    HW124608   2.192   4.216   8.931 -0.6398  0.3229  0.9094
 4383SOL    HW224609   2.123   4.335   8.907  1.3324  0.5113  0.2597
 4384SOL     OW24610   3.875   0.333  15.944 -0.4326 -0.6612  0.5505
 4384SOL    HW124611   3.894   0.332  16.037 -0.6435  2.4086  0.6092
 4384SOL    HW224612   3.966   0.334  15.915 -0.7629  0.0758 -0.4599
 4385SOL     OW24613   1.816   1.073   2.653  0.3008 -0.3272  0.3991
 4385SOL    HW124614   1.880   1.084   2.723  1.3369 -0.2331 -0.5591
 4385SOL    HW224615   1.823   0.980   2.630  0.2023 -0.2893  0.2168
 4386SOL     OW24616   3.323   1.248   3.317  0.2365  0.3545 -0.7137
 4386SOL    HW124617   3.261   1.287   3.379  2.3040  1.9341  0.3694
 4386SOL    HW224618   3.380   1.203   3.379 -0.6185  1.1029  0.6056
 4387SOL     OW24619   1.321   2.823  12.989  0.2812  0.0921  0.1396
 4387SOL    HW124620   1.247   2.806  13.047  0.8100 -1.6687  0.3056
 4387SOL    HW224621   1.334   2.739  12.945  0.8854  0.3454 -0.1642
 4388SOL     OW24622   0.589   2.492  17.459  0.5695  0.0339  0.2860
 4388SOL    HW124623   0.632   2.487  17.373  0.1773  0.8973  0.0294
 4388SOL    HW224624   0.655   2.527  17.519 -0.2419  3.8420 -1.0058
 4389SOL     OW24625   2.722   4.446   0.582 -0.0105 -0.0233 -0.2388
 4389SOL    HW124626   2.744   4.529   0.623  1.3555  0.0126 -1.0275
 4389SOL    HW224627   2.648   4.409   0.630  0.5713  0.0831  0.7251
 4390SOL     OW24628   4.131   4.340  12.977  0.1547 -0.1449 -0.4255
 4390SOL    HW124629   4.146   4.308  12.889  0.8632 -2.5699  0.5940
 4390SOL    HW224630   4.124   4.257  13.023 -0.6563  1.8592  3.0716
 4391SOL     OW24631   4.602   3.882   4.082 -0.0061 -0.4627 -0.6579
 4391SOL    HW124632   4.577   3.954   4.023  2.7057  0.7255 -0.3573
 4391SOL    HW224633   4.586   3.805   4.027 -0.5999 -1.0072  0.2703
 4392SOL     OW24634   1.621   2.114   4.297 -0.7187  0.4954 -0.1191
 4392SOL    HW124635   1.598   2.206   4.284 -1.4965  0.5128  1.4344
 4392SOL    HW224636   1.686   2.125   4.366 -0.3423 -1.9359 -0.0766
 4393SOL     OW24637   0.377   3.525  11.228 -0.0296 -1.0527  0.1322
 4393SOL    HW124638   0.459   3.567  11.202 -0.5344 -0.3828 -0.3689
 4393SOL    HW224639   0.402   3.482  11.310  0.7442  0.9815  0.9668
 4394SOL     OW24640   0.422   4.456   0.825 -0.1839 -0.4152 -0.8034
 4394SOL    HW124641   0.446   4.364   0.813  1.7175 -0.1354  0.8395
 4394SOL    HW224642   0.497   4.500   0.785 -0.7029  0.2971 -0.9848
 4395SOL     OW24643   2.605   1.178   2.699  0.1608 -0.0195  0.4044
 4395SOL    HW124644   2.537   1.199   2.764 -2.2055 -1.0688 -1.7315
 4395SOL    HW224645   2.557   1.168   2.617  1.1761  0.5018 -0.2456
 4396SOL     OW24646   3.183   2.633   4.912 -0.9325  0.3823  0.1493
 4396SOL    HW124647   3.277   2.642   4.895 -0.5167 -1.9566  1.1227
 4396SOL    HW224648   3.169   2.692   4.986 -0.9265  0.0158  0.4426
 4397SOL     OW24649   0.239   1.860   6.873  0.7346 -0.7268  0.3486
 4397SOL    HW124650   0.255   1.773   6.838  2.1889 -0.8550  1.3093
 4397SOL    HW224651   0.307   1.880   6.938  2.0870  0.0546 -1.3039
 4398SOL     OW24652   0.904   2.991   4.985  0.2066 -0.7410  0.0101
 4398SOL    HW124653   0.905   3.046   4.906 -1.6042 -0.4963  0.1546
 4398SOL    HW224654   0.934   2.906   4.952  0.9919 -0.6076  0.3889
 4399SOL     OW24655   1.339   3.547   6.785  0.0825 -0.7447 -0.7164
 4399SOL    HW124656   1.366   3.620   6.729  0.0536 -0.3900 -0.2693
 4399SOL    HW224657   1.352   3.475   6.724 -1.0463 -1.6137  0.0670
 4400SOL     OW24658   4.621   4.669  12.078  0.3670 -0.7042  0.1493
 4400SOL    HW124659   4.676   0.017  12.056 -1.3897  1.2040  2.3108
 4400SOL    HW224660   4.613   4.691  12.170  0.8268  0.5366 -0.1088
 4401SOL     OW24661   4.509   0.247   2.956  0.1356  0.4888  0.3669
 4401SOL    HW124662   4.475   0.327   2.917  0.5025  0.7282  0.5407
 4401SOL    HW224663   4.422   0.207   2.961  0.3722 -0.2522 -1.4024
 4402SOL     OW24664   3.264   2.700   4.017  0.4741 -0.4600 -0.3861
 4402SOL    HW124665   3.192   2.761   4.001 -0.1781 -0.8905  0.9871
 4402SOL    HW224666   3.217   2.629   4.058  0.1040 -0.1006 -0.1905
 4403SOL     OW24667   1.360   3.329   4.101 -0.1459  0.2795 -0.2466
 4403SOL    HW124668   1.346   3.308   4.009 -3.6369 -1.0821  0.6014
 4403SOL    HW224669   1.325   3.250   4.142  0.0779  0.6394  0.6534
 4404SOL     OW24670   0.427   4.107   3.182  0.3646  0.6661  0.2981
 4404SOL    HW124671   0.458   4.070   3.100  0.6852  1.2895  0.1435
 4404SOL    HW224672   0.459   4.195   3.165  2.1177 -0.4079 -1.9394
 4405SOL     OW24673   3.028   3.231   8.196  1.0067  0.1328 -0.0775
 4405SOL    HW124674   3.092   3.302   8.200  0.8632  0.1635  1.7562
 4405SOL    HW224675   2.970   3.258   8.125 -0.9891  1.1409  1.9363
 4406SOL     OW24676   1.613   4.658   2.066  0.0541  0.3450 -0.3352
 4406SOL    HW124677   1.669   4.703   2.002  1.5943 -2.0334 -0.6606
 4406SOL    HW224678   1.589   4.724   2.131 -0.4719  0.8415 -1.0409
 4407SOL     OW24679   0.213   2.114   7.799 -0.1098  0.1461  0.4141
 4407SOL    HW124680   0.145   2.098   7.864 -1.3162  1.0887 -0.6145
 4407SOL    HW224681   0.258   2.029   7.802 -0.1890  0.1708  2.0902
 4408SOL     OW24682   1.164   3.329  12.396 -0.1482  0.1639 -0.0739
 4408SOL    HW124683   1.093   3.286  12.350 -0.7115  0.9413  0.0665
 4408SOL    HW224684   1.240   3.282  12.362  0.3792  0.4162  0.7558
 4409SOL     OW24685   4.226   1.823   8.097  0.2666  0.3052  0.3220
 4409SOL    HW124686   4.269   1.900   8.059  1.8006  0.3171  2.0544
 4409SOL    HW224687   4.203   1.863   8.181 -0.3198 -1.3248  0.9201
 4410SOL     OW24688   4.462   0.787   2.943 -0.0581 -0.1916 -0.5738
 4410SOL    HW124689   4.379   0.784   2.991  1.8452  0.6213  2.7583
 4410SOL    HW224690   4.488   0.698   2.968  0.9001  0.6417  1.3190
 4411SOL     OW24691   0.444   3.151  10.409 -0.6710  0.3580 -0.2236
 4411SOL    HW124692   0.371   3.113  10.360 -0.9197 -0.4593  0.7978
 4411SOL    HW224693   0.440   3.243  10.383  0.4948  0.1199 -1.2418
 4412SOL     OW24694   4.072   2.115   0.946  0.2518 -0.3677  0.3729
 4412SOL    HW124695   4.018   2.194   0.958  0.6559  0.2289 -1.8051
 4412SOL    HW224696   4.154   2.148   0.981  0.8703 -1.4102 -0.1171
 4413SOL     OW24697   1.818   2.444  12.582 -0.1405 -0.3092  0.2490
 4413SOL    HW124698   1.788   2.455  12.492  0.4503 -0.1629  0.0667
 4413SOL    HW224699   1.751   2.389  12.622  0.4020 -1.2613 -0.1285
 4414SOL     OW24700   0.078   2.024   1.033  0.3486  0.1618 -0.3959
 4414SOL    HW124701   0.164   1.985   1.017  0.1586 -0.1835 -0.5653
 4414SOL    HW224702   0.024   1.945   1.038  0.1183  0.3575  0.2174
 4415SOL     OW24703   2.168   3.906   3.822 -0.0824 -0.1332  0.7539
 4415SOL    HW124704   2.116   3.903   3.742  3.6011 -1.7214 -1.6130
 4415SOL    HW224705   2.256   3.904   3.783  0.0603 -0.4711  1.0827
 4416SOL     OW24706   0.839   4.622  17.497  0.0341  0.2599 -0.2708
 4416SOL    HW124707   0.886   4.538  17.492 -0.4970 -0.0603  0.0936
 4416SOL    HW224708   0.763   4.599  17.444 -0.7491 -3.2272  2.3550
 4417SOL     OW24709   4.498   1.631   4.068 -0.1864 -0.1547  0.2674
 4417SOL    HW124710   4.431   1.695   4.046  1.9617  1.5307 -1.3386
 4417SOL    HW224711   4.523   1.663   4.155  0.7341 -0.4882  0.1223
 4418SOL     OW24712   4.437   2.724  15.569 -0.0356  0.2686 -0.3502
 4418SOL    HW124713   4.369   2.786  15.595 -1.3936 -1.6062  0.5486
 4418SOL    HW224714   4.471   2.755  15.485 -0.9421  0.6470 -0.5721
 4419SOL     OW24715   0.298   0.969   0.510  0.0718 -0.1741  0.0898
 4419SOL    HW124716   0.211   0.946   0.477 -0.4657 -0.4984  1.7540
 4419SOL    HW224717   0.354   0.927   0.445  1.0617 -0.1342  0.9174
 4420SOL     OW24718   2.396   4.681   5.423  0.4313  0.0722 -0.6898
 4420SOL    HW124719   2.339   0.027   5.399 -0.9709 -1.5259 -2.2728
 4420SOL    HW224720   2.477   4.714   5.384  0.0217  2.0776  0.1318
 4421SOL     OW24721   2.601   2.752   3.452 -0.1222  0.3118  0.0243
 4421SOL    HW124722   2.668   2.706   3.402  0.0200  0.6220 -0.0737
 4421SOL    HW224723   2.518   2.729   3.409  0.5477 -2.7338  0.4002
 4422SOL     OW24724   2.050   1.867  10.781 -0.0388  0.0393 -0.0213
 4422SOL    HW124725   2.011   1.936  10.834  0.4163 -0.7773  1.3765
 4422SOL    HW224726   2.119   1.818  10.824 -2.1444 -1.0506  2.1478
 4423SOL     OW24727   2.059   3.845   4.068 -0.3398  0.1514 -0.6129
 4423SOL    HW124728   2.103   3.868   3.986  2.2696 -1.9268  0.2091
 4423SOL    HW224729   1.972   3.878   4.046  0.5201  0.9929 -2.7839
 4424SOL     OW24730   2.612   1.250   7.961  0.0482  0.0319  0.4037
 4424SOL    HW124731   2.624   1.241   8.056 -1.1987  0.1110  0.5713
 4424SOL    HW224732   2.519   1.270   7.961  0.2018  0.7240 -0.7052
 4425SOL     OW24733   4.534   4.024  12.511  0.0027 -0.0091 -0.2465
 4425SOL    HW124734   4.485   4.097  12.548 -0.2103  0.7084 -1.9511
 4425SOL    HW224735   4.596   4.012  12.583  0.2138  2.4521 -0.0234
 4426SOL     OW24736   1.181   3.506   7.011 -0.0737 -0.4451  0.2270
 4426SOL    HW124737   1.087   3.505   6.995  0.0747  0.5954 -0.6924
 4426SOL    HW224738   1.225   3.503   6.926 -0.2336  0.4616  0.1154
 4427SOL     OW24739   2.401   3.348   8.366  0.2841 -0.2589 -0.6303
 4427SOL    HW124740   2.454   3.415   8.409 -0.2440 -1.0954  1.3033
 4427SOL    HW224741   2.386   3.384   8.278  0.1058 -0.7468 -0.7952
 4428SOL     OW24742   2.050   4.264   8.393 -0.0779  0.4971 -0.6276
 4428SOL    HW124743   1.990   4.339   8.392 -0.6116  0.0445 -1.8526
 4428SOL    HW224744   2.125   4.302   8.439 -0.2562 -0.1401  0.1896
 4429SOL     OW24745   4.184   1.960   8.719  0.5311  0.4082 -0.0181
 4429SOL    HW124746   4.270   1.938   8.756  0.8150  1.1537 -0.2321
 4429SOL    HW224747   4.165   1.879   8.672  3.6042 -0.1836 -0.2396
 4430SOL     OW24748   2.240   0.533  12.091 -0.8229  0.1019 -0.4329
 4430SOL    HW124749   2.154   0.573  12.082 -0.9004 -0.0163 -0.2262
 4430SOL    HW224750   2.236   0.486  12.175  0.3682  2.0930  0.7273
 4431SOL     OW24751   3.416   3.787   2.565  0.1179  0.2337 -0.6930
 4431SOL    HW124752   3.376   3.714   2.611  0.4312 -0.3010 -1.2763
 4431SOL    HW224753   3.389   3.866   2.612 -0.4629 -1.1641  1.3249
 4432SOL     OW24754   0.921   0.797   5.773  0.2388  0.0013 -0.2093
 4432SOL    HW124755   0.830   0.786   5.799  0.7518  1.1337  2.0051
 4432SOL    HW224756   0.904   0.805   5.679  1.0734  0.7767 -0.2857
 4433SOL     OW24757   0.216   0.937  10.573 -0.8119  0.1482 -0.2271
 4433SOL    HW124758   0.163   0.911  10.498  0.7308  0.2216 -1.3349
 4433SOL    HW224759   0.148   0.931  10.640 -1.8369 -0.5675 -1.3199
 4434SOL     OW24760   2.126   0.495   4.944 -0.0447 -0.3584 -0.5713
 4434SOL    HW124761   2.184   0.450   4.882 -0.8569  1.4335 -2.6615
 4434SOL    HW224762   2.050   0.494   4.885 -2.0774 -1.3904  2.0931
 4435SOL     OW24763   0.673   1.599   6.638 -0.0135  0.0277 -0.6019
 4435SOL    HW124764   0.734   1.538   6.596 -0.6956 -0.5223 -0.7882
 4435SOL    HW224765   0.609   1.539   6.676 -1.1828  0.6185 -1.6458
 4436SOL     OW24766   3.578   2.486   0.211  0.4857  0.3690 -0.5899
 4436SOL    HW124767   3.607   2.442   0.131 -0.7946 -2.3291  0.4448
 4436SOL    HW224768   3.483   2.483   0.196  0.1635  0.9546  1.4360
 4437SOL     OW24769   4.250   4.503   5.566  0.1308 -0.2448  0.4426
 4437SOL    HW124770   4.159   4.528   5.583 -0.0615 -0.3877 -0.3389
 4437SOL    HW224771   4.242   4.484   5.472  1.5349 -0.8551  0.4563
 4438SOL     OW24772   3.818   0.538  15.735 -0.5097  0.0532 -0.1282
 4438SOL    HW124773   3.881   0.512  15.803 -0.5024 -0.3025 -0.2710
 4438SOL    HW224774   3.742   0.566  15.786 -0.4618 -2.0582  1.0754
 4439SOL     OW24775   2.064   3.597   5.480  0.3966 -0.1204  0.5591
 4439SOL    HW124776   2.038   3.525   5.422 -0.0149 -0.3673  1.0537
 4439SOL    HW224777   2.007   3.667   5.449 -1.3481 -1.3068  1.1372
 4440SOL     OW24778   1.942   1.783   4.383 -0.1717  0.3684 -0.8273
 4440SOL    HW124779   1.999   1.726   4.332 -2.5588 -2.8250  0.0541
 4440SOL    HW224780   1.891   1.724   4.438  0.9282  2.0428  2.0091
 4441SOL     OW24781   3.869   4.118   0.972 -0.0564  0.1702 -1.2474
 4441SOL    HW124782   3.858   4.091   0.881  0.4794 -0.6471 -1.0671
 4441SOL    HW224783   3.920   4.198   0.958  1.9518 -1.0192 -0.6535
 4442SOL     OW24784   0.331   1.773  16.742  0.1156 -0.4287  0.4557
 4442SOL    HW124785   0.236   1.772  16.728  0.1771  0.3589  0.0224
 4442SOL    HW224786   0.347   1.843  16.805  3.7818 -2.2868  1.5796
 4443SOL     OW24787   3.080   0.013   6.712  0.6130 -0.4712 -0.4139
 4443SOL    HW124788   3.175   0.016   6.709  0.5728 -0.6556 -2.5817
 4443SOL    HW224789   3.080   0.049   6.623  1.9189  0.6344  0.0412
 4444SOL     OW24790   4.209   0.648  10.085  0.1669 -0.3779 -0.8101
 4444SOL    HW124791   4.260   0.570  10.064  0.9386  0.3622 -1.6720
 4444SOL    HW224792   4.156   0.607  10.154  1.6068 -0.1653  0.4313
 4445SOL     OW24793   3.698   2.211   3.700  0.3250 -0.1242 -0.1187
 4445SOL    HW124794   3.786   2.250   3.709  1.2703 -2.5411  1.1677
 4445SOL    HW224795   3.659   2.287   3.656  1.1579  1.3809  1.7031
 4446SOL     OW24796   1.429   0.774   8.074  0.0650 -0.1040  0.6959
 4446SOL    HW124797   1.500   0.750   8.133  0.6128  1.0725  0.4963
 4446SOL    HW224798   1.361   0.710   8.099 -1.5914  0.8946 -1.1935
 4447SOL     OW24799   3.837   3.595   9.356  0.0359  0.0333 -0.0098
 4447SOL    HW124800   3.905   3.566   9.296  0.6862 -1.3318  1.3939
 4447SOL    HW224801   3.863   3.533   9.423  3.2343  2.0336  0.5996
 4448SOL     OW24802   0.929   1.183   9.044 -0.1919 -0.2790  0.1451
 4448SOL    HW124803   0.897   1.178   9.134  0.3083  0.2479  0.3553
 4448SOL    HW224804   0.844   1.181   9.000 -0.3690 -1.4052  0.5419
 4449SOL     OW24805   3.444   1.023   2.990  0.0932  0.7734 -0.5239
 4449SOL    HW124806   3.524   0.983   3.025  0.4183  0.5795 -1.5047
 4449SOL    HW224807   3.397   0.962   2.934 -0.8587  1.0084  0.0213
 4450SOL     OW24808   0.829   2.592   7.936 -1.0168 -0.0350  0.2278
 4450SOL    HW124809   0.759   2.642   7.980  0.3028 -0.6691  3.0821
 4450SOL    HW224810   0.901   2.655   7.938  0.1893 -1.3503 -2.6720
 4451SOL     OW24811   4.262   1.039   5.836  0.5155  0.2282 -0.0841
 4451SOL    HW124812   4.180   1.088   5.837  0.6470  0.4147  1.9205
 4451SOL    HW224813   4.318   1.091   5.894  0.2666 -0.0469  0.4071
 4452SOL     OW24814   3.628   3.280   0.282 -0.6085 -0.7211  0.1000
 4452SOL    HW124815   3.559   3.233   0.330 -0.0683 -2.0883 -0.4771
 4452SOL    HW224816   3.602   3.370   0.261 -0.0348 -0.6199 -0.1709
 4453SOL     OW24817   0.205   1.825   4.299 -0.4230 -0.1206 -0.2457
 4453SOL    HW124818   0.155   1.906   4.288  0.7149  0.6407  0.2242
 4453SOL    HW224819   0.220   1.832   4.393  0.6245  1.5165 -0.5360
 4454SOL     OW24820   3.125   0.214   5.095 -0.3975 -0.3310  0.1575
 4454SOL    HW124821   3.121   0.281   5.027 -1.3640 -0.0534  0.4823
 4454SOL    HW224822   3.220   0.209   5.098 -0.3573  0.5880  0.5277
 4455SOL     OW24823   1.085   0.310   3.406  0.1178 -0.4361  1.0397
 4455SOL    HW124824   1.031   0.264   3.342 -1.5853  0.6557  1.6705
 4455SOL    HW224825   1.132   0.370   3.348  0.6552 -1.9610 -0.0709
 4456SOL     OW24826   2.574   3.010   2.273  0.7576 -0.4421 -0.6003
 4456SOL    HW124827   2.493   3.052   2.246 -0.7828 -2.9143  0.1591
 4456SOL    HW224828   2.584   3.039   2.364  1.2816  0.3261 -0.9053
 4457SOL     OW24829   3.207   2.431   0.436  0.8868 -0.2266  0.2367
 4457SOL    HW124830   3.148   2.403   0.367  1.6314  1.0155 -0.8911
 4457SOL    HW224831   3.242   2.348   0.469  0.8152 -0.2093  0.3582
 4458SOL     OW24832   2.663   0.488   8.124 -0.1470 -0.1485 -0.1431
 4458SOL    HW124833   2.584   0.472   8.072 -0.7289  2.4066 -0.0225
 4458SOL    HW224834   2.631   0.513   8.211  0.0252 -1.4807  0.2965
 4459SOL     OW24835   0.326   4.141   6.265 -0.4623  0.5074 -0.3893
 4459SOL    HW124836   0.258   4.144   6.332  0.9251  0.2104  1.0342
 4459SOL    HW224837   0.277   4.105   6.191 -1.6412  1.8082 -0.2296
 4460SOL     OW24838   3.973   0.128   3.523  0.4121 -0.2830 -0.1325
 4460SOL    HW124839   3.989   0.173   3.606 -0.0481 -1.0375  0.3614
 4460SOL    HW224840   4.060   0.098   3.498  0.7045  0.5170 -0.0624
 4461SOL     OW24841   2.593   0.067   2.286  0.3131 -0.3924 -0.0070
 4461SOL    HW124842   2.678   0.036   2.315  0.3180  0.7448  1.2183
 4461SOL    HW224843   2.536   0.069   2.363  1.6157  0.9247  0.9198
 4462SOL     OW24844   3.699   3.823   1.008 -0.4386 -0.0401  0.0370
 4462SOL    HW124845   3.732   3.773   0.934  1.5932  2.4585 -0.7481
 4462SOL    HW224846   3.778   3.867   1.039 -1.2767  1.7057 -0.2816
 4463SOL     OW24847   0.173   0.581  17.606 -0.0876  0.6496  0.2683
 4463SOL    HW124848   0.155   0.670  17.577  0.4186 -0.0679 -2.3198
 4463SOL    HW224849   0.158   0.531  17.526  0.7640 -0.6745  0.9276
 4464SOL     OW24850   4.119   0.420   1.803  0.1068  0.4928 -0.8686
 4464SOL    HW124851   4.120   0.371   1.721 -0.5355 -1.8116  0.4653
 4464SOL    HW224852   4.179   0.491   1.781  1.5044  0.1430  1.7532
 4465SOL     OW24853   2.136   1.076   4.839  0.4388 -0.1585  0.5596
 4465SOL    HW124854   2.050   1.041   4.863  0.0299  1.5695  1.5892
 4465SOL    HW224855   2.192   1.007   4.876 -0.9968 -0.5535  1.9613
 4466SOL     OW24856   1.879   2.470   6.562 -0.1608  0.0236  0.0107
 4466SOL    HW124857   1.831   2.541   6.519 -0.9984 -1.5696 -1.6900
 4466SOL    HW224858   1.966   2.505   6.543 -0.8176  1.7299  0.1153
 4467SOL     OW24859   0.487   1.948   7.044 -0.2483  0.0654  0.9353
 4467SOL    HW124860   0.516   1.931   7.134  0.4448 -2.2001  0.2872
 4467SOL    HW224861   0.528   2.033   7.027  0.5349 -0.3788  0.5908
 4468SOL     OW24862   2.885   3.290   0.314 -0.7319  0.2757 -0.2143
 4468SOL    HW124863   2.839   3.318   0.392 -2.0427 -1.9855 -0.1960
 4468SOL    HW224864   2.817   3.252   0.259 -1.6358  1.6993 -0.0915
 4469SOL     OW24865   3.086   2.991   2.545 -0.3331 -0.1927  0.1951
 4469SOL    HW124866   3.108   3.076   2.507  0.1455 -0.1319  0.5976
 4469SOL    HW224867   3.097   3.010   2.638 -0.8441 -1.0326  0.4292
 4470SOL     OW24868   4.586   3.815   2.805  0.0615  0.6268  0.3960
 4470SOL    HW124869   4.524   3.885   2.826 -0.8437 -0.5228  1.5673
 4470SOL    HW224870   4.543   3.758   2.742  0.6260 -0.5416  1.0722
 4471SOL     OW24871   1.936   2.748   2.741 -0.1349 -0.2848 -0.7868
 4471SOL    HW124872   1.996   2.806   2.788  0.0151 -0.8090 -0.3387
 4471SOL    HW224873   1.878   2.810   2.696 -0.0500  0.8703  0.6884
 4472SOL     OW24874   4.373   3.159   4.039 -0.3817 -0.0226  0.2112
 4472SOL    HW124875   4.346   3.088   4.096 -1.6465  1.1109  1.0385
 4472SOL    HW224876   4.321   3.233   4.073  0.9077  0.5426  0.9504
 4473SOL     OW24877   1.758   2.948  15.133  0.1705  0.2139 -0.3113
 4473SOL    HW124878   1.821   2.955  15.205  0.7429  0.6164 -0.8509
 4473SOL    HW224879   1.676   2.927  15.179 -0.3056  2.0298 -0.2919
 4474SOL     OW24880   1.994   3.482   7.747  0.5335  0.9273 -0.0699
 4474SOL    HW124881   2.010   3.467   7.654  0.2867  0.4929 -0.0400
 4474SOL    HW224882   2.057   3.551   7.769  1.2554  0.5664 -0.9819
 4475SOL     OW24883   4.102   2.113   1.423  0.5099 -0.2216 -0.2068
 4475SOL    HW124884   4.026   2.056   1.413  0.6459 -0.5739  0.7982
 4475SOL    HW224885   4.121   2.080   1.510  0.7006  0.6038  0.0651
 4476SOL     OW24886   3.131   0.346   4.029 -0.5939 -0.1028 -0.2698
 4476SOL    HW124887   3.066   0.410   4.001  2.9233  2.1157 -3.4563
 4476SOL    HW224888   3.209   0.391   3.997 -0.2885  0.6886  1.5954
 4477SOL     OW24889   0.209   3.214  13.053  0.6333 -0.9028 -0.1631
 4477SOL    HW124890   0.293   3.259  13.055 -0.3009  0.8957 -1.2533
 4477SOL    HW224891   0.209   3.159  13.131  0.2081 -3.1435 -1.7140
 4478SOL     OW24892   2.601   0.083   5.308 -0.9386 -0.1755  0.0921
 4478SOL    HW124893   2.689   0.099   5.272  0.2202 -0.8769  2.6044
 4478SOL    HW224894   2.549   0.154   5.271  0.1107  0.7595  0.4065
 4479SOL     OW24895   1.706   2.266   5.280  0.7864  0.1036  0.5548
 4479SOL    HW124896   1.729   2.269   5.187 -3.4990  1.6312 -0.4939
 4479SOL    HW224897   1.617   2.302   5.274  0.1413 -1.4538  0.8057
 4480SOL     OW24898   0.486   1.751   3.548 -0.2190 -0.0014 -0.0895
 4480SOL    HW124899   0.521   1.680   3.603  1.4843  0.5589 -0.4794
 4480SOL    HW224900   0.554   1.760   3.482  0.5605 -2.6938  0.3513
 4481SOL     OW24901   4.122   0.657   4.700  0.4272  0.8429 -0.3593
 4481SOL    HW124902   4.151   0.629   4.614 -0.5540 -0.6250 -0.2213
 4481SOL    HW224903   4.105   0.571   4.739 -0.6790  0.8730 -0.7699
 4482SOL     OW24904   4.507   2.298   8.581 -0.1591 -0.1821  0.0494
 4482SOL    HW124905   4.415   2.281   8.559  0.1442 -0.4229 -1.0483
 4482SOL    HW224906   4.557   2.237   8.527  0.2293 -1.4147  1.8137
 4483SOL     OW24907   2.943   2.420   1.806  0.9284  0.5806  0.2444
 4483SOL    HW124908   2.998   2.357   1.757  0.6092 -0.4072  1.1640
 4483SOL    HW224909   2.976   2.414   1.895  2.4799  2.5792 -0.1940
 4484SOL     OW24910   2.017   3.878   2.436 -0.3994  0.1641  0.0615
 4484SOL    HW124911   2.100   3.912   2.403 -2.7882  3.4435 -2.5716
 4484SOL    HW224912   1.958   3.948   2.408 -1.4018 -0.5331  0.4525
 4485SOL     OW24913   3.869   0.685   6.110  0.2490 -0.1287  0.1386
 4485SOL    HW124914   3.854   0.741   6.034 -1.0764  0.4505  0.8374
 4485SOL    HW224915   3.827   0.743   6.174 -1.2029 -0.1342 -0.8185
 4486SOL     OW24916   1.308   2.331   8.908 -0.5702 -0.2030 -0.1509
 4486SOL    HW124917   1.357   2.380   8.975 -0.3537 -1.3305  0.5110
 4486SOL    HW224918   1.220   2.355   8.937 -0.7682 -0.4563 -0.5543
 4487SOL     OW24919   4.436   2.368   7.416 -0.1166 -0.0175 -0.2239
 4487SOL    HW124920   4.448   2.295   7.356  0.8068  0.1364 -0.2182
 4487SOL    HW224921   4.394   2.333   7.495 -2.8323  1.0169 -1.2081
 4488SOL     OW24922   0.857   4.574   8.669  0.1781  0.0808 -0.0792
 4488SOL    HW124923   0.948   4.550   8.688  0.6395  1.7964 -0.0821
 4488SOL    HW224924   0.836   4.543   8.581  0.3374  0.8708 -0.3976
 4489SOL     OW24925   1.599   2.786   7.144 -0.4345 -0.2738  0.2808
 4489SOL    HW124926   1.604   2.871   7.188  2.1511  0.0556 -0.6696
 4489SOL    HW224927   1.581   2.811   7.053  0.8761 -2.0220 -0.4604
 4490SOL     OW24928   2.825   3.880   4.510 -0.1197 -0.4886  0.1874
 4490SOL    HW124929   2.903   3.845   4.466 -0.2928 -1.5543  0.7146
 4490SOL    HW224930   2.761   3.837   4.453 -0.3408  0.1336 -0.0291
 4491SOL     OW24931   1.209   0.236   0.807  0.4432 -0.3369  0.2686
 4491SOL    HW124932   1.293   0.272   0.835 -0.3056  0.0853  1.9314
 4491SOL    HW224933   1.180   0.196   0.889  1.9221 -2.8388 -0.4360
 4492SOL     OW24934   3.873   4.711   2.909 -0.0505  0.0819 -0.6062
 4492SOL    HW124935   3.890   4.633   2.856  1.2881  1.5950 -2.3635
 4492SOL    HW224936   3.919   4.683   2.989 -1.5163 -1.3541 -0.2607
 4493SOL     OW24937   0.700   4.335   7.295 -0.5314  0.9733 -0.3012
 4493SOL    HW124938   0.770   4.336   7.361  0.3721  1.4800 -1.2822
 4493SOL    HW224939   0.676   4.427   7.287 -1.3702  0.9743  2.0821
 4494SOL     OW24940   0.869   0.246   0.876 -0.1470 -0.1684 -0.0839
 4494SOL    HW124941   0.807   0.247   0.804 -0.8669  0.9226  0.5498
 4494SOL    HW224942   0.910   0.161   0.863  1.6000  0.1206  3.3880
 4495SOL     OW24943   4.701   1.590   7.292  0.5078 -0.0704  0.3120
 4495SOL    HW124944   0.003   1.649   7.361 -0.2805  0.2878  0.3345
 4495SOL    HW224945   0.033   1.611   7.220 -0.8080 -1.4766 -1.1781
 4496SOL     OW24946   3.029   2.836   9.831  0.4635  0.3124 -0.5003
 4496SOL    HW124947   3.025   2.892   9.754 -1.3233  0.5755 -0.2317
 4496SOL    HW224948   2.986   2.755   9.803  2.6749 -0.7958 -0.6522
 4497SOL     OW24949   4.027   1.127   8.652  0.0732 -0.0506  0.3099
 4497SOL    HW124950   4.091   1.173   8.706  0.1223 -0.7887  0.8783
 4497SOL    HW224951   4.068   1.043   8.631  0.4573  0.4831 -1.0180
 4498SOL     OW24952   2.602   3.181  11.877 -0.1903  0.3856 -0.0105
 4498SOL    HW124953   2.575   3.180  11.969  0.5769  1.1730  0.2214
 4498SOL    HW224954   2.679   3.236  11.863  0.8187 -0.6752  1.3959
 4499SOL     OW24955   0.974   2.423   4.835 -0.0812 -0.0033  0.1432
 4499SOL    HW124956   0.893   2.444   4.787 -0.6640  0.0308  1.1552
 4499SOL    HW224957   1.044   2.444   4.773  0.7068 -1.6159  0.4761
 4500SOL     OW24958   0.463   1.153   0.271  0.1630 -0.1141 -0.4967
 4500SOL    HW124959   0.551   1.166   0.306  0.8126 -0.2042 -2.0789
 4500SOL    HW224960   0.418   1.096   0.333 -1.2524  0.3502 -1.1015
 4501SOL     OW24961   1.902   0.925   9.096  0.1307  0.4250  0.2592
 4501SOL    HW124962   1.889   0.835   9.126 -1.1456  0.2162 -0.9400
 4501SOL    HW224963   1.981   0.954   9.142 -0.5763  0.2353  1.5855
 4502SOL     OW24964   3.600   1.465   4.318 -0.3260  0.0791 -0.4922
 4502SOL    HW124965   3.571   1.554   4.299  2.0098  0.3361 -2.9241
 4502SOL    HW224966   3.674   1.481   4.376 -0.9710 -1.8429  0.8460
 4503SOL     OW24967   0.732   2.413   0.385  0.4133  0.8692 -0.6210
 4503SOL    HW124968   0.664   2.479   0.399 -0.7679 -0.1277 -1.5403
 4503SOL    HW224969   0.765   2.413   0.474  0.6832 -1.7735 -0.7052
 4504SOL     OW24970   0.978   3.920   8.722 -0.0051 -0.2097 -0.6385
 4504SOL    HW124971   0.973   4.000   8.670 -2.0969  0.2068  0.2043
 4504SOL    HW224972   0.976   3.957   8.811  0.4544 -1.1838 -0.2133
 4505SOL     OW24973   1.561   1.692  10.247 -0.5343 -0.0081 -0.1107
 4505SOL    HW124974   1.600   1.613  10.210  2.7909  1.9454 -0.7470
 4505SOL    HW224975   1.623   1.711  10.317  0.3878 -0.0440 -0.9149
 4506SOL     OW24976   1.273   4.451   5.889  0.3956  0.1666  0.0053
 4506SOL    HW124977   1.326   4.531   5.890 -1.7072  1.4987  2.7782
 4506SOL    HW224978   1.326   4.402   5.826 -2.2918 -1.5030 -0.9493
 4507SOL     OW24979   4.611   2.956  14.707  0.0301 -0.5315 -0.2164
 4507SOL    HW124980   4.635   3.018  14.638 -1.8678  0.8596  0.3803
 4507SOL    HW224981   4.657   2.995  14.782  0.6044 -0.9566 -0.3488
 4508SOL     OW24982   4.636   3.089  11.878  0.2654  0.8321  0.0833
 4508SOL    HW124983   4.578   3.110  11.804 -0.7863  0.5718  0.8414
 4508SOL    HW224984   4.568   3.043  11.928  0.1486 -0.8210 -1.5858
 4509SOL     OW24985   1.490   4.228   7.000  0.4204  0.1158 -0.1176
 4509SOL    HW124986   1.531   4.235   6.914  0.0283 -0.8182 -0.3763
 4509SOL    HW224987   1.459   4.139   6.987  0.2529  0.5737 -2.7962
 4510SOL     OW24988   2.812   3.997   0.247  0.4788  0.0295 -0.2019
 4510SOL    HW124989   2.889   3.944   0.224  0.9586  0.3542  0.6424
 4510SOL    HW224990   2.798   4.054   0.172  2.2787  0.7137 -0.0280
 4511SOL     OW24991   3.961   1.699   8.243  0.0799  0.4144  1.0158
 4511SOL    HW124992   4.009   1.770   8.285  1.4182 -0.8616  1.6651
 4511SOL    HW224993   4.025   1.672   8.178 -1.5079 -1.4570  0.2198
 4512SOL     OW24994   0.639   2.980   1.256 -0.1883 -0.1796  0.4090
 4512SOL    HW124995   0.568   2.916   1.267  1.1340 -1.4479  1.4707
 4512SOL    HW224996   0.626   3.032   1.335 -2.5510  1.5105 -1.0715
 4513SOL     OW24997   4.702   2.521   0.908  0.2316 -0.6952 -0.5118
 4513SOL    HW124998   0.023   2.592   0.866 -0.1506 -0.9811 -1.4429
 4513SOL    HW224999   0.044   2.490   0.965  0.7945  1.4075 -0.0401
 4514SOL     OW25000   3.456   2.760   2.475 -0.7627 -0.0704  0.9359
 4514SOL    HW125001   3.492   2.798   2.555  0.0553  0.0933  0.4906
 4514SOL    HW225002   3.442   2.835   2.418 -0.8599 -0.0727  0.9561
 4515SOL     OW25003   2.854   1.085   5.387 -0.0810 -0.5319  0.0747
 4515SOL    HW125004   2.864   0.993   5.361  0.5442 -0.9658  1.8292
 4515SOL    HW225005   2.934   1.128   5.359  0.3562 -1.5551 -0.2502
 4516SOL     OW25006   0.715   1.577  17.149 -0.0350 -0.3551  0.0990
 4516SOL    HW125007   0.723   1.482  17.155 -0.7894 -0.2536  2.4304
 4516SOL    HW225008   0.674   1.587  17.063 -0.8627 -3.7194  0.1111
 4517SOL     OW25009   2.446   0.890   3.836  0.2467  0.0042  0.1966
 4517SOL    HW125010   2.507   0.856   3.901  0.9859  2.2287  0.6627
 4517SOL    HW225011   2.427   0.807   3.792 -0.0188 -0.1093  0.5266
 4518SOL     OW25012   1.108   2.760   6.378 -0.4162  0.8050 -0.3132
 4518SOL    HW125013   1.053   2.834   6.405 -0.4927  0.9778 -0.9367
 4518SOL    HW225014   1.194   2.793   6.407  0.2171 -1.6536  0.6011
 4519SOL     OW25015   2.587   2.106   3.839  0.5601  0.3198 -0.2994
 4519SOL    HW125016   2.663   2.164   3.849  0.4998  0.6700 -1.8150
 4519SOL    HW225017   2.623   2.020   3.860  0.6819  0.1273 -1.3225
 4520SOL     OW25018   2.181   4.010   7.814  0.5722  0.4161  0.2302
 4520SOL    HW125019   2.169   4.061   7.733  1.7081 -0.1765 -0.3056
 4520SOL    HW225020   2.135   4.071   7.871 -2.1849 -0.5042 -0.9576
 4521SOL     OW25021   1.863   0.034   3.296 -0.2127  0.2904 -0.5211
 4521SOL    HW125022   1.824   0.025   3.383  1.1064 -0.0228  0.0407
 4521SOL    HW225023   1.805   0.100   3.259 -1.1152  1.3050  2.6449
 4522SOL     OW25024   1.695   4.073   7.178 -0.0735  0.7634  0.1478
 4522SOL    HW125025   1.622   4.032   7.224 -0.2348 -0.1707 -0.9436
 4522SOL    HW225026   1.655   4.128   7.111 -1.4334 -0.0698  0.2893
 4523SOL     OW25027   4.312   2.085   5.431  0.4261  0.2256 -0.8157
 4523SOL    HW125028   4.292   2.169   5.389 -0.6352 -0.7114 -2.1446
 4523SOL    HW225029   4.260   2.022   5.382  0.3974 -0.3853  0.0027
 4524SOL     OW25030   4.342   1.624  14.541  0.3691  0.2852 -0.1227
 4524SOL    HW125031   4.310   1.601  14.454 -0.7405 -2.4937  1.0477
 4524SOL    HW225032   4.410   1.558  14.551  0.4215  0.3406 -0.1126
 4525SOL     OW25033   2.761   0.079   1.508  0.3365 -0.1485  0.1682
 4525SOL    HW125034   2.759   4.711   1.519 -0.7897 -0.1674 -0.1944
 4525SOL    HW225035   2.778   0.085   1.414 -1.6229  0.6878 -0.1293
 4526SOL     OW25036   1.941   1.279   5.045  1.1040  0.1858 -0.5153
 4526SOL    HW125037   2.021   1.253   5.090  0.2769 -2.7658 -0.7515
 4526SOL    HW225038   1.876   1.223   5.089  1.4751 -0.3844 -0.6891
 4527SOL     OW25039   3.763   2.402   7.168  0.4112 -0.4522  0.2730
 4527SOL    HW125040   3.736   2.326   7.220 -0.0233 -0.5428 -0.0816
 4527SOL    HW225041   3.835   2.357   7.124  1.4765  0.8098  0.7256
 4528SOL     OW25042   2.517   1.190   5.988  0.6358 -0.2735 -0.3678
 4528SOL    HW125043   2.514   1.131   5.913  0.3650  0.0596 -0.6233
 4528SOL    HW225044   2.597   1.242   5.981  0.6924 -0.6643 -2.7145
 4529SOL     OW25045   0.788   1.870   2.430  0.4563 -0.5430 -0.6142
 4529SOL    HW125046   0.844   1.870   2.507  1.1164 -0.7578 -1.0981
 4529SOL    HW225047   0.774   1.964   2.421 -0.4189 -0.6820 -0.7379
 4530SOL     OW25048   2.382   1.797   3.838 -0.6854  0.1047  0.0608
 4530SOL    HW125049   2.314   1.730   3.838 -0.3025 -0.2882 -0.0572
 4530SOL    HW225050   2.374   1.851   3.916  0.5941 -1.3199  1.1605
 4531SOL     OW25051   2.908   2.057   9.584  0.0576 -0.5746 -0.1522
 4531SOL    HW125052   2.858   2.037   9.504 -1.3260 -0.6712  0.7310
 4531SOL    HW225053   2.922   1.968   9.617 -1.2293  0.2754  2.6781
 4532SOL     OW25054   0.995   0.304   7.581 -0.6023 -0.4110 -0.2540
 4532SOL    HW125055   0.913   0.349   7.560  0.2147  1.4324  0.4895
 4532SOL    HW225056   0.994   0.317   7.676  0.2740  2.4143 -0.6089
 4533SOL     OW25057   2.235   3.948   9.574  0.2128 -0.4560  0.4933
 4533SOL    HW125058   2.271   4.037   9.563  0.2556 -0.2950  1.9825
 4533SOL    HW225059   2.163   3.954   9.636 -1.4583 -1.5195 -1.3841
 4534SOL     OW25060   4.036   2.572  11.879 -0.4475 -0.4350 -0.0257
 4534SOL    HW125061   4.093   2.508  11.922 -1.2365  0.2151  1.9647
 4534SOL    HW225062   3.948   2.545  11.902  0.1400 -1.3754  1.0928
 4535SOL     OW25063   0.589   0.260   4.227  0.0139  0.4514 -0.4990
 4535SOL    HW125064   0.577   0.208   4.306  2.5601 -1.0359 -1.1049
 4535SOL    HW225065   0.671   0.235   4.185 -0.2470 -1.5523  0.1951
 4536SOL     OW25066   0.439   0.808  10.380 -0.0230 -0.4107  0.2897
 4536SOL    HW125067   0.374   0.871  10.409  1.4779 -0.5267  3.8904
 4536SOL    HW225068   0.496   0.808  10.457 -1.7154 -2.9118  1.5379
 4537SOL     OW25069   1.650   2.374   2.675  0.7228 -0.1436 -1.2385
 4537SOL    HW125070   1.659   2.282   2.650  1.1654 -0.4379 -0.0194
 4537SOL    HW225071   1.741   2.403   2.679  1.4588 -2.7163  1.3046
 4538SOL     OW25072   4.197   1.557   6.486 -1.2262 -0.1073 -0.6876
 4538SOL    HW125073   4.178   1.607   6.566 -0.0821  1.2286 -1.2621
 4538SOL    HW225074   4.168   1.470   6.513 -2.2785  1.3025  2.8112
 4539SOL     OW25075   2.963   0.763  14.858  0.1637  0.1162 -0.1512
 4539SOL    HW125076   2.962   0.706  14.935 -0.6910 -0.6657 -0.7437
 4539SOL    HW225077   2.884   0.740  14.808  0.4062  0.0836 -0.5162
 4540SOL     OW25078   4.215   0.987   6.427  0.4288  0.1882  0.2924
 4540SOL    HW125079   4.201   0.900   6.466  1.1263 -0.2456 -0.4089
 4540SOL    HW225080   4.298   0.969   6.383  2.5288  2.0458  3.4164
 4541SOL     OW25081   3.650   0.109   3.366  0.1912  0.6281  0.2032
 4541SOL    HW125082   3.617   0.022   3.389 -0.2966  1.1441  1.4678
 4541SOL    HW225083   3.618   0.130   3.279 -0.8374  0.6784  0.5850
 4542SOL     OW25084   4.690   2.831  11.701  0.3803  0.3612 -0.5530
 4542SOL    HW125085   4.720   2.828  11.610  2.0957 -1.1892  0.0692
 4542SOL    HW225086   4.595   2.824  11.690  0.4234  1.1264 -1.3806
 4543SOL     OW25087   2.271   0.723  13.271  0.6145 -0.8212 -0.4500
 4543SOL    HW125088   2.268   0.786  13.199  0.0514  0.9299  1.1078
 4543SOL    HW225089   2.330   0.652  13.248  1.3506 -0.5087  0.4610
 4544SOL     OW25090   1.899   4.128   3.684 -0.0233  0.4230  0.2707
 4544SOL    HW125091   1.827   4.090   3.633  0.6632  2.3281 -2.0902
 4544SOL    HW225092   1.972   4.082   3.643 -0.8874 -1.6846  1.0822
 4545SOL     OW25093   0.920   1.908   6.336 -0.4417  0.0710  0.3613
 4545SOL    HW125094   0.849   1.888   6.397 -0.4898 -3.5787 -0.9029
 4545SOL    HW225095   0.969   1.985   6.366 -0.7562  0.0203  1.0061
 4546SOL     OW25096   2.091   3.078   2.421 -0.3971 -0.4865  0.4373
 4546SOL    HW125097   2.082   3.171   2.442  1.5369 -0.4525  1.1401
 4546SOL    HW225098   2.127   3.042   2.503  3.6165 -0.6443 -1.3740
 4547SOL     OW25099   4.416   4.626   3.333 -0.0515  0.0513  0.3680
 4547SOL    HW125100   4.498   4.589   3.366  0.3431 -0.7307 -1.4739
 4547SOL    HW225101   4.433   4.648   3.241 -1.4495 -1.9140 -0.3518
 4548SOL     OW25102   2.782   0.588   6.564 -0.0780 -0.0659 -0.4278
 4548SOL    HW125103   2.750   0.648   6.631 -1.3341  1.4262 -2.3554
 4548SOL    HW225104   2.788   0.653   6.494  1.9578  0.4836  0.2688
 4549SOL     OW25105   4.506   3.115   7.443  0.4556  0.4320  0.1933
 4549SOL    HW125106   4.595   3.127   7.412  0.5400 -0.5958  0.0547
 4549SOL    HW225107   4.467   3.073   7.367 -3.9319 -1.4092  3.4248
 4550SOL     OW25108   3.139   3.450  16.610  0.0756 -0.1741  0.0543
 4550SOL    HW125109   3.140   3.447  16.514 -1.0965 -3.2359  0.1147
 4550SOL    HW225110   3.206   3.384  16.628  0.2051 -0.2876 -0.8361
 4551SOL     OW25111   4.385   3.516  11.533  0.3915 -0.7477 -0.3952
 4551SOL    HW125112   4.319   3.505  11.464  0.5766  0.2060 -0.7300
 4551SOL    HW225113   4.457   3.472  11.488  1.5496  0.9562 -0.2376
 4552SOL     OW25114   3.270   3.835   3.773  0.3522 -0.5908 -0.4412
 4552SOL    HW125115   3.274   3.928   3.793  2.1978 -1.1170  1.5957
 4552SOL    HW225116   3.206   3.831   3.702 -1.3849  1.3060  1.0273
 4553SOL     OW25117   1.384   3.543   7.674 -0.1347 -0.1159 -0.4782
 4553SOL    HW125118   1.466   3.553   7.626 -0.3795 -2.6558 -1.4325
 4553SOL    HW225119   1.393   3.611   7.740  0.1361 -1.4708  0.8794
 4554SOL     OW25120   0.833   4.026  17.363 -0.5133 -0.4782  0.1073
 4554SOL    HW125121   0.840   4.118  17.389  0.4841 -1.1956  2.3956
 4554SOL    HW225122   0.740   4.020  17.386 -0.3194  1.1968  1.3362
 4555SOL     OW25123   2.536   3.560   6.799 -0.3351  0.2201  0.4333
 4555SOL    HW125124   2.628   3.553   6.775  0.4384 -2.1001  4.0236
 4555SOL    HW225125   2.544   3.643   6.847 -0.5996 -0.1794  1.1788
 4556SOL     OW25126   1.022   3.964   5.526 -0.2007  0.6477  0.8304
 4556SOL    HW125127   0.986   3.940   5.612  1.7374 -0.4006  1.3347
 4556SOL    HW225128   0.967   4.041   5.509  0.4742  1.0046  0.2779
 4557SOL     OW25129   4.338   1.627   7.970 -0.1070  0.0198 -0.0631
 4557SOL    HW125130   4.324   1.651   7.879  1.8361  0.7650 -0.1585
 4557SOL    HW225131   4.298   1.705   8.009 -1.3123 -0.7423  0.2419
 4558SOL     OW25132   3.232   2.840  15.964 -0.4573 -0.4177  0.1228
 4558SOL    HW125133   3.257   2.917  16.015 -0.0191 -0.0854 -0.5845
 4558SOL    HW225134   3.272   2.772  16.017  1.2889 -0.4807 -1.2632
 4559SOL     OW25135   2.168   1.229   7.433  0.0997 -0.4037 -0.4699
 4559SOL    HW125136   2.131   1.195   7.515 -1.2617 -1.3144 -1.4647
 4559SOL    HW225137   2.253   1.266   7.458 -1.1412 -0.1867  3.4666
 4560SOL     OW25138   1.929   1.726   9.204 -0.1522 -0.0320  0.1292
 4560SOL    HW125139   1.843   1.686   9.191 -0.4746 -0.4202  3.3653
 4560SOL    HW225140   1.959   1.659   9.264 -0.2490  0.1681  0.4014
 4561SOL     OW25141   1.412   3.225   8.258 -0.2102  0.4942 -0.1521
 4561SOL    HW125142   1.407   3.319   8.244 -3.6017  0.3396 -0.1174
 4561SOL    HW225143   1.347   3.214   8.328 -0.1452 -0.0476 -0.1733
 4562SOL     OW25144   0.368   3.725   3.717 -0.4558  0.2312 -0.0554
 4562SOL    HW125145   0.371   3.796   3.780  2.6279  0.4826 -0.4965
 4562SOL    HW225146   0.462   3.721   3.703 -0.6216  2.2655 -1.6646
 4563SOL     OW25147   4.691   3.932   4.903 -0.2578  0.8193  0.0576
 4563SOL    HW125148   0.057   3.918   4.921  0.0682  2.2988 -0.5565
 4563SOL    HW225149   4.681   3.996   4.833 -0.0895  2.0060  1.1211
 4564SOL     OW25150   1.025   0.768   1.885  0.3017 -0.1347  0.4938
 4564SOL    HW125151   0.938   0.803   1.866  0.2314 -0.3879  0.3457
 4564SOL    HW225152   1.070   0.830   1.942  1.3815  0.3929 -0.9342
 4565SOL     OW25153   2.420   3.536  11.474  0.2051 -0.5417 -0.5116
 4565SOL    HW125154   2.496   3.510  11.421 -0.1854 -1.2882 -0.6986
 4565SOL    HW225155   2.354   3.489  11.423 -0.9003 -0.9410  1.2816
 4566SOL     OW25156   1.736   2.930  12.827 -0.2063  0.3448  0.6472
 4566SOL    HW125157   1.827   2.951  12.805 -0.0992 -1.4461 -0.6751
 4566SOL    HW225158   1.696   3.004  12.782 -0.8467 -0.0864  0.5206
 4567SOL     OW25159   2.454   3.560   3.378 -0.5558 -0.4140 -0.0828
 4567SOL    HW125160   2.413   3.623   3.318 -0.9010  0.0984  0.6826
 4567SOL    HW225161   2.546   3.582   3.365 -0.9942 -0.4660 -3.2359
 4568SOL     OW25162   1.316   0.279  13.603  0.3026  0.2426  0.0587
 4568SOL    HW125163   1.337   0.338  13.676  0.7642  0.7525 -0.4783
 4568SOL    HW225164   1.403   0.275  13.564 -0.1793 -0.2014 -0.9708
 4569SOL     OW25165   1.720   2.123  17.704  0.3470 -0.5923  0.2221
 4569SOL    HW125166   1.747   2.211   0.020  0.7030 -1.3989  2.5331
 4569SOL    HW225167   1.633   2.150  17.674  0.4463 -2.5413 -1.8030
 4570SOL     OW25168   3.013   3.589   2.691 -0.1045 -0.1858  0.1298
 4570SOL    HW125169   2.924   3.577   2.656  0.2923  1.7677 -1.5455
 4570SOL    HW225170   3.059   3.589   2.607 -1.1206  1.2725 -0.4402
 4571SOL     OW25171   3.003   1.272   8.030  0.0385  0.0537 -0.0534
 4571SOL    HW125172   3.080   1.314   7.991  0.4851  1.3134  2.1620
 4571SOL    HW225173   3.010   1.304   8.120  1.2860  3.2646 -1.2742
 4572SOL     OW25174   3.978   3.800  17.702 -0.0749 -0.3824 -0.0243
 4572SOL    HW125175   3.892   3.778  17.667  0.3393 -0.5678 -0.9277
 4572SOL    HW225176   4.032   3.769  17.629  0.5463  2.6177 -0.8380
 4573SOL     OW25177   0.040   2.932   2.441  0.1475 -1.1417  0.3550
 4573SOL    HW125178   0.041   2.837   2.443  0.3466 -1.1227  1.2221
 4573SOL    HW225179   0.131   2.960   2.442 -0.1741 -0.1154  1.1743
 4574SOL     OW25180   1.017   1.515   5.907 -0.0781 -0.1391  0.4333
 4574SOL    HW125181   1.012   1.421   5.927  0.8641  0.3088  2.8167
 4574SOL    HW225182   1.005   1.507   5.813  2.0902  0.3160  0.1091
 4575SOL     OW25183   4.445   0.378   8.044 -0.4706  0.4665  1.2063
 4575SOL    HW125184   4.380   0.313   8.020 -0.2616  1.5019 -2.2521
 4575SOL    HW225185   4.481   0.330   8.118  2.2943 -1.5494 -1.4281
 4576SOL     OW25186   0.844   2.136   6.957  0.1086  0.5506 -0.5966
 4576SOL    HW125187   0.752   2.120   6.979  0.1507 -0.3534 -1.0863
 4576SOL    HW225188   0.876   2.189   7.030  0.9341  0.2230 -0.7232
 4577SOL     OW25189   1.123   2.476   6.853 -0.3727 -0.4697 -0.0026
 4577SOL    HW125190   1.065   2.492   6.928  1.7439 -0.2517  1.5909
 4577SOL    HW225191   1.165   2.561   6.859 -0.8843 -0.2586  0.6628
 4578SOL     OW25192   1.942   3.716   4.603  0.1529 -0.1120  0.0398
 4578SOL    HW125193   1.945   3.644   4.540 -0.4521  0.9469 -1.2056
 4578SOL    HW225194   1.893   3.678   4.676  0.7662 -0.8256  0.0803
 4579SOL     OW25195   4.072   3.975   6.377 -0.2331 -0.3111 -0.4863
 4579SOL    HW125196   4.069   3.897   6.323 -0.4849 -0.8495  0.3090
 4579SOL    HW225197   3.991   3.969   6.429  0.1859 -1.3301  0.0518
 4580SOL     OW25198   0.464   1.686   5.544 -0.1879 -0.0607  0.5279
 4580SOL    HW125199   0.529   1.658   5.480 -0.0957  1.8048 -0.2007
 4580SOL    HW225200   0.498   1.647   5.624  1.0556  0.8026  0.4160
 4581SOL     OW25201   1.880   0.050   4.664  0.1094  0.1299 -0.0188
 4581SOL    HW125202   1.869   4.695   4.617 -3.3224  1.1446 -1.0702
 4581SOL    HW225203   1.867   0.019   4.753 -2.5686  0.4451 -0.2939
 4582SOL     OW25204   4.280   2.961  14.974  0.1220  0.6651 -0.2734
 4582SOL    HW125205   4.286   3.054  14.954 -3.1395  0.7591 -0.7843
 4582SOL    HW225206   4.219   2.938  14.904 -0.0723 -2.9803  1.1054
 4583SOL     OW25207   4.521   3.318   7.177 -0.1316 -0.3090 -0.3360
 4583SOL    HW125208   4.442   3.265   7.176 -0.2734 -0.0894 -0.6697
 4583SOL    HW225209   4.573   3.267   7.115  1.5759  0.4924  0.4160
 4584SOL     OW25210   3.487   2.952   5.525 -0.0982 -0.8333 -0.2874
 4584SOL    HW125211   3.519   2.942   5.615  0.3108  0.9449 -0.2295
 4584SOL    HW225212   3.539   2.889   5.476  0.4196 -1.2032  0.7335
 4585SOL     OW25213   2.715   1.609   3.038  0.1046 -0.4350 -0.1849
 4585SOL    HW125214   2.730   1.697   3.073  0.5402 -0.1495 -1.0816
 4585SOL    HW225215   2.756   1.597   2.952  0.9614 -0.2214  0.1956
 4586SOL     OW25216   1.840   1.039   0.270  0.3047 -0.1548 -0.2875
 4586SOL    HW125217   1.776   1.013   0.204  0.0001 -0.3888  0.1037
 4586SOL    HW225218   1.801   1.123   0.295 -0.1979 -0.0618 -1.3809
 4587SOL     OW25219   0.359   1.336   6.335  0.2907  0.2790  0.2677
 4587SOL    HW125220   0.423   1.336   6.263  1.1833 -1.9081  1.0712
 4587SOL    HW225221   0.358   1.430   6.354 -0.2638  0.0090  1.5351
 4588SOL     OW25222   2.848   2.773   4.658  0.1262  0.2059  0.0855
 4588SOL    HW125223   2.861   2.758   4.751  1.4160  0.9153  0.0098
 4588SOL    HW225224   2.871   2.684   4.632  1.3151  0.8876 -1.2018
 4589SOL     OW25225   1.855   1.818  11.884 -0.5378  0.4067 -0.3026
 4589SOL    HW125226   1.850   1.903  11.928  0.1978  0.0079  0.5513
 4589SOL    HW225227   1.904   1.828  11.803 -0.6134  0.1983 -0.3747
 4590SOL     OW25228   1.591   0.160   3.136  0.0941 -0.0449 -0.1256
 4590SOL    HW125229   1.564   0.071   3.157 -0.7096  0.4178  0.8344
 4590SOL    HW225230   1.560   0.215   3.209  1.1846  1.6351 -0.9279
 4591SOL     OW25231   1.461   2.168  17.693  0.4953  0.1258  0.0603
 4591SOL    HW125232   1.389   2.104  17.686  0.0714  0.7491 -1.2477
 4591SOL    HW225233   1.411   2.249  17.685  0.1850 -0.0560  0.1550
 4592SOL     OW25234   3.842   2.300   4.010  0.1353  0.3326 -0.0140
 4592SOL    HW125235   3.864   2.350   4.089  2.1950  0.4581 -0.6519
 4592SOL    HW225236   3.797   2.369   3.962 -0.5399 -0.5175 -0.5884
 4593SOL     OW25237   2.322   2.472  10.509 -0.2350 -0.2850  0.7496
 4593SOL    HW125238   2.286   2.383  10.513 -1.8976  0.3725  0.5828
 4593SOL    HW225239   2.403   2.464  10.559  0.4142 -0.5586 -0.3674
 4594SOL     OW25240   1.098   3.705  13.662  0.6806  0.1087 -0.2462
 4594SOL    HW125241   1.080   3.679  13.571  0.1305  1.2029 -0.4496
 4594SOL    HW225242   1.176   3.656  13.689  0.8474  0.0575 -0.8044
 4595SOL     OW25243   0.546   0.598   7.351 -0.1456 -0.2226  0.1377
 4595SOL    HW125244   0.504   0.593   7.266  1.4846  0.2394 -0.6933
 4595SOL    HW225245   0.628   0.645   7.333 -0.7335 -0.1051 -2.1830
 4596SOL     OW25246   3.750   2.015   9.407  0.4112  0.0722 -0.9163
 4596SOL    HW125247   3.799   2.097   9.399  2.2965 -0.9556 -0.0309
 4596SOL    HW225248   3.773   1.993   9.498  1.4781  3.2553 -0.4307
 4597SOL     OW25249   0.539   4.079   2.418 -0.3045  0.2775 -0.4042
 4597SOL    HW125250   0.612   4.119   2.465  0.5652  0.0387 -1.5461
 4597SOL    HW225251   0.475   4.133   2.464 -0.3348 -0.4196  0.3645
 4598SOL     OW25252   1.025   3.936   9.144  0.0564 -0.5311 -0.2199
 4598SOL    HW125253   1.059   3.877   9.211  0.4851  0.6850  0.6454
 4598SOL    HW225254   1.089   3.933   9.073 -0.1083  1.4573 -0.4648
 4599SOL     OW25255   2.429   3.587   5.066  0.4295  0.6381  0.9039
 4599SOL    HW125256   2.415   3.558   4.976 -0.8487  0.7619  1.0663
 4599SOL    HW225257   2.477   3.516   5.109 -0.6940 -0.4021  0.4343
 4600SOL     OW25258   1.379   1.357  17.028 -0.4359 -0.6343 -0.1784
 4600SOL    HW125259   1.295   1.333  16.990 -0.0320  1.4593 -2.4869
 4600SOL    HW225260   1.373   1.333  17.120  1.1939 -0.5713 -0.0589
 4601SOL     OW25261   0.821   1.980  15.417  0.0862  0.2809  0.3403
 4601SOL    HW125262   0.872   1.901  15.399  0.3204  0.5709 -0.2660
 4601SOL    HW225263   0.870   2.017  15.491 -0.7756 -0.4291  1.2569
 4602SOL     OW25264   0.287   4.330   3.873  0.5021  0.0663 -0.6118
 4602SOL    HW125265   0.234   4.353   3.797 -0.7431 -0.5521  0.0640
 4602SOL    HW225266   0.369   4.369   3.843  0.5767  1.0913  0.9358
 4603SOL     OW25267   4.675   3.235  15.477 -0.4280 -0.3905 -0.2821
 4603SOL    HW125268   4.628   3.198  15.402  0.5076 -2.9523  0.3909
 4603SOL    HW225269   4.672   3.329  15.458 -1.9090 -0.6240 -1.2452
 4604SOL     OW25270   3.147   1.065   3.148  0.7681 -0.2978 -0.9068
 4604SOL    HW125271   3.228   1.101   3.183  0.7524 -0.6809 -0.4826
 4604SOL    HW225272   3.166   0.974   3.171  0.6272  0.2616  1.4051
 4605SOL     OW25273   0.862   1.452   2.855 -0.4329  0.4254  0.2870
 4605SOL    HW125274   0.935   1.466   2.795  1.4159 -3.2254  1.7196
 4605SOL    HW225275   0.787   1.450   2.795  0.3050 -1.5597 -0.5628
 4606SOL     OW25276   2.301   2.199   7.794  0.1616  0.6422  0.0930
 4606SOL    HW125277   2.361   2.208   7.868 -0.5122  1.8929  0.4849
 4606SOL    HW225278   2.363   2.198   7.721 -2.6282  2.4739 -2.3342
 4607SOL     OW25279   0.377   1.391   0.104 -0.5836 -0.0416  0.0424
 4607SOL    HW125280   0.401   1.335   0.178 -1.3502 -0.2264  0.1453
 4607SOL    HW225281   0.384   1.327   0.033  0.2047  1.6606 -1.4110
 4608SOL     OW25282   4.274   2.758   7.049  0.0973  0.2363  0.2013
 4608SOL    HW125283   4.198   2.814   7.065 -1.3515 -1.6065 -0.3578
 4608SOL    HW225284   4.250   2.681   7.099 -0.2837 -0.4715 -1.0727
 4609SOL     OW25285   1.316   2.292   9.295  0.1827 -0.5048 -0.0523
 4609SOL    HW125286   1.387   2.256   9.349 -1.0824 -1.2474  1.1274
 4609SOL    HW225287   1.245   2.271   9.356 -1.0007  1.1229 -0.8774
 4610SOL     OW25288   2.005   2.715  15.389  0.0041 -0.7908  0.0993
 4610SOL    HW125289   1.915   2.738  15.411 -0.0884 -1.3490  0.3015
 4610SOL    HW225290   2.002   2.731  15.295  0.5908  0.5834  0.3074
 4611SOL     OW25291   2.827   2.599   9.137  0.0750 -0.0171  0.5268
 4611SOL    HW125292   2.864   2.565   9.055  2.2575  1.2472  0.9954
 4611SOL    HW225293   2.755   2.536   9.143 -0.3708  0.3068 -1.2391
 4612SOL     OW25294   0.500   4.308   1.478 -0.0351 -0.1045  0.1381
 4612SOL    HW125295   0.415   4.312   1.435 -0.3826  1.8788  1.0060
 4612SOL    HW225296   0.552   4.253   1.419  0.4920  1.1968 -0.6012
 4613SOL     OW25297   0.787   3.996   4.676  0.1125 -0.3664 -0.4821
 4613SOL    HW125298   0.820   3.984   4.765  0.3783  0.6390 -0.4400
 4613SOL    HW225299   0.865   4.033   4.636  1.3452 -2.2373  0.2238
 4614SOL     OW25300   1.082   4.602   7.936  0.2637  0.1128  0.0244
 4614SOL    HW125301   1.106   4.619   8.027 -0.2409  1.0009 -0.0023
 4614SOL    HW225302   0.991   4.630   7.944  0.5740  1.1425 -0.0279
 4615SOL     OW25303   3.934   3.598   2.111 -0.3631 -0.7749 -0.2472
 4615SOL    HW125304   4.010   3.655   2.098  0.7502 -2.1279  0.3281
 4615SOL    HW225305   3.903   3.640   2.191 -2.0557 -1.3109 -0.6401
 4616SOL     OW25306   1.929   2.294   9.108 -0.4128  0.3574 -0.2163
 4616SOL    HW125307   2.011   2.250   9.130 -0.5641 -0.4783 -1.3431
 4616SOL    HW225308   1.872   2.242   9.165 -0.5087  0.5826 -0.1073
 4617SOL     OW25309   3.449   1.183   6.967 -0.3278 -0.2079  0.4302
 4617SOL    HW125310   3.470   1.229   6.885  2.4551 -3.0363 -0.4656
 4617SOL    HW225311   3.492   1.237   7.033  0.3032 -0.7132  0.4311
 4618SOL     OW25312   3.349   2.550  10.470  0.0591  0.1495  0.5107
 4618SOL    HW125313   3.415   2.482  10.457 -0.4408  0.2059 -2.2959
 4618SOL    HW225314   3.365   2.579  10.560  0.8703  1.7427 -0.1403
 4619SOL     OW25315   3.811   3.672   6.980  0.7482 -0.8886 -0.6222
 4619SOL    HW125316   3.851   3.757   6.998  1.1470 -0.9793 -1.1072
 4619SOL    HW225317   3.777   3.690   6.893 -0.3809  0.4292  0.0853
 4620SOL     OW25318   3.201   4.175   4.599 -0.3245  0.2083 -0.0567
 4620SOL    HW125319   3.189   4.095   4.547 -2.9549  0.5616 -0.0092
 4620SOL    HW225320   3.294   4.166   4.620  0.1265  2.5195 -1.0391
 4621SOL     OW25321   1.173   0.485  10.717 -0.2770 -0.3026 -0.0069
 4621SOL    HW125322   1.086   0.478  10.755 -0.4950 -0.6642 -0.5595
 4621SOL    HW225323   1.198   0.398  10.750  1.4287 -0.4561 -1.6562
 4622SOL     OW25324   4.321   1.934   2.685  0.4557 -0.0894  0.1780
 4622SOL    HW125325   4.275   1.985   2.618  0.4985 -1.3712 -0.8405
 4622SOL    HW225326   4.291   1.849   2.654 -0.1232  0.5852 -1.1301
 4623SOL     OW25327   0.701   1.345   3.360 -0.5168 -0.1560  0.0420
 4623SOL    HW125328   0.788   1.361   3.325 -0.5346  2.6122  1.2346
 4623SOL    HW225329   0.710   1.271   3.420  0.6885 -0.0501 -0.0184
 4624SOL     OW25330   0.351   3.216  11.152  0.1078 -0.3182  0.1125
 4624SOL    HW125331   0.283   3.266  11.198  1.7392  0.7362  1.3703
 4624SOL    HW225332   0.405   3.284  11.112  0.4467 -0.1518  0.8572
 4625SOL     OW25333   2.417   2.280   9.063  0.1320 -0.0586  0.4821
 4625SOL    HW125334   2.403   2.186   9.051  1.0284 -0.3924  2.0065
 4625SOL    HW225335   2.400   2.285   9.157 -2.3449 -1.3737  0.1176
 4626SOL     OW25336   3.135   2.319   4.909 -0.2741 -0.1830 -0.2721
 4626SOL    HW125337   3.140   2.414   4.906  0.3365 -0.2101 -0.0374
 4626SOL    HW225338   3.045   2.300   4.881  0.2883 -1.1210 -1.4425
 4627SOL     OW25339   0.339   3.024   6.626 -0.1660  0.1958 -0.4163
 4627SOL    HW125340   0.310   3.107   6.665  0.3730  0.2743 -0.1883
 4627SOL    HW225341   0.319   2.964   6.698 -1.2959  0.4597 -0.5025
 4628SOL     OW25342   2.269   0.667   3.288 -0.3412  0.2979  0.0801
 4628SOL    HW125343   2.323   0.608   3.341 -0.5201 -0.9158 -1.0904
 4628SOL    HW225344   2.223   0.729   3.345 -1.7561 -0.9696  0.3173
 4629SOL     OW25345   4.007   3.972   8.321  0.5197 -0.0086  0.0726
 4629SOL    HW125346   4.012   3.921   8.240  0.2956  0.2048 -0.0755
 4629SOL    HW225347   4.071   4.042   8.310  1.7458 -1.2739 -0.8982
 4630SOL     OW25348   3.836   1.957   1.765  0.5395 -0.1426 -0.2458
 4630SOL    HW125349   3.751   1.928   1.797  0.1508  1.5965  0.3143
 4630SOL    HW225350   3.818   2.051   1.761  0.8992 -0.1075 -1.0657
 4631SOL     OW25351   1.446   0.234   6.571 -0.1266 -0.2117 -0.4522
 4631SOL    HW125352   1.378   0.229   6.639  0.1924  0.3514 -0.0939
 4631SOL    HW225353   1.435   0.151   6.524 -0.0114 -0.1944 -0.5097
 4632SOL     OW25354   0.116   3.345   5.041 -0.1107  0.1038  0.3207
 4632SOL    HW125355   0.198   3.297   5.049 -0.5600 -0.5312  1.1736
 4632SOL    HW225356   0.059   3.315   5.112  1.9563 -0.2368  1.8377
 4633SOL     OW25357   0.967   1.782   3.173 -0.1483 -0.4638 -0.2099
 4633SOL    HW125358   1.043   1.819   3.218  0.5359  0.8458 -2.4365
 4633SOL    HW225359   0.954   1.721   3.245 -1.2182 -0.6404 -0.5588
 4634SOL     OW25360   0.602   3.654  11.098 -0.4089  0.3121 -0.1077
 4634SOL    HW125361   0.605   3.644  11.002  0.5394 -1.7863  0.1424
 4634SOL    HW225362   0.668   3.724  11.101  1.3412 -1.2917 -0.7915
 4635SOL     OW25363   3.930   1.478   2.271  0.1862 -0.5308  0.2676
 4635SOL    HW125364   3.868   1.455   2.339 -1.7104 -0.6860 -1.4969
 4635SOL    HW225365   4.004   1.508   2.324 -2.0199  0.4426  2.7692
 4636SOL     OW25366   1.626   1.305  16.950 -0.6854 -0.1409 -0.1874
 4636SOL    HW125367   1.536   1.323  16.977 -0.9383  0.5962 -1.5220
 4636SOL    HW225368   1.663   1.383  16.993 -0.4129 -1.2229  1.5184
 4637SOL     OW25369   0.191   0.720   7.429 -0.3456  0.1728  0.0318
 4637SOL    HW125370   0.277   0.744   7.392  0.0038 -0.1288  0.6513
 4637SOL    HW225371   0.139   0.777   7.373 -2.9420 -0.0339  2.2537
 4638SOL     OW25372   1.097   1.130   1.123 -0.3838 -0.4407  0.2303
 4638SOL    HW125373   1.041   1.207   1.120  0.1669 -0.1176 -1.4955
 4638SOL    HW225374   1.146   1.145   1.204 -1.7871 -0.3307  1.0603
 4639SOL     OW25375   4.156   2.098  15.129  0.3813  0.5574  0.2303
 4639SOL    HW125376   4.195   2.179  15.161  2.8295 -0.1116 -1.0911
 4639SOL    HW225377   4.143   2.129  15.040 -0.2834  0.6252  0.3511
 4640SOL     OW25378   2.595   2.858   0.579  0.5064 -0.2546 -0.1795
 4640SOL    HW125379   2.688   2.854   0.600  0.5606  0.4498 -0.2718
 4640SOL    HW225380   2.557   2.786   0.629  1.2268 -1.3455 -1.2175
 4641SOL     OW25381   0.822   2.965  16.989  0.3301  0.0936 -0.9304
 4641SOL    HW125382   0.834   3.043  16.935  0.9245  0.3476 -0.4346
 4641SOL    HW225383   0.732   2.940  16.966 -0.9124  3.6087  0.0978
 4642SOL     OW25384   3.635   1.639   6.846 -0.3774  0.1719 -0.1038
 4642SOL    HW125385   3.714   1.594   6.876 -0.4887  0.5475  0.7557
 4642SOL    HW225386   3.585   1.561   6.821 -1.3122  0.9027 -0.4965
 4643SOL     OW25387   4.278   4.477   4.482 -0.2712 -0.4978  0.1512
 4643SOL    HW125388   4.352   4.470   4.421 -0.0232 -2.3699  0.6920
 4643SOL    HW225389   4.209   4.517   4.429  0.3854 -0.7488 -0.8916
 4644SOL     OW25390   0.144   0.308  12.305  0.4173  0.0200  0.4409
 4644SOL    HW125391   0.116   0.397  12.282 -1.2286 -1.0859 -1.7477
 4644SOL    HW225392   0.236   0.309  12.281 -0.2931  1.5389 -2.1291
 4645SOL     OW25393   0.066   3.154   4.611 -0.2440 -0.0883  0.1907
 4645SOL    HW125394   0.034   3.226   4.558 -1.8853 -0.8272  0.1887
 4645SOL    HW225395   0.017   3.157   4.693 -1.2621  2.3928 -0.4950
 4646SOL     OW25396   3.053   4.310   0.735  0.4950 -0.2657  0.0864
 4646SOL    HW125397   3.100   4.392   0.754 -1.6486  1.0228 -0.2059
 4646SOL    HW225398   3.080   4.290   0.646 -1.5748  2.3251 -1.1266
 4647SOL     OW25399   1.408   1.704   2.554 -0.1985 -0.3246  0.4051
 4647SOL    HW125400   1.353   1.646   2.501 -2.7623  2.5560 -0.0729
 4647SOL    HW225401   1.428   1.647   2.628  2.6913  0.3644  0.1423
 4648SOL     OW25402   2.758   0.379   4.824 -0.2466  0.8952  0.1098
 4648SOL    HW125403   2.697   0.331   4.768  0.6867 -0.3235  0.1426
 4648SOL    HW225404   2.839   0.335   4.798  0.7919  1.5341  2.2919
 4649SOL     OW25405   3.476   1.987   7.256  0.1416  0.3188 -0.5558
 4649SOL    HW125406   3.490   1.904   7.210  1.0034 -0.4471  1.0949
 4649SOL    HW225407   3.416   1.961   7.325  1.0183  0.4742  0.2584
 4650SOL     OW25408   3.371   2.561   1.552  0.4426  0.1260 -0.0901
 4650SOL    HW125409   3.362   2.632   1.489 -0.3723  1.2498  1.2882
 4650SOL    HW225410   3.380   2.623   1.624  0.7719 -0.4110  0.3365
 4651SOL     OW25411   1.163   2.412  12.038 -0.3592 -0.4103 -0.1638
 4651SOL    HW125412   1.148   2.442  12.127 -0.6667 -2.6105  0.5340
 4651SOL    HW225413   1.259   2.411  12.043 -0.2640  0.9642 -1.8133
 4652SOL     OW25414   4.698   4.357   8.031 -0.1441  0.1174 -0.2549
 4652SOL    HW125415   0.054   4.326   7.995  1.4841  3.0757  0.9870
 4652SOL    HW225416   4.723   4.419   8.100  1.1976 -1.4660  0.6687
 4653SOL     OW25417   0.632   0.949  11.846 -0.4325  0.3959 -0.1944
 4653SOL    HW125418   0.654   0.947  11.939 -0.4514  0.0770 -0.1974
 4653SOL    HW225419   0.675   0.865  11.828  0.8169  0.8350  0.7487
 4654SOL     OW25420   4.270   3.806   4.829 -0.4682 -0.5012 -0.6635
 4654SOL    HW125421   4.322   3.765   4.761 -0.8040 -1.8881 -0.0831
 4654SOL    HW225422   4.332   3.814   4.902 -1.5264  1.1339  0.0577
 4655SOL     OW25423   1.432   1.463   4.831  0.5215 -0.2672 -0.1198
 4655SOL    HW125424   1.428   1.404   4.907 -2.3061 -0.5677 -0.5077
 4655SOL    HW225425   1.524   1.448   4.809  0.7974  1.9452 -0.4955
 4656SOL     OW25426   0.020   3.650   6.656  0.2429 -0.3884 -0.6568
 4656SOL    HW125427   4.726   3.629   6.566 -3.0823  0.2096  0.0100
 4656SOL    HW225428   4.675   3.710   6.671 -0.1411 -1.1542  0.5769
 4657SOL     OW25429   3.160   2.249   1.730  0.3074 -0.5406  0.1151
 4657SOL    HW125430   3.189   2.238   1.821 -0.2524 -1.6948  0.1538
 4657SOL    HW225431   3.125   2.162   1.710 -1.9607  0.2409  0.6825
 4658SOL     OW25432   1.622   1.445   8.647 -0.3607 -0.6029 -0.1319
 4658SOL    HW125433   1.666   1.489   8.720  0.8326 -0.4886 -0.9160
 4658SOL    HW225434   1.702   1.409   8.609  1.1063  2.3552  0.1615
 4659SOL     OW25435   1.667   2.824   7.999  0.2646  0.1039 -0.2666
 4659SOL    HW125436   1.594   2.884   7.986  0.0739 -0.2989 -1.0530
 4659SOL    HW225437   1.725   2.896   8.022  0.4510 -0.0025 -0.4051
 4660SOL     OW25438   0.387   4.174   4.294  0.1007 -0.3984  0.0790
 4660SOL    HW125439   0.346   4.100   4.249 -1.2134  0.2976  0.1585
 4660SOL    HW225440   0.461   4.130   4.336  1.1388  1.5105  0.2704
 4661SOL     OW25441   2.673   2.340   5.034  0.4590  0.0351 -0.4673
 4661SOL    HW125442   2.714   2.345   5.121 -1.0494 -2.2429  0.3658
 4661SOL    HW225443   2.609   2.271   5.052 -0.0978  0.3388 -1.2895
 4662SOL     OW25444   0.533   1.585   8.511  0.1883 -0.0043 -0.2014
 4662SOL    HW125445   0.549   1.636   8.432  0.7158  1.1226  0.6371
 4662SOL    HW225446   0.456   1.541   8.475  0.8645 -2.6682  1.6360
 4663SOL     OW25447   4.665   1.224   8.514 -0.4006 -0.0368  0.1258
 4663SOL    HW125448   4.667   1.204   8.607 -1.6433 -0.3579  0.0879
 4663SOL    HW225449   0.009   1.167   8.489 -0.0185  0.2350  0.6116
 4664SOL     OW25450   1.515   4.553   0.442  0.9572  0.2131  0.2094
 4664SOL    HW125451   1.502   4.563   0.537  2.1269 -0.9834  0.4907
 4664SOL    HW225452   1.422   4.552   0.418  0.3052 -0.7135  2.7065
 4665SOL     OW25453   0.892   3.860  12.549  0.4329  0.3789  0.5923
 4665SOL    HW125454   0.928   3.899  12.469 -3.0900  1.6223 -0.3972
 4665SOL    HW225455   0.831   3.794  12.517  1.0907  0.0249  0.0739
 4666SOL     OW25456   0.344   0.420   3.099 -0.0386 -0.3316  0.4646
 4666SOL    HW125457   0.347   0.515   3.087  2.5292 -0.2653  1.5727
 4666SOL    HW225458   0.438   0.407   3.082  0.2198 -0.2851  1.8251
 4667SOL     OW25459   2.816   3.219  10.938  0.2572  0.2165  0.4903
 4667SOL    HW125460   2.729   3.233  10.902 -0.7105 -0.3953  2.5863
 4667SOL    HW225461   2.873   3.268  10.879 -1.6244  1.5216 -0.2346
 4668SOL     OW25462   0.660   3.430   7.341 -0.3431  0.6417 -0.2302
 4668SOL    HW125463   0.586   3.491   7.336 -0.6190  0.3868  0.7082
 4668SOL    HW225464   0.673   3.410   7.433 -2.0180  1.8003  0.2693
 4669SOL     OW25465   3.741   3.045   2.238  0.1017 -0.0809  0.4206
 4669SOL    HW125466   3.759   3.139   2.230  0.5203 -0.3732 -1.8826
 4669SOL    HW225467   3.649   3.038   2.215 -0.5775  2.1168  2.3385
 4670SOL     OW25468   1.605   2.826   6.033  0.3278  0.5868  0.4014
 4670SOL    HW125469   1.665   2.752   6.021 -1.7459 -0.6326 -2.5442
 4670SOL    HW225470   1.542   2.832   5.961  0.7186 -1.5620 -0.1092
 4671SOL     OW25471   2.396   0.473   2.583  0.0796 -0.1379 -0.7659
 4671SOL    HW125472   2.342   0.516   2.649  0.3490 -1.5619  0.3846
 4671SOL    HW225473   2.443   0.405   2.632 -2.1682  0.0958  1.6786
 4672SOL     OW25474   3.928   2.152   0.116  0.0627 -0.0173  0.4511
 4672SOL    HW125475   3.839   2.152   0.151  0.0632  1.3318  0.4310
 4672SOL    HW225476   3.932   2.242   0.084 -0.5862  0.2120  1.0213
 4673SOL     OW25477   2.822   0.576   4.205 -0.4801 -0.0388 -0.4516
 4673SOL    HW125478   2.817   0.630   4.284 -1.3139 -1.6846  0.6098
 4673SOL    HW225479   2.766   0.500   4.222 -1.7029  0.8601 -0.4422
 4674SOL     OW25480   1.822   2.049   3.878 -0.1465 -0.1864  0.6110
 4674SOL    HW125481   1.805   2.139   3.905  0.4078 -0.2112  1.0344
 4674SOL    HW225482   1.736   2.038   3.837  0.9753  2.2422 -2.4132
 4675SOL     OW25483   0.127   1.252   3.439  0.2433 -0.2767  0.1590
 4675SOL    HW125484   0.144   1.331   3.489  1.2274  0.2324 -0.9766
 4675SOL    HW225485   0.096   1.195   3.509 -0.7749 -0.8678 -0.7746
 4676SOL     OW25486   0.454   3.390   4.957  0.6396 -0.2270 -0.0531
 4676SOL    HW125487   0.500   3.424   4.880  0.5373 -2.3514 -1.0747
 4676SOL    HW225488   0.490   3.436   5.032  0.1667  0.5937 -0.3374
 4677SOL     OW25489   1.317   1.693  14.928 -0.2257  0.4581 -0.5759
 4677SOL    HW125490   1.240   1.722  14.879 -1.2560 -0.8502  0.2518
 4677SOL    HW225491   1.289   1.612  14.970 -0.9535  0.4957 -0.9911
 4678SOL     OW25492   2.562   1.384  16.629  0.0598 -0.4517 -0.1088
 4678SOL    HW125493   2.533   1.387  16.538  0.0873 -2.1579 -0.1703
 4678SOL    HW225494   2.475   1.372  16.666  0.3555  1.8362  1.3154
 4679SOL     OW25495   0.645   1.940  11.008 -0.1951 -0.3421  0.1621
 4679SOL    HW125496   0.581   1.906  11.071  3.1838 -0.6756  3.4215
 4679SOL    HW225497   0.587   1.953  10.933 -1.2975  2.5516  1.4581
 4680SOL     OW25498   3.537   1.449   6.693  0.7288 -0.1276 -0.1803
 4680SOL    HW125499   3.624   1.434   6.656 -0.7119 -0.2722 -3.5878
 4680SOL    HW225500   3.500   1.373   6.648  1.8095 -1.4697  1.1835
 4681SOL     OW25501   0.329   2.619  17.448 -0.0480  0.1683  0.7871
 4681SOL    HW125502   0.420   2.615  17.477 -0.0340  1.6502  0.9467
 4681SOL    HW225503   0.298   2.540  17.492 -1.4824 -0.3591 -1.1942
 4682SOL     OW25504   1.214   0.825   5.819 -0.6126 -0.1999  0.0644
 4682SOL    HW125505   1.177   0.900   5.866  3.3713  0.3381  2.2980
 4682SOL    HW225506   1.262   0.870   5.749 -1.5711  0.4282 -0.1896
 4683SOL     OW25507   1.730   2.592  16.338 -0.7101 -0.3049 -0.3886
 4683SOL    HW125508   1.803   2.638  16.379  2.2379 -2.9682 -2.6124
 4683SOL    HW225509   1.656   2.646  16.365 -0.3782  0.3370 -0.7769
 4684SOL     OW25510   2.197   4.561   6.620 -0.3865 -0.1024  0.0299
 4684SOL    HW125511   2.192   4.471   6.651 -1.6482 -0.1027 -0.1455
 4684SOL    HW225512   2.205   4.616   6.698  1.2889 -0.6071  0.2090
 4685SOL     OW25513   0.292   3.100   8.960 -0.2733 -0.2553  0.0834
 4685SOL    HW125514   0.249   3.034   8.907 -0.4998 -0.2143  0.2153
 4685SOL    HW225515   0.227   3.112   9.029 -0.2638 -1.0662  0.2229
 4686SOL     OW25516   1.074   3.676   0.741  0.0932 -0.2601 -0.5745
 4686SOL    HW125517   0.991   3.699   0.699 -0.9713 -0.9606  1.1582
 4686SOL    HW225518   1.111   3.763   0.757  1.8803 -0.8455 -1.4712
 4687SOL     OW25519   1.823   1.828   3.095 -0.0651  0.3920 -0.6695
 4687SOL    HW125520   1.891   1.771   3.058 -1.7299 -2.3871  0.5416
 4687SOL    HW225521   1.848   1.917   3.069 -0.7078  0.2797 -1.7110
 4688SOL     OW25522   2.165   2.398  15.306 -0.3254  0.3446  0.4805
 4688SOL    HW125523   2.194   2.403  15.215  2.3632 -0.5102  1.2751
 4688SOL    HW225524   2.071   2.414  15.297 -0.6344 -1.3787  0.6054
 4689SOL     OW25525   1.817   2.914   6.628  0.3259 -0.6860 -0.2448
 4689SOL    HW125526   1.747   2.977   6.614 -0.0912 -1.0719  0.1195
 4689SOL    HW225527   1.893   2.972   6.620 -1.6958  1.7934 -1.3612
 4690SOL     OW25528   2.788   0.173   5.595 -0.0131  0.0524 -0.0923
 4690SOL    HW125529   2.710   0.128   5.627  0.7450  0.1687  1.9073
 4690SOL    HW225530   2.750   0.256   5.567  1.6525  0.7377 -0.3200
 4691SOL     OW25531   3.027   3.320   3.506  0.3667  0.0730  0.3187
 4691SOL    HW125532   3.066   3.240   3.542  1.2154  0.9074  1.2520
 4691SOL    HW225533   2.943   3.294   3.469  0.2916  0.4700  0.2151
 4692SOL     OW25534   4.282   3.855   7.382  0.2048 -0.0679  0.0169
 4692SOL    HW125535   4.367   3.899   7.384  1.2630 -2.1643  2.7847
 4692SOL    HW225536   4.298   3.771   7.425  3.0643  1.4752  1.9781
 4693SOL     OW25537   1.938   2.562   9.080 -0.0274  0.4111 -0.6464
 4693SOL    HW125538   1.844   2.579   9.092 -0.1045 -0.3432 -0.1455
 4693SOL    HW225539   1.955   2.468   9.091 -4.3091 -0.6320 -2.9257
 4694SOL     OW25540   1.208   2.160  14.068  0.4929 -0.0540 -0.0886
 4694SOL    HW125541   1.198   2.082  14.013 -0.3200  0.2246 -0.3371
 4694SOL    HW225542   1.172   2.129  14.151 -1.8820  1.7250 -0.4248
 4695SOL     OW25543   0.560   1.380   1.730 -0.0691  0.0436 -0.0434
 4695SOL    HW125544   0.574   1.286   1.725 -0.4729 -0.1108  1.7502
 4695SOL    HW225545   0.583   1.406   1.641 -1.6955  0.1365 -0.4489
 4696SOL     OW25546   3.000   0.982   3.976  0.1627 -0.8657 -0.3430
 4696SOL    HW125547   3.033   1.036   3.904  0.3418  0.9721  1.1417
 4696SOL    HW225548   3.072   0.919   3.980  1.6984  0.8301 -1.0092
 4697SOL     OW25549   1.363   2.834   6.464  0.2981 -0.0610 -0.4495
 4697SOL    HW125550   1.423   2.841   6.389 -1.3904  0.4692 -1.7530
 4697SOL    HW225551   1.409   2.769   6.517 -0.4383  0.1103  0.3870
 4698SOL     OW25552   0.707   1.819  14.882  0.5484 -0.3040 -0.6210
 4698SOL    HW125553   0.790   1.848  14.844 -0.2804  0.7539 -1.5898
 4698SOL    HW225554   0.645   1.882  14.846 -0.9401 -0.8338  0.9650
 4699SOL     OW25555   1.033   4.298   2.509  0.0152  0.4598 -0.0835
 4699SOL    HW125556   1.121   4.277   2.540 -0.1018  1.9417  1.2629
 4699SOL    HW225557   0.976   4.299   2.585  0.2828  1.2217  0.1114
 4700SOL     OW25558   3.658   3.083   4.687  0.1452  0.0842 -0.1998
 4700SOL    HW125559   3.635   3.146   4.619 -1.8289 -0.1827  0.2448
 4700SOL    HW225560   3.679   3.015   4.622  0.5887  2.9244 -3.0249
 4701SOL     OW25561   1.872   1.455   1.607 -0.1382  0.2446  0.1015
 4701SOL    HW125562   1.902   1.543   1.585  1.0701  0.1437  1.2706
 4701SOL    HW225563   1.875   1.409   1.523 -0.4151  0.6866 -0.1506
 4702SOL     OW25564   3.028   0.077  11.903  0.5417  0.6491  0.2307
 4702SOL    HW125565   3.057   0.027  11.979 -1.0324 -0.4995  0.0793
 4702SOL    HW225566   2.978   0.010  11.856  2.8185 -0.2674 -0.8803
 4703SOL     OW25567   4.093   2.802  11.551  0.4784 -0.9108  0.5487
 4703SOL    HW125568   4.094   2.766  11.463 -0.6559 -0.2612  0.2596
 4703SOL    HW225569   4.136   2.887  11.539 -0.3299 -0.3095  1.7512
 4704SOL     OW25570   4.615   1.791   7.017  0.2802  0.0142  0.1668
 4704SOL    HW125571   4.651   1.879   7.029 -1.2017  0.6461 -0.0007
 4704SOL    HW225572   4.563   1.803   6.938 -1.9633 -0.9335  1.4889
 4705SOL     OW25573   4.445   3.647   7.673 -0.3727  0.5504 -0.6518
 4705SOL    HW125574   4.507   3.711   7.638 -1.3759  2.7531  1.5829
 4705SOL    HW225575   4.453   3.648   7.768  0.9303  3.5264 -0.7892
 4706SOL     OW25576   3.428   3.193   0.478  0.2881 -0.7028 -0.2500
 4706SOL    HW125577   3.369   3.248   0.529  0.4389 -1.1288  0.4007
 4706SOL    HW225578   3.368   3.145   0.421 -2.4315  1.5340  0.7196
 4707SOL     OW25579   0.219   3.726  17.588  0.3106 -0.3058 -0.3761
 4707SOL    HW125580   0.231   3.748  17.680 -1.0469 -1.8983  0.1960
 4707SOL    HW225581   0.296   3.762  17.544  0.4557  1.8635  1.7050
 4708SOL     OW25582   0.981   4.325   4.016 -0.1448 -0.3951 -0.0259
 4708SOL    HW125583   1.028   4.260   4.068  1.5919  0.6896 -0.2174
 4708SOL    HW225584   1.052   4.355   3.959 -1.4427  1.3509 -0.7373
 4709SOL     OW25585   1.443   2.281   1.540 -0.5521  0.4558  0.1317
 4709SOL    HW125586   1.373   2.229   1.580 -1.2668  0.7419 -0.7636
 4709SOL    HW225587   1.436   2.261   1.447  2.4814  0.6095 -0.1455
 4710SOL     OW25588   0.562   2.443  15.768  0.2965 -0.1357 -0.0707
 4710SOL    HW125589   0.656   2.447  15.789  0.4869 -1.0294 -0.7518
 4710SOL    HW225590   0.565   2.421  15.675  0.9564 -0.5444  0.0444
 4711SOL     OW25591   0.284   2.281   7.089  0.1854 -0.4793 -0.1871
 4711SOL    HW125592   0.223   2.349   7.117  0.7989 -0.3867  0.9212
 4711SOL    HW225593   0.346   2.291   7.162  0.4368  0.5060 -0.5391
 4712SOL     OW25594   4.709   3.939   8.151  0.1109 -0.1823  0.0379
 4712SOL    HW125595   4.634   3.897   8.192 -0.0102  0.7162  0.7454
 4712SOL    HW225596   0.053   3.922   8.213 -0.1544 -0.0521  0.3782
 4713SOL     OW25597   1.423   1.829   5.252  0.3761  0.1935 -0.2798
 4713SOL    HW125598   1.424   1.835   5.157  0.8728 -4.6541 -0.5708
 4713SOL    HW225599   1.510   1.793   5.269  0.0134 -0.8393 -0.5842
 4714SOL     OW25600   2.428   2.246   5.665  0.0687  0.5547 -0.2813
 4714SOL    HW125601   2.389   2.161   5.645  2.0361 -0.7319  1.2227
 4714SOL    HW225602   2.411   2.239   5.759  2.1097 -2.4618 -0.1552
 4715SOL     OW25603   3.980   1.836   6.412  0.0280  0.5017  0.1271
 4715SOL    HW125604   3.904   1.895   6.415  1.2801  2.0780  0.7979
 4715SOL    HW225605   3.954   1.766   6.472 -0.7549 -0.4172 -1.2761
 4716SOL     OW25606   4.189   0.395   7.639  0.1299 -0.6750  0.4107
 4716SOL    HW125607   4.211   0.302   7.645  1.0576 -0.6324 -2.0578
 4716SOL    HW225608   4.112   0.400   7.583 -0.7540 -0.9074  1.6349
 4717SOL     OW25609   2.186   2.279  15.050  0.3248  0.0062 -0.3632
 4717SOL    HW125610   2.144   2.194  15.061 -0.8310  0.1894 -3.4550
 4717SOL    HW225611   2.276   2.254  15.028 -0.0028 -0.0996 -1.6068
 4718SOL     OW25612   4.426   2.574   5.194 -0.3900  0.2681  0.3411
 4718SOL    HW125613   4.503   2.577   5.249 -1.9100  2.6320  2.3380
 4718SOL    HW225614   4.463   2.539   5.113 -1.2203 -3.1839  1.4561
 4719SOL     OW25615   1.979   3.700   8.582  0.4935 -0.4140  0.3876
 4719SOL    HW125616   1.912   3.669   8.642 -0.7571  2.4326  0.4494
 4719SOL    HW225617   1.920   3.704   8.507 -0.0731 -0.8587  0.8097
 4720SOL     OW25618   4.520   2.505  14.293  0.4984  0.1371  0.2412
 4720SOL    HW125619   4.612   2.497  14.270  0.1521  0.7266 -1.3750
 4720SOL    HW225620   4.499   2.591  14.255  0.5124 -0.0174 -0.1181
 4721SOL     OW25621   2.876   4.206  10.402  0.0981  0.2566 -0.2201
 4721SOL    HW125622   2.872   4.221  10.308  1.2036 -0.1715 -0.3349
 4721SOL    HW225623   2.865   4.111  10.405 -0.0675  0.2816 -0.0003
 4722SOL     OW25624   0.152   3.059   7.687  0.0185 -0.0816 -0.3515
 4722SOL    HW125625   0.245   3.040   7.677 -0.0692 -0.0642 -1.2895
 4722SOL    HW225626   0.166   3.154   7.677 -0.1320 -0.4497 -4.3639
 4723SOL     OW25627   0.951   0.019   0.785  0.5685  0.5754  0.2907
 4723SOL    HW125628   0.986   4.658   0.795  2.1446  1.1128 -0.5406
 4723SOL    HW225629   0.857   0.004   0.770  0.7524  0.4599 -0.7185
 4724SOL     OW25630   0.047   2.661  12.652  0.3332  0.6213  0.6612
 4724SOL    HW125631   0.138   2.662  12.623 -0.8620 -0.9018 -3.0010
 4724SOL    HW225632   0.063   2.664  12.747  2.1770  0.9618  0.3314
 4725SOL     OW25633   2.777   1.092   9.290 -0.2508 -0.5086  0.2083
 4725SOL    HW125634   2.682   1.094   9.303 -0.3969 -2.2748 -0.6587
 4725SOL    HW225635   2.810   1.171   9.334  1.1623 -0.0519 -1.6678
 4726SOL     OW25636   2.746   2.874  17.527 -0.2717  0.6045 -0.3344
 4726SOL    HW125637   2.671   2.914  17.484 -0.2439  0.0550 -0.9046
 4726SOL    HW225638   2.817   2.931  17.497  0.4318  0.1831  0.5144
 4727SOL     OW25639   3.831   2.469   2.861  0.3907  0.4075 -0.2441
 4727SOL    HW125640   3.822   2.469   2.765  0.9061  2.3623 -0.2836
 4727SOL    HW225641   3.816   2.375   2.870  2.2711  0.1924  0.6654
 4728SOL     OW25642   4.372   0.948  13.481  0.0803 -0.2573 -0.2888
 4728SOL    HW125643   4.377   0.901  13.564 -1.2031  1.9774  1.0568
 4728SOL    HW225644   4.283   0.975  13.461  0.5522  0.1743 -1.8586
 4729SOL     OW25645   1.380   0.011  11.276  0.5040 -0.7129 -0.5697
 4729SOL    HW125646   1.475   0.014  11.284  0.7018 -2.8312 -2.3355
 4729SOL    HW225647   1.376   4.643  11.278  1.9541 -0.7728 -0.4961
 4730SOL     OW25648   3.820   4.410   1.822 -0.6611  0.1022 -0.1531
 4730SOL    HW125649   3.742   4.368   1.785 -1.3210 -0.3133  1.6798
 4730SOL    HW225650   3.804   4.383   1.913 -3.2337 -1.5198 -1.0641
 4731SOL     OW25651   0.533   0.319   2.313  0.1110 -0.2482  0.5925
 4731SOL    HW125652   0.561   0.398   2.267 -0.5878 -0.0262  0.5369
 4731SOL    HW225653   0.512   0.269   2.235 -2.7176 -0.8083  1.6700
 4732SOL     OW25654   4.174   0.090   1.424 -0.2354 -0.1450 -0.0717
 4732SOL    HW125655   4.121   0.121   1.350  0.4707  0.7716 -0.1905
 4732SOL    HW225656   4.232   0.028   1.379  1.4725  0.0750  1.8363
 4733SOL     OW25657   3.717   3.810   8.094  0.2785  0.1737 -0.2478
 4733SOL    HW125658   3.726   3.754   8.016  0.6336 -1.1070  0.7164
 4733SOL    HW225659   3.803   3.847   8.109  0.2459 -0.2968  1.1097
 4734SOL     OW25660   3.110   2.816   7.583  0.0263 -0.0799 -0.0311
 4734SOL    HW125661   3.035   2.782   7.534  2.2927 -3.6480 -1.0573
 4734SOL    HW225662   3.087   2.773   7.665  1.4080 -1.1487 -0.2206
 4735SOL     OW25663   1.236   4.031   7.492 -0.4460 -0.1416 -0.2662
 4735SOL    HW125664   1.247   3.936   7.492 -1.2331 -0.2425 -1.2797
 4735SOL    HW225665   1.276   4.052   7.407 -0.5179  2.3388  0.3047
 4736SOL     OW25666   3.456   3.847   0.842 -0.2519 -0.2624  0.2759
 4736SOL    HW125667   3.389   3.893   0.792  0.0703 -0.0812  0.0163
 4736SOL    HW225668   3.529   3.835   0.782 -0.6670 -0.9845 -0.0925
 4737SOL     OW25669   2.252   4.698   1.346  0.1210 -0.3106 -0.2083
 4737SOL    HW125670   2.198   0.033   1.297 -1.5794 -2.6937 -1.3379
 4737SOL    HW225671   2.280   0.013   1.427 -1.0272  1.7433 -0.8703
 4738SOL     OW25672   0.338   0.586   4.747 -0.1251 -0.2375  0.4075
 4738SOL    HW125673   0.429   0.598   4.774 -0.7056  1.3864  1.6005
 4738SOL    HW225674   0.311   0.676   4.762  2.0271  0.3604  0.6288
 4739SOL     OW25675   4.502   2.567   3.786  0.3885 -0.6157  0.3378
 4739SOL    HW125676   4.597   2.552   3.789  0.8982  1.8535 -2.7753
 4739SOL    HW225677   4.482   2.607   3.701 -0.9478  0.2963  1.0922
 4740SOL     OW25678   1.727   3.595  14.420  0.2424 -0.5275  0.1981
 4740SOL    HW125679   1.641   3.605  14.378 -0.0981  0.4619  1.1435
 4740SOL    HW225680   1.788   3.580  14.348  0.1176  1.6592 -0.3781
 4741SOL     OW25681   2.250   0.776   1.090 -0.6248  0.2784 -0.3563
 4741SOL    HW125682   2.181   0.822   1.138  0.2271  2.1788 -0.9559
 4741SOL    HW225683   2.196   0.736   1.022  0.8350  0.5752 -1.6944
 4742SOL     OW25684   3.453   2.585   5.144  0.6588  0.1038  0.3337
 4742SOL    HW125685   3.524   2.522   5.133 -0.5157 -0.6427 -2.9399
 4742SOL    HW225686   3.426   2.589   5.053 -0.5412  1.1955  0.7371
 4743SOL     OW25687   2.036   1.545  12.635  0.0237 -0.6533  0.3708
 4743SOL    HW125688   2.102   1.584  12.692  0.9554 -2.1223  0.3000
 4743SOL    HW225689   2.049   1.604  12.561 -2.8481  0.7654  1.0148
 4744SOL     OW25690   2.928   2.013  16.811 -0.5489 -0.8399  0.2360
 4744SOL    HW125691   2.840   2.017  16.848  0.1645 -2.3548  2.0860
 4744SOL    HW225692   2.906   2.029  16.719 -0.5534 -1.0624  0.1990
 4745SOL     OW25693   0.441   1.049   3.333  0.3792 -0.4954  0.0251
 4745SOL    HW125694   0.432   1.021   3.425  0.0556  2.9106  1.0142
 4745SOL    HW225695   0.406   1.138   3.330  0.5261 -0.3947  1.3481
 4746SOL     OW25696   4.691   3.426   5.948  0.6399 -0.5244 -0.3853
 4746SOL    HW125697   4.620   3.487   5.969  0.7992 -0.1735 -0.8630
 4746SOL    HW225698   0.017   3.429   6.027 -0.2579  1.7875  0.1519
 4747SOL     OW25699   0.026   1.958   5.964 -0.1011  0.2583 -0.4355
 4747SOL    HW125700   4.680   1.962   5.902 -0.8313  0.4245  0.4293
 4747SOL    HW225701   0.002   2.025   6.029 -0.2436 -1.3168  1.1172
 4748SOL     OW25702   2.238   4.571   6.929 -0.5416 -0.5745  0.4646
 4748SOL    HW125703   2.299   4.604   6.995 -1.0229  1.1440  0.0403
 4748SOL    HW225704   2.295   4.497   6.906  1.5255  1.4155 -0.7599
 4749SOL     OW25705   2.899   0.314  17.569  0.5208 -0.2762  0.2938
 4749SOL    HW125706   2.871   0.389  17.517 -0.6968 -0.1701  1.1058
 4749SOL    HW225707   2.990   0.316  17.539  0.8083 -2.3488  1.0155
 4750SOL     OW25708   2.001   2.949  14.434 -0.3496 -0.0763 -0.6719
 4750SOL    HW125709   1.972   3.025  14.485  2.2564 -0.5202  1.4254
 4750SOL    HW225710   1.924   2.946  14.376 -0.7440  0.7390 -0.2011
 4751SOL     OW25711   2.212   0.876   2.269 -0.3010 -0.0389  0.3897
 4751SOL    HW125712   2.191   0.963   2.236  0.0440  0.1420  0.6459
 4751SOL    HW225713   2.286   0.899   2.326  0.4602 -3.4890  0.8236
 4752SOL     OW25714   0.193   3.844   4.670  0.1309  0.0578  0.5945
 4752SOL    HW125715   0.282   3.880   4.670 -1.2843  3.5819 -1.4234
 4752SOL    HW225716   0.210   3.762   4.716 -1.6203 -0.7351 -0.1982
 4753SOL     OW25717   4.660   0.037  17.184  0.1013  0.4731  0.0542
 4753SOL    HW125718   4.673   4.674  17.155 -1.0936  0.7422 -1.3160
 4753SOL    HW225719   0.000   0.087  17.140 -1.4671  0.7877 -1.9684
 4754SOL     OW25720   0.823   3.593   7.713  0.5935 -0.5336  1.1191
 4754SOL    HW125721   0.728   3.578   7.720  0.0611  0.4409 -3.8168
 4754SOL    HW225722   0.829   3.688   7.705  0.5567 -0.4758  1.7953
 4755SOL     OW25723   1.385   3.819  17.475  0.2574 -0.0474 -0.1572
 4755SOL    HW125724   1.448   3.755  17.442  1.7344  1.9691 -1.3023
 4755SOL    HW225725   1.418   3.843  17.561 -0.2266 -2.9341  0.8374
 4756SOL     OW25726   3.358   3.529   7.288  1.2494  0.7854 -0.4880
 4756SOL    HW125727   3.369   3.458   7.351  0.0114 -1.0505 -2.3400
 4756SOL    HW225728   3.441   3.531   7.240  0.7622  0.2020 -1.3393
 4757SOL     OW25729   2.538   3.189   4.566  0.2925 -0.6188  0.5005
 4757SOL    HW125730   2.614   3.232   4.603  0.8320 -1.4404  0.3451
 4757SOL    HW225731   2.483   3.267   4.565  0.0008 -0.7986  1.9557
 4758SOL     OW25732   4.399   1.569   9.474 -0.3746  0.3248  0.0377
 4758SOL    HW125733   4.370   1.489   9.518  0.2727 -1.6605 -3.1353
 4758SOL    HW225734   4.332   1.570   9.406  0.3003 -1.3960 -0.6365
 4759SOL     OW25735   2.974   4.566   0.873 -0.4299  0.4401 -1.0876
 4759SOL    HW125736   3.061   4.579   0.835 -0.0596  3.0148  0.6365
 4759SOL    HW225737   2.919   4.585   0.798  0.7587  1.9446 -1.5861
 4760SOL     OW25738   1.391   1.030  11.168 -0.2462 -0.5473  0.0315
 4760SOL    HW125739   1.468   0.980  11.142  1.6176  1.9351  0.6885
 4760SOL    HW225740   1.409   1.101  11.106 -0.8435  0.1905  0.7025
 4761SOL     OW25741   2.632   4.533   8.307  0.1807 -0.0111 -0.9186
 4761SOL    HW125742   2.706   4.583   8.274  0.2529  0.2651 -0.3359
 4761SOL    HW225743   2.600   4.495   8.225 -0.9880  1.5312 -1.1747
 4762SOL     OW25744   4.387   1.054   3.819  0.3720  0.3864  0.1889
 4762SOL    HW125745   4.440   1.094   3.888  4.5403  0.3289 -2.9901
 4762SOL    HW225746   4.419   0.965   3.835  0.4435  1.0708  3.8314
 4763SOL     OW25747   2.991   2.132   3.149 -0.1810  0.3954  0.6734
 4763SOL    HW125748   2.909   2.085   3.166 -0.3961  0.2530 -0.7512
 4763SOL    HW225749   2.963   2.209   3.100  0.1546  0.1841  0.1434
 4764SOL     OW25750   3.402   2.917  16.866  0.7265 -0.0317 -0.2581
 4764SOL    HW125751   3.453   2.935  16.945  1.1493  2.0102 -0.9994
 4764SOL    HW225752   3.401   2.822  16.868 -1.8209 -0.0459 -2.9324
 4765SOL     OW25753   3.252   4.666   0.367 -0.1580 -0.7164  0.1367
 4765SOL    HW125754   3.170   4.663   0.318  0.8437 -0.6145 -1.5305
 4765SOL    HW225755   3.291   0.018   0.330  0.7768 -0.8529  0.8210
 4766SOL     OW25756   2.495   1.389  12.496 -0.4476 -0.3970 -0.2451
 4766SOL    HW125757   2.571   1.409  12.442 -0.7080  0.9923 -0.0897
 4766SOL    HW225758   2.433   1.456  12.466  0.2661 -1.7481 -4.6650
 4767SOL     OW25759   0.896   3.972   4.917  0.2954  0.1559  0.5148
 4767SOL    HW125760   0.963   4.038   4.933  0.0424  0.2292  1.2399
 4767SOL    HW225761   0.955   3.897   4.920 -1.9149 -1.7248 -2.3001
 4768SOL     OW25762   2.936   4.241   3.439 -0.3181  0.5437 -0.3886
 4768SOL    HW125763   2.934   4.194   3.355  0.6076  1.6526 -1.0388
 4768SOL    HW225764   2.929   4.325   3.393  0.8887  1.1552  0.5396
 4769SOL     OW25765   1.896   4.027  14.726 -0.6785  0.2107 -0.3548
 4769SOL    HW125766   1.858   4.023  14.639  2.1616 -0.4184 -1.5788
 4769SOL    HW225767   1.821   4.008  14.782  0.0783  1.6054  1.1550
 4770SOL     OW25768   0.513   3.297   9.234 -0.0937 -0.3045  0.0957
 4770SOL    HW125769   0.575   3.365   9.258 -0.7190  0.4652 -0.4729
 4770SOL    HW225770   0.433   3.340   9.264  1.0011  0.7772  1.4379
 4771SOL     OW25771   4.176   0.128   8.190 -0.7007 -0.3949  0.4077
 4771SOL    HW125772   4.214   0.044   8.164 -2.6329 -0.3798 -2.4966
 4771SOL    HW225773   4.152   0.160   8.103 -0.9467 -2.3406 -0.2434
 4772SOL     OW25774   2.187   2.235   2.605 -0.3685 -0.7486 -0.1525
 4772SOL    HW125775   2.219   2.325   2.596  2.4815 -1.7561 -0.1566
 4772SOL    HW225776   2.270   2.188   2.611 -1.4483 -2.6143  0.1798
 4773SOL     OW25777   3.707   2.890   4.907  0.1772 -0.5698  0.2053
 4773SOL    HW125778   3.722   2.928   4.993 -0.4350  0.6017 -0.2148
 4773SOL    HW225779   3.642   2.949   4.870 -0.5342 -1.3514  0.2144
 4774SOL     OW25780   2.112   2.174  15.464  0.3963  0.2737  0.2086
 4774SOL    HW125781   2.119   2.262  15.428  0.5915 -0.8796 -2.5485
 4774SOL    HW225782   2.161   2.126  15.397  0.3961 -0.7621  0.9408
 4775SOL     OW25783   0.568   2.215   7.794  0.1174  0.3037  0.1381
 4775SOL    HW125784   0.652   2.241   7.830 -0.9342  2.0929  1.2986
 4775SOL    HW225785   0.503   2.242   7.860 -0.9648 -0.1814 -0.7219
 4776SOL     OW25786   0.987   4.620   3.784 -0.1395 -0.0442 -0.1331
 4776SOL    HW125787   0.964   4.530   3.807  0.7137  0.0028  0.9377
 4776SOL    HW225788   0.983   4.661   3.871  0.3262  3.0368 -1.5455
 4777SOL     OW25789   2.841   4.549   7.357 -0.7269 -0.4060 -0.1696
 4777SOL    HW125790   2.842   4.541   7.262 -1.1762  0.3783 -0.2356
 4777SOL    HW225791   2.770   4.486   7.371 -0.7812  0.0581  1.5812
 4778SOL     OW25792   0.478   0.951   9.421  0.4255  0.3956 -0.0784
 4778SOL    HW125793   0.541   0.930   9.490 -0.3804  0.2846  0.6143
 4778SOL    HW225794   0.504   1.041   9.402 -1.1960  1.3047  2.0078
 4779SOL     OW25795   1.975   3.531   3.727  0.2529 -0.1819 -0.3191
 4779SOL    HW125796   1.910   3.587   3.769  0.3120  0.3729 -0.9523
 4779SOL    HW225797   1.935   3.445   3.737 -1.8253  0.9250  0.8246
 4780SOL     OW25798   4.259   3.283  15.965  0.0378  0.2777 -0.2303
 4780SOL    HW125799   4.352   3.276  15.983  0.2664  0.4863 -1.3319
 4780SOL    HW225800   4.260   3.234  15.883 -3.0071  1.3402 -0.9039
 4781SOL     OW25801   3.158   0.835   4.296  0.0922  0.4311 -0.5529
 4781SOL    HW125802   3.094   0.836   4.225  1.5421 -0.8531 -1.8735
 4781SOL    HW225803   3.224   0.902   4.277  0.2174  0.8399  1.3524
 4782SOL     OW25804   2.231   4.724   8.636 -0.5520 -0.1528  0.5937
 4782SOL    HW125805   2.254   0.067   8.696 -0.3962 -0.2788  0.6835
 4782SOL    HW225806   2.297   0.023   8.573 -0.4794  1.2263  1.2509
 4783SOL     OW25807   1.764   3.271  14.142  0.4930 -0.2007  0.1818
 4783SOL    HW125808   1.688   3.252  14.088  0.0387  0.0017  0.7412
 4783SOL    HW225809   1.841   3.236  14.097  1.4676  2.3078 -0.1062
 4784SOL     OW25810   4.595   1.325   9.625 -0.5692 -0.1576  0.2270
 4784SOL    HW125811   4.677   1.374   9.612  0.2195 -1.9402 -1.4039
 4784SOL    HW225812   4.635   1.239   9.616  1.5106  0.9153 -0.7564
 4785SOL     OW25813   2.071   0.891   1.246 -0.1605 -0.4199 -0.2286
 4785SOL    HW125814   2.039   0.964   1.301 -1.0741 -1.3382  0.4657
 4785SOL    HW225815   2.071   0.818   1.308 -0.4045  0.9739  1.4132
 4786SOL     OW25816   4.438   2.660   2.387  0.4946 -0.0379  0.1091
 4786SOL    HW125817   4.466   2.673   2.297 -0.0605  0.4475  0.0039
 4786SOL    HW225818   4.413   2.752   2.399  0.7642 -0.0836  1.0382
 4787SOL     OW25819   1.049   0.584   4.531  0.9429 -0.3758  0.0390
 4787SOL    HW125820   1.031   0.668   4.487 -0.8892 -0.2626  1.0004
 4787SOL    HW225821   0.958   0.554   4.542  1.1017 -1.1852 -0.8926
 4788SOL     OW25822   0.012   4.432   7.621 -0.1629 -0.3342 -0.3917
 4788SOL    HW125823   0.105   4.422   7.601  0.4432  2.3094  1.0996
 4788SOL    HW225824   4.715   4.339   7.624 -3.3092  0.4402 -1.2660
 4789SOL     OW25825   0.101   0.300   3.571 -0.4309  0.2396  0.0884
 4789SOL    HW125826   0.102   0.206   3.554  2.1692  0.3989 -0.6402
 4789SOL    HW225827   0.044   0.335   3.502  0.0201  0.6543 -0.0767
 4790SOL     OW25828   4.307   0.706   5.482 -0.6727 -0.0454 -0.2108
 4790SOL    HW125829   4.325   0.708   5.388  4.3742 -0.0822  0.7204
 4790SOL    HW225830   4.398   0.691   5.508 -0.1930  3.3840 -0.0054
 4791SOL     OW25831   0.257   1.867   4.584  0.0707  0.2263  0.0038
 4791SOL    HW125832   0.264   1.799   4.651  1.0398  0.8752  0.5618
 4791SOL    HW225833   0.209   1.937   4.628 -2.4597 -1.1369 -0.6348
 4792SOL     OW25834   3.674   2.822   7.712  0.6269 -0.4272  0.5734
 4792SOL    HW125835   3.579   2.828   7.702  0.5681 -1.4499  0.5195
 4792SOL    HW225836   3.707   2.888   7.773  1.1095 -1.9415  1.9466
 4793SOL     OW25837   0.554   3.467   2.852 -0.1234 -0.7297  0.2104
 4793SOL    HW125838   0.597   3.539   2.899 -1.6470 -0.1535  0.7177
 4793SOL    HW225839   0.627   3.418   2.814  1.0771  0.9899  0.2884
 4794SOL     OW25840   1.976   0.825  10.985  0.2655  0.6190  0.4338
 4794SOL    HW125841   2.067   0.805  10.967 -0.2216  0.2215 -1.5850
 4794SOL    HW225842   1.940   0.755  10.931  0.0175 -0.4379  2.0035
 4795SOL     OW25843   0.519   4.246   7.600  0.4640 -0.3273 -0.0514
 4795SOL    HW125844   0.570   4.273   7.525  0.8402 -0.7970  0.0360
 4795SOL    HW225845   0.469   4.174   7.560 -3.1458  1.0833  1.8967
 4796SOL     OW25846   3.290   2.995   9.693  0.0874  0.0878 -0.2922
 4796SOL    HW125847   3.227   2.929   9.664 -0.1892 -0.5986  1.8597
 4796SOL    HW225848   3.229   3.064   9.719  0.9491  0.9245 -0.5226
 4797SOL     OW25849   2.744   2.557   5.561 -0.5005 -0.2422  0.1482
 4797SOL    HW125850   2.663   2.528   5.604  0.0217  0.5446  1.6738
 4797SOL    HW225851   2.801   2.496   5.609 -0.7766  0.2391  1.0973
 4798SOL     OW25852   3.836   1.900   2.108 -0.0118 -0.1458 -0.2268
 4798SOL    HW125853   3.878   1.965   2.052 -1.1052  2.5320  2.0806
 4798SOL    HW225854   3.874   1.817   2.077 -0.0722 -0.1253 -0.3569
 4799SOL     OW25855   0.880   1.974   4.849 -0.0344 -0.2258  0.2501
 4799SOL    HW125856   0.939   1.900   4.838 -1.3209 -1.0829 -0.8420
 4799SOL    HW225857   0.908   2.014   4.931  0.1085 -1.5103  0.8163
 4800SOL     OW25858   2.142   0.153   3.038  0.0450 -0.0956  0.5664
 4800SOL    HW125859   2.047   0.164   3.045  0.0182 -0.0901  0.1852
 4800SOL    HW225860   2.156   0.088   3.107 -0.6959 -0.9667 -0.1028
 4801SOL     OW25861   4.518   1.653   5.137 -0.8228  0.2924  0.2653
 4801SOL    HW125862   4.516   1.746   5.116  5.0360  0.5088  0.7124
 4801SOL    HW225863   4.594   1.637   5.193 -0.8572  0.0315  0.2387
 4802SOL     OW25864   0.785   3.380   0.602  0.1902 -0.4825  0.0747
 4802SOL    HW125865   0.707   3.342   0.643 -0.7724  2.5331  1.0611
 4802SOL    HW225866   0.815   3.446   0.665  1.8967 -0.6324 -0.5797
 4803SOL     OW25867   0.135   3.906  14.045 -0.5218  0.0086 -0.6376
 4803SOL    HW125868   0.134   3.942  13.956  0.6493  0.2006 -0.5814
 4803SOL    HW225869   0.152   3.983  14.099 -1.0909 -0.0335 -0.3958
 4804SOL     OW25870   0.893   2.917   2.132 -0.6580 -0.7689  0.1570
 4804SOL    HW125871   0.810   2.922   2.084  0.4634 -0.4762 -1.7136
 4804SOL    HW225872   0.867   2.878   2.216  0.5281 -1.1546  0.3427
 4805SOL     OW25873   3.577   1.277   8.384  0.1251 -0.4221 -0.0333
 4805SOL    HW125874   3.620   1.360   8.368  0.3868 -0.7069 -0.8082
 4805SOL    HW225875   3.644   1.215   8.354  0.8437 -0.6868  2.1066
 4806SOL     OW25876   4.692   0.434  12.039 -0.0355  0.1008 -0.5174
 4806SOL    HW125877   0.055   0.411  12.017 -0.0025 -0.2418 -0.0313
 4806SOL    HW225878   4.704   0.490  12.116 -1.1956  0.7747 -0.8345
 4807SOL     OW25879   3.555   0.952   6.799 -0.0673 -0.2540  0.1314
 4807SOL    HW125880   3.473   0.904   6.785 -0.4841  0.9871 -1.6815
 4807SOL    HW225881   3.533   1.019   6.864  3.2212  0.5345  0.4342
 4808SOL     OW25882   3.410   3.323  17.053 -0.5143  0.0289  0.6341
 4808SOL    HW125883   3.419   3.418  17.055  2.5407 -0.2238 -1.3822
 4808SOL    HW225884   3.481   3.296  17.113  0.7707  1.2758 -0.3402
 4809SOL     OW25885   1.597   4.390   1.867 -0.1057 -0.3248 -0.2570
 4809SOL    HW125886   1.655   4.448   1.916 -0.4202  0.6007 -0.9764
 4809SOL    HW225887   1.652   4.355   1.797 -1.3750 -2.0110 -0.4113
 4810SOL     OW25888   0.199   1.617   5.467 -0.5017 -0.8633  0.1083
 4810SOL    HW125889   0.290   1.642   5.479 -0.7075 -0.4295  0.7401
 4810SOL    HW225890   0.193   1.547   5.532  1.3290 -0.2156  0.9468
 4811SOL     OW25891   2.201   1.717   9.850 -0.5979 -0.1409 -0.4930
 4811SOL    HW125892   2.202   1.673   9.765  0.3177  0.5997 -0.8644
 4811SOL    HW225893   2.293   1.703   9.871 -0.3362  0.8259 -1.0081
 4812SOL     OW25894   3.661   1.348   7.088 -0.2937  0.2643  0.5008
 4812SOL    HW125895   3.709   1.398   7.023  0.2850 -0.8391  0.0772
 4812SOL    HW225896   3.719   1.346   7.164 -0.0513 -4.1581  0.1912
 4813SOL     OW25897   2.684   3.231   5.378  0.0290  0.5003  0.2425
 4813SOL    HW125898   2.752   3.294   5.403  0.9573 -1.2219  2.0260
 4813SOL    HW225899   2.654   3.202   5.464  1.1864  1.1982  0.8776
 4814SOL     OW25900   3.823   2.146   2.600  0.5120 -0.0432  0.0005
 4814SOL    HW125901   3.834   2.152   2.505 -1.1968  2.1746 -0.0591
 4814SOL    HW225902   3.915   2.148   2.628  0.6856  1.5069 -0.6461
 4815SOL     OW25903   4.450   1.524  14.995  0.3911 -0.0418  0.1043
 4815SOL    HW125904   4.429   1.437  14.960  1.8897 -0.1512 -0.5409
 4815SOL    HW225905   4.418   1.582  14.926  2.8289  1.4042  0.2169
 4816SOL     OW25906   4.316   0.676   4.964 -0.1467  0.7638  0.6313
 4816SOL    HW125907   4.388   0.738   4.954  2.4904 -2.3598 -0.0413
 4816SOL    HW225908   4.240   0.728   4.938  0.1657  1.4566  1.0922
 4817SOL     OW25909   3.041   4.467  10.261 -0.1211 -0.2800 -0.7062
 4817SOL    HW125910   3.086   4.552  10.252  1.9238 -1.1654  1.2464
 4817SOL    HW225911   3.059   4.447  10.352  1.2161  0.2387 -0.8566
 4818SOL     OW25912   0.692   4.648  13.642  0.0894 -0.3756  0.3561
 4818SOL    HW125913   0.633   4.574  13.629 -0.7436  0.4176 -0.3299
 4818SOL    HW225914   0.717   4.630  13.733  1.1266  1.2623  0.4000
 4819SOL     OW25915   3.731   2.836   7.379 -0.2094 -0.3370 -0.4736
 4819SOL    HW125916   3.815   2.841   7.334  0.4319 -1.0613  0.6202
 4819SOL    HW225917   3.719   2.741   7.373  0.3808 -0.4715  0.3765
 4820SOL     OW25918   4.210   3.809   2.627  0.0868  0.2675 -0.3231
 4820SOL    HW125919   4.226   3.890   2.579  0.2815 -0.4577 -1.4651
 4820SOL    HW225920   4.259   3.823   2.708 -2.1099  1.8923  0.7415
 4821SOL     OW25921   3.045   4.007   1.152 -0.3154 -0.9282 -0.2579
 4821SOL    HW125922   2.993   4.050   1.083  1.6791  0.0443 -1.1460
 4821SOL    HW225923   2.998   3.923   1.156  0.5549 -1.4237 -0.3841
 4822SOL     OW25924   3.940   2.972   9.147 -0.4514  0.0250 -0.4164
 4822SOL    HW125925   3.997   2.955   9.221 -1.1977 -1.4758 -0.1811
 4822SOL    HW225926   3.862   2.987   9.201 -1.5821  0.4301 -2.1402
 4823SOL     OW25927   3.045   0.877  16.216  0.2778 -0.0453 -0.2401
 4823SOL    HW125928   3.052   0.794  16.263  1.5332  0.3736  0.3369
 4823SOL    HW225929   3.007   0.842  16.136 -1.7191  0.5361  0.4458
 4824SOL     OW25930   1.645   0.440  11.997  0.0103 -0.2304 -0.2049
 4824SOL    HW125931   1.576   0.436  11.930 -0.7202 -0.4337  0.5655
 4824SOL    HW225932   1.718   0.428  11.936  0.4327  2.2938 -0.1844
 4825SOL     OW25933   0.156   0.328   6.472 -0.2780 -0.6401  0.1385
 4825SOL    HW125934   0.128   0.321   6.381  1.9835 -1.6449 -0.4750
 4825SOL    HW225935   0.094   0.269   6.515  0.1866 -1.4656 -0.3352
 4826SOL     OW25936   4.341   1.328   9.526  0.3507  0.2008  0.8529
 4826SOL    HW125937   4.278   1.289   9.586 -0.2044  0.6836  0.5835
 4826SOL    HW225938   4.427   1.302   9.558  0.8731 -0.4231 -1.0300
 4827SOL     OW25939   1.219   3.383  13.520  0.0744  0.3653  0.1889
 4827SOL    HW125940   1.246   3.331  13.443  0.6942  0.0810  0.5949
 4827SOL    HW225941   1.304   3.372  13.562  0.1496 -0.7516 -0.2419
 4828SOL     OW25942   1.078   2.487  12.272 -0.1358 -0.4245 -0.6901
 4828SOL    HW125943   1.136   2.558  12.299  1.1374 -1.8118  0.1993
 4828SOL    HW225944   1.021   2.480  12.349  1.8773 -0.2408  0.8050
 4829SOL     OW25945   1.420   4.492  14.106 -0.3463 -0.0912  0.3854
 4829SOL    HW125946   1.512   4.499  14.078 -0.3115  1.0218  0.7921
 4829SOL    HW225947   1.389   4.570  14.061 -2.5470 -1.6257 -0.7291
 4830SOL     OW25948   0.892   1.951   5.573  0.0068 -0.6078 -0.3107
 4830SOL    HW125949   0.834   1.928   5.500  0.9136  0.8475 -1.4757
 4830SOL    HW225950   0.855   1.897   5.643 -1.5246  2.3905  1.1611
 4831SOL     OW25951   0.472   3.326   5.636  0.3525 -0.0774 -0.7035
 4831SOL    HW125952   0.560   3.304   5.666  0.5857  0.4562 -0.9832
 4831SOL    HW225953   0.476   3.267   5.561 -1.5350 -0.0559 -0.8108
 4832SOL     OW25954   2.615   1.482   2.683 -0.0766  0.3636  0.2721
 4832SOL    HW125955   2.693   1.491   2.736 -0.1428  2.3676  0.0246
 4832SOL    HW225956   2.555   1.444   2.747  0.1846 -1.0312 -0.3207
 4833SOL     OW25957   2.712   2.019   3.487 -0.0217  0.1748  0.2087
 4833SOL    HW125958   2.712   2.052   3.397  3.3448 -2.3380 -0.7360
 4833SOL    HW225959   2.712   2.099   3.539  1.2610  0.3076  0.0128
 4834SOL     OW25960   2.066   4.627  11.025  0.4003  0.8314 -0.4091
 4834SOL    HW125961   2.012   4.602  11.101  1.2880 -0.5285 -0.2255
 4834SOL    HW225962   2.023   4.591  10.947  0.1748 -2.5390  1.2456
 4835SOL     OW25963   0.832   3.355  13.302 -0.1360 -0.0226 -0.6065
 4835SOL    HW125964   0.785   3.437  13.288 -0.3019  0.1716  1.1018
 4835SOL    HW225965   0.776   3.285  13.268  0.1045 -0.0343 -0.9842
 4836SOL     OW25966   1.763   2.200   8.721  0.3909 -0.0711 -0.3835
 4836SOL    HW125967   1.687   2.254   8.741  0.2310  0.3064 -2.0365
 4836SOL    HW225968   1.834   2.260   8.742  1.6444 -1.2340 -1.3069
 4837SOL     OW25969   0.715   4.245   2.884 -0.2056  0.3027  0.4259
 4837SOL    HW125970   0.697   4.256   2.978  1.3311 -0.5258  0.8213
 4837SOL    HW225971   0.630   4.255   2.841  0.2602  1.4257 -0.2109
 4838SOL     OW25972   3.698   4.295   5.574  0.2320 -0.3553  0.2778
 4838SOL    HW125973   3.731   4.314   5.662  2.0457 -2.9921  0.1573
 4838SOL    HW225974   3.634   4.364   5.591  1.4788  0.9893 -0.4028
 4839SOL     OW25975   0.529   0.178   8.983 -0.0994 -0.0959 -0.0403
 4839SOL    HW125976   0.454   0.188   9.041  0.7754  1.5986  0.7862
 4839SOL    HW225977   0.480   0.135   8.913 -1.3118 -0.6517  1.1564
 4840SOL     OW25978   1.957   4.531   1.751 -0.3090  0.0528  0.3429
 4840SOL    HW125979   1.942   4.504   1.842 -2.4100 -1.5885 -0.4920
 4840SOL    HW225980   1.975   4.448   1.707 -0.4287  0.1557  0.0987
 4841SOL     OW25981   4.292   2.176   4.988  0.1295  0.1651 -0.6406
 4841SOL    HW125982   4.342   2.098   5.014  0.6112  0.2126 -1.4240
 4841SOL    HW225983   4.205   2.137   4.975 -0.4842  0.9612  1.1778
 4842SOL     OW25984   0.348   4.286   2.861  0.4547 -0.4604 -0.6950
 4842SOL    HW125985   0.309   4.250   2.781  1.0186 -1.8892 -0.3246
 4842SOL    HW225986   0.269   4.292   2.914  0.3177  0.3319 -0.9939
 4843SOL     OW25987   2.164   3.776   6.363 -0.1560  0.5493 -0.0813
 4843SOL    HW125988   2.249   3.735   6.379 -0.3275 -0.1960 -0.9963
 4843SOL    HW225989   2.143   3.825   6.442  1.2981  2.5744 -0.9701
 4844SOL     OW25990   2.005   2.841   0.568 -0.2476 -0.3204 -0.0293
 4844SOL    HW125991   1.948   2.857   0.492  0.5352  0.6629 -0.4241
 4844SOL    HW225992   2.087   2.857   0.521 -0.6113  3.1305  0.4492
 4845SOL     OW25993   4.306   3.546   4.479  0.1908 -0.7615  0.1204
 4845SOL    HW125994   4.347   3.587   4.403 -0.3503  0.4166  0.4574
 4845SOL    HW225995   4.366   3.586   4.541  0.5129 -1.7616  0.4527
 4846SOL     OW25996   3.933   0.258   0.488  0.0069 -0.2784  0.8365
 4846SOL    HW125997   3.990   0.298   0.422 -0.4575  3.6286  2.8069
 4846SOL    HW225998   3.901   0.330   0.542  0.9715  0.5792  0.2622
 4847SOL     OW25999   2.077   3.086   5.345  0.2379  0.1495  0.0839
 4847SOL    HW126000   2.043   3.013   5.396  4.8332 -2.5266 -0.6648
 4847SOL    HW226001   2.085   3.043   5.260 -1.0418 -0.5451  0.3173
 4848SOL     OW26002   2.031   0.141   8.435 -0.1096  0.0162 -0.2656
 4848SOL    HW126003   2.059   0.061   8.392 -2.1452 -0.7941 -0.0479
 4848SOL    HW226004   2.046   0.201   8.362  1.2222  0.2055  0.1634
 4849SOL     OW26005   2.329   3.057   6.231  0.6877 -0.0483 -0.1644
 4849SOL    HW126006   2.400   3.115   6.259  0.3184  0.3553 -0.0599
 4849SOL    HW226007   2.268   3.056   6.304  1.8005 -0.4609  0.7634
 4850SOL     OW26008   0.533   1.936  14.140  0.2280 -0.0376  0.4021
 4850SOL    HW126009   0.506   1.845  14.131  1.1875 -0.3889  1.0729
 4850SOL    HW226010   0.474   1.986  14.083  0.4277 -0.5921 -0.2885
 4851SOL     OW26011   0.707   3.908   6.473 -0.4293 -0.7453  0.1503
 4851SOL    HW126012   0.760   3.966   6.419  1.2542 -0.0577  2.4988
 4851SOL    HW226013   0.667   3.854   6.405  0.0178 -1.5297  0.5123
 4852SOL     OW26014   2.373   3.374  10.587  0.3589  0.0817  0.2103
 4852SOL    HW126015   2.349   3.320  10.663 -0.6693  0.7160  0.3346
 4852SOL    HW226016   2.424   3.444  10.628  0.0101 -0.9761  2.4427
 4853SOL     OW26017   0.026   0.916   5.026 -0.1929 -0.4547  0.0058
 4853SOL    HW126018   0.006   1.006   4.999 -0.9291 -0.6433 -0.0532
 4853SOL    HW226019   0.100   0.938   5.083  1.9242  1.0511 -3.2928
 4854SOL     OW26020   3.250   4.501   7.330  0.0085  0.6427 -0.5121
 4854SOL    HW126021   3.315   4.472   7.393  1.2817 -0.4797 -2.3487
 4854SOL    HW226022   3.285   4.460   7.251 -2.0142 -1.7329 -0.1711
 4855SOL     OW26023   0.591   2.142  13.078  0.0131  0.0368  0.4835
 4855SOL    HW126024   0.535   2.103  13.011  1.6204  1.5377 -1.7450
 4855SOL    HW226025   0.673   2.094  13.072  0.7865  1.6399 -2.0879
 4856SOL     OW26026   1.187   3.343  11.170  0.0035  0.4594  0.0818
 4856SOL    HW126027   1.141   3.423  11.146 -0.2204 -0.7003 -3.3457
 4856SOL    HW226028   1.177   3.340  11.265 -1.1904  0.7803 -0.0330
 4857SOL     OW26029   3.439   4.554   2.091 -0.0579 -0.6222 -0.2050
 4857SOL    HW126030   3.422   4.460   2.095 -1.2110 -0.4848 -1.6385
 4857SOL    HW226031   3.380   4.577   2.019 -1.0838 -0.2379  0.7600
 4858SOL     OW26032   0.053   0.258   9.766 -0.3899  0.5560  0.5631
 4858SOL    HW126033   0.011   0.224   9.687 -1.7549  0.8961  1.1499
 4858SOL    HW226034   4.716   0.238   9.833  0.3240 -2.6330  0.2955
 4859SOL     OW26035   1.113   3.348   5.342 -0.8831  0.1420 -0.4603
 4859SOL    HW126036   1.076   3.273   5.296 -0.4522  0.9842 -2.1886
 4859SOL    HW226037   1.092   3.413   5.274 -0.4339 -1.3459 -2.0283
 4860SOL     OW26038   4.169   1.822  12.108 -0.0846 -0.5317 -0.2777
 4860SOL    HW126039   4.123   1.894  12.152  0.1035 -0.6931  0.1805
 4860SOL    HW226040   4.224   1.786  12.177 -0.1844 -1.3905 -0.6487
 4861SOL     OW26041   1.077   0.189   0.580  0.3083 -0.1294  0.6711
 4861SOL    HW126042   1.115   0.193   0.667  1.4969  0.7905  0.1017
 4861SOL    HW226043   1.014   0.124   0.612 -0.3966  0.4633  0.4751
 4862SOL     OW26044   1.904   0.001   4.966 -0.3515 -0.4050 -0.7145
 4862SOL    HW126045   1.924   4.695   5.054  0.2517  0.6784 -0.4350
 4862SOL    HW226046   1.849   0.074   4.994  0.2937 -0.2482  0.1450
 4863SOL     OW26047   2.600   3.157   5.658 -0.5221 -0.2604 -0.2791
 4863SOL    HW126048   2.539   3.230   5.659  0.1062  0.2542  0.2650
 4863SOL    HW226049   2.621   3.153   5.751  0.3708  1.2239 -0.4154
 4864SOL     OW26050   2.483   4.573   1.323  0.0239  0.0498  0.1611
 4864SOL    HW126051   2.520   4.583   1.411  0.9816  0.6815 -0.3064
 4864SOL    HW226052   2.390   4.584   1.339 -0.3176  0.2362 -1.9615
 4865SOL     OW26053   3.194   3.645  15.521  0.1477  0.1490  0.1796
 4865SOL    HW126054   3.120   3.676  15.573  0.2941  0.2201  0.3434
 4865SOL    HW226055   3.194   3.705  15.446  0.8579 -1.0669 -0.7920
 4866SOL     OW26056   0.668   3.443   3.671 -0.0881 -0.3734 -0.1375
 4866SOL    HW126057   0.715   3.361   3.684 -0.5423 -0.0110  3.8917
 4866SOL    HW226058   0.633   3.445   3.582  1.6934  0.1730 -0.8110
 4867SOL     OW26059   1.232   3.375   1.274 -0.7805  0.4455  0.2174
 4867SOL    HW126060   1.224   3.318   1.198  0.3702 -1.3488  1.4320
 4867SOL    HW226061   1.190   3.315   1.336  0.5626  0.2301  0.9340
 4868SOL     OW26062   2.402   1.717  10.471  0.3227 -0.4481 -0.0721
 4868SOL    HW126063   2.460   1.783  10.508 -0.4297 -0.5706  1.3550
 4868SOL    HW226064   2.334   1.774  10.435  0.7486  0.2755  0.2798
 4869SOL     OW26065   0.371   1.685   1.228  0.6266  0.2140 -0.4584
 4869SOL    HW126066   0.401   1.596   1.208  0.3781  0.3586 -1.4788
 4869SOL    HW226067   0.444   1.699   1.289 -0.1606 -2.3118  1.0819
 4870SOL     OW26068   3.874   4.142   4.840  0.1024 -0.0090  0.5874
 4870SOL    HW126069   3.843   4.092   4.915  1.1116 -0.4655  0.6990
 4870SOL    HW226070   3.962   4.105   4.838  0.0579 -0.0217 -1.4415
 4871SOL     OW26071   0.388   3.235   8.048  0.4725  0.2260 -0.6190
 4871SOL    HW126072   0.394   3.275   8.135 -0.4658  1.6343 -1.2223
 4871SOL    HW226073   0.467   3.266   8.004  1.7333  0.6915  1.9248
 4872SOL     OW26074   3.286   4.687   5.786  0.2950  0.7332 -0.0840
 4872SOL    HW126075   3.378   4.712   5.773  0.1082  1.9576  0.9617
 4872SOL    HW226076   3.262   4.699   5.694 -1.5159 -0.5281  0.2354
 4873SOL     OW26077   1.432   0.657  16.739 -0.6400 -0.0484 -0.4779
 4873SOL    HW126078   1.411   0.584  16.681  1.1824  0.5533 -1.9010
 4873SOL    HW226079   1.478   0.608  16.807 -0.2264  1.0186  0.0161
 4874SOL     OW26080   2.504   0.571   2.958 -0.0039 -0.1332 -0.0654
 4874SOL    HW126081   2.425   0.518   2.965 -2.2991  3.3883  1.1098
 4874SOL    HW226082   2.556   0.513   2.902 -1.6951 -1.2224 -0.5106
 4875SOL     OW26083   2.954   1.752   8.461  0.2508  0.1502 -0.1141
 4875SOL    HW126084   2.959   1.842   8.429  0.4616  0.5691  1.0959
 4875SOL    HW226085   3.012   1.750   8.537 -0.0578  3.0803  0.1872
 4876SOL     OW26086   0.652   2.264   8.609  0.3959 -0.0391 -0.1587
 4876SOL    HW126087   0.609   2.322   8.672 -0.1935 -0.6541  0.0031
 4876SOL    HW226088   0.670   2.188   8.663  3.2709 -1.5313 -3.2044
 4877SOL     OW26089   2.653   3.478   3.023  0.4903  0.1747 -0.1541
 4877SOL    HW126090   2.747   3.495   3.014  0.0062  1.7845 -2.3738
 4877SOL    HW226091   2.624   3.440   2.940 -0.5848  0.1560  0.2337
 4878SOL     OW26092   0.591   3.634  14.949 -0.0524 -0.2636  0.2666
 4878SOL    HW126093   0.666   3.656  14.894 -1.3364 -0.5312 -1.5894
 4878SOL    HW226094   0.598   3.712  15.004 -0.3211 -1.0309  1.3727
 4879SOL     OW26095   4.688   1.632   9.810  0.2517  0.4804 -0.2162
 4879SOL    HW126096   4.628   1.654   9.882  1.2069 -0.0613  0.7464
 4879SOL    HW226097   4.659   1.692   9.742 -1.1729 -0.1480 -0.1679
 4880SOL     OW26098   0.927   1.941   4.145 -0.5544  0.0683  0.1341
 4880SOL    HW126099   0.925   1.856   4.102  0.2790 -1.3355  2.8993
 4880SOL    HW226100   0.997   1.975   4.088 -0.6099  0.9703  0.6065
 4881SOL     OW26101   4.591   4.415   2.829 -0.1344 -0.0360  1.0077
 4881SOL    HW126102   4.543   4.334   2.844  1.9871 -1.7471 -1.3884
 4881SOL    HW226103   4.557   4.458   2.908  0.7482  1.0936  0.7708
 4882SOL     OW26104   2.358   0.964  12.511 -0.0975 -0.5075  0.4732
 4882SOL    HW126105   2.332   1.050  12.479 -1.9666 -1.7286 -1.2803
 4882SOL    HW226106   2.446   0.952  12.476  0.9088  4.2412  1.3664
 4883SOL     OW26107   0.467   4.292   5.534 -0.6088  0.2004  0.5640
 4883SOL    HW126108   0.375   4.309   5.554 -0.6869  1.0138 -0.5296
 4883SOL    HW226109   0.507   4.364   5.583  3.0524 -1.1868 -0.3526
 4884SOL     OW26110   4.113   4.116   2.681  0.1469 -0.3712  0.0951
 4884SOL    HW126111   4.158   4.187   2.727  0.4155 -0.0131 -0.7251
 4884SOL    HW226112   4.041   4.113   2.744 -0.1608 -0.3046 -0.2529
 4885SOL     OW26113   0.676   0.937  15.249 -0.5425  0.0330  0.2544
 4885SOL    HW126114   0.588   0.949  15.213  0.0958  0.1850 -1.2243
 4885SOL    HW226115   0.729   0.993  15.192  0.6442 -0.5475  0.7870
 4886SOL     OW26116   2.654   4.266   6.390  0.2123  0.7984 -0.3827
 4886SOL    HW126117   2.666   4.285   6.297  0.2206 -0.8597 -0.7074
 4886SOL    HW226118   2.610   4.182   6.377  0.3715  0.5557  0.6498
 4887SOL     OW26119   2.027   4.406  10.861  0.6673 -0.1128 -0.0367
 4887SOL    HW126120   2.122   4.414  10.873  0.6367  0.0928  0.0752
 4887SOL    HW226121   2.008   4.357  10.941  1.2403  2.1585  1.5017
 4888SOL     OW26122   0.199   4.651  15.004 -0.4516 -0.6787  0.0944
 4888SOL    HW126123   0.233   4.576  15.052 -1.4051 -1.5642 -0.6173
 4888SOL    HW226124   0.108   4.653  15.033 -0.5026  1.0770 -0.1479
 4889SOL     OW26125   3.915   0.359   3.367  0.3976 -0.2396 -0.2124
 4889SOL    HW126126   3.901   0.331   3.277 -1.6276  0.5918 -0.1723
 4889SOL    HW226127   3.924   0.271   3.403  0.1742 -0.0160  0.3892
 4890SOL     OW26128   1.615   0.367   3.734  0.5720  0.5653  0.6393
 4890SOL    HW126129   1.691   0.315   3.760 -0.9859 -1.4609  1.0696
 4890SOL    HW226130   1.656   0.454   3.734  2.1121 -0.1522  0.6631
 4891SOL     OW26131   3.802   1.813  10.285  0.0182 -0.6288  0.4654
 4891SOL    HW126132   3.851   1.745  10.332  1.3231 -0.0406 -0.0212
 4891SOL    HW226133   3.864   1.885  10.269 -1.0131  0.5111  1.6386
 4892SOL     OW26134   1.926   2.264   7.388 -0.1494 -0.4231 -0.0692
 4892SOL    HW126135   2.020   2.278   7.372  0.2006 -1.7180  0.8888
 4892SOL    HW226136   1.892   2.213   7.315  1.2823 -1.3233 -0.0901
 4893SOL     OW26137   0.995   1.348  11.088  0.0827 -0.2725  0.0222
 4893SOL    HW126138   1.010   1.323  10.996  1.6790 -0.9142  0.4513
 4893SOL    HW226139   0.958   1.267  11.124  2.1759 -2.2366 -2.1492
 4894SOL     OW26140   3.856   1.947   5.748  0.2131  0.3280  0.2147
 4894SOL    HW126141   3.850   2.033   5.705  2.2945 -0.1133 -0.9735
 4894SOL    HW226142   3.771   1.913   5.720  0.6523 -0.8877  0.3687
 4895SOL     OW26143   2.053   1.026   5.444 -0.2217  0.4518 -0.3767
 4895SOL    HW126144   2.014   0.980   5.370 -0.1890 -1.0353  0.5397
 4895SOL    HW226145   2.145   1.020   5.416 -0.8444  0.1578 -2.3203
 4896SOL     OW26146   3.467   2.287   4.122 -0.4775  0.1572 -0.6286
 4896SOL    HW126147   3.380   2.286   4.162 -0.7404  0.7981 -1.1775
 4896SOL    HW226148   3.474   2.192   4.115  0.5265  0.0049  2.6859
 4897SOL     OW26149   3.387   0.676  13.390 -0.3630  0.0773  0.4268
 4897SOL    HW126150   3.461   0.639  13.438 -0.1916  0.1282  0.1991
 4897SOL    HW226151   3.323   0.626  13.442 -1.0254  1.0267  0.5145
 4898SOL     OW26152   4.398   0.794   7.703  0.9091 -0.7289  0.1366
 4898SOL    HW126153   4.422   0.729   7.769  0.7473 -2.7625 -1.7969
 4898SOL    HW226154   4.316   0.751   7.680  0.4439 -0.2412  0.8945
 4899SOL     OW26155   3.652   3.952   0.076  0.3382  0.3831  0.6081
 4899SOL    HW126156   3.669   3.897  17.710 -0.3217  0.5775  0.3165
 4899SOL    HW226157   3.725   4.014   0.071  0.5739  0.0463 -0.1925
 4900SOL     OW26158   2.574   1.568   5.692 -0.1805  0.1038  0.3263
 4900SOL    HW126159   2.530   1.528   5.617  0.4528 -3.2903  1.7884
 4900SOL    HW226160   2.517   1.538   5.763 -2.6931  1.4717 -1.1025
 4901SOL     OW26161   1.639   0.463   8.529 -0.6871  0.3349 -0.1654
 4901SOL    HW126162   1.595   0.538   8.569 -0.5036  0.2579  0.1800
 4901SOL    HW226163   1.678   0.517   8.460  1.0052 -0.7964 -0.1120
 4902SOL     OW26164   3.372   2.710   7.121 -0.1448 -0.1566 -0.7811
 4902SOL    HW126165   3.328   2.626   7.107 -0.4336 -0.3353  1.2422
 4902SOL    HW226166   3.326   2.765   7.058 -1.5186 -2.1399 -1.5061
 4903SOL     OW26167   3.622   3.491   2.320 -0.3901 -0.0023 -0.4269
 4903SOL    HW126168   3.687   3.422   2.332 -2.8460 -1.8749  2.1027
 4903SOL    HW226169   3.588   3.465   2.234  1.6955 -0.8595 -0.9851
 4904SOL     OW26170   0.197   2.779   3.609 -0.1322 -0.1751 -0.4456
 4904SOL    HW126171   0.148   2.718   3.553 -0.6969 -2.0027  2.0466
 4904SOL    HW226172   0.223   2.846   3.545  1.8904 -0.9271 -0.4028
 4905SOL     OW26173   0.989   2.432   9.660  0.0967  0.1179 -0.0753
 4905SOL    HW126174   1.081   2.420   9.685 -0.3524 -2.7343  0.1981
 4905SOL    HW226175   0.981   2.527   9.657 -2.7146 -0.0706  2.2012
 4906SOL     OW26176   2.289   4.130   4.556  0.1102 -0.5888 -0.4190
 4906SOL    HW126177   2.204   4.154   4.520 -0.3170 -0.7849  0.4662
 4906SOL    HW226178   2.258   4.048   4.595  0.8519 -1.1796 -1.0809
 4907SOL     OW26179   0.063   1.480  14.873  0.1279 -0.1174 -0.1157
 4907SOL    HW126180   0.151   1.517  14.878 -0.3853  1.3023 -1.7325
 4907SOL    HW226181   0.065   1.430  14.791 -1.9545  0.4209 -0.5103
 4908SOL     OW26182   2.691   2.753   2.203 -0.3168  1.3831  0.1210
 4908SOL    HW126183   2.716   2.757   2.295  2.8409  1.3278 -0.7422
 4908SOL    HW226184   2.649   2.839   2.193 -2.6190  0.4737  1.9214
 4909SOL     OW26185   2.389   3.473   8.687  0.1041 -0.1996 -0.0293
 4909SOL    HW126186   2.404   3.563   8.716 -0.0106 -0.6857  1.5428
 4909SOL    HW226187   2.297   3.484   8.661  0.1316  1.4539  0.5733
 4910SOL     OW26188   3.374   0.846  12.782 -0.1972 -0.1057 -0.3525
 4910SOL    HW126189   3.312   0.802  12.723 -2.1725  0.1881  1.5086
 4910SOL    HW226190   3.443   0.861  12.718 -1.2887  0.9347 -1.2794
 4911SOL     OW26191   2.766   1.311   4.864  0.1338  0.2141  0.1597
 4911SOL    HW126192   2.710   1.283   4.791  0.8078 -0.0797 -0.2546
 4911SOL    HW226193   2.740   1.254   4.936 -1.6154  0.0662 -0.6068
 4912SOL     OW26194   0.796   1.982  17.392  0.0877 -0.1073  0.5560
 4912SOL    HW126195   0.767   1.894  17.415 -1.0344 -0.0056 -0.4578
 4912SOL    HW226196   0.814   1.956  17.302 -0.5764 -0.9442  0.6680
 4913SOL     OW26197   1.273   1.483   7.683 -0.3787  0.0243  0.3617
 4913SOL    HW126198   1.208   1.549   7.706  2.0884  2.1190  1.2601
 4913SOL    HW226199   1.344   1.539   7.652 -1.6380  0.1346 -2.2794
 4914SOL     OW26200   0.997   3.487   9.438  0.7623 -0.0648 -0.6242
 4914SOL    HW126201   1.091   3.492   9.423  1.0957 -1.8204  0.9167
 4914SOL    HW226202   0.977   3.496   9.532 -1.3941 -0.9368 -0.9876
 4915SOL     OW26203   1.763   1.290   3.255 -0.2862  0.1533  0.4869
 4915SOL    HW126204   1.727   1.203   3.271  1.6187 -0.6407  0.3743
 4915SOL    HW226205   1.680   1.335   3.235 -0.1901  0.4602  0.7823
 4916SOL     OW26206   4.269   0.834  15.309  0.1670  0.0173 -0.2970
 4916SOL    HW126207   4.231   0.899  15.250 -1.0655  1.8985  2.5746
 4916SOL    HW226208   4.193   0.784  15.337  0.1965  0.2455  0.1939
 4917SOL     OW26209   0.584   2.203   7.080  0.0974  0.6316 -0.2561
 4917SOL    HW126210   0.597   2.268   7.150  1.4849 -0.5786  0.6105
 4917SOL    HW226211   0.549   2.267   7.018 -1.6997  1.5317  1.6542
 4918SOL     OW26212   0.450   3.001   7.354 -0.4686 -0.3807 -0.2824
 4918SOL    HW126213   0.374   2.986   7.297  1.1159 -2.6284 -1.8115
 4918SOL    HW226214   0.507   3.055   7.299 -1.2665  1.5341  0.7945
 4919SOL     OW26215   0.084   0.699   5.300  0.1680  0.0534 -0.1293
 4919SOL    HW126216   0.046   0.628   5.250  2.2194  0.6973 -2.6034
 4919SOL    HW226217   0.007   0.744   5.335 -1.1140 -1.2362 -1.3194
 4920SOL     OW26218   3.613   0.169   6.025  0.3573  0.2477  0.3401
 4920SOL    HW126219   3.602   0.230   5.952 -0.6694 -0.5327 -0.1600
 4920SOL    HW226220   3.660   0.219   6.091  0.9045 -0.6300  0.6225
 4921SOL     OW26221   1.880   0.096   5.287  0.0006 -0.6165  0.2631
 4921SOL    HW126222   1.889   0.002   5.267  1.3051 -0.3200 -0.5782
 4921SOL    HW226223   1.785   0.097   5.295  0.1461 -0.1283  1.9081
 4922SOL     OW26224   0.445   2.760   3.745  0.4459  0.4720 -0.5422
 4922SOL    HW126225   0.433   2.746   3.839  1.9371  3.3622  0.0525
 4922SOL    HW226226   0.359   2.768   3.703  1.1016  0.3613 -1.9024
 4923SOL     OW26227   0.521   3.315  10.952  0.5061  0.5284  0.2180
 4923SOL    HW126228   0.486   3.404  10.955  0.4435  0.5135 -0.0456
 4923SOL    HW226229   0.504   3.295  10.860  0.3754 -1.5123  0.6741
 4924SOL     OW26230   1.376   4.150   3.906 -0.0601  0.5683  0.7206
 4924SOL    HW126231   1.444   4.214   3.884 -0.8228  0.4211 -2.0864
 4924SOL    HW226232   1.356   4.112   3.820 -1.8952  0.5325  1.1657
 4925SOL     OW26233   4.191   1.590  15.156  0.0629 -0.8609  0.3073
 4925SOL    HW126234   4.282   1.594  15.127  0.6315 -1.9209  1.9514
 4925SOL    HW226235   4.180   1.682  15.177  2.5304 -0.7857  1.2774
 4926SOL     OW26236   1.310   3.650   5.930 -0.3203  0.6733  0.5459
 4926SOL    HW126237   1.271   3.691   6.008 -0.4083  0.0171  0.8457
 4926SOL    HW226238   1.391   3.701   5.924  1.0723 -1.4922  0.7693
 4927SOL     OW26239   0.415   3.732  14.743 -0.2089  0.3144 -0.2418
 4927SOL    HW126240   0.364   3.674  14.687 -1.2179  3.2777 -2.3846
 4927SOL    HW226241   0.437   3.680  14.820  0.5628  1.0028 -0.0022
 4928SOL     OW26242   3.965   4.642   3.766  0.1670 -0.0418 -0.1765
 4928SOL    HW126243   3.911   4.716   3.738  0.4928 -0.6802 -2.4850
 4928SOL    HW226244   3.924   4.604   3.844  0.7834  1.2408  0.7750
 4929SOL     OW26245   3.736   4.648  10.336  0.0605 -0.2148  0.0029
 4929SOL    HW126246   3.715   4.570  10.386  0.3920  0.2192  0.8049
 4929SOL    HW226247   3.804   4.693  10.385 -0.4683  0.5324  0.0551
 4930SOL     OW26248   2.424   2.467   2.326 -0.5337  0.1249 -0.2211
 4930SOL    HW126249   2.481   2.395   2.353  0.5962  1.5696  1.2061
 4930SOL    HW226250   2.376   2.423   2.255 -0.4314 -0.0203 -0.2007
 4931SOL     OW26251   0.640   1.554   7.899 -0.3270  0.3962 -0.5298
 4931SOL    HW126252   0.709   1.619   7.886  0.9049 -0.7173  0.4363
 4931SOL    HW226253   0.622   1.561   7.993 -0.6147 -0.8219 -0.4970
 4932SOL     OW26254   2.965   1.141  15.980  0.0656 -0.2379  0.4419
 4932SOL    HW126255   2.889   1.101  15.938  0.5079  0.2444 -0.8193
 4932SOL    HW226256   2.929   1.132  16.068  1.9540  0.2075  1.2727
 4933SOL     OW26257   0.758   2.695   6.245 -1.0465  0.4013  0.4936
 4933SOL    HW126258   0.773   2.788   6.266 -3.9512  1.1195 -0.6102
 4933SOL    HW226259   0.716   2.669   6.327 -0.9349 -0.3232  0.3164
 4934SOL     OW26260   3.270   2.243   2.424 -0.3976 -0.3515 -0.1205
 4934SOL    HW126261   3.313   2.284   2.499 -1.7594 -1.2110  1.1223
 4934SOL    HW226262   3.303   2.300   2.354 -0.7093 -1.3649 -1.1079
 4935SOL     OW26263   1.102   0.049   5.244  0.4263 -0.0125  0.1593
 4935SOL    HW126264   1.128   4.684   5.248 -3.3835 -1.0561  0.4447
 4935SOL    HW226265   1.078   0.041   5.152  0.7782 -1.5660  0.2082
 4936SOL     OW26266   4.043   2.724  15.404 -0.0374 -0.2627 -0.1017
 4936SOL    HW126267   4.076   2.800  15.356 -0.1276  0.0553  0.3428
 4936SOL    HW226268   3.977   2.761  15.463  1.0359  1.6556 -0.1209
 4937SOL     OW26269   3.875   0.714  11.982 -0.0364 -0.2167  0.1316
 4937SOL    HW126270   3.832   0.720  12.067  0.7046  0.7489  0.4398
 4937SOL    HW226271   3.889   0.619  11.982  1.7585  0.0601 -3.4706
 4938SOL     OW26272   1.128   4.028  14.526  0.7451 -0.3135  0.6115
 4938SOL    HW126273   1.046   4.075  14.545  0.7768 -0.3598  0.8737
 4938SOL    HW226274   1.194   4.092  14.498 -0.1560  0.6881  0.7666
 4939SOL     OW26275   3.834   4.168   0.036  0.2537  0.7859  0.2353
 4939SOL    HW126276   3.840   4.263   0.027  0.9341  0.6798 -0.4671
 4939SOL    HW226277   3.889   4.155  17.669 -1.4054 -0.5830 -0.7105
 4940SOL     OW26278   2.704   1.353   5.426  0.0369 -0.2206  0.0869
 4940SOL    HW126279   2.755   1.342   5.346  1.6727  1.4321  0.9094
 4940SOL    HW226280   2.739   1.282   5.480 -0.5932  0.7619  1.7704
 4941SOL     OW26281   2.376   2.930   3.702 -0.4335  0.5818  0.1216
 4941SOL    HW126282   2.286   2.908   3.680 -0.5735  2.5583 -1.2574
 4941SOL    HW226283   2.426   2.935   3.621 -2.2250  0.6139 -0.9762
 4942SOL     OW26284   1.259   1.051   6.590 -0.0632  0.9339 -0.2035
 4942SOL    HW126285   1.224   0.993   6.657  0.0329 -0.3322 -1.2339
 4942SOL    HW226286   1.193   1.119   6.582 -1.1204  0.1116  1.4876
 4943SOL     OW26287   2.432   4.193   9.029 -0.0298  0.2595  0.6848
 4943SOL    HW126288   2.464   4.245   8.955  0.5699  0.4104  1.0453
 4943SOL    HW226289   2.419   4.254   9.101 -0.6071  1.1684 -0.1926
 4944SOL     OW26290   4.538   0.166  16.127 -0.3161  0.2091 -0.3694
 4944SOL    HW126291   4.591   0.194  16.053  1.9429 -0.4226  1.0049
 4944SOL    HW226292   4.529   0.250  16.172 -0.0208 -0.3051  0.6730
 4945SOL     OW26293   3.002   0.776   5.658  0.0920  0.2083  0.0584
 4945SOL    HW126294   2.916   0.736   5.646  0.4020 -0.7942  1.1301
 4945SOL    HW226295   2.974   0.862   5.691  3.3213  1.4631 -0.5364
 4946SOL     OW26296   2.614   0.408   2.755  0.5407  0.3159  0.4068
 4946SOL    HW126297   2.639   0.462   2.679  0.9745 -0.8097 -0.2455
 4946SOL    HW226298   2.696   0.370   2.786 -0.0824 -0.7864  0.6633
 4947SOL     OW26299   2.362   3.798   4.162  0.6591 -0.4605 -0.0356
 4947SOL    HW126300   2.331   3.711   4.189  1.8885 -0.8135  0.2187
 4947SOL    HW226301   2.293   3.843   4.210  2.6954  2.1207  0.4381
 4948SOL     OW26302   2.108   1.494   3.164  0.0427  0.5762  0.4964
 4948SOL    HW126303   2.066   1.444   3.234 -0.4968  0.2303 -0.0792
 4948SOL    HW226304   2.198   1.462   3.178  0.6629  1.9022 -0.5354
 4949SOL     OW26305   1.948   2.950   5.843  0.1599  0.0823  0.2735
 4949SOL    HW126306   1.876   2.943   5.780  0.4950 -2.5669  0.2218
 4949SOL    HW226307   1.996   3.026   5.810 -0.5182  0.7416  0.7951
 4950SOL     OW26308   0.576   4.487   5.714  0.1116  0.0499  0.1335
 4950SOL    HW126309   0.616   4.546   5.778  1.2146 -2.4292  1.7615
 4950SOL    HW226310   0.519   4.556   5.682 -2.1181 -1.5130  0.6734
 4951SOL     OW26311   2.314   4.379   2.856 -0.1522  0.1347  0.1200
 4951SOL    HW126312   2.349   4.301   2.899  0.5313  0.9874  1.1174
 4951SOL    HW226313   2.228   4.386   2.897 -0.6879  1.1416 -1.1708
 4952SOL     OW26314   3.324   1.524   0.163 -0.3918  0.4618 -0.2095
 4952SOL    HW126315   3.340   1.605   0.114  0.0095  0.2793 -0.3830
 4952SOL    HW226316   3.241   1.501   0.121 -0.2453  2.2197 -1.4568
 4953SOL     OW26317   0.604   4.647   3.077 -0.0933  0.3447  0.3007
 4953SOL    HW126318   0.595   4.693   2.993  1.0948 -0.8727 -0.5075
 4953SOL    HW226319   0.609   4.720   3.139 -0.0838 -1.9636  2.9974
 4954SOL     OW26320   2.877   4.666   2.391 -0.0791 -0.1650  0.8783
 4954SOL    HW126321   2.950   4.726   2.376 -1.2193  0.9333 -0.2510
 4954SOL    HW226322   2.899   4.591   2.334 -2.8762  0.3523 -0.8699
 4955SOL     OW26323   2.500   2.629   1.161 -0.0135 -0.0811  0.0316
 4955SOL    HW126324   2.470   2.652   1.073  0.7001  3.3344  0.6735
 4955SOL    HW226325   2.592   2.656   1.163  0.3716 -1.4267  0.0250
 4956SOL     OW26326   0.712   0.168   9.205  0.0213  0.1340 -0.1272
 4956SOL    HW126327   0.722   0.256   9.240  0.0629  0.2100 -0.3289
 4956SOL    HW226328   0.639   0.180   9.144  0.6215  3.6352 -0.1501
 4957SOL     OW26329   1.461   3.050   2.936  0.0775 -0.1093  0.3692
 4957SOL    HW126330   1.541   3.099   2.955 -0.4447  1.4386 -1.4116
 4957SOL    HW226331   1.495   2.987   2.873 -0.1567  0.6908 -0.5540
 4958SOL     OW26332   0.284   0.834   6.863  0.0222 -0.0253  0.8540
 4958SOL    HW126333   0.375   0.807   6.875  0.7048  2.1240  0.5674
 4958SOL    HW226334   0.271   0.895   6.936  0.4318  2.7688 -1.3771
 4959SOL     OW26335   4.662   3.267   3.680 -0.0012 -0.3772  0.6023
 4959SOL    HW126336   4.651   3.254   3.586 -0.9292 -0.9737  0.7947
 4959SOL    HW226337   4.721   3.192   3.686 -1.7633 -1.6953  1.7156
 4960SOL     OW26338   0.780   2.800   4.188  0.0351  0.0770  0.1486
 4960SOL    HW126339   0.760   2.707   4.194 -2.2818  0.6816  1.7021
 4960SOL    HW226340   0.809   2.814   4.098 -0.5539  0.9758  0.0959
 4961SOL     OW26341   1.744   0.214   5.056  0.0626 -0.1679 -0.1882
 4961SOL    HW126342   1.803   0.277   5.096  2.4854 -3.9683  2.2702
 4961SOL    HW226343   1.663   0.235   5.104  0.2606  0.0544  0.0445
 4962SOL     OW26344   0.967   4.146   8.548  0.5367 -1.0203 -0.1258
 4962SOL    HW126345   0.920   4.088   8.489  0.2898 -0.3252 -0.6150
 4962SOL    HW226346   1.011   4.199   8.481  0.1968  0.7663  1.0684
 4963SOL     OW26347   0.283   4.454   1.793 -0.0000  0.1081 -0.1313
 4963SOL    HW126348   0.375   4.434   1.775 -0.1874  1.3794 -2.5988
 4963SOL    HW226349   0.295   4.548   1.778 -1.4468  0.3760  0.3391
 4964SOL     OW26350   1.500   2.945   4.198  0.2333 -0.0615  0.0925
 4964SOL    HW126351   1.569   2.961   4.134 -0.7271  1.3283 -0.5991
 4964SOL    HW226352   1.507   2.851   4.213 -1.1816 -0.5955 -2.6113
 4965SOL     OW26353   2.503   1.727   8.948  0.3318  0.6055  0.0346
 4965SOL    HW126354   2.582   1.760   8.905 -0.2002 -0.2134 -1.5868
 4965SOL    HW226355   2.442   1.792   8.913  0.7962 -0.2650 -2.4110
 4966SOL     OW26356   1.016   0.219  11.625  0.5008 -0.1565 -0.0304
 4966SOL    HW126357   1.043   0.310  11.615 -1.1159  0.4416  1.1771
 4966SOL    HW226358   0.991   0.222  11.717 -0.8828 -0.3587 -0.4053
 4967SOL     OW26359   2.880   2.363   9.569 -0.3607 -0.4944 -0.6196
 4967SOL    HW126360   2.865   2.273   9.601  0.5912 -1.3136 -2.4729
 4967SOL    HW226361   2.854   2.358   9.477 -0.1361 -3.5479 -0.5293
 4968SOL     OW26362   2.100   2.043   1.607  0.7254  0.2598  0.6257
 4968SOL    HW126363   2.173   2.019   1.664  1.3339  4.0070  1.3891
 4968SOL    HW226364   2.141   2.023   1.522 -1.0092  0.4145 -0.2536
 4969SOL     OW26365   1.490   2.168  14.095 -0.5816  0.1919 -0.3295
 4969SOL    HW126366   1.400   2.139  14.109 -0.0544 -1.6672 -0.8770
 4969SOL    HW226367   1.476   2.191  14.003 -0.9875 -0.6564 -0.4780
 4970SOL     OW26368   4.128   2.175  11.934 -0.0403 -0.2748 -0.5928
 4970SOL    HW126369   4.146   2.109  12.001 -0.8920 -0.8395 -0.9215
 4970SOL    HW226370   4.134   2.260  11.977 -1.8399 -0.6156  0.3208
 4971SOL     OW26371   3.169   0.653   6.557  0.6720  0.4678 -0.2423
 4971SOL    HW126372   3.119   0.640   6.477  1.5747 -2.3583 -0.3382
 4971SOL    HW226373   3.181   0.562   6.584 -0.9595  0.8288  1.7117
 4972SOL     OW26374   3.633   2.991  13.251 -0.1834  0.3941  0.0592
 4972SOL    HW126375   3.563   2.999  13.186 -0.5982 -0.5732  0.3907
 4972SOL    HW226376   3.641   2.898  13.273 -0.3733  0.8464  2.0012
 4973SOL     OW26377   3.223   3.292   9.511  0.0026 -0.2248 -0.4401
 4973SOL    HW126378   3.181   3.230   9.571 -0.1990  1.7826  1.4970
 4973SOL    HW226379   3.308   3.310   9.552 -0.5886 -2.4503  1.7798
 4974SOL     OW26380   0.591   2.631  13.973  0.0940 -0.3471  0.0326
 4974SOL    HW126381   0.506   2.661  14.005 -0.3289 -2.4563  0.8617
 4974SOL    HW226382   0.635   2.716  13.963  0.1837 -0.4009 -0.0329
 4975SOL     OW26383   4.676   1.409   3.828 -0.0962 -0.0959  0.2044
 4975SOL    HW126384   4.634   1.479   3.877 -0.8791 -1.3451  1.3011
 4975SOL    HW226385   4.660   1.431   3.736 -1.4320 -1.7799  0.0286
 4976SOL     OW26386   1.578   3.346   4.789  0.1682  0.1852 -0.0254
 4976SOL    HW126387   1.618   3.390   4.864 -0.6893 -0.5295  0.8458
 4976SOL    HW226388   1.485   3.362   4.801 -0.2862 -1.6812 -1.1350
 4977SOL     OW26389   1.265   3.860   5.509 -0.5923 -0.4406 -0.4749
 4977SOL    HW126390   1.246   3.785   5.565 -0.8918  0.6588  0.9131
 4977SOL    HW226391   1.189   3.918   5.515  0.1144  0.6053 -1.5662
 4978SOL     OW26392   2.943   0.145   9.506 -0.0549 -0.1115 -0.2416
 4978SOL    HW126393   2.950   0.120   9.597  0.4634  0.2508 -0.1769
 4978SOL    HW226394   2.851   0.170   9.506  0.2715  1.1207 -1.5011
 4979SOL     OW26395   4.720   2.006  15.057 -0.1716  0.5561  0.0069
 4979SOL    HW126396   0.015   2.091  15.019  0.5824  0.4355  0.1806
 4979SOL    HW226397   4.637   2.028  15.099 -1.1648 -1.8642 -0.6885
 4980SOL     OW26398   3.388   1.143  17.062  0.0071  0.3999  0.1277
 4980SOL    HW126399   3.299   1.159  17.093 -0.2788  1.7793 -1.4477
 4980SOL    HW226400   3.409   1.075  17.126 -1.8210  0.8999  1.2590
 4981SOL     OW26401   0.269   1.002   6.128  0.0199  0.1316  0.3134
 4981SOL    HW126402   0.214   0.926   6.150 -0.2908  0.1599 -0.3822
 4981SOL    HW226403   0.214   1.076   6.153  1.8182  1.4401  0.3675
 4982SOL     OW26404   3.892   2.171  15.316  0.1942 -1.1082 -0.0721
 4982SOL    HW126405   3.953   2.134  15.379 -2.2965 -2.9560  1.2459
 4982SOL    HW226406   3.843   2.101  15.273 -1.0974 -1.0617  1.3496
 4983SOL     OW26407   2.580   0.922   8.110  0.5576  0.2016  0.1041
 4983SOL    HW126408   2.599   0.858   8.179  1.5928 -0.0392 -0.4052
 4983SOL    HW226409   2.572   1.008   8.150 -0.0664 -0.9338  2.3934
 4984SOL     OW26410   1.605   1.930   4.084 -0.5947 -0.2147 -0.6905
 4984SOL    HW126411   1.614   2.004   4.144  0.1011  0.1046 -1.1862
 4984SOL    HW226412   1.628   1.969   4.000  0.6753  0.5579  0.0207
 4985SOL     OW26413   3.388   1.774  16.010  0.0845 -1.1266  1.1402
 4985SOL    HW126414   3.364   1.714  15.939  3.1697 -1.4827  0.4251
 4985SOL    HW226415   3.368   1.723  16.088  2.6792  1.2030  3.2988
 4986SOL     OW26416   0.989   0.588   9.063 -0.0593 -0.3758  0.3525
 4986SOL    HW126417   1.003   0.496   9.086  0.9741 -0.3718 -0.2471
 4986SOL    HW226418   0.989   0.627   9.150 -2.3448 -0.6193  0.4441
 4987SOL     OW26419   3.194   1.126   6.111  0.7370 -0.2305 -0.4994
 4987SOL    HW126420   3.248   1.052   6.138 -1.3377 -1.2428  0.9474
 4987SOL    HW226421   3.263   1.191   6.105  0.7218 -0.3159 -1.5766
 4988SOL     OW26422   2.016   1.871   7.939 -0.1254  0.2051  0.3051
 4988SOL    HW126423   1.921   1.877   7.946 -0.2924  0.9852 -2.3903
 4988SOL    HW226424   2.032   1.813   8.013  1.5155 -0.2356 -0.3875
 4989SOL     OW26425   4.063   3.173  15.500  0.1524  0.0491 -0.0490
 4989SOL    HW126426   4.117   3.127  15.436  1.3387  0.5671  0.5836
 4989SOL    HW226427   4.104   3.259  15.501 -1.9321  1.0164  1.4790
 4990SOL     OW26428   3.138   0.712   5.983  0.5832  0.2491 -0.4793
 4990SOL    HW126429   3.116   0.703   5.890  2.3130 -1.5227 -0.7274
 4990SOL    HW226430   3.198   0.638   5.991  0.1570 -0.0612 -0.1597
 4991SOL     OW26431   1.869   0.386   6.305 -0.1113  0.2169  0.1111
 4991SOL    HW126432   1.907   0.404   6.391  1.0059  0.9849 -0.5471
 4991SOL    HW226433   1.908   0.301   6.284 -1.2384 -0.1413 -0.5418
 4992SOL     OW26434   1.026   0.336  16.984  0.0143 -0.2943  0.0264
 4992SOL    HW126435   0.967   0.262  16.974 -0.7100  0.4332 -1.0643
 4992SOL    HW226436   1.044   0.327  17.078  0.8543  1.2005  0.0191
 4993SOL     OW26437   0.059   0.939  13.564  0.1748  0.3407 -0.1131
 4993SOL    HW126438   0.040   0.957  13.656  0.7323 -2.0144  0.4589
 4993SOL    HW226439   0.143   0.894  13.575 -0.7117 -1.8288 -2.2964
 4994SOL     OW26440   0.280   0.098   6.966  0.2781 -0.1949 -0.1700
 4994SOL    HW126441   0.358   0.147   6.992 -1.3519  1.7919  1.0485
 4994SOL    HW226442   0.221   0.125   7.037  0.2396  1.3680 -0.7881
 4995SOL     OW26443   0.866   0.348  16.695 -0.1069  0.3045  0.3342
 4995SOL    HW126444   0.896   0.258  16.711 -1.6987 -0.0271  1.4806
 4995SOL    HW226445   0.896   0.361  16.605  1.0719 -0.7737  0.5717
 4996SOL     OW26446   1.398   0.554   3.111  0.2280 -0.0077  0.1840
 4996SOL    HW126447   1.319   0.554   3.164 -0.9743  0.6344 -1.6085
 4996SOL    HW226448   1.355   0.564   3.026 -0.5669  0.9473  0.7035
 4997SOL     OW26449   2.459   4.677   9.156  0.5768 -0.2021  0.6437
 4997SOL    HW126450   2.431   4.688   9.065 -1.8192  0.8949  1.5141
 4997SOL    HW226451   2.538   0.003   9.153 -0.7640  1.6114 -1.9725
 4998SOL     OW26452   2.092   3.301   4.417 -0.4156 -0.1857 -0.1962
 4998SOL    HW126453   2.033   3.243   4.466 -1.1524 -0.0741 -0.9586
 4998SOL    HW226454   2.113   3.245   4.343 -1.8964 -0.8639 -0.0950
 4999SOL     OW26455   4.346   1.074   3.013 -0.7421 -0.0494 -0.3214
 4999SOL    HW126456   4.318   1.041   3.098  3.0192  3.1557  2.1163
 4999SOL    HW226457   4.429   1.117   3.033 -1.6659  2.3420 -1.5133
 5000SOL     OW26458   1.981   0.959  11.723  0.0670  0.3501 -0.5201
 5000SOL    HW126459   1.913   1.025  11.715  1.1202  1.6325  1.1997
 5000SOL    HW226460   1.988   0.945  11.629 -1.1886  3.5431 -1.0884
 5001SOL     OW26461   3.554   2.892   3.124  0.2093  0.1099 -0.4737
 5001SOL    HW126462   3.586   2.878   3.213 -0.5537  0.3069 -0.1722
 5001SOL    HW226463   3.641   2.873   3.087  0.5611  1.5263 -0.3426
 5002SOL     OW26464   1.527   3.968   6.893  0.2109  0.8938  0.2075
 5002SOL    HW126465   1.440   3.930   6.879  0.7203 -0.0689 -0.2750
 5002SOL    HW226466   1.546   3.993   6.803 -2.0906  3.1581  0.3308
 5003SOL     OW26467   1.998   2.787  16.993 -0.0679  0.2719 -0.5803
 5003SOL    HW126468   2.021   2.845  17.066 -0.4622 -3.4484  2.5361
 5003SOL    HW226469   2.015   2.703  17.037 -0.2926  0.6173  0.1717
 5004SOL     OW26470   4.584   3.988  12.248 -0.1983  0.5403  0.1895
 5004SOL    HW126471   4.521   3.916  12.256 -0.1837  0.1165 -3.4092
 5004SOL    HW226472   4.574   4.024  12.336 -2.2863 -0.5112  0.3794
 5005SOL     OW26473   3.038   4.145   7.205 -0.0451  0.7732 -0.2872
 5005SOL    HW126474   3.066   4.055   7.223  1.3372  1.3361  0.4358
 5005SOL    HW226475   3.018   4.183   7.291 -0.9190  0.9349 -0.5584
 5006SOL     OW26476   1.713   1.666   0.609 -0.2379  1.5408 -0.0711
 5006SOL    HW126477   1.699   1.663   0.704  4.1627  0.1264  0.5448
 5006SOL    HW226478   1.802   1.632   0.602 -0.7938  0.0571 -0.0837
 5007SOL     OW26479   0.495   1.187   5.853 -0.2533 -0.2833 -0.4051
 5007SOL    HW126480   0.497   1.230   5.767 -1.6133 -0.4250 -0.5140
 5007SOL    HW226481   0.583   1.153   5.865  0.8682  2.2208 -1.6929
 5008SOL     OW26482   2.855   2.243   9.933  0.0655 -0.0506  0.9746
 5008SOL    HW126483   2.796   2.307   9.973  1.7062  1.7110  0.5858
 5008SOL    HW226484   2.932   2.243   9.990 -0.1930  0.8112  1.3250
 5009SOL     OW26485   1.723   3.721  11.878 -0.7503 -0.6371 -0.1650
 5009SOL    HW126486   1.694   3.809  11.900 -0.2087 -0.9276  1.7349
 5009SOL    HW226487   1.816   3.742  11.866 -1.2648  2.1408  0.8287
 5010SOL     OW26488   0.681   1.790   0.455  0.8079  0.0466  0.1451
 5010SOL    HW126489   0.594   1.788   0.415  0.7518  1.5764  0.1924
 5010SOL    HW226490   0.719   1.865   0.409  1.0191  1.4777  2.6330
 5011SOL     OW26491   0.426   2.050   3.511  0.3071  0.1018  0.7536
 5011SOL    HW126492   0.485   2.070   3.438 -0.9209 -0.9277 -0.5112
 5011SOL    HW226493   0.459   1.964   3.538 -0.6748 -0.1506  1.1543
 5012SOL     OW26494   3.768   2.776   2.166 -0.6694  0.1324 -0.4415
 5012SOL    HW126495   3.758   2.868   2.190  1.4071  0.8920 -2.4447
 5012SOL    HW226496   3.721   2.763   2.084  1.3541 -0.0551 -1.5709
 5013SOL     OW26497   2.144   4.548  15.609  0.3478  0.1014  0.3680
 5013SOL    HW126498   2.228   4.542  15.562 -0.6339  1.5544 -1.6128
 5013SOL    HW226499   2.095   4.498  15.544  0.4477  0.7478 -0.2030
 5014SOL     OW26500   3.643   4.224  16.486  0.4728  1.2229 -0.5837
 5014SOL    HW126501   3.658   4.250  16.396 -1.4109 -0.9833 -1.5453
 5014SOL    HW226502   3.717   4.278  16.511  0.4480 -0.0596  2.2688
 5015SOL     OW26503   1.124   0.299   6.060  0.4439 -0.0811 -0.3941
 5015SOL    HW126504   1.081   0.287   5.975 -1.2404 -0.2863  0.4822
 5015SOL    HW226505   1.047   0.307   6.116  0.6013 -0.1274 -0.1698
 5016SOL     OW26506   4.491   0.417  11.854  0.1138 -0.4374 -1.2178
 5016SOL    HW126507   4.518   0.499  11.813 -1.7285  0.2306 -1.1328
 5016SOL    HW226508   4.560   0.404  11.919 -0.0188 -2.7396 -1.5426
 5017SOL     OW26509   4.641   0.645   6.076  0.1132  0.4526 -0.0481
 5017SOL    HW126510   4.604   0.564   6.042  2.0077 -1.0258  1.3903
 5017SOL    HW226511   4.555   0.669   6.109 -0.0535 -0.7259  0.3671
 5018SOL     OW26512   0.194   0.481   7.080  0.4778 -0.0309  0.1193
 5018SOL    HW126513   0.146   0.564   7.077  2.0077  0.9090  1.6943
 5018SOL    HW226514   0.287   0.497   7.065  0.7335 -2.3416 -0.7906
 5019SOL     OW26515   2.032   2.112   9.482 -0.3627  0.2650 -0.2546
 5019SOL    HW126516   2.077   2.108   9.567  0.0898  0.0009 -0.5028
 5019SOL    HW226517   1.945   2.077   9.499  0.4522 -2.5444 -1.8585
 5020SOL     OW26518   0.144   1.063   8.515  0.2760  0.4074  0.2228
 5020SOL    HW126519   0.177   1.011   8.442  1.1008 -0.1590  0.9932
 5020SOL    HW226520   0.198   1.039   8.591  0.8604  2.2925  0.4093
 5021SOL     OW26521   3.575   2.532   2.402  0.1900 -0.1701 -0.0922
 5021SOL    HW126522   3.657   2.533   2.353  1.1462  0.6009  1.5090
 5021SOL    HW226523   3.545   2.622   2.410 -0.4926 -0.2667 -1.7618
 5022SOL     OW26524   4.480   3.525  16.820 -0.1152 -0.5103 -0.1435
 5022SOL    HW126525   4.396   3.548  16.780  1.5269  1.1949 -2.6087
 5022SOL    HW226526   4.528   3.607  16.824  0.1024 -0.6576  0.3985
 5023SOL     OW26527   1.839   3.294   3.769 -0.0390 -0.0540  0.1399
 5023SOL    HW126528   1.746   3.306   3.754  0.2041  0.0073 -1.2627
 5023SOL    HW226529   1.832   3.260   3.859  1.6087  1.3265  0.7848
 5024SOL     OW26530   3.184   4.486  13.383 -0.2008  0.3305 -0.4692
 5024SOL    HW126531   3.159   4.579  13.379  0.3831  0.5476  0.7706
 5024SOL    HW226532   3.107   4.430  13.378 -0.6068  0.9831 -1.4443
 5025SOL     OW26533   1.461   2.736   4.747 -0.2139 -0.1039  0.1327
 5025SOL    HW126534   1.489   2.714   4.658 -1.2860 -0.4756 -0.1172
 5025SOL    HW226535   1.541   2.757   4.795 -1.0816  0.1938  1.4587
 5026SOL     OW26536   2.575   0.761   3.416 -0.1230  0.2748  0.0604
 5026SOL    HW126537   2.535   0.757   3.330 -1.2198 -0.8149  0.6197
 5026SOL    HW226538   2.667   0.750   3.391 -0.1425 -2.7529  1.2215
 5027SOL     OW26539   1.839   3.926   5.992 -0.0365 -0.0182 -0.3824
 5027SOL    HW126540   1.808   4.013   6.016  0.0428 -0.3466  0.9264
 5027SOL    HW226541   1.761   3.882   5.957  0.7176 -2.2139  0.7128
 5028SOL     OW26542   3.269   2.353   3.756 -0.3331 -0.1705 -0.1377
 5028SOL    HW126543   3.327   2.429   3.761 -0.3515 -0.1769  0.1846
 5028SOL    HW226544   3.233   2.347   3.845  0.1041 -0.5165  0.0175
 5029SOL     OW26545   0.104   2.710   8.653  0.2782  0.4485 -0.6083
 5029SOL    HW126546   0.049   2.682   8.580 -0.8950 -0.6458  0.7067
 5029SOL    HW226547   0.097   2.626   8.697 -0.0492  0.4856 -0.5939
 5030SOL     OW26548   0.410   0.498   7.576  0.2568  0.7155  0.7303
 5030SOL    HW126549   0.493   0.495   7.624 -0.1185 -2.1566  1.1509
 5030SOL    HW226550   0.455   0.513   7.492  0.4361  1.4557  0.9577
 5031SOL     OW26551   2.671   0.120   4.430 -0.1758 -0.1206 -0.7557
 5031SOL    HW126552   2.752   0.083   4.395 -2.2072 -2.5166 -2.9390
 5031SOL    HW226553   2.696   0.132   4.521  2.8075 -4.5526 -1.0119
 5032SOL     OW26554   1.808   4.594   9.926 -0.5253  0.0900 -0.3929
 5032SOL    HW126555   1.876   4.594   9.994 -0.1098 -0.1420 -0.8052
 5032SOL    HW226556   1.839   4.662   9.866 -1.4595  0.3333 -0.6044
 5033SOL     OW26557   4.094   0.946   2.273 -0.0549 -0.0201  0.7406
 5033SOL    HW126558   4.135   1.004   2.209  0.2870 -2.4273 -1.2327
 5033SOL    HW226559   4.003   0.971   2.256  0.1111 -0.8968 -1.4968
 5034SOL     OW26560   4.463   0.807   2.678  0.1658  0.2524 -0.0648
 5034SOL    HW126561   4.460   0.821   2.772  0.9912  1.9239 -0.2934
 5034SOL    HW226562   4.418   0.885   2.647 -0.4005 -1.6251 -4.0062
 5035SOL     OW26563   3.326   3.390   6.291  0.0315  0.8424 -0.0068
 5035SOL    HW126564   3.244   3.341   6.292 -0.4778  1.6835 -0.9921
 5035SOL    HW226565   3.298   3.466   6.240 -0.5479  0.7663  0.2032
 5036SOL     OW26566   2.510   2.420   7.836  0.3977 -0.2494 -0.1721
 5036SOL    HW126567   2.508   2.379   7.750 -2.9935 -1.5859  0.5465
 5036SOL    HW226568   2.572   2.363   7.882  1.2313  0.5972 -0.2588
 5037SOL     OW26569   0.597   3.176  15.269  0.1482 -0.1507  0.1519
 5037SOL    HW126570   0.623   3.099  15.219  0.6036 -0.8749  1.4847
 5037SOL    HW226571   0.592   3.231  15.191 -0.7280 -1.3711 -0.6480
 5038SOL     OW26572   1.451   3.445   1.080 -0.3926 -0.2234 -0.1417
 5038SOL    HW126573   1.506   3.453   1.002 -0.4538  0.7615 -0.0891
 5038SOL    HW226574   1.502   3.456   1.161  2.1956 -2.3167 -1.4795
 5039SOL     OW26575   0.003   1.499   5.828  0.0038 -0.1115  0.0202
 5039SOL    HW126576   4.647   1.469   5.790 -1.5793  2.5222  1.4630
 5039SOL    HW226577   4.707   1.504   5.920  0.9255 -1.1453  0.3148
 5040SOL     OW26578   4.727   2.900   9.255  0.5181 -1.0957 -0.4333
 5040SOL    HW126579   0.006   2.973   9.192 -1.2395 -0.1903  0.4263
 5040SOL    HW226580   4.658   2.926   9.317 -0.1001 -1.6031 -0.9034
 5041SOL     OW26581   0.227   3.936   4.994 -0.0924  0.4159  1.0321
 5041SOL    HW126582   0.315   3.966   4.973 -0.6060  0.2026 -1.3995
 5041SOL    HW226583   0.233   3.937   5.089  0.0752  2.7120  0.9954
 5042SOL     OW26584   0.853   0.630   1.066 -0.3833  0.7115  0.1053
 5042SOL    HW126585   0.917   0.589   1.007 -2.9095 -3.2693  0.1258
 5042SOL    HW226586   0.874   0.723   1.074 -1.0147  0.9153 -0.6408
 5043SOL     OW26587   1.510   0.646   1.885  0.1159  0.2562 -0.1058
 5043SOL    HW126588   1.431   0.614   1.929  1.9831 -2.8496  1.0428
 5043SOL    HW226589   1.487   0.608   1.800 -2.7651  0.9025  0.3723
 5044SOL     OW26590   3.176   4.332   3.600  0.7434  0.7034  0.4486
 5044SOL    HW126591   3.093   4.328   3.553  1.1550  1.2179 -0.3012
 5044SOL    HW226592   3.141   4.324   3.689  0.9766  2.1607  0.6592
 5045SOL     OW26593   4.235   0.163   4.299  0.5921 -0.6052 -0.0859
 5045SOL    HW126594   4.296   0.091   4.307  0.3714 -0.7942 -0.1092
 5045SOL    HW226595   4.293   0.236   4.277  0.5190 -0.2971  0.7633
 5046SOL     OW26596   2.974   1.985   6.521  0.4055  0.0968  0.1748
 5046SOL    HW126597   2.888   2.026   6.530  0.7151  0.7758  0.0523
 5046SOL    HW226598   3.006   2.026   6.440 -1.3247  1.6463  0.2603
 5047SOL     OW26599   4.436   4.709  16.302  0.1292 -0.1953 -0.1476
 5047SOL    HW126600   4.520   4.681  16.338  1.0996  3.4796  0.4058
 5047SOL    HW226601   4.451   0.065  16.258 -1.8967 -0.6003 -1.6517
 5048SOL     OW26602   0.396   0.454   4.034 -0.3563 -0.1183 -0.6906
 5048SOL    HW126603   0.405   0.423   3.943 -0.1136 -2.3147  0.0733
 5048SOL    HW226604   0.327   0.400   4.072 -0.2830 -0.0191 -0.4227
 5049SOL     OW26605   3.815   3.338  11.222 -0.5388  0.3033 -0.0542
 5049SOL    HW126606   3.745   3.285  11.182  0.5740 -0.3308 -1.1631
 5049SOL    HW226607   3.869   3.345  11.143 -0.8473  1.4588 -0.1683
 5050SOL     OW26608   2.438   3.629   2.224  0.1031  0.8312 -0.0225
 5050SOL    HW126609   2.508   3.591   2.172 -0.4356 -0.1317 -0.0386
 5050SOL    HW226610   2.367   3.619   2.160 -0.2426  1.7740  0.2192
 5051SOL     OW26611   2.909   0.006  10.474  0.1032  0.5769 -0.8536
 5051SOL    HW126612   2.982   4.676  10.497 -0.1192  0.0336 -1.5080
 5051SOL    HW226613   2.893   0.046  10.560  2.5872 -0.6560  0.1861
 5052SOL     OW26614   4.120   2.887   8.358  0.5642  0.2773 -0.0894
 5052SOL    HW126615   4.130   2.826   8.430  1.2502  0.1679 -0.2774
 5052SOL    HW226616   4.046   2.850   8.309  2.1289 -1.5286 -1.0704
 5053SOL     OW26617   2.852   2.340   7.541  0.1738 -0.2775  0.0502
 5053SOL    HW126618   2.817   2.402   7.476 -0.8580 -1.0338 -0.1195
 5053SOL    HW226619   2.873   2.388   7.621  2.0379  0.5224 -0.9056
 5054SOL     OW26620   2.164   3.916   4.647 -0.2882 -0.0646  0.6988
 5054SOL    HW126621   2.179   3.852   4.716  0.8821 -0.2711  0.2628
 5054SOL    HW226622   2.069   3.927   4.652 -0.5993 -1.9583 -0.9280
 5055SOL     OW26623   2.489   3.219  17.618  0.1126  0.2056  0.2583
 5055SOL    HW126624   2.552   3.256  17.680 -2.2670  2.3783  1.3945
 5055SOL    HW226625   2.544   3.171  17.556 -2.0599 -2.1416  0.1365
 5056SOL     OW26626   2.461   3.817  17.557 -0.3701 -0.3077  0.2125
 5056SOL    HW126627   2.484   3.791  17.468 -0.6070  0.3944 -0.0486
 5056SOL    HW226628   2.497   3.743  17.606 -2.5369 -0.6541  1.2609
 5057SOL     OW26629   0.516   3.782   4.980 -0.5917 -0.3970  0.3422
 5057SOL    HW126630   0.583   3.718   4.956  2.4770  3.3459 -0.9729
 5057SOL    HW226631   0.469   3.733   5.048  0.4942 -1.5482  0.2605
 5058SOL     OW26632   0.858   1.702   6.853  0.0091 -0.6384  0.8333
 5058SOL    HW126633   0.797   1.721   6.925  0.5152  0.8608  0.8569
 5058SOL    HW226634   0.800   1.672   6.783  0.9363  0.3571 -0.3552
 5059SOL     OW26635   1.842   1.558   7.524  0.8425 -0.1558  0.0853
 5059SOL    HW126636   1.918   1.583   7.577 -0.6194 -0.6211  2.3869
 5059SOL    HW226637   1.772   1.614   7.558  0.6911 -1.2417  1.5712
 5060SOL     OW26638   4.597   3.314   0.900  0.0080 -0.2017  0.3008
 5060SOL    HW126639   4.679   3.357   0.923 -0.7444  1.0624  0.5985
 5060SOL    HW226640   4.591   3.252   0.973  1.6288  2.1221  2.3914
 5061SOL     OW26641   2.534   0.447   0.249  0.2358 -0.0100 -0.4219
 5061SOL    HW126642   2.568   0.405   0.171 -0.1280 -2.3841  0.7043
 5061SOL    HW226643   2.495   0.380   0.305  0.0511  0.8473  0.4934
 5062SOL     OW26644   4.653   2.411   4.717 -0.3397  0.1104 -0.2431
 5062SOL    HW126645   4.580   2.351   4.702 -0.5555  0.2465  0.2725
 5062SOL    HW226646   4.713   2.361   4.772 -0.4600  1.0702  0.7434
 5063SOL     OW26647   3.201   1.025  16.625 -0.3336  0.5323  0.1465
 5063SOL    HW126648   3.123   1.027  16.570  0.3287 -0.7920 -0.8342
 5063SOL    HW226649   3.244   0.952  16.581 -1.1159 -0.2274  0.6535
 5064SOL     OW26650   0.180   3.181   9.492 -0.1950 -0.3253  0.0410
 5064SOL    HW126651   0.119   3.140   9.554  0.8696  0.2035  1.4331
 5064SOL    HW226652   0.250   3.222   9.542 -2.2735  2.1592  0.9105
 5065SOL     OW26653   2.452   4.673   1.682 -0.1119 -0.0411  0.4665
 5065SOL    HW126654   2.402   0.019   1.645  2.2429  1.7485  0.7866
 5065SOL    HW226655   2.540   4.699   1.652 -0.8072  1.5235 -0.2194
 5066SOL     OW26656   0.905   4.283   7.495  0.1013  0.0548  0.4561
 5066SOL    HW126657   0.949   4.320   7.572  1.2198  0.2958 -0.3062
 5066SOL    HW226658   0.959   4.303   7.419  0.7486  1.0672  1.1846
 5067SOL     OW26659   1.623   3.004   2.086 -0.2491 -0.5202  0.1608
 5067SOL    HW126660   1.631   3.099   2.078 -0.7499 -0.4480  0.4881
 5067SOL    HW226661   1.712   2.970   2.082  0.8572  2.3808  0.3772
 5068SOL     OW26662   0.284   2.256   5.654 -0.1163 -0.7219 -0.0151
 5068SOL    HW126663   0.261   2.337   5.699 -0.6655 -1.2391  0.6256
 5068SOL    HW226664   0.343   2.217   5.719 -3.6150 -1.1437  2.8838
 5069SOL     OW26665   2.107   0.570   6.856  0.2678 -0.0534  0.0002
 5069SOL    HW126666   2.013   0.569   6.876  0.1013 -1.4566 -0.8424
 5069SOL    HW226667   2.111   0.497   6.794 -0.0683  0.2027 -0.3244
 5070SOL     OW26668   2.834   2.258   3.849  0.0196  0.0433 -0.5837
 5070SOL    HW126669   2.872   2.243   3.936  0.6383 -1.4450 -1.1097
 5070SOL    HW226670   2.825   2.353   3.843  0.8420  0.1741  0.2551
 5071SOL     OW26671   1.735   3.989   7.691 -0.2618 -0.5304 -0.0645
 5071SOL    HW126672   1.773   4.076   7.680 -0.7652 -0.2830  0.1465
 5071SOL    HW226673   1.730   3.966   7.784 -0.8717  2.0006  0.5350
 5072SOL     OW26674   0.283   2.905   3.319 -0.0497  0.5707  0.2366
 5072SOL    HW126675   0.199   2.947   3.337 -2.0474 -2.8060 -1.0524
 5072SOL    HW226676   0.305   2.936   3.231  1.5881 -0.8434  0.1495
 5073SOL     OW26677   1.202   2.073   7.408  0.0811 -0.0262  0.7319
 5073SOL    HW126678   1.272   2.134   7.384  0.8821 -0.9534  0.7294
 5073SOL    HW226679   1.159   2.106   7.487  2.4708  0.4687  1.8199
 5074SOL     OW26680   1.275   1.807  14.678 -0.4659 -0.0530 -0.6064
 5074SOL    HW126681   1.305   1.865  14.748 -1.7778  1.0557 -0.9665
 5074SOL    HW226682   1.328   1.727  14.682 -1.4319 -0.8550 -3.7540
 5075SOL     OW26683   4.596   3.271   6.745 -0.5059 -0.0823  0.0400
 5075SOL    HW126684   4.501   3.282   6.752 -0.5665  0.5663 -1.8603
 5075SOL    HW226685   4.614   3.217   6.822  0.6277 -0.1506 -0.2780
 5076SOL     OW26686   0.203   2.123   8.794  0.3369  0.2784 -0.3860
 5076SOL    HW126687   0.211   2.193   8.730  0.7967  0.2455 -0.3608
 5076SOL    HW226688   0.290   2.105   8.828 -0.3398 -1.6873  0.3560
 5077SOL     OW26689   3.689   0.094   7.873  0.2710  0.5120 -0.2277
 5077SOL    HW126690   3.673   0.045   7.954  1.2593 -0.1064 -0.4009
 5077SOL    HW226691   3.729   0.166   7.922  2.9912 -0.6700 -0.7058
 5078SOL     OW26692   3.099   0.301  12.266  0.0178 -0.2101 -0.1376
 5078SOL    HW126693   3.187   0.275  12.238  1.6263  1.9397  2.9271
 5078SOL    HW226694   3.115   0.395  12.261 -0.9954  0.0525  1.3467
 5079SOL     OW26695   3.762   1.825   7.260 -0.6166 -0.9457 -0.5502
 5079SOL    HW126696   3.713   1.861   7.186 -0.3683 -0.7226 -0.6054
 5079SOL    HW226697   3.695   1.761   7.287 -1.4127  0.5176  0.9541
 5080SOL     OW26698   2.460   4.560   8.519 -0.2793 -0.2018  0.7655
 5080SOL    HW126699   2.466   4.656   8.516 -0.3474 -0.2539 -1.3004
 5080SOL    HW226700   2.520   4.541   8.446  1.1568 -0.0120  1.8908
 5081SOL     OW26701   2.148   4.465   5.227  0.0022  0.2834  0.1969
 5081SOL    HW126702   2.196   4.462   5.309 -0.9452  0.8047  0.7765
 5081SOL    HW226703   2.105   4.381   5.242 -0.9915  0.5528 -1.0613
 5082SOL     OW26704   2.901   3.926   9.293  0.6353 -0.1556 -0.1555
 5082SOL    HW126705   2.831   3.982   9.326  1.3250 -1.3861  3.4103
 5082SOL    HW226706   2.950   4.000   9.256  0.6762 -1.2930 -2.3520
 5083SOL     OW26707   1.282   3.078   7.379  0.1204 -0.1432 -0.5825
 5083SOL    HW126708   1.361   3.119   7.413 -0.0076  0.7034 -1.2938
 5083SOL    HW226709   1.292   3.080   7.284  0.1716  1.2853 -0.5404
 5084SOL     OW26710   0.205   1.744  12.645  0.0555 -0.0413 -0.5374
 5084SOL    HW126711   0.212   1.724  12.739  0.7064  4.5912  0.4011
 5084SOL    HW226712   0.263   1.819  12.631  0.0243  0.7988  3.7447
 5085SOL     OW26713   4.532   3.660   2.579  0.1064 -0.4848  0.5961
 5085SOL    HW126714   4.515   3.679   2.487 -0.0601 -0.1229  0.7014
 5085SOL    HW226715   4.619   3.621   2.571  0.5880 -0.2398  4.5943
 5086SOL     OW26716   1.238   0.266   6.776  0.0739 -0.2895 -0.4379
 5086SOL    HW126717   1.257   0.218   6.856 -0.2558  1.1032  0.4899
 5086SOL    HW226718   1.205   0.350   6.811 -0.3262  0.5807 -2.9231
 5087SOL     OW26719   0.911   1.331   1.130 -0.1148 -0.1647  0.3502
 5087SOL    HW126720   0.816   1.319   1.138  0.0029 -0.9605  0.5331
 5087SOL    HW226721   0.900   1.425   1.139 -0.1772 -0.0597 -0.8108
 5088SOL     OW26722   2.944   4.559  15.533  0.9068  0.2460 -0.2701
 5088SOL    HW126723   2.954   4.576  15.627 -0.5362  0.6757 -0.1946
 5088SOL    HW226724   2.989   4.641  15.510 -1.1373  1.4542  0.0327
 5089SOL     OW26725   3.499   4.587  16.349  0.0755 -0.2169 -0.0322
 5089SOL    HW126726   3.415   4.541  16.358  0.5037 -1.2692 -1.5632
 5089SOL    HW226727   3.556   4.526  16.304 -3.3105 -3.1256 -0.3792
 5090SOL     OW26728   4.517   4.634   5.156  0.4058  0.1216 -0.8572
 5090SOL    HW126729   4.553   4.602   5.239 -1.3735  0.7782  0.1523
 5090SOL    HW226730   4.494   4.549   5.118 -0.7494 -0.1979  0.5307
 5091SOL     OW26731   2.275   2.493   9.254  0.9948  0.5925 -0.6755
 5091SOL    HW126732   2.318   2.413   9.283 -0.9339 -0.3196 -0.3534
 5091SOL    HW226733   2.223   2.453   9.184  0.2760  2.6856 -1.3443
 5092SOL     OW26734   3.170   3.005  17.612 -0.5587 -0.2080 -0.0542
 5092SOL    HW126735   3.192   2.958  17.692 -0.5990  0.2018  0.1944
 5092SOL    HW226736   3.155   2.927  17.557  0.6492 -1.5433  1.5181
 5093SOL     OW26737   1.781   2.188   2.954  0.7627  0.1525 -0.3360
 5093SOL    HW126738   1.841   2.204   2.882  3.1727  3.5313  2.4143
 5093SOL    HW226739   1.702   2.155   2.911 -0.9905  3.3000  0.4704
 5094SOL     OW26740   4.495   1.527   5.477 -0.1048  0.6571 -0.6208
 5094SOL    HW126741   4.485   1.503   5.569  0.4756 -1.0032 -0.9970
 5094SOL    HW226742   4.541   1.610   5.481  1.5517 -0.2123 -1.9789
 5095SOL     OW26743   1.946   3.993   2.940  0.4715 -0.6677  0.1343
 5095SOL    HW126744   1.922   4.078   2.902  0.2818 -0.4640  0.6975
 5095SOL    HW226745   1.971   3.941   2.864 -3.0670 -1.2283 -0.6659
 5096SOL     OW26746   3.229   1.179   2.396 -0.3291 -0.0649  0.5529
 5096SOL    HW126747   3.194   1.235   2.327 -2.0482 -1.3077  0.4422
 5096SOL    HW226748   3.191   1.232   2.466  0.4025  0.5022  0.5201
 5097SOL     OW26749   0.972   3.683   8.397 -0.0447  0.1749 -0.4314
 5097SOL    HW126750   0.894   3.639   8.365 -0.5025 -0.0588  0.9930
 5097SOL    HW226751   0.953   3.666   8.490  0.5995  0.0905 -0.3142
 5098SOL     OW26752   0.352   1.526  16.843 -0.4744 -0.3047 -0.5808
 5098SOL    HW126753   0.343   1.616  16.813  3.1916  0.1017 -0.5281
 5098SOL    HW226754   0.327   1.472  16.768  1.1580 -0.1282 -1.2439
 5099SOL     OW26755   4.192   0.942   5.568  0.5353 -0.3516 -0.4747
 5099SOL    HW126756   4.170   0.855   5.535 -2.0576  0.4496 -0.8913
 5099SOL    HW226757   4.197   0.931   5.663 -0.3774 -0.9942 -0.4996
 5100SOL     OW26758   4.176   1.241   3.864  0.1100 -0.2044 -0.1103
 5100SOL    HW126759   4.117   1.211   3.933 -1.1515 -2.7359 -2.2922
 5100SOL    HW226760   4.218   1.159   3.841 -2.2159 -1.7166  1.0747
 5101SOL     OW26761   2.969   2.001   0.051  0.3494 -0.6116  0.3286
 5101SOL    HW126762   2.943   1.954   0.130 -1.7377 -1.6779 -1.0030
 5101SOL    HW226763   2.912   2.078   0.051  0.9522 -0.1724  0.9743
 5102SOL     OW26764   0.651   2.538  11.910  0.3670  0.8273  0.3713
 5102SOL    HW126765   0.568   2.577  11.883 -0.0678  1.3136  2.3566
 5102SOL    HW226766   0.682   2.599  11.977  0.8045  1.5397 -0.4782
 5103SOL     OW26767   1.609   2.605   1.330 -0.1085 -0.5170 -0.1095
 5103SOL    HW126768   1.668   2.680   1.320  0.3865 -0.8496  0.3108
 5103SOL    HW226769   1.594   2.603   1.425 -0.2383 -0.6860 -0.1342
 5104SOL     OW26770   1.506   2.043   8.254  0.5660  0.2405  0.3598
 5104SOL    HW126771   1.526   2.092   8.334  2.3232  0.6831 -0.3566
 5104SOL    HW226772   1.549   2.104   8.194  2.2951  0.3727  1.7165
 5105SOL     OW26773   0.014   3.111   9.045 -0.3353  0.3872 -0.3483
 5105SOL    HW126774   0.034   3.122   8.952  0.3965  0.2525 -0.2100
 5105SOL    HW226775   4.646   3.108   9.052 -0.4592 -0.5380 -2.2526
 5106SOL     OW26776   2.157   0.187   4.069 -0.0988 -0.5755 -0.0228
 5106SOL    HW126777   2.244   0.222   4.089  0.4611 -1.3543 -1.0365
 5106SOL    HW226778   2.149   0.210   3.976  0.3867 -2.6552 -0.5892
 5107SOL     OW26779   4.656   1.419  15.799  0.1448  0.3321 -0.0728
 5107SOL    HW126780   4.577   1.383  15.758  1.1998 -2.0058 -0.0093
 5107SOL    HW226781   4.711   1.365  15.743  2.1741  1.3901  0.8839
 5108SOL     OW26782   2.284   2.577   3.767 -0.1350 -0.7766  0.3579
 5108SOL    HW126783   2.226   2.646   3.737  1.7712  0.7818  0.2460
 5108SOL    HW226784   2.257   2.496   3.722  1.0493 -1.6841  1.2787
 5109SOL     OW26785   0.898   2.836   3.300 -0.4789 -0.6262  0.1716
 5109SOL    HW126786   0.811   2.825   3.263  0.2114 -2.2120 -1.0152
 5109SOL    HW226787   0.913   2.928   3.279 -0.4428 -1.3475 -2.8954
 5110SOL     OW26788   3.438   3.003  12.971 -0.3243 -0.3088  0.0484
 5110SOL    HW126789   3.416   3.085  13.015  0.5342 -0.5815  0.9875
 5110SOL    HW226790   3.457   3.047  12.888 -1.6339  2.5304  1.2715
 5111SOL     OW26791   0.774   0.455   9.253  0.2715 -0.3653  0.2457
 5111SOL    HW126792   0.759   0.540   9.292 -2.5057 -0.7256 -0.0216
 5111SOL    HW226793   0.725   0.462   9.171  0.8370 -0.1591 -0.0722
 5112SOL     OW26794   1.747   2.337   6.101 -0.5272  0.4485  0.4004
 5112SOL    HW126795   1.653   2.326   6.113 -1.0771  2.6659 -1.8206
 5112SOL    HW226796   1.776   2.277   6.170  0.9134  0.5962 -0.0710
 5113SOL     OW26797   0.405   1.115   2.990  0.9563 -0.3625 -0.6056
 5113SOL    HW126798   0.408   1.208   3.015  1.0053  0.0393 -2.1392
 5113SOL    HW226799   0.312   1.100   2.974  0.0942  2.2853  1.8329
 5114SOL     OW26800   0.214   3.222   8.582 -0.0385 -0.6712 -0.3694
 5114SOL    HW126801   0.218   3.215   8.677 -0.6722  0.1016 -0.2865
 5114SOL    HW226802   0.141   3.161   8.569 -0.6384 -0.3663  1.5237
 5115SOL     OW26803   4.696   0.912  10.698  0.6335 -0.3136  0.3483
 5115SOL    HW126804   4.605   0.892  10.723 -0.3013 -3.2551 -5.5598
 5115SOL    HW226805   4.696   1.008  10.708 -0.4392 -0.1650 -1.0186
 5116SOL     OW26806   2.249   0.026   4.894 -0.4837  0.3120  0.1551
 5116SOL    HW126807   2.194   4.705   4.955 -1.5244  0.7041 -0.4724
 5116SOL    HW226808   2.189   0.082   4.844 -0.9686 -0.4596 -0.1285
 5117SOL     OW26809   0.718   1.103   5.014  0.1213  0.7541 -0.7327
 5117SOL    HW126810   0.629   1.123   5.040  0.0146 -1.2064  0.4248
 5117SOL    HW226811   0.750   1.190   4.991 -1.1172  1.1666 -0.8932
 5118SOL     OW26812   3.195   2.627   5.679 -0.0698  0.3512 -0.0728
 5118SOL    HW126813   3.144   2.559   5.721 -0.8702 -0.2164 -1.9490
 5118SOL    HW226814   3.183   2.598   5.589 -0.2898 -0.2044  0.1383
 5119SOL     OW26815   1.149   0.086  13.857 -0.2042  0.5555  0.1671
 5119SOL    HW126816   1.070   0.039  13.883 -1.9816  2.2557 -2.0945
 5119SOL    HW226817   1.115   0.175  13.865 -2.6151 -0.3114 -0.2741
 5120SOL     OW26818   2.818   4.338  10.151  0.1550 -0.4939 -0.1429
 5120SOL    HW126819   2.747   4.391  10.187  1.3383  0.3081  1.0129
 5120SOL    HW226820   2.890   4.394  10.180  0.9585 -0.8159 -1.5436
 5121SOL     OW26821   4.523   2.965  17.349  0.1516  0.3707  0.2963
 5121SOL    HW126822   4.566   3.015  17.279 -1.0368 -0.0562 -0.7358
 5121SOL    HW226823   4.598   2.948  17.406 -1.0043  0.9153  1.9710
 5122SOL     OW26824   3.393   3.704   4.549  0.0706  0.0674  0.3887
 5122SOL    HW126825   3.388   3.735   4.639 -0.5569  0.4371  0.2313
 5122SOL    HW226826   3.487   3.704   4.530 -0.6558 -2.1947 -3.1429
 5123SOL     OW26827   4.503   1.494   6.240 -0.1342  0.2820  0.3673
 5123SOL    HW126828   4.443   1.555   6.195 -0.3141  0.3384  0.6785
 5123SOL    HW226829   4.503   1.543   6.323  0.8709  0.9155 -0.0132
 5124SOL     OW26830   2.555   0.375   5.916 -0.3338  0.0449  0.0836
 5124SOL    HW126831   2.530   0.399   5.827 -0.0544  1.2328  0.3187
 5124SOL    HW226832   2.645   0.342   5.912 -0.5217 -0.1964 -1.8802
 5125SOL     OW26833   1.084   1.488   5.245 -0.3064  0.2187  0.0128
 5125SOL    HW126834   1.082   1.578   5.210 -2.8910 -0.5784 -1.8930
 5125SOL    HW226835   1.179   1.488   5.252 -0.3776  2.9171  1.0521
 5126SOL     OW26836   0.157   4.175   8.234 -0.2651  0.3697  0.0430
 5126SOL    HW126837   0.110   4.114   8.178  1.1699  1.5256 -2.4632
 5126SOL    HW226838   0.188   4.245   8.176  1.1230 -2.2780 -2.3895
 5127SOL     OW26839   2.986   3.529   8.376 -0.5295 -0.2510 -0.3865
 5127SOL    HW126840   2.970   3.459   8.440 -0.2270  0.1482  0.1369
 5127SOL    HW226841   2.980   3.605   8.434  2.0966 -1.1074  1.0230
 5128SOL     OW26842   0.455   3.331   2.542  0.0583 -0.1693 -0.4676
 5128SOL    HW126843   0.507   3.287   2.474  1.7733  0.6305  0.3308
 5128SOL    HW226844   0.529   3.351   2.599  0.0482 -1.2894 -0.0647
 5129SOL     OW26845   2.182   3.641   4.818  0.0662  0.4607 -0.1018
 5129SOL    HW126846   2.202   3.567   4.761 -0.6623  0.2894 -0.1291
 5129SOL    HW226847   2.097   3.605   4.842 -0.1765  0.3294 -1.1599
 5130SOL     OW26848   3.193   0.002   5.519 -0.3866  0.0952 -0.5054
 5130SOL    HW126849   3.109   0.008   5.473  0.1459  1.4452 -1.2952
 5130SOL    HW226850   3.239   4.711   5.437 -0.0689  1.2082 -0.5788
 5131SOL     OW26851   2.387   4.615  11.065  0.5749  0.1484 -0.1904
 5131SOL    HW126852   2.330   4.622  10.989  2.3296 -0.2788 -1.5318
 5131SOL    HW226853   2.340   4.669  11.128 -0.0045  0.4552 -0.8881
 5132SOL     OW26854   1.131   1.734   9.510  0.6254 -0.0707  0.0227
 5132SOL    HW126855   1.083   1.669   9.562  0.9233 -0.2898  0.0176
 5132SOL    HW226856   1.131   1.810   9.567  0.2998 -0.0060 -0.0598
 5133SOL     OW26857   2.099   1.053   0.353  0.0017  0.1990  0.3421
 5133SOL    HW126858   2.113   0.965   0.388 -2.9491 -0.8396 -1.0983
 5133SOL    HW226859   2.009   1.046   0.321 -0.2797  0.2979  1.0986
 5134SOL     OW26860   1.335   3.290   6.135  0.4905 -0.0839 -0.1613
 5134SOL    HW126861   1.295   3.214   6.176 -0.3775 -1.3798 -3.3568
 5134SOL    HW226862   1.421   3.255   6.115  0.7788 -0.3783  1.6207
 5135SOL     OW26863   4.084   3.695  12.209 -0.0142 -0.5568 -0.3432
 5135SOL    HW126864   4.040   3.771  12.170  2.2999 -0.2052 -2.2796
 5135SOL    HW226865   4.148   3.666  12.145  0.1027 -1.2926  0.1122
 5136SOL     OW26866   1.150   4.548  14.526  0.2947  0.4412  0.5034
 5136SOL    HW126867   1.222   4.535  14.463  0.4204  1.4389  0.4476
 5136SOL    HW226868   1.153   4.466  14.576 -0.0537 -1.2073 -2.1662
 5137SOL     OW26869   1.447   4.707   5.764  0.1534 -0.2155 -0.7744
 5137SOL    HW126870   1.525   0.001   5.816 -2.2727 -0.2371  2.8643
 5137SOL    HW226871   1.384   0.003   5.832 -0.4795 -0.1685 -1.3697
 5138SOL     OW26872   2.938   3.761   1.095  0.0274 -0.2358 -0.4197
 5138SOL    HW126873   3.003   3.694   1.074  0.7790  0.4091 -0.1511
 5138SOL    HW226874   2.912   3.801   1.012  0.4226  1.1042  0.1093
 5139SOL     OW26875   1.652   4.367   3.226  0.4496 -0.0683 -0.1151
 5139SOL    HW126876   1.650   4.372   3.321  2.5236 -2.4084  0.0472
 5139SOL    HW226877   1.697   4.283   3.226 -1.7784 -1.2759  0.5640
 5140SOL     OW26878   3.808   3.647   7.900  0.3353  0.1035 -0.4433
 5140SOL    HW126879   3.883   3.614   7.850  1.4852  0.3875  1.0845
 5140SOL    HW226880   3.736   3.618   7.843  1.3070  1.1990 -2.2491
 5141SOL     OW26881   2.172   3.207   3.274 -0.4872 -0.2165 -0.0520
 5141SOL    HW126882   2.088   3.247   3.252 -0.5929  0.6594  2.0307
 5141SOL    HW226883   2.216   3.284   3.308  1.1744 -1.1918  0.0030
 5142SOL     OW26884   2.805   4.133  12.184 -0.0977 -0.6210  0.6378
 5142SOL    HW126885   2.776   4.173  12.102  0.4995 -2.0436 -0.2625
 5142SOL    HW226886   2.775   4.202  12.243  0.5684  1.1692 -1.0981
 5143SOL     OW26887   4.701   2.993  10.269 -0.0330  0.1981  0.0073
 5143SOL    HW126888   0.069   2.995  10.278  0.0879  1.9931 -1.5312
 5143SOL    HW226889   4.680   3.084  10.289  1.9263  0.6269  0.1667
 5144SOL     OW26890   3.591   4.363   6.419  0.1726 -0.4130 -0.2368
 5144SOL    HW126891   3.680   4.379   6.387  0.3248 -2.0165 -0.6356
 5144SOL    HW226892   3.538   4.385   6.343 -0.4829  0.0960  0.3694
 5145SOL     OW26893   3.420   0.033   4.575 -0.1435  0.2373  0.6990
 5145SOL    HW126894   3.477   0.050   4.499 -3.2143  3.0749 -0.9509
 5145SOL    HW226895   3.425   4.665   4.582  1.4110  0.4099  2.0516
 5146SOL     OW26896   4.203   2.971   4.206 -0.1299  0.3156  0.1231
 5146SOL    HW126897   4.271   2.904   4.208  0.4497  0.9497  1.6727
 5146SOL    HW226898   4.217   3.019   4.288 -1.6675 -1.7511  1.6010
 5147SOL     OW26899   4.553   3.851   6.032  0.4050 -0.1392  0.0076
 5147SOL    HW126900   4.648   3.840   6.033  0.2336 -1.3597  1.4112
 5147SOL    HW226901   4.523   3.762   6.052 -1.5540  0.4569 -0.2900
 5148SOL     OW26902   3.933   3.336   4.644  0.1354 -0.5689 -0.0866
 5148SOL    HW126903   3.865   3.387   4.687  1.1790  0.4065  0.4000
 5148SOL    HW226904   3.919   3.257   4.697 -1.4398  0.6991  1.3741
 5149SOL     OW26905   3.881   4.584   3.393  0.2012  0.0888 -0.3105
 5149SOL    HW126906   3.966   4.589   3.436 -1.2907  1.0086  2.5293
 5149SOL    HW226907   3.855   4.675   3.404  2.6638  0.6896  0.4231
 5150SOL     OW26908   1.709   3.616   7.708  0.3219  0.2797  0.9874
 5150SOL    HW126909   1.722   3.657   7.793  0.7133 -0.8911  1.4891
 5150SOL    HW226910   1.767   3.539   7.708 -0.5381 -0.3536 -0.9116
 5151SOL     OW26911   2.565   4.158   1.608 -0.3934 -0.2047 -0.0755
 5151SOL    HW126912   2.560   4.146   1.513  0.3962 -1.2855  0.0270
 5151SOL    HW226913   2.656   4.139   1.629  0.0700  0.8148 -1.1547
 5152SOL     OW26914   3.773   0.884  11.782 -0.1585  0.1108 -0.3113
 5152SOL    HW126915   3.865   0.864  11.767 -0.4325 -2.4692  1.4590
 5152SOL    HW226916   3.754   0.814  11.845 -0.8996 -1.1665 -1.9469
 5153SOL     OW26917   2.896   3.353   8.560  0.1010  0.6350 -0.3482
 5153SOL    HW126918   2.923   3.377   8.649 -0.9646  2.3157 -0.4727
 5153SOL    HW226919   2.804   3.375   8.574  0.5028  1.4968  1.0532
 5154SOL     OW26920   1.324   1.027  16.443 -0.3033 -0.1138 -0.6139
 5154SOL    HW126921   1.340   1.118  16.420 -2.4959 -0.0896 -2.0147
 5154SOL    HW226922   1.342   0.982  16.360  0.0903 -0.8004 -0.1577
 5155SOL     OW26923   2.086   0.181   6.078 -0.7749  0.5733  0.5537
 5155SOL    HW126924   2.022   0.217   6.017 -1.0069  0.8435  0.9589
 5155SOL    HW226925   2.173   0.201   6.043 -1.4607 -0.5810 -1.7818
 5156SOL     OW26926   0.014   1.261  13.190 -0.2091  0.3258 -0.0238
 5156SOL    HW126927   0.039   1.352  13.201 -1.0861  0.6395 -0.5919
 5156SOL    HW226928   0.067   1.245  13.112  0.4175  2.2555  0.0277
 5157SOL     OW26929   1.995   1.484  13.365 -0.1083  0.2443 -0.1161
 5157SOL    HW126930   1.997   1.514  13.455  2.0685  0.0765 -0.0949
 5157SOL    HW226931   2.005   1.389  13.372 -1.2317  0.1524  0.2143
 5158SOL     OW26932   3.113   4.126  11.345 -0.7107  0.7384 -0.1294
 5158SOL    HW126933   3.177   4.057  11.324  0.2461  1.9445 -1.1951
 5158SOL    HW226934   3.087   4.168  11.263 -1.7579  0.7462  0.2067
 5159SOL     OW26935   0.657   3.558   8.807  0.6235  0.0178  0.2691
 5159SOL    HW126936   0.646   3.597   8.894  1.5144 -0.3521  0.5539
 5159SOL    HW226937   0.668   3.467   8.835  1.3013 -0.5916 -2.0169
 5160SOL     OW26938   1.890   4.007   4.658 -0.0398 -0.2302 -0.0035
 5160SOL    HW126939   1.896   3.925   4.609  0.1327 -0.3358  0.1974
 5160SOL    HW226940   1.796   4.008   4.676 -0.2783 -2.7391 -1.0821
 5161SOL     OW26941   2.357   2.715   3.328  0.3228 -0.0512  0.0233
 5161SOL    HW126942   2.318   2.631   3.350 -1.2289  0.4510 -0.7851
 5161SOL    HW226943   2.280   2.771   3.333 -0.9159 -1.4942 -2.9516
 5162SOL     OW26944   2.271   4.119  13.459  0.7251 -0.2090  0.0663
 5162SOL    HW126945   2.250   4.032  13.493  0.3929  0.2186  0.9590
 5162SOL    HW226946   2.178   4.143  13.458  0.2874 -1.8421  2.5232
 5163SOL     OW26947   3.990   0.204  13.186 -0.1805 -0.5559 -0.9673
 5163SOL    HW126948   4.086   0.210  13.179 -0.0787  2.0471  2.8677
 5163SOL    HW226949   3.982   0.244  13.099 -0.4857  1.1775 -0.1316
 5164SOL     OW26950   3.860   0.162  16.528  0.6484  0.0061 -0.2063
 5164SOL    HW126951   3.811   0.082  16.508  4.0361 -2.7660  2.4411
 5164SOL    HW226952   3.893   0.134  16.614  1.6482  1.6840 -0.0453
 5165SOL     OW26953   4.326   3.763   0.272 -0.0586  0.1111  0.8242
 5165SOL    HW126954   4.422   3.768   0.282  0.2243  3.0467 -2.9461
 5165SOL    HW226955   4.310   3.711   0.350 -0.7946 -0.5934  0.2089
 5166SOL     OW26956   0.328   4.319   5.896 -0.9902 -0.2928 -0.1027
 5166SOL    HW126957   0.377   4.350   5.972 -1.9759 -0.5328  0.6274
 5166SOL    HW226958   0.394   4.350   5.834  0.6867 -0.4861  1.5821
 5167SOL     OW26959   0.174   0.516   9.472 -0.2069  0.4472  0.4362
 5167SOL    HW126960   0.190   0.426   9.500 -3.2369  0.3695  2.0250
 5167SOL    HW226961   0.231   0.560   9.534 -0.7044  0.2830  1.0208
 5168SOL     OW26962   4.441   1.202   8.372 -0.0176 -0.0758 -0.5071
 5168SOL    HW126963   4.418   1.291   8.347  2.8333  0.6768 -0.4383
 5168SOL    HW226964   4.528   1.209   8.411 -0.2812 -1.4477  0.3437
 5169SOL     OW26965   4.433   3.857   3.453  0.3322 -0.3574 -0.8060
 5169SOL    HW126966   4.421   3.951   3.440 -0.1130 -0.4164 -0.8503
 5169SOL    HW226967   4.381   3.827   3.378 -1.7795  0.0248  0.5049
 5170SOL     OW26968   1.330   1.030   1.802  0.3953  0.1914 -0.2097
 5170SOL    HW126969   1.293   1.036   1.714  0.2974 -1.9115 -0.3264
 5170SOL    HW226970   1.260   0.988   1.852  1.1427  2.0211  2.3960
 5171SOL     OW26971   2.729   3.180  12.432 -0.2890 -0.2698 -0.2901
 5171SOL    HW126972   2.819   3.185  12.401  0.1931 -0.1236  1.1017
 5171SOL    HW226973   2.708   3.256  12.487  0.8725 -2.4404  3.1814
 5172SOL     OW26974   1.573   3.030  13.315 -0.7511  0.0509  0.0672
 5172SOL    HW126975   1.610   2.959  13.366 -0.9770  0.5124  0.8726
 5172SOL    HW226976   1.551   2.980  13.236 -0.5064  0.1304 -0.0496
 5173SOL     OW26977   2.531   1.974  15.066  0.5793 -0.3093 -0.3491
 5173SOL    HW126978   2.610   2.018  15.096  0.3538  0.7342 -1.2800
 5173SOL    HW226979   2.488   2.032  15.003 -0.5901  0.6705  1.3278
 5174SOL     OW26980   2.107   1.934   9.140 -0.3017  0.3413 -0.1415
 5174SOL    HW126981   2.062   2.011   9.176 -2.8294 -0.7195 -1.0220
 5174SOL    HW226982   2.043   1.867   9.164 -0.8463  1.6195  1.9262
 5175SOL     OW26983   0.900   2.949   6.131 -0.4693  0.7561  0.0262
 5175SOL    HW126984   0.949   3.003   6.192 -2.1746 -0.0245  2.0705
 5175SOL    HW226985   0.848   3.016   6.086 -3.3502 -0.1365  2.0444
 5176SOL     OW26986   3.586   3.462   0.922 -0.4510 -0.5766 -0.7039
 5176SOL    HW126987   3.655   3.515   0.881 -0.8510 -0.3193 -1.0427
 5176SOL    HW226988   3.515   3.481   0.861 -0.0813  2.9844  0.0079
 5177SOL     OW26989   1.881   1.255   7.586  0.1564 -0.3130 -0.3041
 5177SOL    HW126990   1.901   1.349   7.582  0.1703 -0.3016  0.0368
 5177SOL    HW226991   1.853   1.252   7.677  0.9939 -0.9031 -0.0701
 5178SOL     OW26992   1.971   1.201  13.344 -0.3079  0.4016 -0.2025
 5178SOL    HW126993   2.052   1.205  13.293  0.8913  1.2139  1.7545
 5178SOL    HW226994   1.928   1.126  13.303 -0.1798  0.0595  0.2880
 5179SOL     OW26995   4.606   2.230   1.168  0.4695  0.3273 -0.6330
 5179SOL    HW126996   4.628   2.323   1.162 -2.6834  1.0521 -1.0270
 5179SOL    HW226997   4.656   2.188   1.098  2.2136 -1.1227  1.4630
 5180SOL     OW26998   3.989   0.794  15.387 -0.1194 -0.3825  0.0562
 5180SOL    HW126999   3.921   0.789  15.320  0.1796 -1.6180 -0.1495
 5180SOL    HW227000   3.991   0.890  15.392 -3.1059 -0.2742 -1.2460
 5181SOL     OW27001   2.831   4.566   2.096 -0.2315 -0.0481 -0.5291
 5181SOL    HW127002   2.781   4.488   2.071 -0.2731  0.8502 -3.2921
 5181SOL    HW227003   2.891   4.521   2.155 -0.4929  1.2897  0.7581
 5182SOL     OW27004   1.837   1.513   7.974 -0.0781 -0.2182  0.5458
 5182SOL    HW127005   1.927   1.539   7.956 -0.6670  0.4303 -1.4740
 5182SOL    HW227006   1.777   1.548   7.908  0.0818 -1.7874 -0.4490
 5183SOL     OW27007   0.199   2.843   4.776 -0.0370 -0.2483 -0.7597
 5183SOL    HW127008   0.179   2.936   4.786  0.9671 -0.2448  1.2447
 5183SOL    HW227009   0.168   2.806   4.858  0.4283 -4.1958 -2.3279
 5184SOL     OW27010   3.875   3.662   7.565  0.1919 -0.1327 -0.1546
 5184SOL    HW127011   3.916   3.746   7.544 -0.7262  0.4143  0.2724
 5184SOL    HW227012   3.815   3.660   7.490  1.5521 -4.1470 -1.1478
 5185SOL     OW27013   2.924   0.353   6.993 -0.1264  0.3413 -0.0684
 5185SOL    HW127014   2.857   0.369   6.926  0.2404  0.1823 -0.4693
 5185SOL    HW227015   2.939   0.436   7.038 -3.3757 -0.2655  2.1736
 5186SOL     OW27016   0.312   4.026   0.416 -0.8043  0.1591 -0.7961
 5186SOL    HW127017   0.334   4.015   0.509 -0.4809 -3.8104 -1.3520
 5186SOL    HW227018   0.392   3.984   0.384 -2.3373 -2.3444 -1.3560
 5187SOL     OW27019   4.677   0.778   7.705 -0.4136  0.4247  0.5518
 5187SOL    HW127020   4.593   0.739   7.680  0.9771 -1.8027 -0.7192
 5187SOL    HW227021   4.696   0.836   7.632 -0.5318 -1.6813 -1.1649
 5188SOL     OW27022   0.456   0.726   9.859 -0.2033  0.1417  0.0633
 5188SOL    HW127023   0.456   0.710   9.954 -0.5443 -0.2001  0.0045
 5188SOL    HW227024   0.472   0.820   9.854  0.4560 -0.0249 -0.8845
 5189SOL     OW27025   2.565   1.574  17.554 -0.1920  0.6177 -0.4181
 5189SOL    HW127026   2.503   1.521  17.505  1.6925 -0.9003 -1.1867
 5189SOL    HW227027   2.517   1.599  17.633  0.0367 -1.9731  0.5355
 5190SOL     OW27028   2.279   3.304  11.304  0.0440 -0.2836 -0.2823
 5190SOL    HW127029   2.191   3.332  11.330 -0.3351 -2.2806  0.5155
 5190SOL    HW227030   2.292   3.227  11.359  3.2410  0.1193 -0.4905
 5191SOL     OW27031   4.721   1.229   6.841  0.1202 -0.3859  0.0798
 5191SOL    HW127032   0.060   1.170   6.804  1.9913 -0.1790  3.0663
 5191SOL    HW227033   4.696   1.289   6.771 -0.4062  0.0136  0.6012
 5192SOL     OW27034   1.484   4.296   5.126  0.4302 -0.4899  0.4225
 5192SOL    HW127035   1.459   4.225   5.067  1.0120 -0.6219  0.3337
 5192SOL    HW227036   1.575   4.271   5.140  1.1958  2.8657  1.5203
 5193SOL     OW27037   1.160   2.024   1.835  0.2827  0.3857 -0.5062
 5193SOL    HW127038   1.156   2.103   1.889  0.2279 -1.0796  1.6412
 5193SOL    HW227039   1.205   1.965   1.896 -0.0737 -1.0061 -1.6039
 5194SOL     OW27040   3.144   2.511   1.288  0.1112 -0.4782 -0.1196
 5194SOL    HW127041   3.197   2.513   1.208 -1.4240 -0.5876 -1.1268
 5194SOL    HW227042   3.179   2.449   1.352  1.1171  0.4042  0.2007
 5195SOL     OW27043   4.008   4.290   0.646 -0.3518 -0.0453  0.1289
 5195SOL    HW127044   4.084   4.330   0.604 -0.7302 -1.0819 -1.5756
 5195SOL    HW227045   3.938   4.310   0.583  0.4937 -1.7486 -1.3642
 5196SOL     OW27046   0.975   3.237   6.167  0.2450 -0.1338 -0.1064
 5196SOL    HW127047   0.997   3.315   6.115  1.1684 -1.2674 -1.4029
 5196SOL    HW227048   0.920   3.275   6.235 -1.1984 -2.2428 -0.0807
 5197SOL     OW27049   4.576   0.492   8.785 -0.7999  0.1161  0.0254
 5197SOL    HW127050   4.510   0.426   8.762  0.4323 -0.2756 -2.4322
 5197SOL    HW227051   4.634   0.426   8.823  0.6308  1.9266  0.9658
 5198SOL     OW27052   2.201   1.131   5.827 -0.1833  0.0328  0.7438
 5198SOL    HW127053   2.283   1.168   5.792  0.0248 -2.1736 -1.0814
 5198SOL    HW227054   2.169   1.206   5.877  0.6412 -0.7341  2.4034
 5199SOL     OW27055   2.254   3.831  14.419  0.1220  0.3070 -0.1963
 5199SOL    HW127056   2.214   3.747  14.394 -0.2856  0.3798  0.2080
 5199SOL    HW227057   2.285   3.794  14.501 -0.6686  1.9573  0.8469
 5200SOL     OW27058   2.203   1.771   8.444 -0.0288 -0.3725  0.1639
 5200SOL    HW127059   2.109   1.758   8.451  0.2370 -1.8056  1.0092
 5200SOL    HW227060   2.229   1.720   8.521  0.1592  0.8086  0.8860
 5201SOL     OW27061   0.309   2.813  10.467  0.0676  0.2432 -0.2408
 5201SOL    HW127062   0.309   2.806  10.562  0.2928  3.7984  0.0202
 5201SOL    HW227063   0.332   2.724  10.438 -0.1295 -0.0965  0.6529
 5202SOL     OW27064   2.118   3.675   3.167  1.3357 -0.0289 -0.3101
 5202SOL    HW127065   2.111   3.659   3.261  0.4908 -0.8553 -0.5166
 5202SOL    HW227066   2.160   3.760   3.152  0.0670  0.6886  0.2416
 5203SOL     OW27067   4.693   3.032   5.476  0.3890 -0.3679  0.2411
 5203SOL    HW127068   4.702   3.062   5.567 -0.1189  1.3495 -0.2756
 5203SOL    HW227069   0.058   3.012   5.463  0.2725  0.1463 -1.3531
 5204SOL     OW27070   0.664   4.490  17.344  0.2146  0.4879 -0.5583
 5204SOL    HW127071   0.593   4.467  17.283  0.4720  0.3645 -0.8116
 5204SOL    HW227072   0.694   4.405  17.377 -0.8607  0.0215 -0.7814
 5205SOL     OW27073   2.237   3.447   0.495 -0.1892 -0.0406 -0.0724
 5205SOL    HW127074   2.166   3.511   0.492 -1.1739 -1.1846 -1.0595
 5205SOL    HW227075   2.183   3.379   0.456  1.1585 -1.7251  1.0069
 5206SOL     OW27076   0.470   0.867  16.053  0.3065  0.3031 -0.0300
 5206SOL    HW127077   0.451   0.854  15.960 -0.1266 -1.1620  0.2601
 5206SOL    HW227078   0.396   0.826  16.096 -0.0475  1.0863  0.1079
 5207SOL     OW27079   3.416   3.430  16.204 -0.1921 -0.1927 -0.6229
 5207SOL    HW127080   3.416   3.347  16.252  2.8721 -0.0703 -0.4052
 5207SOL    HW227081   3.336   3.424  16.152 -0.1389 -0.0778 -0.7178
 5208SOL     OW27082   3.158   1.716   4.822 -0.0489 -0.1637  0.2990
 5208SOL    HW127083   3.198   1.657   4.887 -1.1688 -2.4446 -1.0760
 5208SOL    HW227084   3.064   1.700   4.832  0.1074 -1.6662 -0.5384
 5209SOL     OW27085   3.849   3.487   2.682  0.0448  0.2490  0.4147
 5209SOL    HW127086   3.872   3.395   2.689  0.1716  0.2273 -0.2387
 5209SOL    HW227087   3.754   3.486   2.695 -0.0674 -0.7155 -0.5673
 5210SOL     OW27088   2.565   4.611  17.609  0.0920 -0.0404 -0.2283
 5210SOL    HW127089   2.541   4.569  17.692  0.1371 -0.5017 -0.4452
 5210SOL    HW227090   2.597   4.693  17.646  0.8568 -0.6388  0.4547
 5211SOL     OW27091   2.075   0.147  11.163 -0.4144 -0.3534 -0.2296
 5211SOL    HW127092   2.098   0.220  11.106 -1.0396 -1.3426 -1.7555
 5211SOL    HW227093   2.078   0.069  11.108 -0.7652  0.0486 -0.8166
 5212SOL     OW27094   2.988   4.665   1.705 -0.4908 -0.3696 -0.0074
 5212SOL    HW127095   2.951   0.025   1.718 -0.1973 -0.5377  2.0155
 5212SOL    HW227096   3.036   4.681   1.624  1.5201 -2.6283  0.7274
 5213SOL     OW27097   1.556   1.874   1.272 -0.4438  0.2516 -0.3467
 5213SOL    HW127098   1.520   1.836   1.353 -0.5599 -1.3516 -1.1374
 5213SOL    HW227099   1.527   1.965   1.277 -2.2873 -0.3069 -0.8997
 5214SOL     OW27100   3.187   0.734   3.995  0.3657  0.0416  0.1171
 5214SOL    HW127101   3.218   0.653   3.956 -0.4633 -0.7842  1.1848
 5214SOL    HW227102   3.268   0.785   4.001  0.0657  0.4935  0.3602
 5215SOL     OW27103   3.086   3.793   3.579 -0.0961  0.2702 -0.1996
 5215SOL    HW127104   3.063   3.704   3.552 -0.6603 -0.5768  3.1237
 5215SOL    HW227105   3.005   3.817   3.624 -0.2204 -1.3902  0.4674
 5216SOL     OW27106   2.451   3.613  10.812  0.3755 -0.1719 -0.2187
 5216SOL    HW127107   2.528   3.604  10.869 -0.6393 -2.1865  0.8460
 5216SOL    HW227108   2.384   3.566  10.862 -0.2490  0.2174 -0.6983
 5217SOL     OW27109   0.164   3.955   7.129  0.4498  0.1287 -0.2077
 5217SOL    HW127110   0.139   3.866   7.103  1.4732 -0.3811  0.5568
 5217SOL    HW227111   0.252   3.951   7.091  0.3777  1.1616 -0.4878
 5218SOL     OW27112   0.670   2.753   8.938  0.6873  0.0002 -0.0379
 5218SOL    HW127113   0.620   2.827   8.971  1.6473  0.7448 -0.2549
 5218SOL    HW227114   0.613   2.691   8.983  2.6823 -1.8284 -0.0120
 5219SOL     OW27115   2.776   3.174   5.122 -0.2548 -0.2745  0.2556
 5219SOL    HW127116   2.755   3.205   5.210 -0.3190 -0.8923  0.4565
 5219SOL    HW227117   2.736   3.087   5.121 -0.4490 -0.1920  1.0855
 5220SOL     OW27118   2.064   2.850   3.342  0.4978  0.1375 -0.6138
 5220SOL    HW127119   2.124   2.881   3.275 -1.4819  1.6919 -1.6361
 5220SOL    HW227120   2.017   2.930   3.364 -1.4030 -1.1727  0.1246
 5221SOL     OW27121   4.341   4.121   3.373  0.1646  0.4545  0.5924
 5221SOL    HW127122   4.314   4.124   3.465  1.7972  0.8527  1.0725
 5221SOL    HW227123   4.297   4.199   3.340 -1.2995 -1.1099 -1.0639
 5222SOL     OW27124   2.044   4.182   9.622 -0.2960  0.2862  0.0194
 5222SOL    HW127125   2.136   4.183   9.649 -0.8737  2.3709  1.8816
 5222SOL    HW227126   2.008   4.209   9.706  1.2654 -2.5277  1.5938
 5223SOL     OW27127   1.460   2.044   5.416 -0.2286 -0.1278  0.0289
 5223SOL    HW127128   1.433   2.121   5.366 -1.5549 -0.3748  0.3675
 5223SOL    HW227129   1.439   1.974   5.355  0.3061 -1.7149  1.6356
 5224SOL     OW27130   1.755   2.000   7.700  0.1699 -0.1800 -0.2667
 5224SOL    HW127131   1.750   1.944   7.777  0.4108  0.5950  0.3074
 5224SOL    HW227132   1.661   2.011   7.686 -0.0519 -1.3893  0.3122
 5225SOL     OW27133   3.507   3.729   3.013  0.6372  0.0151 -0.4451
 5225SOL    HW127134   3.602   3.727   3.000  1.0020  1.7535  1.8618
 5225SOL    HW227135   3.507   3.677   3.094 -0.4608 -0.2963 -0.6385
 5226SOL     OW27136   0.857   2.998   0.400 -0.4511  0.1105  0.0245
 5226SOL    HW127137   0.781   3.053   0.418 -0.8615 -0.7789  1.0414
 5226SOL    HW227138   0.816   2.923   0.357  0.6315  0.1578 -1.0874
 5227SOL     OW27139   3.214   0.374   1.952  0.3879 -0.1016 -0.4902
 5227SOL    HW127140   3.244   0.393   2.041  1.7654  1.5384 -1.2967
 5227SOL    HW227141   3.253   0.441   1.896  2.3521 -0.5438  0.3231
 5228SOL     OW27142   4.105   0.240  16.456 -0.1883  0.2654  0.2322
 5228SOL    HW127143   4.026   0.187  16.448 -0.8012  1.1723  0.2770
 5228SOL    HW227144   4.080   0.282  16.538  1.3607  0.9208  0.3677
 5229SOL     OW27145   1.176   1.104   2.283  0.3344  0.2317  0.7267
 5229SOL    HW127146   1.238   1.108   2.354  1.5865 -1.7858 -0.2336
 5229SOL    HW227147   1.100   1.069   2.330  0.1015 -2.9463 -1.9852
 5230SOL     OW27148   1.780   0.036   7.723  0.5937 -0.0658 -0.0639
 5230SOL    HW127149   1.706   0.007   7.669  0.8005 -1.3268  0.3481
 5230SOL    HW227150   1.748   0.017   7.811 -1.8575 -0.8608 -1.1286
 5231SOL     OW27151   1.221   2.046  11.503 -0.3206 -0.4456 -0.2307
 5231SOL    HW127152   1.315   2.061  11.501 -1.0994  4.7464  0.4132
 5231SOL    HW227153   1.200   1.953  11.507 -1.3640 -0.2088 -0.0105
 5232SOL     OW27154   4.123   1.745   8.585 -0.3820 -0.3613 -0.0343
 5232SOL    HW127155   4.053   1.690   8.618 -1.2967  0.7358 -0.1418
 5232SOL    HW227156   4.168   1.670   8.546  2.1891 -0.6385  3.4883
 5233SOL     OW27157   3.554   2.947  15.453  0.4677  0.1916 -0.0566
 5233SOL    HW127158   3.628   2.904  15.410  0.4451 -0.1460  0.2409
 5233SOL    HW227159   3.573   3.039  15.439 -0.4128  0.2488 -0.8450
 5234SOL     OW27160   3.812   4.032   4.529 -0.0182 -0.2487 -0.5698
 5234SOL    HW127161   3.903   4.006   4.543  0.8842  3.9726  1.3868
 5234SOL    HW227162   3.793   4.078   4.611 -1.7586  1.3966 -1.8979
 5235SOL     OW27163   4.493   0.411   9.135 -0.1327 -0.3752 -0.0686
 5235SOL    HW127164   4.475   0.347   9.066 -0.9390 -0.1875 -0.0363
 5235SOL    HW227165   4.585   0.395   9.155 -0.5283 -0.5086  1.7178
 5236SOL     OW27166   2.070   0.382   9.311 -0.1433 -0.4635 -0.1007
 5236SOL    HW127167   2.074   0.455   9.372 -1.9510 -0.2217 -0.2818
 5236SOL    HW227168   1.979   0.385   9.284 -0.7915 -0.8414  2.0822
 5237SOL     OW27169   1.936   1.501   1.855 -0.9528 -0.1634  0.4353
 5237SOL    HW127170   1.887   1.474   1.778  2.7308 -0.3553 -1.8685
 5237SOL    HW227171   1.996   1.564   1.815 -1.4177 -0.9968 -1.5703
 5238SOL     OW27172   1.298   2.011   4.277 -0.0374  0.7655  0.0260
 5238SOL    HW127173   1.286   1.988   4.185 -1.7018  0.8536  0.2056
 5238SOL    HW227174   1.221   1.976   4.322 -0.5191  0.6929 -0.8480
 5239SOL     OW27175   2.119   3.233   0.099 -0.1404  0.1513 -0.6506
 5239SOL    HW127176   2.121   3.147   0.141 -0.6667  0.0210 -0.8992
 5239SOL    HW227177   2.026   3.254   0.092 -0.3089 -1.2253 -2.3684
 5240SOL     OW27178   4.271   4.392   5.317 -0.1615 -0.0467 -0.2535
 5240SOL    HW127179   4.331   4.354   5.253  0.0152  0.2775 -0.2791
 5240SOL    HW227180   4.196   4.333   5.318  0.1752 -0.3916  3.7005
 5241SOL     OW27181   0.060   2.735   5.463  0.4337  0.6734  0.1866
 5241SOL    HW127182   0.115   2.686   5.525  0.7951  1.0321  0.1435
 5241SOL    HW227183   4.724   2.769   5.527  0.0018 -2.0923  1.2560
 5242SOL     OW27184   3.326   1.670  13.620  0.7356 -0.1340  0.6176
 5242SOL    HW127185   3.357   1.752  13.582 -1.2450  0.3871  0.1306
 5242SOL    HW227186   3.358   1.601  13.561 -1.1577  0.7473 -1.3886
 5243SOL     OW27187   0.918   4.493   4.204 -0.7056  0.4890 -0.5774
 5243SOL    HW127188   0.838   4.452   4.237 -0.5777  1.3425  0.8468
 5243SOL    HW227189   0.957   4.431   4.143 -0.6389 -1.9024  1.8569
 5244SOL     OW27190   2.187   3.674   4.465  0.4162 -0.1397 -0.0695
 5244SOL    HW127191   2.180   3.758   4.420 -1.4984 -1.0553 -1.4617
 5244SOL    HW227192   2.133   3.702   4.539  2.7192  3.4854  0.2394
 5245SOL     OW27193   2.655   2.941   3.035 -0.4314  0.0641  0.2005
 5245SOL    HW127194   2.743   2.910   3.057 -1.5231 -2.1249  1.4420
 5245SOL    HW227195   2.594   2.868   3.028 -0.8318  0.3728  0.4667
 5246SOL     OW27196   4.229   3.568  16.718  0.0586  0.1925 -0.0610
 5246SOL    HW127197   4.140   3.581  16.750  0.9028  0.7431  2.0414
 5246SOL    HW227198   4.226   3.515  16.638  0.3631  1.3086 -0.8146
 5247SOL     OW27199   1.508   3.789   1.549  0.0193  0.3167 -0.1997
 5247SOL    HW127200   1.418   3.817   1.564  1.1241  3.5535  0.3771
 5247SOL    HW227201   1.551   3.841   1.618  1.1089  0.8836 -1.2941
 5248SOL     OW27202   3.219   2.531   2.041  0.0770  0.0437 -0.1551
 5248SOL    HW127203   3.284   2.485   2.094  2.3524  1.3657 -1.8033
 5248SOL    HW227204   3.149   2.467   2.052 -0.6609  0.8871  0.0620
 5249SOL     OW27205   1.861   3.849   5.004  0.1049  0.5771 -0.2556
 5249SOL    HW127206   1.851   3.807   4.919 -0.4513 -2.1469  1.1585
 5249SOL    HW227207   1.952   3.876   4.992  0.4252 -0.5656 -0.3529
 5250SOL     OW27208   0.773   3.325   5.179 -0.5518  0.5544  0.1733
 5250SOL    HW127209   0.855   3.328   5.130 -1.4216  2.4769 -1.1593
 5250SOL    HW227210   0.743   3.416   5.180  0.0640  0.7868 -1.3679
 5251SOL     OW27211   2.513   3.342   9.054  0.1090 -0.4518  0.2383
 5251SOL    HW127212   2.549   3.332   9.142 -1.2857 -0.1663  0.8249
 5251SOL    HW227213   2.487   3.434   9.061  0.5869 -0.3839  1.0703
 5252SOL     OW27214   0.585   1.031   2.065 -0.3707 -0.0335  0.3513
 5252SOL    HW127215   0.586   0.942   2.098 -1.7555 -0.3976 -0.6221
 5252SOL    HW227216   0.679   1.050   2.072 -0.6291  1.1659  0.5429
 5253SOL     OW27217   3.340   3.603   7.776 -0.6620  0.3613  0.1970
 5253SOL    HW127218   3.307   3.619   7.688  0.6693 -0.6631 -0.4823
 5253SOL    HW227219   3.305   3.674   7.829  2.5728  1.9486  0.1909
 5254SOL     OW27220   0.768   2.283   4.437  0.8378  0.1372  0.4820
 5254SOL    HW127221   0.734   2.195   4.418 -2.0947  1.5162 -0.7352
 5254SOL    HW227222   0.825   2.255   4.509 -0.2396 -0.3360  1.1576
 5255SOL     OW27223   3.156   1.364  13.351  0.4947  0.8061 -0.0216
 5255SOL    HW127224   3.193   1.411  13.426 -0.8670  0.5002  0.8327
 5255SOL    HW227225   3.075   1.415  13.343 -0.0231 -0.0138  0.0067
 5256SOL     OW27226   4.269   2.985  15.494  0.3878 -0.0261 -0.6640
 5256SOL    HW127227   4.354   3.024  15.514  0.1020 -0.2122  0.9488
 5256SOL    HW227228   4.277   2.942  15.409  0.6653 -1.2538 -0.0202
 5257SOL     OW27229   3.788   1.195   0.687 -0.1454  0.2909 -0.4456
 5257SOL    HW127230   3.825   1.283   0.698  1.1643 -0.6937  2.9664
 5257SOL    HW227231   3.837   1.147   0.754  0.1335 -0.7272 -1.3927
 5258SOL     OW27232   1.563   3.363   3.770 -0.5826  0.4111 -0.0309
 5258SOL    HW127233   1.524   3.276   3.772 -3.4561  1.6734 -1.1185
 5258SOL    HW227234   1.576   3.379   3.864 -1.8016 -1.2887  0.4247
 5259SOL     OW27235   0.940   0.320   5.120  0.0511  0.1100  0.1706
 5259SOL    HW127236   1.018   0.298   5.068  2.0500  3.4694  1.7999
 5259SOL    HW227237   0.889   0.239   5.116  2.0274 -1.2075  1.3405
 5260SOL     OW27238   3.488   3.897   7.244  0.2569 -0.4844 -0.0015
 5260SOL    HW127239   3.437   3.954   7.302  0.5611  0.6858 -0.8762
 5260SOL    HW227240   3.566   3.897   7.299 -0.2770 -0.4400  0.7553
 5261SOL     OW27241   1.516   3.148  16.342 -0.3361 -0.0510  0.1991
 5261SOL    HW127242   1.554   3.231  16.313 -0.8747  0.2438  0.3380
 5261SOL    HW227243   1.490   3.093  16.268 -0.1766 -2.7441  2.1393
 5262SOL     OW27244   0.237   0.498   2.359  0.2007  0.0424 -0.5798
 5262SOL    HW127245   0.240   0.514   2.264 -1.0700  0.5538 -0.5354
 5262SOL    HW227246   0.272   0.585   2.378 -0.9855 -0.1750  2.4863
 5263SOL     OW27247   0.010   1.999   8.991  0.2566 -0.3544 -0.0963
 5263SOL    HW127248   4.675   2.019   8.921  1.1157 -2.0866 -1.3784
 5263SOL    HW227249   0.096   2.011   8.950  1.0321 -0.8642  1.3665
 5264SOL     OW27250   4.320   3.921  17.140 -0.1010 -0.4952  0.3730
 5264SOL    HW127251   4.236   3.966  17.147 -0.8025 -1.4181 -2.1462
 5264SOL    HW227252   4.368   3.961  17.067  2.2182 -0.5475  1.8445
 5265SOL     OW27253   3.396   0.960   3.776  0.2994 -0.0806  0.4563
 5265SOL    HW127254   3.363   0.896   3.713 -1.5219 -1.5022  2.8816
 5265SOL    HW227255   3.393   0.907   3.856 -3.0735  0.8408  0.9120
 5266SOL     OW27256   0.469   4.015  17.151 -0.2116  0.3738 -0.3524
 5266SOL    HW127257   0.506   4.044  17.235 -1.1971  1.0245 -0.1454
 5266SOL    HW227258   0.508   4.062  17.077 -0.1183  1.0791  0.1396
 5267SOL     OW27259   1.134   3.174   4.911  0.4044  0.1839  0.2565
 5267SOL    HW127260   1.197   3.117   4.866  0.9184 -1.1550  2.6895
 5267SOL    HW227261   1.093   3.100   4.956  0.0780  1.0037  1.2896
 5268SOL     OW27262   0.453   0.197   2.547  0.5349  0.6856  0.4511
 5268SOL    HW127263   0.473   0.237   2.462  0.1341  1.9476  0.9559
 5268SOL    HW227264   0.410   0.116   2.520 -1.4991  1.5001  1.2860
 5269SOL     OW27265   0.333   1.172  10.518  0.3384  0.6849  0.1207
 5269SOL    HW127266   0.303   1.082  10.534 -0.7448  1.1706  0.8258
 5269SOL    HW227267   0.353   1.169  10.424  2.7522 -0.9174  0.6730
 5270SOL     OW27268   1.127   1.014  16.714 -0.0949  0.2425  0.1401
 5270SOL    HW127269   1.168   0.942  16.762  0.6286  2.0383  2.2231
 5270SOL    HW227270   1.095   0.964  16.638 -0.7003 -0.3928  0.8031
 5271SOL     OW27271   3.832   2.749   2.795  0.5187 -0.0286 -0.3847
 5271SOL    HW127272   3.914   2.780   2.833  0.0098 -2.1755  2.4830
 5271SOL    HW227273   3.835   2.753   2.700  1.9111  0.9681 -0.2934
 5272SOL     OW27274   2.017   2.626   8.295 -0.3006 -0.1173 -0.5851
 5272SOL    HW127275   2.007   2.560   8.226 -2.5368 -1.5156  1.0529
 5272SOL    HW227276   1.925   2.635   8.320 -0.2598  2.4504 -1.3776
 5273SOL     OW27277   0.447   1.290  16.920 -0.3979  0.7467 -0.7187
 5273SOL    HW127278   0.396   1.367  16.894 -0.4922  0.7082 -0.6446
 5273SOL    HW227279   0.517   1.332  16.970  0.7330  0.0171 -1.6953
 5274SOL     OW27280   3.954   1.301   0.969 -0.4901 -0.1690 -0.6302
 5274SOL    HW127281   3.942   1.352   0.890 -0.4989 -1.2257 -1.3131
 5274SOL    HW227282   3.927   1.213   0.940 -2.6487  0.1836  0.2944
 5275SOL     OW27283   1.874   1.205  16.917 -0.4112  0.4429 -0.4002
 5275SOL    HW127284   1.914   1.252  16.843  1.0180  0.9727  0.7078
 5275SOL    HW227285   1.782   1.232  16.915 -0.0328  1.6573 -1.9741
 5276SOL     OW27286   2.602   2.014   5.713 -0.2804 -0.5522 -0.8167
 5276SOL    HW127287   2.558   2.062   5.644 -0.3388 -1.0066 -1.0926
 5276SOL    HW227288   2.644   1.938   5.673 -1.0562 -1.0335 -0.7085
 5277SOL     OW27289   1.722   1.378  11.108 -0.8194  0.1826  0.1521
 5277SOL    HW127290   1.804   1.426  11.093 -0.4373 -0.7985 -0.9274
 5277SOL    HW227291   1.657   1.437  11.145  0.7735  1.5152  0.8412
 5278SOL     OW27292   2.827   1.125   8.313 -0.3083 -0.1336 -0.4663
 5278SOL    HW127293   2.877   1.089   8.240 -0.0084  0.1246 -0.3899
 5278SOL    HW227294   2.899   1.123   8.376 -3.2821 -1.6011  2.8374
 5279SOL     OW27295   2.400   0.376   5.521  0.7954  0.0189 -0.1227
 5279SOL    HW127296   2.440   0.331   5.447  3.0456  0.7999  0.6157
 5279SOL    HW227297   2.369   0.451   5.469 -2.0670 -0.1905  1.2649
 5280SOL     OW27298   3.879   4.081   9.465  0.2844 -0.3575  0.8580
 5280SOL    HW127299   3.871   3.986   9.460 -0.6888 -0.3055  1.3847
 5280SOL    HW227300   3.967   4.103   9.435  0.1173 -0.0655  0.5714
 5281SOL     OW27301   0.709   4.362   2.456  0.4364 -0.1483  0.5702
 5281SOL    HW127302   0.650   4.374   2.531 -2.6773  2.1021 -2.1796
 5281SOL    HW227303   0.689   4.436   2.398 -2.2713 -1.0832  0.3107
 5282SOL     OW27304   0.057   1.923   3.090  0.2983 -0.2910  0.2125
 5282SOL    HW127305   0.047   2.016   3.110 -1.6763 -0.3024 -0.6429
 5282SOL    HW227306   0.114   1.890   3.159 -1.4121 -2.9123  0.3646
 5283SOL     OW27307   4.278   4.445   6.705 -0.2176  0.0600  0.1919
 5283SOL    HW127308   4.221   4.393   6.761 -0.7597  1.0107  0.5135
 5283SOL    HW227309   4.226   4.454   6.625  0.9233  1.9969 -0.3449
 5284SOL     OW27310   2.298   3.002   5.596 -0.3524 -0.3596 -0.1522
 5284SOL    HW127311   2.319   2.953   5.516 -1.3578 -1.0480  0.0055
 5284SOL    HW227312   2.311   3.090   5.561 -1.4100  0.2840  1.0708
 5285SOL     OW27313   0.217   0.212   4.802 -0.3662 -0.7368  0.2360
 5285SOL    HW127314   0.198   0.295   4.759  0.7084 -0.2740  0.6706
 5285SOL    HW227315   0.126   0.185   4.818 -0.0077 -1.5355  0.9147
 5286SOL     OW27316   4.437   2.082   5.907 -0.5237 -0.2103  0.2421
 5286SOL    HW127317   4.487   2.018   5.857  1.0866  1.1092  0.1896
 5286SOL    HW227318   4.353   2.067   5.862  0.0405 -1.6421 -0.3144
 5287SOL     OW27319   0.723   4.327   3.405  0.0961 -0.5794  0.2535
 5287SOL    HW127320   0.770   4.267   3.463 -2.1527 -1.9563  0.6730
 5287SOL    HW227321   0.728   4.274   3.325 -2.7407  0.0777 -0.3784
 5288SOL     OW27322   1.137   4.089  12.561  0.1984  0.5034 -0.2840
 5288SOL    HW127323   1.137   3.994  12.575  0.5039  0.8550  2.0848
 5288SOL    HW227324   1.128   4.099  12.466 -1.1089 -1.9458 -0.4221
 5289SOL     OW27325   0.856   4.004   8.106  0.2392  0.5939  0.0151
 5289SOL    HW127326   0.857   3.951   8.025 -1.4077  2.5355 -1.2740
 5289SOL    HW227327   0.913   4.075   8.079  1.6613 -0.5316  0.0510
 5290SOL     OW27328   0.726   1.569   0.037  0.0836  0.0681 -0.2791
 5290SOL    HW127329   0.737   1.651   0.086 -0.2654  0.4689 -0.8683
 5290SOL    HW227330   0.800   1.571  17.687  1.9422  0.5160  1.9823
 5291SOL     OW27331   0.890   2.930   8.236 -0.5631 -0.9356 -0.3153
 5291SOL    HW127332   0.809   2.932   8.288 -0.7624 -0.4537 -0.6457
 5291SOL    HW227333   0.944   2.859   8.270 -0.3097 -0.5710  0.0578
 5292SOL     OW27334   0.915   2.706   7.370 -0.0949  0.3246  0.0433
 5292SOL    HW127335   0.953   2.791   7.349 -1.3318  0.9254  0.2000
 5292SOL    HW227336   0.826   2.733   7.395 -0.2535  2.0335 -2.4228
 5293SOL     OW27337   1.551   3.660   4.694 -0.2030  0.3633 -0.7865
 5293SOL    HW127338   1.571   3.680   4.602  1.7565 -1.5229 -0.7788
 5293SOL    HW227339   1.456   3.656   4.686 -0.3076  1.7286 -0.3417
 5294SOL     OW27340   1.123   4.200   2.142 -0.1773  0.1393  0.0149
 5294SOL    HW127341   1.174   4.133   2.096 -0.1778  1.0536 -1.3274
 5294SOL    HW227342   1.114   4.273   2.080 -0.9350 -0.8424 -1.0271
 5295SOL     OW27343   0.392   1.593   1.818 -0.4434  0.1827 -0.3253
 5295SOL    HW127344   0.459   1.603   1.751  0.7222  0.2991  0.8457
 5295SOL    HW227345   0.328   1.641   1.766  0.8847  0.2795 -1.8714
 5296SOL     OW27346   2.703   0.463   5.441 -0.0445  0.1346 -0.1363
 5296SOL    HW127347   2.700   0.425   5.353 -0.0482 -2.0026  0.7706
 5296SOL    HW227348   2.618   0.506   5.442 -0.0399  0.1825 -2.7006
 5297SOL     OW27349   3.148   4.071   2.184 -0.2927 -0.0460  0.0937
 5297SOL    HW127350   3.194   4.038   2.261 -1.3911 -2.3278 -0.2005
 5297SOL    HW227351   3.168   4.164   2.178  0.7001 -0.2709 -0.1659
 5298SOL     OW27352   3.236   1.859   8.788  0.0212  0.5393 -0.3254
 5298SOL    HW127353   3.322   1.818   8.777 -0.2688  0.7736 -3.2517
 5298SOL    HW227354   3.254   1.936   8.735  2.8173  1.1584  1.4691
 5299SOL     OW27355   3.161   3.121   3.658  0.2845 -0.6233  0.4875
 5299SOL    HW127356   3.256   3.118   3.665  0.1987 -0.2234  1.8603
 5299SOL    HW227357   3.141   3.165   3.741 -1.7352  0.5627 -0.6375
 5300SOL     OW27358   2.625   1.989   4.659  0.1157 -0.1993 -0.0777
 5300SOL    HW127359   2.673   2.065   4.625 -1.7763  0.7582 -0.5902
 5300SOL    HW227360   2.654   1.913   4.608 -0.1273 -1.1177  1.1509
 5301SOL     OW27361   1.779   0.216  10.687  0.1091  0.0641 -0.0369
 5301SOL    HW127362   1.853   0.185  10.635 -1.0120 -1.6589 -0.5955
 5301SOL    HW227363   1.744   0.289  10.634 -1.4192 -1.1308 -0.6870
 5302SOL     OW27364   1.431   0.004   9.475  0.9071 -0.4766  0.1775
 5302SOL    HW127365   1.338   0.019   9.493  1.1420 -0.7300  1.6516
 5302SOL    HW227366   1.426   4.638   9.456  2.7500 -0.5652  0.1169
 5303SOL     OW27367   0.633   3.580   4.791 -0.7405 -0.0678 -0.5294
 5303SOL    HW127368   0.697   3.522   4.750 -1.9743 -2.5874  1.1088
 5303SOL    HW227369   0.635   3.656   4.733  1.1315 -0.0505 -0.4282
 5304SOL     OW27370   0.191   0.558   8.291 -1.0522 -0.2275 -0.4248
 5304SOL    HW127371   0.272   0.519   8.257 -0.1998 -0.0851  1.4645
 5304SOL    HW227372   0.131   0.492   8.256 -1.0418 -0.3822 -0.1460
 5305SOL     OW27373   3.395   3.939   2.770 -0.2041  0.1089  0.1367
 5305SOL    HW127374   3.353   3.899   2.846 -1.1777  1.8647  0.5182
 5305SOL    HW227375   3.432   4.020   2.804  0.8016 -0.7788  1.1351
 5306SOL     OW27376   1.338   1.325   1.838 -0.0433 -0.4300  0.3301
 5306SOL    HW127377   1.357   1.231   1.847 -1.9901 -0.6069  2.6879
 5306SOL    HW227378   1.383   1.355   1.916 -0.3051 -1.6214  0.9476
 5307SOL     OW27379   0.201   3.581   0.368  0.1063 -0.0922  0.4604
 5307SOL    HW127380   0.247   3.507   0.409  0.2991 -0.7486 -0.9221
 5307SOL    HW227381   0.143   3.537   0.306  1.9861  1.3493 -2.3117
 5308SOL     OW27382   0.248   0.702   3.693 -0.2513 -0.1146  0.4835
 5308SOL    HW127383   0.153   0.690   3.698 -0.2827 -0.7618 -1.6487
 5308SOL    HW227384   0.249   0.682   3.599 -0.6327 -1.3883  0.7520
 5309SOL     OW27385   2.693   1.563   7.805 -0.0022 -0.2558  0.3457
 5309SOL    HW127386   2.709   1.470   7.819 -3.3258 -0.8973 -0.1710
 5309SOL    HW227387   2.781   1.592   7.780 -0.1400 -0.6646 -0.6295
 5310SOL     OW27388   3.511   3.395   2.089 -0.5197  0.0282 -0.3558
 5310SOL    HW127389   3.431   3.444   2.070  0.6565  1.6060 -1.2050
 5310SOL    HW227390   3.531   3.357   2.004  2.4969  0.0426  0.3645
 5311SOL     OW27391   4.542   1.384   9.093 -0.0287 -0.7674  0.2033
 5311SOL    HW127392   4.505   1.460   9.048  0.6260 -0.4004  0.2773
 5311SOL    HW227393   4.528   1.410   9.184  2.6805  0.6934  0.2146
 5312SOL     OW27394   0.229   2.929   5.839  0.4058 -0.7740  0.0080
 5312SOL    HW127395   0.235   2.863   5.907  1.0401  0.3636  1.0475
 5312SOL    HW227396   0.166   2.996   5.866 -0.6500 -0.9316 -2.0168
 5313SOL     OW27397   1.219   2.873  11.025  0.0901 -0.2324 -0.3751
 5313SOL    HW127398   1.203   2.941  11.091  0.6110  0.4112 -0.9114
 5313SOL    HW227399   1.205   2.918  10.941  0.1121 -1.1063 -0.8447
 5314SOL     OW27400   0.460   2.402   8.859 -0.1613 -0.6312 -0.1420
 5314SOL    HW127401   0.473   2.463   8.931  4.2705 -1.7984  0.0156
 5314SOL    HW227402   0.417   2.326   8.899 -1.5549  1.4787  2.3686
 5315SOL     OW27403   2.433   4.111   6.584  0.4306  0.0003  0.0345
 5315SOL    HW127404   2.464   4.059   6.509 -0.5606 -1.1972  0.4620
 5315SOL    HW227405   2.443   4.058   6.663 -0.9096  0.4176  0.4824
 5316SOL     OW27406   4.544   1.592   2.521 -0.0827  0.2131  0.1680
 5316SOL    HW127407   4.594   1.647   2.581  0.1753 -1.7162  1.7372
 5316SOL    HW227408   4.457   1.628   2.535 -0.7815 -0.4582 -2.3706
 5317SOL     OW27409   0.660   3.172   3.453  0.4900 -0.6812  0.5944
 5317SOL    HW127410   0.624   3.090   3.419 -1.8094 -0.0351  1.5019
 5317SOL    HW227411   0.752   3.147   3.443  1.2302  1.2691  2.6963
 5318SOL     OW27412   3.209   4.388   3.120  0.0257 -0.1887  0.4546
 5318SOL    HW127413   3.222   4.301   3.081 -1.8652  0.1231 -0.8364
 5318SOL    HW227414   3.249   4.375   3.207  1.3763 -0.0904 -0.1418
 5319SOL     OW27415   3.989   3.326   6.344 -0.1894 -0.8752  0.4506
 5319SOL    HW127416   3.931   3.305   6.417 -1.1823  0.1446 -0.0447
 5319SOL    HW227417   4.053   3.255   6.341 -0.2532 -0.9807  1.8793
 5320SOL     OW27418   4.008   4.241   6.598 -0.5504 -0.0224 -0.6474
 5320SOL    HW127419   4.003   4.149   6.623  2.4563 -0.2530 -0.8904
 5320SOL    HW227420   4.069   4.238   6.524 -0.2603  2.6387 -0.5283
 5321SOL     OW27421   3.518   1.711   5.122  0.1543 -0.1081 -0.8105
 5321SOL    HW127422   3.592   1.748   5.171 -0.5245  1.8320 -1.2700
 5321SOL    HW227423   3.511   1.787   5.064 -2.8382  0.3398  0.1762
 5322SOL     OW27424   4.210   3.435  12.888  0.8380 -0.0192  0.4591
 5322SOL    HW127425   4.161   3.463  12.811  1.0609 -0.7364  0.0635
 5322SOL    HW227426   4.187   3.506  12.948  0.6808  0.3912 -0.0876
 5323SOL     OW27427   4.265   2.676   2.050 -0.0958 -0.0771  0.0254
 5323SOL    HW127428   4.275   2.588   2.013 -1.0197  0.2416 -0.9868
 5323SOL    HW227429   4.197   2.652   2.112  0.9770 -1.5837  0.5994
 5324SOL     OW27430   1.466   4.331   7.451  0.6175 -0.1786 -0.5650
 5324SOL    HW127431   1.418   4.278   7.515  1.8329 -0.4820  0.0970
 5324SOL    HW227432   1.542   4.275   7.431  0.8759 -0.3267  0.7803
 5325SOL     OW27433   1.041   4.267   6.379 -0.2130  0.2635 -0.2633
 5325SOL    HW127434   1.085   4.299   6.458 -3.4834  1.9824  0.8611
 5325SOL    HW227435   1.076   4.330   6.316  1.4026  3.0975  3.4202
 5326SOL     OW27436   4.015   3.428   9.770  0.2525  0.2818  0.4177
 5326SOL    HW127437   4.081   3.369   9.733 -0.2162  0.4430 -0.6704
 5326SOL    HW227438   4.063   3.508   9.792  0.1490  0.4275  0.1086
 5327SOL     OW27439   3.427   0.934   6.398  0.4381  0.0462 -0.3288
 5327SOL    HW127440   3.446   1.007   6.457 -0.8201  0.2732 -0.2025
 5327SOL    HW227441   3.430   0.859   6.457 -0.4869  1.0921  1.0379
 5328SOL     OW27442   0.606   1.240   5.573  0.5597 -0.0745 -0.3313
 5328SOL    HW127443   0.558   1.265   5.494  0.0851 -1.1428 -0.3740
 5328SOL    HW227444   0.688   1.282   5.547  0.8631 -1.4152 -1.5104
 5329SOL     OW27445   4.151   3.116   5.121 -0.6578 -0.1445 -0.8106
 5329SOL    HW127446   4.097   3.178   5.070 -0.2820 -0.6363 -1.8019
 5329SOL    HW227447   4.152   3.161   5.205 -0.0404  0.0275 -0.9155
 5330SOL     OW27448   1.428   2.391   2.527  0.4578 -0.3692  0.4832
 5330SOL    HW127449   1.476   2.335   2.466 -0.9023 -0.6329 -0.3418
 5330SOL    HW227450   1.503   2.413   2.582  1.6491 -0.7960 -0.9615
 5331SOL     OW27451   3.747   0.511   3.928 -0.0253  0.2335  0.4671
 5331SOL    HW127452   3.768   0.505   4.021  1.1528 -1.6743  0.0747
 5331SOL    HW227453   3.653   0.528   3.926 -0.0317  0.2370  0.7990
 5332SOL     OW27454   2.637   3.377   8.579 -0.1159 -0.3363  0.5946
 5332SOL    HW127455   2.562   3.404   8.630 -0.1697  0.1121  0.2807
 5332SOL    HW227456   2.588   3.349   8.501 -1.7056 -0.4849  1.6642
 5333SOL     OW27457   3.675   3.767  11.645  0.2358 -0.3344 -0.1147
 5333SOL    HW127458   3.697   3.856  11.619  0.1753  0.2026  1.6838
 5333SOL    HW227459   3.760   3.726  11.661 -0.5455 -2.0344 -0.3318
 5334SOL     OW27460   2.494   0.865   4.112 -0.0071 -0.8956  0.4319
 5334SOL    HW127461   2.457   0.932   4.170  2.2297  0.5668  0.1503
 5334SOL    HW227462   2.577   0.897   4.078  0.6667 -1.2385  1.7895
 5335SOL     OW27463   2.397   3.645   2.691  0.3025 -0.2997 -0.2394
 5335SOL    HW127464   2.411   3.702   2.615  1.8354  0.8636  0.8918
 5335SOL    HW227465   2.407   3.713   2.758  1.2696 -1.9071  1.2195
 5336SOL     OW27466   2.293   0.952   5.338  0.5505  0.2537  0.3319
 5336SOL    HW127467   2.357   0.956   5.410 -0.5189  0.6710  1.2536
 5336SOL    HW227468   2.286   0.858   5.326  0.8802  0.1442  0.9831
 5337SOL     OW27469   4.377   3.774  16.575 -0.3190  0.1267 -0.2167
 5337SOL    HW127470   4.454   3.718  16.568 -0.2634  0.2069 -0.2473
 5337SOL    HW227471   4.350   3.784  16.484 -0.0527  1.1686 -0.1890
 5338SOL     OW27472   2.358   4.716   4.284 -0.5077 -0.2665  0.5218
 5338SOL    HW127473   2.444   4.681   4.307 -0.9605 -2.5477 -1.2692
 5338SOL    HW227474   2.373   0.074   4.243 -0.7796 -0.3876  0.1694
 5339SOL     OW27475   3.452   1.711   8.781 -0.0353 -0.3470 -0.1695
 5339SOL    HW127476   3.466   1.698   8.875 -0.0586 -2.2607 -0.4355
 5339SOL    HW227477   3.469   1.619   8.762  1.1864  0.3570 -2.4124
 5340SOL     OW27478   3.485   0.361  14.731  0.1705 -0.5691 -0.1464
 5340SOL    HW127479   3.442   0.353  14.816 -1.9985 -0.1210 -1.2053
 5340SOL    HW227480   3.404   0.350  14.681 -1.7089 -0.8580  3.0126
 5341SOL     OW27481   0.010   1.763   6.243 -0.0043 -0.1859  0.2309
 5341SOL    HW127482   0.062   1.839   6.271  0.7642  0.4387 -2.8501
 5341SOL    HW227483   0.005   1.783   6.149  0.1808  1.4099  0.5633
 5342SOL     OW27484   1.356   0.762   9.252  0.2555 -0.4431 -0.0655
 5342SOL    HW127485   1.279   0.705   9.260  0.3202 -0.8210 -2.1737
 5342SOL    HW227486   1.311   0.846   9.262 -0.8918 -1.1987  1.1158
 5343SOL     OW27487   3.973   3.482   6.663 -0.7028 -0.1296 -1.0169
 5343SOL    HW127488   3.878   3.485   6.648 -0.3849  1.9057 -2.7474
 5343SOL    HW227489   3.984   3.436   6.746 -0.9651  1.6834  0.0262
 5344SOL     OW27490   1.868   0.554   7.170  0.0439  0.5673 -0.2099
 5344SOL    HW127491   1.954   0.557   7.213  0.9308  1.4852 -2.0653
 5344SOL    HW227492   1.869   0.465   7.133  0.1760  0.6002 -0.2842
 5345SOL     OW27493   1.818   4.620   5.784 -0.3415 -0.6601  0.0472
 5345SOL    HW127494   1.822   4.530   5.751  1.9894 -0.4715 -0.1754
 5345SOL    HW227495   1.758   4.605   5.857  2.8619 -0.6552  2.6415
 5346SOL     OW27496   1.106   4.179   4.891  0.0065  0.3448  0.4331
 5346SOL    HW127497   1.195   4.157   4.921  0.7907  1.3345 -1.1316
 5346SOL    HW227498   1.122   4.234   4.814 -0.9873 -1.0370 -0.7611
 5347SOL     OW27499   1.847   2.383   3.683  0.5222 -0.4035 -0.1450
 5347SOL    HW127500   1.846   2.406   3.590  0.5870  0.0538 -0.0323
 5347SOL    HW227501   1.900   2.304   3.678 -0.0297 -0.8625  1.4446
 5348SOL     OW27502   0.598   2.103   2.000 -0.3580  0.6802 -0.2071
 5348SOL    HW127503   0.576   2.024   1.950  1.0846  0.5855 -0.6970
 5348SOL    HW227504   0.677   2.076   2.046 -0.4878 -0.3613 -0.5988
 5349SOL     OW27505   0.478   4.682  12.919 -0.4183 -0.0278 -0.0139
 5349SOL    HW127506   0.560   4.633  12.908 -0.7765 -0.7371  0.4563
 5349SOL    HW227507   0.413   4.613  12.936 -0.2979  0.4007  2.1097
 5350SOL     OW27508   0.795   0.766   2.976  0.2588  0.1219  0.7582
 5350SOL    HW127509   0.736   0.840   2.977  0.6607  0.4188  4.0130
 5350SOL    HW227510   0.814   0.765   2.882 -2.0553  1.1611  0.2917
 5351SOL     OW27511   4.721   1.930  10.346  0.1751 -0.0863  0.7150
 5351SOL    HW127512   4.719   1.864  10.277  1.1480 -0.7932  1.3607
 5351SOL    HW227513   0.071   1.981  10.321 -2.1930  2.4923 -1.3710
 5352SOL     OW27514   0.064   3.657   5.511 -0.3644  0.7901 -0.1633
 5352SOL    HW127515   0.042   3.588   5.574 -0.8196  0.6290 -0.4925
 5352SOL    HW227516   0.000   3.655   5.439 -1.0028  2.1087  0.3595
 5353SOL     OW27517   0.805   2.193  14.944 -0.1466 -0.3460  0.1370
 5353SOL    HW127518   0.780   2.122  15.003 -4.0908  0.7587 -0.2036
 5353SOL    HW227519   0.754   2.263  14.985  2.2552  0.8637  1.0279
 5354SOL     OW27520   1.150   0.800   4.313 -0.8899 -0.3210 -0.9438
 5354SOL    HW127521   1.207   0.853   4.368 -2.8144  0.8908 -0.1205
 5354SOL    HW227522   1.064   0.827   4.345 -0.3433  0.1756  0.1156
 5355SOL     OW27523   4.284   2.086   6.625  0.1121  0.2490 -0.3827
 5355SOL    HW127524   4.252   2.064   6.538 -0.1859 -0.1663 -0.1670
 5355SOL    HW227525   4.305   2.179   6.616  2.0997 -0.0816  0.9099
 5356SOL     OW27526   3.667   2.361   0.669  0.2853  0.0421  0.0192
 5356SOL    HW127527   3.679   2.352   0.574 -0.9566 -0.6923 -0.0599
 5356SOL    HW227528   3.644   2.454   0.667 -0.2221 -0.1072 -1.4776
 5357SOL     OW27529   4.308   2.063   8.034 -0.1091  0.3834 -0.2868
 5357SOL    HW127530   4.275   2.120   8.104  3.4362  0.6727  1.1578
 5357SOL    HW227531   4.253   2.090   7.961 -0.1414  1.8359  0.2678
 5358SOL     OW27532   0.912   3.015  10.523 -0.1255  0.5375 -0.4761
 5358SOL    HW127533   0.818   3.006  10.503 -0.5131  1.8645  0.7696
 5358SOL    HW227534   0.945   2.934  10.485  0.8731  0.0756  1.3629
 5359SOL     OW27535   4.196   2.719   6.207  0.4218 -0.2847  0.0361
 5359SOL    HW127536   4.259   2.649   6.191  0.3363  0.1113 -1.9638
 5359SOL    HW227537   4.199   2.720   6.303  0.2655  1.8966  0.0103
 5360SOL     OW27538   0.681   1.995   7.987 -0.5482 -0.1136  0.6106
 5360SOL    HW127539   0.710   2.081   8.017  0.1220 -0.2007  0.2083
 5360SOL    HW227540   0.652   1.963   8.072 -0.2991  1.1285  1.1700
 5361SOL     OW27541   3.238   2.376   8.951 -0.3264 -0.2699 -0.3807
 5361SOL    HW127542   3.241   2.468   8.976 -2.9899  0.5168 -3.0278
 5361SOL    HW227543   3.331   2.359   8.964 -0.5949 -0.6761  1.0685
 5362SOL     OW27544   3.787   1.552   4.937  0.2277 -0.2423 -0.2912
 5362SOL    HW127545   3.795   1.502   4.856  2.1730  0.9480 -0.8377
 5362SOL    HW227546   3.704   1.516   4.969 -0.4944  0.1382 -1.7176
 5363SOL     OW27547   0.389   3.396   8.287 -0.5995  0.0956  0.1685
 5363SOL    HW127548   0.391   3.396   8.383  0.9347  0.2893  0.1290
 5363SOL    HW227549   0.295   3.407   8.271 -0.8195 -1.4473  0.3151
 5364SOL     OW27550   0.462   3.614   0.127 -0.0688 -0.9529  0.3013
 5364SOL    HW127551   0.392   3.679   0.119 -1.7158 -2.7956  0.0169
 5364SOL    HW227552   0.493   3.606   0.037 -0.5482  0.5549 -0.0013
 5365SOL     OW27553   0.721   2.790   6.539  0.0771 -0.0058  0.2186
 5365SOL    HW127554   0.731   2.884   6.551  0.1318 -0.1012  0.9270
 5365SOL    HW227555   0.726   2.771   6.632 -1.7792  0.4664  0.3961
 5366SOL     OW27556   1.322   2.688   8.250 -0.9729  0.1116 -0.0397
 5366SOL    HW127557   1.345   2.729   8.333 -0.1020  2.3397 -1.3865
 5366SOL    HW227558   1.334   2.759   8.187  1.0175  0.6465  0.9374
 5367SOL     OW27559   2.120   3.868   6.615  0.0610  0.5659 -0.2976
 5367SOL    HW127560   2.063   3.945   6.604  0.1814  0.6967 -0.0088
 5367SOL    HW227561   2.153   3.896   6.700 -1.8887 -1.3130  1.0684
 5368SOL     OW27562   3.845   2.374  16.146  0.0264  0.1941 -0.1702
 5368SOL    HW127563   3.805   2.314  16.209  0.5885  1.9217  1.8261
 5368SOL    HW227564   3.939   2.375  16.164 -0.8059 -1.6106  4.3002
 5369SOL     OW27565   1.614   2.254  12.932  0.5703 -0.0001  0.0070
 5369SOL    HW127566   1.575   2.192  12.993  0.6875  1.5946  1.6931
 5369SOL    HW227567   1.680   2.196  12.893  2.3341  2.3906 -0.5583
 5370SOL     OW27568   3.203   2.465   5.976 -0.0299 -0.1436 -0.6581
 5370SOL    HW127569   3.175   2.397   5.915  1.7862  0.3198 -2.0199
 5370SOL    HW227570   3.124   2.512   6.001 -0.2617 -1.5425  1.2924
 5371SOL     OW27571   2.368   2.803  12.307  0.0565  0.6153  0.1070
 5371SOL    HW127572   2.324   2.777  12.388  0.3026  0.8762  0.3237
 5371SOL    HW227573   2.402   2.886  12.339  0.9785  0.4857 -0.5385
 5372SOL     OW27574   4.616   0.514  13.405 -0.3483  0.3913 -0.3099
 5372SOL    HW127575   4.708   0.513  13.379 -0.7982 -2.9783 -1.6712
 5372SOL    HW227576   4.603   0.608  13.418 -0.0945  0.1434  1.7687
 5373SOL     OW27577   2.404   0.644   7.297 -0.4684  0.6191  0.8440
 5373SOL    HW127578   2.470   0.707   7.326 -0.7824  0.7934  1.1854
 5373SOL    HW227579   2.410   0.578   7.367  2.6780 -0.6255 -0.6143
 5374SOL     OW27580   0.846   0.031  12.153  0.1120  0.7101  0.2685
 5374SOL    HW127581   0.769   0.006  12.204  1.2281 -0.4193  1.4074
 5374SOL    HW227582   0.889   4.674  12.144 -4.2543 -1.5896  0.8700
 5375SOL     OW27583   0.448   1.190   9.651 -0.4439 -0.0573 -0.2318
 5375SOL    HW127584   0.416   1.280   9.661  0.4529  0.0836  1.5883
 5375SOL    HW227585   0.537   1.177   9.685 -1.3403  0.5394  2.4078
 5376SOL     OW27586   4.138   1.130  17.111  0.3349 -0.0787  0.9251
 5376SOL    HW127587   4.163   1.130  17.018 -1.7823  2.8184  0.3521
 5376SOL    HW227588   4.124   1.040  17.137 -0.1903 -0.5818 -1.0880
 5377SOL     OW27589   4.511   3.100  15.638 -0.2033 -0.0828  0.2521
 5377SOL    HW127590   4.582   3.127  15.579 -1.2792  4.4248  0.9887
 5377SOL    HW227591   4.555   3.051  15.707 -0.2677 -1.0292 -0.3812
 5378SOL     OW27592   0.506   4.585   7.575  0.0189  0.7313  0.1373
 5378SOL    HW127593   0.440   4.650   7.599  0.6687  0.6278  2.1564
 5378SOL    HW227594   0.536   4.549   7.658 -0.1001  1.0898  0.3373
 5379SOL     OW27595   3.046   0.784   6.225  0.2584 -0.3110  0.1278
 5379SOL    HW127596   3.102   0.741   6.161  0.0422 -0.5318  0.0857
 5379SOL    HW227597   3.075   0.874   6.238  4.7262 -1.7596 -0.0118
 5380SOL     OW27598   0.875   2.618   3.062 -0.2669  0.3633  0.5171
 5380SOL    HW127599   0.805   2.683   3.060  0.5578  1.1313 -2.8376
 5380SOL    HW227600   0.828   2.541   3.028  1.3016 -0.8735  1.1573
 5381SOL     OW27601   4.328   4.304   8.615  0.1236 -0.0989  1.5884
 5381SOL    HW127602   4.247   4.279   8.660 -1.1710 -0.8004 -1.1593
 5381SOL    HW227603   4.371   4.340   8.693  1.0077  1.7019  0.2838
 5382SOL     OW27604   4.385   0.676   3.297 -0.4787 -0.2139  0.2180
 5382SOL    HW127605   4.301   0.642   3.268 -1.5353  0.4138  2.5100
 5382SOL    HW227606   4.347   0.748   3.347 -0.6206 -0.8676  1.0564
 5383SOL     OW27607   3.616   3.031  17.009  0.0875  0.7812  0.2431
 5383SOL    HW127608   3.625   3.117  17.050  0.7909  0.9254 -0.1922
 5383SOL    HW227609   3.667   3.047  16.929  2.2375  1.0540  1.6680
 5384SOL     OW27610   1.433   1.297   8.917 -0.4240  0.4080  0.0176
 5384SOL    HW127611   1.446   1.345   8.999  0.3444 -0.3647  0.3445
 5384SOL    HW227612   1.356   1.343   8.884 -0.3522  0.9807  0.6518
 5385SOL     OW27613   2.775   2.552   7.066  0.4160  0.6072  0.1012
 5385SOL    HW127614   2.699   2.494   7.079 -0.8122  2.0988 -0.3976
 5385SOL    HW227615   2.750   2.632   7.112 -0.5904 -1.2292  2.6996
 5386SOL     OW27616   0.181   1.509   8.007  0.0207 -0.6921 -0.2534
 5386SOL    HW127617   0.132   1.460   7.941 -1.2764  0.2617  0.0018
 5386SOL    HW227618   0.272   1.505   7.977  0.1128 -0.2216 -0.0313
 5387SOL     OW27619   0.877   4.206   2.251 -0.5149  0.4572  0.4089
 5387SOL    HW127620   0.972   4.202   2.237 -0.9884 -2.5313 -1.8247
 5387SOL    HW227621   0.876   4.228   2.345  0.8870 -2.6156  1.1435
 5388SOL     OW27622   2.985   0.059   2.053 -0.1410 -0.3046 -0.1555
 5388SOL    HW127623   2.926   4.717   2.082 -2.1416  2.2278  1.7863
 5388SOL    HW227624   2.944   0.131   2.100 -0.3583 -1.0458  0.7775
 5389SOL     OW27625   0.312   0.905   4.337  0.1453 -0.0370  0.1537
 5389SOL    HW127626   0.384   0.951   4.380  0.2890 -1.0637  1.0140
 5389SOL    HW227627   0.289   0.832   4.395 -0.0613 -0.7515 -0.8424
 5390SOL     OW27628   2.155   2.718   6.562  0.3089  0.0399 -0.2507
 5390SOL    HW127629   2.231   2.719   6.503  2.6152 -0.8908  2.7387
 5390SOL    HW227630   2.121   2.807   6.556  0.1868  0.0470  0.5855
 5391SOL     OW27631   3.886   0.759   6.507 -0.1614 -0.0602 -0.2749
 5391SOL    HW127632   3.846   0.791   6.588 -0.1540 -1.1302  0.1593
 5391SOL    HW227633   3.826   0.692   6.476 -1.4329  0.4413  1.1382
 5392SOL     OW27634   3.958   4.359   6.990 -0.2215 -0.6044 -0.9910
 5392SOL    HW127635   3.955   4.454   6.989 -2.3361 -0.6754 -1.3147
 5392SOL    HW227636   4.015   4.350   7.066 -0.0850  1.9847 -0.7915
 5393SOL     OW27637   0.862   0.101   3.675 -0.2793 -0.0074 -0.3155
 5393SOL    HW127638   0.900   0.026   3.719 -0.4423 -0.0464 -0.2415
 5393SOL    HW227639   0.820   0.055   3.602  1.2895  1.1779 -1.9650
 5394SOL     OW27640   3.436   2.599   9.282  0.2171 -0.1551 -0.5993
 5394SOL    HW127641   3.498   2.672   9.285  1.0397 -0.7473 -3.0647
 5394SOL    HW227642   3.393   2.613   9.197  3.2987  1.0860 -1.9611
 5395SOL     OW27643   3.244   3.101   7.830 -0.7224  0.5057  0.2366
 5395SOL    HW127644   3.229   3.194   7.847  0.9362  0.0891  3.9642
 5395SOL    HW227645   3.336   3.093   7.855 -0.8450  1.7709  1.1145
 5396SOL     OW27646   0.913   1.637  15.379  0.4411  0.4181 -0.0702
 5396SOL    HW127647   0.888   1.589  15.458  0.9121 -0.9233 -0.7269
 5396SOL    HW227648   0.979   1.695  15.417 -1.9641  3.7648 -0.9657
 5397SOL     OW27649   3.388   0.219   6.830 -1.1561 -0.8720 -0.2735
 5397SOL    HW127650   3.443   0.142   6.843  0.0433 -0.1647 -1.0785
 5397SOL    HW227651   3.307   0.190   6.870 -2.6853  1.9224 -1.3045
 5398SOL     OW27652   1.241   3.504   3.527  0.1763  0.6863  0.7859
 5398SOL    HW127653   1.220   3.534   3.616 -0.4662 -0.3242  0.9740
 5398SOL    HW227654   1.295   3.427   3.543 -0.1071  0.4101  0.3797
 5399SOL     OW27655   3.307   1.272   5.313 -0.4928  0.4026  0.3254
 5399SOL    HW127656   3.392   1.268   5.356 -0.2694  2.1952  0.0306
 5399SOL    HW227657   3.299   1.366   5.300 -0.5055  0.6527  2.1061
 5400SOL     OW27658   2.748   2.631  14.772  0.5624 -0.1080  0.5556
 5400SOL    HW127659   2.830   2.679  14.775  1.8799 -2.3585  0.2958
 5400SOL    HW227660   2.708   2.660  14.854  1.0661 -0.1548  0.8131
 5401SOL     OW27661   0.814   0.985   4.657  0.3702  0.0571 -0.0520
 5401SOL    HW127662   0.762   0.951   4.730  1.6732 -2.9389 -0.5105
 5401SOL    HW227663   0.753   1.015   4.590  0.5837  0.2543 -0.1569
 5402SOL     OW27664   0.222   2.022   8.098 -0.9287 -0.0951  0.3043
 5402SOL    HW127665   0.201   1.928   8.101 -0.3411 -0.2708 -1.0155
 5402SOL    HW227666   0.306   2.018   8.143 -0.0495 -3.0553 -1.5801
 5403SOL     OW27667   4.072   2.801  10.747 -0.0998 -0.1825  0.4097
 5403SOL    HW127668   4.134   2.732  10.769  1.8313  1.2708 -0.4764
 5403SOL    HW227669   3.985   2.766  10.767 -1.0086  0.4227 -2.4357
 5404SOL     OW27670   3.653   4.179  10.513 -0.2994  0.1375 -1.0228
 5404SOL    HW127671   3.715   4.152  10.581 -1.1800  1.8245  0.4447
 5404SOL    HW227672   3.661   4.098  10.461 -1.1779  0.6380 -1.9360
 5405SOL     OW27673   2.685   2.469   8.682 -0.1647  0.1711 -0.8662
 5405SOL    HW127674   2.655   2.553   8.717 -1.1910 -0.7154  0.3644
 5405SOL    HW227675   2.601   2.429   8.660  0.9679 -2.7700  0.2645
 5406SOL     OW27676   1.287   1.023   3.301 -0.5362 -0.5461  0.0748
 5406SOL    HW127677   1.284   1.082   3.225 -1.1360  1.0906  1.3679
 5406SOL    HW227678   1.361   0.966   3.285 -0.9289 -1.2190  0.6432
 5407SOL     OW27679   1.154   2.850   2.097  0.3279  0.5446  0.2150
 5407SOL    HW127680   1.150   2.778   2.159  1.2205  0.6670  0.4171
 5407SOL    HW227681   1.064   2.882   2.094  0.2261  0.1033 -1.4845
 5408SOL     OW27682   4.483   3.236   4.435 -0.5009 -0.4254 -0.0562
 5408SOL    HW127683   4.564   3.287   4.434 -0.9013  0.2089 -0.0367
 5408SOL    HW227684   4.448   3.256   4.522  1.0733 -0.8656  0.6795
 5409SOL     OW27685   0.478   2.601   9.059  0.2470  0.2104 -0.2347
 5409SOL    HW127686   0.402   2.641   9.101  0.0942 -1.7609  1.3879
 5409SOL    HW227687   0.531   2.578   9.136 -1.8293  3.0540  2.0327
 5410SOL     OW27688   3.573   3.423   5.973  0.2000  0.0776 -0.1481
 5410SOL    HW127689   3.508   3.480   5.932 -0.1162 -0.6998 -0.7383
 5410SOL    HW227690   3.643   3.427   5.908 -1.5202  1.8838 -1.8982
 5411SOL     OW27691   2.607   3.437  10.053 -0.2052  0.2062 -0.0996
 5411SOL    HW127692   2.665   3.419  10.127 -0.0140  2.2878  0.2558
 5411SOL    HW227693   2.525   3.397  10.083 -0.7211 -0.0851 -1.9266
 5412SOL     OW27694   1.631   0.413  15.424  0.3380  0.3130 -0.1655
 5412SOL    HW127695   1.675   0.392  15.506 -0.3483  0.7470  0.3182
 5412SOL    HW227696   1.589   0.328  15.414 -1.9302  1.1405  2.5372
 5413SOL     OW27697   2.631   3.952  11.455 -0.1465 -0.4389  0.1216
 5413SOL    HW127698   2.708   3.915  11.412  1.1587  0.9049  1.3350
 5413SOL    HW227699   2.669   4.037  11.476 -2.0537  0.2331  0.8887
 5414SOL     OW27700   1.473   3.061   8.714  0.3485  0.4864  0.4721
 5414SOL    HW127701   1.567   3.044   8.717 -0.2426 -2.9750 -1.1467
 5414SOL    HW227702   1.467   3.155   8.696 -0.5708  0.2853 -0.2707
 5415SOL     OW27703   2.970   2.076   2.703 -0.4272  0.0204  0.4878
 5415SOL    HW127704   3.055   2.063   2.743 -0.0594  0.0215 -0.2914
 5415SOL    HW227705   3.003   2.103   2.618 -0.5564 -1.4766 -0.0494
 5416SOL     OW27706   0.581   2.194   3.312 -0.2769  0.5445 -0.1041
 5416SOL    HW127707   0.534   2.199   3.229  0.2993  0.5317 -0.4347
 5416SOL    HW227708   0.646   2.132   3.278  1.1306  1.5378  0.7985
 5417SOL     OW27709   3.328   0.772  16.440 -0.3052  0.2869 -0.4967
 5417SOL    HW127710   3.266   0.766  16.367 -0.6825 -0.2706 -0.1337
 5417SOL    HW227711   3.344   0.678  16.451  0.4637  0.2115 -2.2009
 5418SOL     OW27712   0.277   1.124   5.464 -0.4587  0.0879 -0.2353
 5418SOL    HW127713   0.230   1.099   5.544 -3.7399  0.3467 -2.0661
 5418SOL    HW227714   0.365   1.092   5.480  0.0126  2.3633  1.7547
 5419SOL     OW27715   0.507   1.197   6.516  0.6794 -0.6568 -0.3597
 5419SOL    HW127716   0.484   1.115   6.472 -2.2035  0.3883 -0.8292
 5419SOL    HW227717   0.485   1.258   6.445 -1.3376  0.7923  1.5111
 5420SOL     OW27718   1.667   4.219  14.034 -0.2666 -0.4348 -0.2369
 5420SOL    HW127719   1.748   4.168  14.035  0.3193  0.4745 -0.6586
 5420SOL    HW227720   1.697   4.281  14.101  1.9202 -0.8210 -0.8701
 5421SOL     OW27721   0.107   3.781   3.827  0.0388 -0.5119  0.3602
 5421SOL    HW127722   0.082   3.716   3.893 -0.1049 -0.8283 -0.0032
 5421SOL    HW227723   0.148   3.728   3.759  0.8517  2.5467 -1.5092
 5422SOL     OW27724   2.008   4.562  10.373 -0.5691  0.3842  0.2577
 5422SOL    HW127725   1.916   4.566  10.350 -0.4851 -1.2578 -0.3516
 5422SOL    HW227726   2.005   4.493  10.440  0.4461  0.3873  0.3159
 5423SOL     OW27727   1.721   4.236  10.906 -0.3917 -0.3079  0.2436
 5423SOL    HW127728   1.718   4.279  10.821 -0.2546  0.4586  0.6267
 5423SOL    HW227729   1.812   4.230  10.937 -1.2065  0.2508  2.7350
 5424SOL     OW27730   0.430   2.554   4.278  0.6173 -0.1535 -0.2143
 5424SOL    HW127731   0.505   2.558   4.338  0.8887 -0.6913 -0.5171
 5424SOL    HW227732   0.411   2.465   4.307  1.0462 -0.6122 -1.3097
 5425SOL     OW27733   1.575   0.764   7.661  0.4038  0.3992 -0.1106
 5425SOL    HW127734   1.542   0.806   7.582 -0.1376 -1.1034 -0.6827
 5425SOL    HW227735   1.553   0.672   7.642 -0.6570  0.6706 -0.2000
 5426SOL     OW27736   0.826   3.503   0.060 -0.0170  0.2366  0.0812
 5426SOL    HW127737   0.856   3.437   0.123  0.3700 -0.4760 -0.8522
 5426SOL    HW227738   0.846   3.462  17.687  5.4084  0.5430  1.2365
 5427SOL     OW27739   0.133   2.851   4.124  0.4460 -0.1258  0.7955
 5427SOL    HW127740   0.137   2.930   4.071 -3.6559 -0.2498  0.3190
 5427SOL    HW227741   0.141   2.885   4.213 -2.5266  2.7592 -0.0535
 5428SOL     OW27742   1.920   3.912   3.338  0.2988 -0.2547 -0.0774
 5428SOL    HW127743   1.869   3.833   3.355 -0.5434  0.7359  1.9992
 5428SOL    HW227744   1.858   3.984   3.345 -0.6703 -1.0243 -0.8030
 5429SOL     OW27745   4.504   0.852   4.931  0.3312  0.5283  0.1119
 5429SOL    HW127746   4.494   0.929   4.875  2.3937  0.8032  0.1106
 5429SOL    HW227747   4.595   0.864   4.958  0.1510  0.7389  0.6229
 5430SOL     OW27748   1.654   0.078  10.423 -0.3803  0.2695  0.8958
 5430SOL    HW127749   1.615   0.163  10.444  0.1791  0.9310 -0.7073
 5430SOL    HW227750   1.602   0.055  10.346  0.3152 -1.0703  0.8320
 5431SOL     OW27751   1.245   2.983   7.669  0.1382  0.0857  0.1434
 5431SOL    HW127752   1.243   3.012   7.578 -1.2739 -0.3337  0.0382
 5431SOL    HW227753   1.218   3.065   7.710  0.0356  0.7297 -1.2319
 5432SOL     OW27754   0.754   3.759   0.516  0.1130 -0.1568  0.0768
 5432SOL    HW127755   0.726   3.681   0.468  1.2002 -1.2892  1.2894
 5432SOL    HW227756   0.838   3.763   0.470  0.9255 -0.5850  1.5522
 5433SOL     OW27757   2.020   4.282  16.504  0.6059 -0.4018  0.0998
 5433SOL    HW127758   2.018   4.255  16.595 -0.2952 -0.3087  0.1006
 5433SOL    HW227759   2.111   4.311  16.496  1.2995 -2.0234  2.1759
 5434SOL     OW27760   0.283   3.447   4.497 -0.1961  0.1537  0.2288
 5434SOL    HW127761   0.244   3.368   4.461  2.6499 -0.8433 -0.6877
 5434SOL    HW227762   0.364   3.443   4.446 -1.5275  0.7718 -1.9286
 5435SOL     OW27763   2.002   3.390  14.539 -0.6810 -0.2797 -1.2179
 5435SOL    HW127764   1.988   3.434  14.623 -1.8595 -1.2627 -0.9141
 5435SOL    HW227765   1.989   3.306  14.582  2.3464 -0.2239 -0.1180
 5436SOL     OW27766   3.496   3.468   3.206  0.0970 -0.8243 -0.3305
 5436SOL    HW127767   3.566   3.433   3.152 -1.1011 -1.6252 -1.3715
 5436SOL    HW227768   3.507   3.416   3.285  1.4092  0.2996  0.2342
 5437SOL     OW27769   2.407   4.673   7.976  0.5248 -0.0787  0.0549
 5437SOL    HW127770   2.396   4.684   8.071  2.0404  1.4012  0.0544
 5437SOL    HW227771   2.327   4.715   7.944 -0.6022 -1.5119  0.9855
 5438SOL     OW27772   4.579   0.637   5.558 -0.8192  0.7790  0.9039
 5438SOL    HW127773   4.600   0.583   5.482 -0.4083  1.7344  0.3309
 5438SOL    HW227774   4.589   0.721   5.512 -0.4487  0.2779  0.0672
 5439SOL     OW27775   4.071   0.098   5.452 -0.3701 -0.0317  0.3451
 5439SOL    HW127776   4.056   0.058   5.366  3.0859  2.8692 -1.6312
 5439SOL    HW227777   3.979   0.120   5.466 -0.2681  1.1664 -0.9463
 5440SOL     OW27778   0.111   0.349   3.266  0.0692 -0.0713  0.0106
 5440SOL    HW127779   0.178   0.340   3.198  0.8571 -0.8429  0.8825
 5440SOL    HW227780   0.075   0.438   3.259  0.6044  0.0632 -1.1322
 5441SOL     OW27781   0.545   3.473   3.419 -0.1338  0.0976  0.7546
 5441SOL    HW127782   0.482   3.544   3.434 -0.2603 -0.1160  1.1967
 5441SOL    HW227783   0.535   3.453   3.326  0.2807  1.8604  0.3181
 5442SOL     OW27784   0.003   0.689   4.002 -0.3689 -0.0427 -0.1216
 5442SOL    HW127785   0.052   0.658   4.079  2.3507  1.8351 -1.1068
 5442SOL    HW227786   0.036   0.631   3.933 -0.3020 -1.4439  1.0895
 5443SOL     OW27787   3.559   3.754  15.528  0.3234  0.1412 -0.7499
 5443SOL    HW127788   3.566   3.843  15.563 -1.0065  0.4418 -1.2705
 5443SOL    HW227789   3.614   3.706  15.590 -0.2029 -0.6076 -0.8698
 5444SOL     OW27790   0.065   1.090  11.384  0.1925  0.2042 -0.1552
 5444SOL    HW127791   0.085   1.148  11.457  1.7816  0.6669 -0.9694
 5444SOL    HW227792   4.715   1.049  11.423  0.5411  1.6946  2.0972
 5445SOL     OW27793   3.669   4.722   8.453  0.0503  0.4387  0.2980
 5445SOL    HW127794   3.759   4.691   8.452 -0.1513 -0.1377 -0.5783
 5445SOL    HW227795   3.674   0.086   8.424  3.3046  0.5157  1.1560
 5446SOL     OW27796   3.986   3.803   6.110 -0.4437  0.3324  0.6331
 5446SOL    HW127797   4.048   3.792   6.037 -0.5011  3.1184  0.1745
 5446SOL    HW227798   3.993   3.713   6.141  1.1278 -0.0899 -0.9115
 5447SOL     OW27799   1.484   1.527  12.295 -0.0976 -0.2373  0.2858
 5447SOL    HW127800   1.520   1.439  12.290 -1.2298 -0.7475  1.2115
 5447SOL    HW227801   1.392   1.508  12.275 -0.2356  1.0064 -0.2635
 5448SOL     OW27802   2.063   0.597   8.935  0.2920  0.6617  0.3912
 5448SOL    HW127803   2.009   0.518   8.932 -1.3632  1.6790  3.3101
 5448SOL    HW227804   2.038   0.631   9.021  0.0740  2.8765 -0.5455
 5449SOL     OW27805   0.092   0.129   4.481  0.7159 -0.1118  0.8157
 5449SOL    HW127806   0.024   0.087   4.534 -0.2873 -1.8017 -1.8696
 5449SOL    HW227807   0.163   0.070   4.507  0.7421 -0.1988  0.5427
 5450SOL     OW27808   3.416   3.507   0.722 -0.1919 -0.7466  0.5272
 5450SOL    HW127809   3.324   3.523   0.698 -0.3061 -2.6082 -0.3155
 5450SOL    HW227810   3.460   3.550   0.649  0.4346 -3.0492 -0.4513
 5451SOL     OW27811   4.701   0.236  12.818 -0.0257  0.2478  0.7640
 5451SOL    HW127812   0.031   0.161  12.834 -0.9558 -0.0427  2.8154
 5451SOL    HW227813   4.724   0.250  12.726 -0.1599  0.7835  0.8120
 5452SOL     OW27814   0.776   1.985  10.112  0.4214 -0.6349  0.0954
 5452SOL    HW127815   0.857   1.989  10.162  1.0641  1.1991 -1.1122
 5452SOL    HW227816   0.807   1.994  10.022  0.0765  1.0088  0.1376
 5453SOL     OW27817   3.784   4.579   5.460  0.6814  0.4158  0.4876
 5453SOL    HW127818   3.759   4.665   5.426 -0.9028  0.0984  0.8732
 5453SOL    HW227819   3.822   4.538   5.382 -2.9638 -2.4960  0.2861
 5454SOL     OW27820   2.731   2.449   2.136 -0.1989  0.3539  0.1777
 5454SOL    HW127821   2.708   2.448   2.229 -1.8527 -0.5977 -0.2520
 5454SOL    HW227822   2.721   2.357   2.114 -3.2757  0.2339  2.1619
 5455SOL     OW27823   2.954   1.402  15.462  0.9985 -0.4550  0.6487
 5455SOL    HW127824   2.994   1.475  15.510  0.2830 -0.8978  1.9225
 5455SOL    HW227825   2.871   1.442  15.436  1.0791 -1.7471 -1.5447
 5456SOL     OW27826   0.920   2.643   9.279 -0.4356  0.4985 -0.0517
 5456SOL    HW127827   0.909   2.685   9.194  2.3075  0.8924 -0.1950
 5456SOL    HW227828   0.963   2.560   9.257  0.3865  0.4311  1.8010
 5457SOL     OW27829   0.537   4.496   6.965 -0.5023  0.1943 -0.0482
 5457SOL    HW127830   0.609   4.433   6.962 -0.6967  0.0439 -1.6362
 5457SOL    HW227831   0.571   4.564   6.908 -0.5342  0.3178  0.0795
 5458SOL     OW27832   2.530   1.184   6.924 -0.7482  0.1380 -0.5195
 5458SOL    HW127833   2.595   1.209   6.858 -1.5950 -0.9157 -1.7398
 5458SOL    HW227834   2.586   1.120   6.968  2.8654  4.3197  0.9752
 5459SOL     OW27835   0.722   1.168   3.858  0.0990 -0.1655 -1.1785
 5459SOL    HW127836   0.785   1.180   3.930 -0.2670 -0.0504 -0.8742
 5459SOL    HW227837   0.635   1.174   3.897  1.2277 -2.0411  1.6679
 5460SOL     OW27838   2.975   0.852   2.504 -0.0456 -0.1944 -0.1365
 5460SOL    HW127839   2.886   0.873   2.477 -0.1795 -1.2416 -0.4759
 5460SOL    HW227840   3.024   0.882   2.427  1.1372 -1.8494 -0.0156
 5461SOL     OW27841   2.191   0.557  11.782 -0.1947 -0.1785 -0.0235
 5461SOL    HW127842   2.252   0.489  11.753 -0.3328  1.0590 -3.2858
 5461SOL    HW227843   2.224   0.578  11.869 -1.2763 -1.1228  0.6172
 5462SOL     OW27844   2.020   1.010  13.133 -0.3735  0.0047  0.4167
 5462SOL    HW127845   1.978   0.954  13.068 -0.0341  0.8372 -0.5259
 5462SOL    HW227846   2.111   0.984  13.119  0.2566  1.4548  1.7439
 5463SOL     OW27847   1.150   4.060   7.751  0.3611  0.2928  0.2123
 5463SOL    HW127848   1.098   4.131   7.713  1.7716  0.2020 -1.8848
 5463SOL    HW227849   1.193   4.021   7.676 -0.4804 -0.9600  0.3730
 5464SOL     OW27850   1.502   0.666   5.951  0.6918 -0.2306  0.1218
 5464SOL    HW127851   1.462   0.747   5.984 -0.2794  0.0121 -1.6649
 5464SOL    HW227852   1.492   0.606   6.025 -0.2023 -0.9844 -0.6252
 5465SOL     OW27853   2.434   0.233   7.250 -0.2898  0.1839  0.1983
 5465SOL    HW127854   2.387   0.297   7.304  0.4133 -0.5065  1.6158
 5465SOL    HW227855   2.525   0.251   7.272 -0.5794  0.1957  1.4070
 5466SOL     OW27856   2.579   3.886   7.517  0.4238  0.1780  0.7398
 5466SOL    HW127857   2.646   3.839   7.467 -1.1144 -0.3400 -0.8621
 5466SOL    HW227858   2.562   3.829   7.592 -1.4286 -0.8624 -0.4768
 5467SOL     OW27859   0.823   1.784   7.359 -0.0106  0.0080 -0.1396
 5467SOL    HW127860   0.903   1.834   7.341 -0.9576  0.5397 -2.9123
 5467SOL    HW227861   0.755   1.847   7.338 -0.0447  0.5808  1.6534
 5468SOL     OW27862   1.363   2.506   4.081 -0.6015 -0.3582  0.5786
 5468SOL    HW127863   1.294   2.567   4.053  0.8523 -0.5902 -3.4748
 5468SOL    HW227864   1.312   2.425   4.094 -0.6562 -0.2115  1.3102
 5469SOL     OW27865   4.126   0.216   4.547 -0.3393  0.5014  0.9604
 5469SOL    HW127866   4.077   0.298   4.549 -2.2821 -0.6713  1.8473
 5469SOL    HW227867   4.130   0.192   4.455  0.2107 -1.0796  1.3965
 5470SOL     OW27868   4.041   2.790   7.416 -0.2373  0.1441 -0.2416
 5470SOL    HW127869   3.987   2.770   7.492 -0.0225 -1.0886 -0.4212
 5470SOL    HW227870   4.032   2.713   7.361 -2.8607 -1.1720  2.0413
 5471SOL     OW27871   0.258   2.315   8.625 -0.3085  0.1890  0.0429
 5471SOL    HW127872   0.327   2.333   8.560 -1.9071  1.4740 -1.3074
 5471SOL    HW227873   0.247   2.400   8.667  1.5554 -1.2669  3.4339
 5472SOL     OW27874   0.073   4.717  14.738 -0.1964 -0.1683 -0.2384
 5472SOL    HW127875   0.062   0.031  14.823  2.3380 -2.6875  1.2973
 5472SOL    HW227876   0.153   4.664  14.743  0.8505  1.5336  0.9262
 5473SOL     OW27877   2.501   0.661   8.313  0.3620  0.0765 -0.1247
 5473SOL    HW127878   2.458   0.699   8.390 -0.7483 -3.3847  0.9427
 5473SOL    HW227879   2.588   0.693   8.338 -0.7513  1.8750  1.5270
 5474SOL     OW27880   0.364   3.382  15.543  0.8430 -0.2041  0.6884
 5474SOL    HW127881   0.372   3.300  15.495  0.6248  0.2549 -0.1351
 5474SOL    HW227882   0.312   3.432  15.480  1.1133 -1.5974 -0.6390
 5475SOL     OW27883   2.320   2.943   8.840  0.2236 -0.0337  0.9381
 5475SOL    HW127884   2.380   2.961   8.913 -0.0370  5.1992 -0.1115
 5475SOL    HW227885   2.349   3.011   8.779 -1.2902 -0.0207  0.2574
 5476SOL     OW27886   4.169   2.545   6.761 -0.0639  0.4609 -0.0967
 5476SOL    HW127887   4.087   2.595   6.760 -0.4861 -0.2275 -0.1755
 5476SOL    HW227888   4.238   2.609   6.780  1.5190 -0.4562 -2.7421
 5477SOL     OW27889   0.452   3.479   8.600 -0.1718 -0.0024  0.9927
 5477SOL    HW127890   0.507   3.552   8.630  0.7168 -1.1242  2.1230
 5477SOL    HW227891   0.449   3.425   8.679  2.0208 -2.1711 -0.3849
 5478SOL     OW27892   1.119   4.374  13.540  0.2430  0.2572 -0.0866
 5478SOL    HW127893   1.171   4.304  13.580 -1.5961 -0.3651  1.2106
 5478SOL    HW227894   1.141   4.442  13.604  1.8667  1.3724 -1.8427
 5479SOL     OW27895   0.387   4.118   7.110  0.3560 -0.1381 -0.0486
 5479SOL    HW127896   0.305   4.134   7.157  0.1152 -0.8317 -0.2339
 5479SOL    HW227897   0.369   4.169   7.031  1.8841  0.8512  0.2403
 5480SOL     OW27898   0.748   2.215   5.397 -0.3111  0.1543  0.1433
 5480SOL    HW127899   0.743   2.243   5.489 -2.1636 -1.6906  0.6133
 5480SOL    HW227900   0.680   2.148   5.402 -0.1499  0.0327  0.7716
 5481SOL     OW27901   0.453   3.073  17.097 -0.0710 -0.3555  0.1821
 5481SOL    HW127902   0.508   3.036  17.027 -0.4327 -0.6129  0.0337
 5481SOL    HW227903   0.426   3.155  17.057 -0.3805 -0.7494 -0.4348
 5482SOL     OW27904   2.915   2.878  17.201  0.3146  0.0951 -0.0828
 5482SOL    HW127905   2.925   2.950  17.263 -1.3630  0.5642 -0.3553
 5482SOL    HW227906   2.950   2.896  17.114  0.7576 -1.1010 -0.1504
 5483SOL     OW27907   1.499   0.775  15.574  0.0512  0.2843 -0.1890
 5483SOL    HW127908   1.508   0.860  15.531 -0.2405  0.4158  0.0117
 5483SOL    HW227909   1.471   0.805  15.661  0.1734 -0.6019  0.1610
 5484SOL     OW27910   0.077   0.366   8.158 -0.2099  0.5306  0.1409
 5484SOL    HW127911   0.062   0.403   8.071 -3.1739 -1.0699 -0.0330
 5484SOL    HW227912   0.006   0.302   8.155  0.4977 -0.2142 -0.6016
 5485SOL     OW27913   3.324   1.044   9.737  0.3910  0.1810  0.4717
 5485SOL    HW127914   3.300   0.951   9.736  0.0444  0.2811 -0.6348
 5485SOL    HW227915   3.286   1.080   9.817 -0.5870  1.0126 -0.3649
 5486SOL     OW27916   2.528   3.148  12.157 -0.5246  0.2409  0.3991
 5486SOL    HW127917   2.620   3.123  12.165 -0.3098  0.3226 -1.7967
 5486SOL    HW227918   2.494   3.088  12.223 -0.7779  1.1251  1.0559
 5487SOL     OW27919   0.257   4.203   7.352 -0.2222 -0.0597  0.1153
 5487SOL    HW127920   0.336   4.158   7.380 -1.0831 -1.9620 -0.5403
 5487SOL    HW227921   0.275   4.296   7.366 -0.0683 -0.2720  1.2964
 5488SOL     OW27922   2.499   2.191   8.001  0.4469 -0.5178 -0.0088
 5488SOL    HW127923   2.436   2.146   8.057  2.0814 -2.2098  0.5015
 5488SOL    HW227924   2.554   2.235   8.066 -1.1092  2.1382 -0.5333
 5489SOL     OW27925   4.636   0.551   3.551  0.0825  0.0629  0.0104
 5489SOL    HW127926   4.624   0.635   3.508 -2.2722  0.1593  0.8409
 5489SOL    HW227927   4.669   0.584   3.635  0.1554 -0.5413  0.2200
 5490SOL     OW27928   4.017   2.388   8.226 -0.5001  0.7358  0.2225
 5490SOL    HW127929   4.029   2.293   8.238 -0.1223  1.2078  3.4586
 5490SOL    HW227930   4.000   2.415   8.316  0.5624  0.4847  0.5044
 5491SOL     OW27931   0.230   4.103   1.109  0.1790  0.1524  0.2707
 5491SOL    HW127932   0.152   4.107   1.166  1.0547  0.5718  1.4342
 5491SOL    HW227933   0.232   4.009   1.091 -3.1191  0.0095  0.5272
 5492SOL     OW27934   0.518   3.262   2.008  0.1797 -0.2161 -0.4293
 5492SOL    HW127935   0.475   3.312   2.077 -0.1818  1.5475 -1.9428
 5492SOL    HW227936   0.448   3.217   1.960 -0.1880 -3.8367  3.5346
 5493SOL     OW27937   1.370   2.330   7.810 -0.3355  0.3758  0.5059
 5493SOL    HW127938   1.305   2.364   7.871 -0.4499  0.0032  0.5904
 5493SOL    HW227939   1.444   2.313   7.868  0.3473 -1.6001 -0.9362
 5494SOL     OW27940   3.128   0.552   3.495  0.2829  0.1739 -0.2257
 5494SOL    HW127941   3.179   0.521   3.420  3.7911 -0.3382  2.3355
 5494SOL    HW227942   3.059   0.486   3.495  2.4916 -2.1379  0.4951
 5495SOL     OW27943   3.741   3.897   9.823 -0.2559  0.0276  0.3290
 5495SOL    HW127944   3.813   3.954   9.797  1.1328  0.0750  4.3206
 5495SOL    HW227945   3.672   3.940   9.772 -0.9594  1.0748  2.1741
 5496SOL     OW27946   4.508   1.708  10.210 -0.1958 -0.0142  0.1086
 5496SOL    HW127947   4.487   1.633  10.154 -0.9475  1.1709 -1.2065
 5496SOL    HW227948   4.582   1.747  10.164  0.0116  0.3324  0.7281
 5497SOL     OW27949   3.342   4.352   7.827 -0.2311 -0.1383  0.2695
 5497SOL    HW127950   3.314   4.313   7.910  2.1957 -3.0114 -0.2777
 5497SOL    HW227951   3.295   4.290   7.773 -0.6590 -0.2386  0.7552
 5498SOL     OW27952   1.454   2.124  10.442 -0.5641 -0.1109  0.2734
 5498SOL    HW127953   1.370   2.165  10.461  0.3239  2.5452 -1.5897
 5498SOL    HW227954   1.433   2.075  10.362 -0.4800  0.5414 -0.1460
 5499SOL     OW27955   2.124   4.697   3.216  0.1014  0.0961  0.1367
 5499SOL    HW127956   2.133   4.615   3.265 -0.6050 -0.5587 -0.8179
 5499SOL    HW227957   2.031   4.713   3.232 -0.0997 -1.7313  0.7644
 5500SOL     OW27958   3.131   0.105   3.059  0.0322  0.4845 -0.4678
 5500SOL    HW127959   3.188   0.180   3.079 -0.9829  1.5485 -1.5141
 5500SOL    HW227960   3.045   0.128   3.094 -0.1705 -1.2348  0.1094
 5501SOL     OW27961   3.729   3.314   6.415 -0.0134 -0.1419 -0.0544
 5501SOL    HW127962   3.635   3.330   6.421 -0.1048 -0.1672 -1.3945
 5501SOL    HW227963   3.755   3.366   6.339 -1.6862  1.2201  0.2876
 5502SOL     OW27964   1.533   2.316   8.747 -0.3388 -0.3328  0.4092
 5502SOL    HW127965   1.475   2.375   8.698  0.8434  0.5495  0.0784
 5502SOL    HW227966   1.469   2.294   8.815 -1.0963 -1.9383 -0.8309
 5503SOL     OW27967   1.132   2.112   3.708  0.2096 -0.3080  0.6802
 5503SOL    HW127968   1.086   2.033   3.676 -0.2609  0.2906 -0.1170
 5503SOL    HW227969   1.120   2.113   3.803  2.0098 -0.4468  0.9103
 5504SOL     OW27970   3.472   0.035   2.500  0.1610  0.2721 -0.0180
 5504SOL    HW127971   3.537   0.011   2.435 -0.6032  0.8602 -1.0030
 5504SOL    HW227972   3.529   0.034   2.577 -2.2243 -0.1503  1.7419
 5505SOL     OW27973   3.410   2.060   3.065  0.2800 -0.1762 -0.1050
 5505SOL    HW127974   3.322   2.042   3.098 -0.0598  0.2678 -0.7869
 5505SOL    HW227975   3.444   1.972   3.082 -3.7210 -1.5496  0.6836
 5506SOL     OW27976   0.455   2.824   4.698  0.6222  0.1270 -0.1855
 5506SOL    HW127977   0.369   2.828   4.739  1.4615  2.6898  1.2585
 5506SOL    HW227978   0.432   2.805   4.606 -0.5445  0.2560  0.0822
 5507SOL     OW27979   0.980   3.649  15.722 -0.4429 -0.0284  0.2792
 5507SOL    HW127980   0.888   3.657  15.698 -0.5819 -0.6799  0.5919
 5507SOL    HW227981   0.990   3.724  15.781 -0.1877  1.2861 -1.4386
 5508SOL     OW27982   2.306   4.186   3.465 -0.0276 -0.7776  0.5297
 5508SOL    HW127983   2.329   4.253   3.530 -0.8464  0.3385 -0.3293
 5508SOL    HW227984   2.265   4.242   3.399  0.5006 -1.9347 -0.7692
 5509SOL     OW27985   4.579   4.316   1.497  0.0497  0.0891  0.1910
 5509SOL    HW127986   4.660   4.365   1.483  0.4536 -0.4329  0.6871
 5509SOL    HW227987   4.579   4.325   1.593  1.0881 -2.5309  0.4237
 5510SOL     OW27988   2.083   0.134   1.216 -0.5027 -0.2369 -0.3445
 5510SOL    HW127989   2.004   0.184   1.197 -0.1215 -0.0061 -1.3563
 5510SOL    HW227990   2.139   0.157   1.142  1.7564  0.2860  1.5138
 5511SOL     OW27991   1.089   4.204   5.162 -0.1919  0.4602  0.6729
 5511SOL    HW127992   1.117   4.122   5.204  0.5651 -0.0040 -0.7636
 5511SOL    HW227993   1.106   4.198   5.068  1.3937 -0.3279  1.0046
 5512SOL     OW27994   1.278   2.510   6.163  0.6293  0.5805  0.5455
 5512SOL    HW127995   1.235   2.539   6.243  2.3644  1.8206  1.0285
 5512SOL    HW227996   1.214   2.445   6.135  1.9192 -1.0329  1.3184
 5513SOL     OW27997   0.833   2.493   0.643 -0.1489  0.0884 -0.1831
 5513SOL    HW127998   0.818   2.468   0.734 -0.9407  1.7306  0.1385
 5513SOL    HW227999   0.832   2.588   0.654 -2.7327 -0.1129  1.3120
 5514SOL     OW28000   1.282   1.521  10.964 -0.3748 -0.3952  0.1369
 5514SOL    HW128001   1.212   1.465  10.997  0.7948 -1.8427  0.1559
 5514SOL    HW228002   1.358   1.463  10.968 -1.0871 -1.3699 -0.4791
 5515SOL     OW28003   0.997   0.595  11.148 -0.4435 -0.2455 -0.1834
 5515SOL    HW128004   1.037   0.672  11.109 -2.1490  1.5191  1.5327
 5515SOL    HW228005   0.904   0.615  11.132 -0.2293  0.4446 -0.5485
 5516SOL     OW28006   0.481   0.918   6.011 -0.0841  0.0622 -0.2235
 5516SOL    HW128007   0.440   0.836   5.986  0.4242 -0.6079  1.1508
 5516SOL    HW228008   0.403   0.959   6.049  0.3582 -1.0467  1.8596
 5517SOL     OW28009   2.430   0.440   7.986 -0.8687 -0.2962 -0.2399
 5517SOL    HW128010   2.342   0.479   7.983 -0.7157  0.0998  0.4706
 5517SOL    HW228011   2.431   0.395   7.902 -4.1521 -1.3845  0.3160
 5518SOL     OW28012   3.590   2.609   0.672  0.3125  0.2614  0.3977
 5518SOL    HW128013   3.527   2.634   0.604 -0.3801 -0.6157  0.7074
 5518SOL    HW228014   3.604   2.694   0.713 -0.2815 -0.4457  2.0621
 5519SOL     OW28015   2.912   1.140   6.836  0.1446  0.2635  0.3073
 5519SOL    HW128016   2.931   1.135   6.930 -0.8873  0.6479  0.5354
 5519SOL    HW228017   2.862   1.221   6.833 -0.8242 -0.2328  3.1284
 5520SOL     OW28018   1.672   3.803  14.807  0.1047  0.4340 -0.1416
 5520SOL    HW128019   1.743   3.784  14.746  0.3916  2.0565 -0.3059
 5520SOL    HW228020   1.624   3.720  14.811  2.9315 -1.0645  2.2420
 5521SOL     OW28021   1.692   0.009   3.519 -0.7555  0.1484 -0.4301
 5521SOL    HW128022   1.666   0.098   3.496 -0.2753  0.8972  1.9076
 5521SOL    HW228023   1.648   0.014   3.605 -1.9285 -1.1086 -0.9655
 5522SOL     OW28024   4.501   1.481  17.538  0.6656  0.1423 -0.1717
 5522SOL    HW128025   4.452   1.426  17.477 -1.9271  1.0721  1.0586
 5522SOL    HW228026   4.499   1.439  17.624 -0.4878 -1.5891 -1.0387
 5523SOL     OW28027   1.301   1.390   6.090 -0.4665  0.2992  0.2014
 5523SOL    HW128028   1.375   1.342   6.051 -0.6504 -0.4243  0.7380
 5523SOL    HW228029   1.322   1.483   6.079  1.9665 -0.4833 -2.0735
 5524SOL     OW28030   2.150   2.345   3.200 -0.4623 -0.2107 -0.1654
 5524SOL    HW128031   2.112   2.366   3.115  1.9038 -1.1464 -1.4717
 5524SOL    HW228032   2.241   2.316   3.185  0.2781  3.6954 -3.0816
 5525SOL     OW28033   0.968   0.941   2.838 -0.1335 -0.4116  0.4867
 5525SOL    HW128034   0.910   0.995   2.784  0.8894 -0.2988 -0.4900
 5525SOL    HW228035   0.945   0.942   2.931 -0.1551  2.0241  0.4579
 5526SOL     OW28036   0.906   2.243  17.480 -0.2604 -0.0385  0.0715
 5526SOL    HW128037   0.993   2.211  17.457 -0.9826 -2.1917  0.3007
 5526SOL    HW228038   0.846   2.181  17.438  0.7690 -0.6080 -0.5511
 5527SOL     OW28039   4.131   0.498   6.631 -0.0415  0.5662  0.6101
 5527SOL    HW128040   4.126   0.518   6.724  1.5036 -0.1586  0.8449
 5527SOL    HW228041   4.206   0.439   6.629  0.5209  1.3114 -0.6284
 5528SOL     OW28042   2.799   1.217   7.238  0.2404 -0.1246 -0.2790
 5528SOL    HW128043   2.895   1.214   7.233  0.3463  0.0727  1.7686
 5528SOL    HW228044   2.764   1.140   7.194 -0.1785 -1.2417  2.0116
 5529SOL     OW28045   4.033   2.058   6.735  1.3832 -0.4822 -0.3115
 5529SOL    HW128046   4.129   2.063   6.728  1.2548  0.5372 -1.3648
 5529SOL    HW228047   4.021   2.144   6.777 -1.8774 -0.8550 -0.5090
 5530SOL     OW28048   3.245   3.609   1.585 -0.6040 -0.1472  0.0640
 5530SOL    HW128049   3.313   3.676   1.579 -1.1004  0.3930  0.5612
 5530SOL    HW228050   3.296   3.530   1.599 -0.7493 -0.0025  1.3456
 5531SOL     OW28051   1.207   0.358   2.015 -0.1510  0.0344 -0.1140
 5531SOL    HW128052   1.157   0.360   2.097  1.0297 -0.1070  0.6095
 5531SOL    HW228053   1.244   0.446   2.003 -1.1994  0.0768 -2.9663
 5532SOL     OW28054   2.182   1.132   9.162  0.5967 -0.3349 -0.0927
 5532SOL    HW128055   2.212   1.042   9.162  0.9267 -0.2393 -1.7787
 5532SOL    HW228056   2.249   1.170   9.219 -0.5520 -0.1470  1.1361
 5533SOL     OW28057   2.207   2.017  11.481  0.7064 -0.1320 -0.1093
 5533SOL    HW128058   2.146   2.067  11.427 -0.0757 -1.0635 -0.0881
 5533SOL    HW228059   2.260   1.974  11.414  1.0016 -1.2235  0.8202
 5534SOL     OW28060   3.254   3.161  16.883 -0.3384 -0.2008  0.4623
 5534SOL    HW128061   3.301   3.200  16.957 -2.4855  0.5648  1.4199
 5534SOL    HW228062   3.311   3.092  16.850 -2.1054 -1.2521 -0.3656
 5535SOL     OW28063   1.809   1.226  11.335 -0.0335  0.5079 -0.5872
 5535SOL    HW128064   1.844   1.163  11.273 -2.2663  0.1713 -1.4875
 5535SOL    HW228065   1.793   1.305  11.284  1.9493  1.0563 -0.3394
 5536SOL     OW28066   0.708   3.513   9.346  0.1937 -0.4325 -0.7334
 5536SOL    HW128067   0.706   3.587   9.407 -0.4499 -1.3405  0.3609
 5536SOL    HW228068   0.774   3.455   9.384  0.6871  1.4990  1.3790
 5537SOL     OW28069   4.504   0.746   6.822 -0.4445 -0.0726  0.0214
 5537SOL    HW128070   4.585   0.794   6.837  0.7651 -2.4039  1.0596
 5537SOL    HW228071   4.547   0.664   6.796 -0.0287 -0.1821  1.0772
 5538SOL     OW28072   1.535   2.782  15.188  0.3650 -0.2798  0.3910
 5538SOL    HW128073   1.492   2.799  15.105 -1.9312  0.9438  1.8268
 5538SOL    HW228074   1.460   2.744  15.233 -1.3580  1.0453 -1.3795
 5539SOL     OW28075   2.836   1.343   3.470 -0.0258 -0.4801 -0.4309
 5539SOL    HW128076   2.892   1.293   3.410  2.1684 -1.0753  2.0746
 5539SOL    HW228077   2.813   1.271   3.528 -1.0180 -0.7046 -1.0959
 5540SOL     OW28078   2.726   2.780   1.164  0.1785  0.1452 -0.0696
 5540SOL    HW128079   2.676   2.842   1.217  1.2459  2.0911 -1.3328
 5540SOL    HW228080   2.750   2.833   1.088  1.0666  1.6633  1.2729
 5541SOL     OW28081   1.094   2.499  10.530  0.5782  0.6021 -0.5344
 5541SOL    HW128082   1.135   2.423  10.571 -2.2756 -0.9435 -0.5055
 5541SOL    HW228083   1.051   2.464  10.453  0.6993 -1.4671  0.3433
 5542SOL     OW28084   0.783   0.972   7.753 -0.6869  0.5410  0.2577
 5542SOL    HW128085   0.715   1.028   7.714 -1.1370 -0.9398 -1.0888
 5542SOL    HW228086   0.854   1.004   7.698  1.6733 -2.6701  1.4388
 5543SOL     OW28087   2.581   3.843   9.234 -0.3836 -0.1288  0.1948
 5543SOL    HW128088   2.612   3.879   9.317 -1.0608  0.5074  0.1771
 5543SOL    HW228089   2.505   3.899   9.219  0.1675  0.0128 -2.0776
 5544SOL     OW28090   2.054   4.723   9.783 -0.0760 -0.6767 -0.2206
 5544SOL    HW128091   2.129   4.698   9.837  0.9832 -0.1155 -1.4326
 5544SOL    HW228092   2.049   0.089   9.803  1.7884 -0.4233 -0.8421
 5545SOL     OW28093   2.031   3.763   6.989  0.5411 -0.8600 -0.1113
 5545SOL    HW128094   1.997   3.834   6.934 -1.7131 -0.6396  1.5672
 5545SOL    HW228095   1.985   3.780   7.071  0.1311  2.1924 -0.9473
 5546SOL     OW28096   0.850   2.631   5.328 -0.4770  0.0906 -0.1937
 5546SOL    HW128097   0.844   2.715   5.281 -1.1812 -0.4096 -1.0029
 5546SOL    HW228098   0.900   2.581   5.264  1.2882  0.4460  0.9014
 5547SOL     OW28099   2.570   0.183  11.239 -0.0147 -0.2210 -0.7668
 5547SOL    HW128100   2.618   0.183  11.322  1.0246 -2.3528 -1.3705
 5547SOL    HW228101   2.638   0.136  11.191 -0.1361 -0.8533 -0.3305
 5548SOL     OW28102   4.670   1.822   2.334  0.1107 -0.0069  0.4637
 5548SOL    HW128103   0.013   1.761   2.354 -1.2385 -1.6930  0.0397
 5548SOL    HW228104   4.587   1.777   2.350  0.2918 -0.1611  0.9565
 5549SOL     OW28105   0.754   4.145   3.216 -0.0064  0.0799 -0.3902
 5549SOL    HW128106   0.844   4.116   3.204 -0.0329 -0.4048  0.5456
 5549SOL    HW228107   0.697   4.068   3.205  0.5396 -0.7158  2.1904
 5550SOL     OW28108   3.990   2.176   9.375 -0.1483 -0.4176 -0.5665
 5550SOL    HW128109   4.011   2.118   9.447  0.1174 -2.1365 -2.0343
 5550SOL    HW228110   4.067   2.234   9.372 -0.7744  0.4677  0.4149
 5551SOL     OW28111   0.651   3.332   8.013  0.0253 -0.0427  0.5464
 5551SOL    HW128112   0.692   3.294   8.090  2.5955  1.8342  0.1290
 5551SOL    HW228113   0.730   3.354   7.964  1.1000 -1.6480  1.5849
 5552SOL     OW28114   4.388   2.881  14.457 -0.4758  0.6445  0.2262
 5552SOL    HW128115   4.329   2.850  14.388 -0.9600 -3.5056  2.5394
 5552SOL    HW228116   4.453   2.920  14.399 -1.0639 -2.1641 -2.3239
 5553SOL     OW28117   0.327   0.161  13.018  0.3071  0.4438  0.0905
 5553SOL    HW128118   0.289   0.197  12.938 -0.3259  0.5703  0.4508
 5553SOL    HW228119   0.398   0.106  12.984 -0.9266 -0.8300 -0.4177
 5554SOL     OW28120   1.011   2.975   2.487 -0.0741 -0.1080  0.4459
 5554SOL    HW128121   0.990   2.920   2.563 -0.0120 -0.6107  0.1045
 5554SOL    HW228122   0.967   2.911   2.430 -0.2002  0.5998 -0.2436
 5555SOL     OW28123   4.632   2.923   2.938  0.4466  0.4543 -0.2365
 5555SOL    HW128124   4.630   3.014   2.908 -0.4789  1.1582  1.9373
 5555SOL    HW228125   4.645   2.871   2.859  0.0954 -0.2594  0.1762
 5556SOL     OW28126   0.704   0.007   9.775 -0.0631 -0.5692 -0.6067
 5556SOL    HW128127   0.664   0.086   9.810 -2.2080 -0.3769 -3.5097
 5556SOL    HW228128   0.662   4.672   9.834 -0.6125 -0.7979 -1.2372
 5557SOL     OW28129   0.923   1.100   4.040  0.7644  0.3921 -0.3640
 5557SOL    HW128130   0.983   1.171   4.017  0.9544  0.5561  0.6451
 5557SOL    HW228131   0.945   1.069   4.128 -0.2440 -2.3437 -1.0660
 5558SOL     OW28132   0.960   3.512   3.701  0.3149  0.1724  0.1069
 5558SOL    HW128133   1.050   3.528   3.730  0.6026 -0.4585 -0.4094
 5558SOL    HW228134   0.914   3.558   3.770  1.5747  0.0751  1.0096
 5559SOL     OW28135   2.778   2.549   0.064 -0.0932  0.0497  0.2180
 5559SOL    HW128136   2.744   2.629   0.104 -1.8085 -0.3347 -0.4695
 5559SOL    HW228137   2.839   2.587   0.001 -1.7602 -0.8810 -1.9598
 5560SOL     OW28138   3.773   3.140   7.375  0.3970  0.3371 -1.0439
 5560SOL    HW128139   3.713   3.066   7.391 -1.3764  1.7907 -0.9723
 5560SOL    HW228140   3.830   3.148   7.451 -1.1148  0.2436  0.1065
 5561SOL     OW28141   3.990   1.674   2.075 -0.2418  0.8440 -0.1444
 5561SOL    HW128142   3.973   1.605   2.139  2.4008  0.3040 -0.0168
 5561SOL    HW228143   3.978   1.633   1.989 -0.4092 -2.0223  1.2515
 5562SOL     OW28144   3.535   1.445   8.828  0.3251  0.2884  0.3240
 5562SOL    HW128145   3.544   1.362   8.780  0.8327  0.4124  0.1997
 5562SOL    HW228146   3.458   1.427   8.882  0.1504  0.8295  0.2496
 5563SOL     OW28147   3.058   4.275   3.820  0.1108 -0.0840  0.1263
 5563SOL    HW128148   2.986   4.214   3.807  1.9193 -1.4729 -3.4774
 5563SOL    HW228149   3.013   4.342   3.870  3.2911  2.9234 -1.0906
 5564SOL     OW28150   2.329   0.555   8.814  0.1284  0.3029  0.2408
 5564SOL    HW128151   2.252   0.545   8.870 -0.0500  1.1107  0.1259
 5564SOL    HW228152   2.386   0.618   8.858  2.0074 -0.4516 -1.1356
 5565SOL     OW28153   2.389   2.828  11.656 -0.2715  0.5041 -0.1598
 5565SOL    HW128154   2.371   2.747  11.703  2.7203  0.3653  0.7948
 5565SOL    HW228155   2.459   2.866  11.711  0.5660  0.0102 -0.8883
 5566SOL     OW28156   3.485   2.696   0.394  0.2480  0.5822 -0.5631
 5566SOL    HW128157   3.397   2.661   0.407  1.5483 -2.6281 -0.5344
 5566SOL    HW228158   3.515   2.645   0.319 -1.1590  1.1120 -1.4768
 5567SOL     OW28159   2.350   0.765   8.089  0.3543  0.3615  0.1086
 5567SOL    HW128160   2.419   0.832   8.094  1.7450 -1.3247  3.3202
 5567SOL    HW228161   2.384   0.705   8.154  3.2508 -0.8752 -2.5460
 5568SOL     OW28162   2.708   4.156   5.575 -0.4007  0.0724 -0.9068
 5568SOL    HW128163   2.753   4.137   5.493 -2.1880  0.7349 -2.0570
 5568SOL    HW228164   2.628   4.184   5.530  0.7780  1.9631 -1.8538
 5569SOL     OW28165   4.631   2.221   7.812 -0.2056 -0.4279  0.0325
 5569SOL    HW128166   4.579   2.141   7.818  1.4782 -1.4312  1.5748
 5569SOL    HW228167   4.654   2.213   7.719 -0.3473  1.6660 -0.1779
 5570SOL     OW28168   3.201   2.485  16.946  0.1747  0.0057 -0.0922
 5570SOL    HW128169   3.209   2.571  16.987  1.4339 -0.0210 -0.2977
 5570SOL    HW228170   3.107   2.483  16.926  0.3845  1.2599 -1.1909
 5571SOL     OW28171   2.397   2.383   6.299 -0.0842  0.4157 -0.4495
 5571SOL    HW128172   2.389   2.470   6.260  1.3706  0.6224 -0.3056
 5571SOL    HW228173   2.450   2.401   6.376  1.1484  1.8030 -1.6052
 5572SOL     OW28174   0.108   0.948   9.286  0.2187  0.0139 -0.3110
 5572SOL    HW128175   0.148   0.998   9.215  1.3179 -0.4956 -0.0471
 5572SOL    HW228176   0.176   0.881   9.283 -1.3025 -1.4999 -1.1149
 5573SOL     OW28177   1.660   2.817  12.547 -0.6055 -0.1752  0.4022
 5573SOL    HW128178   1.717   2.840  12.620  0.3967  0.4011 -0.5418
 5573SOL    HW228179   1.593   2.761  12.585  0.0533 -1.4765 -0.3550
 5574SOL     OW28180   3.398   3.990  17.043  0.0982 -0.1443 -0.3509
 5574SOL    HW128181   3.401   3.956  16.953 -0.0358  2.2331 -1.2695
 5574SOL    HW228182   3.412   4.082  17.019 -0.3365  0.2021  0.7182
 5575SOL     OW28183   0.513   0.404   0.278  0.3735 -0.0047 -0.2395
 5575SOL    HW128184   0.449   0.474   0.262  1.6820  0.8552 -1.6365
 5575SOL    HW228185   0.523   0.392   0.184 -0.5552 -1.3352 -0.1733
 5576SOL     OW28186   1.795   4.016   2.333  0.0981 -0.3890  0.2230
 5576SOL    HW128187   1.827   3.964   2.260 -3.0556 -0.5423 -1.0758
 5576SOL    HW228188   1.708   3.975   2.334  0.3258 -0.8641  0.3501
 5577SOL     OW28189   4.512   3.996  15.548 -0.4956  0.7509 -0.6133
 5577SOL    HW128190   4.558   3.982  15.465 -1.1029 -0.9549 -0.6622
 5577SOL    HW228191   4.523   4.091  15.549  0.5696  0.6044  1.2023
 5578SOL     OW28192   4.709   0.693   6.481 -0.0148 -0.1755  0.7335
 5578SOL    HW128193   0.060   0.655   6.519 -1.5819 -3.4313  0.7385
 5578SOL    HW228194   4.718   0.782   6.516 -0.7202  1.1584 -2.4321
 5579SOL     OW28195   0.015   0.912   3.298  0.3201 -0.2385 -0.1369
 5579SOL    HW128196   4.679   0.967   3.344  1.7357  1.2242  0.0725
 5579SOL    HW228197   0.004   0.943   3.208 -0.9234  1.7289  0.6989
 5580SOL     OW28198   2.727   3.895  12.396 -0.5677  0.0104 -0.4125
 5580SOL    HW128199   2.776   3.955  12.340  1.3684 -0.8283  0.3781
 5580SOL    HW228200   2.694   3.954  12.463 -0.5235  1.5014 -1.7069
 5581SOL     OW28201   3.664   3.439   8.497  0.2410  0.1856 -0.4193
 5581SOL    HW128202   3.746   3.478   8.525  1.1047  0.3585 -3.1540
 5581SOL    HW228203   3.632   3.515   8.448 -1.6513 -0.2986  0.0277
 5582SOL     OW28204   0.048   2.819  15.609 -0.4045  0.8262  0.5025
 5582SOL    HW128205   4.713   2.827  15.680  0.0982  0.1399  1.0178
 5582SOL    HW228206   0.052   2.911  15.581  1.3548  0.3556 -0.8253
 5583SOL     OW28207   2.573   1.737   8.354 -0.3124  0.8345 -0.2242
 5583SOL    HW128208   2.655   1.755   8.400  0.5786  0.0965 -1.5152
 5583SOL    HW228209   2.529   1.690   8.424  0.1783 -0.6948 -0.9551
 5584SOL     OW28210   1.763   3.532   0.632  0.7645  0.0510 -0.7247
 5584SOL    HW128211   1.786   3.604   0.574 -1.5280  0.7026 -0.8307
 5584SOL    HW228212   1.839   3.545   0.689  0.4361 -1.5491  0.0876
 5585SOL     OW28213   3.713   0.290  15.670 -0.5402  0.2173  0.2231
 5585SOL    HW128214   3.637   0.293  15.729  0.5421 -0.1898  1.6319
 5585SOL    HW228215   3.765   0.363  15.703 -2.0855  1.1765  0.5520
 5586SOL     OW28216   0.229   2.872  17.558 -0.4882  0.5294  0.4212
 5586SOL    HW128217   0.272   2.791  17.532  0.4620  0.8837  0.8817
 5586SOL    HW228218   0.293   2.941  17.540 -1.6846  1.8435  1.2199
 5587SOL     OW28219   1.899   4.569   5.231  0.7538  0.3275 -0.1506
 5587SOL    HW128220   1.986   4.541   5.202  0.8245  0.4690 -0.0747
 5587SOL    HW228221   1.849   4.488   5.245 -0.1440  1.0079  0.5671
 5588SOL     OW28222   1.163   3.536  15.469  0.1392  0.0107 -0.0482
 5588SOL    HW128223   1.086   3.490  15.437  0.3041  0.3255 -0.8809
 5588SOL    HW228224   1.131   3.560  15.556 -1.5317 -1.5346 -0.2423
 5589SOL     OW28225   0.887   4.194  13.618  0.3916  0.5056  0.4741
 5589SOL    HW128226   0.942   4.126  13.655 -1.9885 -1.7631 -0.1294
 5589SOL    HW228227   0.927   4.213  13.534 -2.0497  2.9191 -0.1656
 5590SOL     OW28228   2.315   1.587   5.200  0.3716  0.1447 -0.7292
 5590SOL    HW128229   2.378   1.656   5.176 -0.1465  1.0161  0.4211
 5590SOL    HW228230   2.235   1.635   5.219 -0.9382 -2.4379  0.2276
 5591SOL     OW28231   4.107   2.431   1.091 -0.3105 -0.0407 -0.0452
 5591SOL    HW128232   4.166   2.412   1.018  0.1152  0.8986  0.0458
 5591SOL    HW228233   4.025   2.460   1.050  1.5915  0.9031 -3.2089
 5592SOL     OW28234   2.820   3.479   0.678 -0.3722 -0.4236  0.3524
 5592SOL    HW128235   2.912   3.479   0.705  0.1170 -0.7375 -1.2982
 5592SOL    HW228236   2.822   3.549   0.613  0.2402 -1.2361 -0.5099
 5593SOL     OW28237   0.443   2.131   9.007 -0.5473  0.1778  0.6541
 5593SOL    HW128238   0.483   2.044   9.005 -0.9025 -0.0458  2.9303
 5593SOL    HW228239   0.385   2.118   9.083 -3.0575 -0.6662 -1.3849
 5594SOL     OW28240   0.819   2.215   0.832 -0.2205  0.3107  0.2798
 5594SOL    HW128241   0.847   2.304   0.852 -1.9147  0.8102  0.3919
 5594SOL    HW228242   0.879   2.156   0.878 -0.5346  0.4385  0.8491
 5595SOL     OW28243   2.035   4.256   1.716  0.4107  0.0234  0.0105
 5595SOL    HW128244   2.090   4.231   1.642  0.6276  3.2450 -0.9193
 5595SOL    HW228245   2.050   4.181   1.774  2.6291  0.1426 -0.3824
 5596SOL     OW28246   0.096   0.613  11.156  0.2406  0.2227  0.1985
 5596SOL    HW128247   0.012   0.658  11.152  0.4775  0.6479  0.0574
 5596SOL    HW228248   0.125   0.666  11.230 -0.4612  1.6303 -0.5435
 5597SOL     OW28249   1.962   1.050   5.689  0.3074 -0.1964 -0.3111
 5597SOL    HW128250   2.010   1.059   5.607  0.9868  0.4558  0.1700
 5597SOL    HW228251   2.026   1.065   5.758 -1.2793  1.0442  0.9078
 5598SOL     OW28252   0.543   0.982   9.864 -0.8196 -0.4707  0.2052
 5598SOL    HW128253   0.626   0.996   9.908 -0.4534 -1.6932 -0.0940
 5598SOL    HW228254   0.485   1.048   9.903  0.1486 -0.3154  1.3753
 5599SOL     OW28255   4.451   4.289  15.587 -0.0098 -0.0167 -0.1806
 5599SOL    HW128256   4.394   4.363  15.564  0.4367  0.6722  0.9178
 5599SOL    HW228257   4.388   4.237  15.637  0.0182 -0.4384 -0.5932
 5600SOL     OW28258   0.502   0.802   3.742  0.2981 -0.2001  0.5227
 5600SOL    HW128259   0.415   0.764   3.733 -0.3059  0.9873  1.2922
 5600SOL    HW228260   0.530   0.791   3.833 -1.0315  0.3533  1.0057
 5601SOL     OW28261   4.161   1.553   4.947 -0.4478 -0.1159 -0.0495
 5601SOL    HW128262   4.082   1.514   4.986  1.4229 -3.1546  0.7649
 5601SOL    HW228263   4.121   1.561   4.861  2.4908 -0.9323 -1.4899
 5602SOL     OW28264   4.158   2.293   6.850  0.0070 -0.6758 -0.3364
 5602SOL    HW128265   4.250   2.270   6.842  0.3471  0.1536  1.0323
 5602SOL    HW228266   4.168   2.373   6.799 -0.9641 -0.8055 -0.7343
 5603SOL     OW28267   3.263   3.711  17.443  0.4523 -0.1504 -0.1817
 5603SOL    HW128268   3.251   3.787  17.387  1.2072  0.4994  0.5488
 5603SOL    HW228269   3.264   3.749  17.530  0.4368 -0.4602 -0.0459
 5604SOL     OW28270   1.342   3.373   6.593 -0.1352 -0.3938 -0.0440
 5604SOL    HW128271   1.391   3.292   6.610 -1.7051 -1.5741 -1.1012
 5604SOL    HW228272   1.383   3.389   6.507 -0.8997  0.2001 -0.2955
 5605SOL     OW28273   4.100   1.829  12.606 -0.0962  0.1246 -0.0613
 5605SOL    HW128274   4.049   1.886  12.549 -0.7302 -0.9628 -0.5905
 5605SOL    HW228275   4.165   1.891  12.640 -1.5447  1.1548  0.7909
 5606SOL     OW28276   0.157   1.228   6.186 -0.2814  0.2566  0.0238
 5606SOL    HW128277   0.111   1.305   6.153  0.5723  0.1585 -1.3984
 5606SOL    HW228278   0.222   1.262   6.248 -0.7379  0.9221  0.1362
 5607SOL     OW28279   3.238   3.811   7.931  0.0748  0.0454  0.4797
 5607SOL    HW128280   3.283   3.759   7.997  0.5040 -0.3913 -0.1550
 5607SOL    HW228281   3.265   3.903   7.943 -0.3061 -0.0161  1.8293
 5608SOL     OW28282   4.387   0.993   8.985 -0.1294  0.2926 -0.3058
 5608SOL    HW128283   4.396   0.933   9.059 -0.4370 -0.8872 -1.2252
 5608SOL    HW228284   4.453   0.961   8.922  0.3745 -1.1334  0.9499
 5609SOL     OW28285   0.354   0.319  12.485 -0.4738 -0.2997 -0.5587
 5609SOL    HW128286   0.438   0.278  12.464 -1.3552 -1.1985 -2.2976
 5609SOL    HW228287   0.296   0.243  12.490 -0.7161 -0.0875 -0.0888
 5610SOL     OW28288   1.879   2.293   2.010  0.0843 -0.5063  0.7845
 5610SOL    HW128289   1.897   2.248   1.928 -0.9961  0.4147  0.0401
 5610SOL    HW228290   1.788   2.276   2.034  0.3883 -2.6760  0.3828
 5611SOL     OW28291   2.278   0.408   6.259 -0.0613  0.3323 -0.1017
 5611SOL    HW128292   2.290   0.484   6.202  1.0300  1.3880  1.5091
 5611SOL    HW228293   2.265   0.340   6.193 -1.1518  0.3727  0.0847
 5612SOL     OW28294   3.458   2.970  12.305  0.2330  0.2433 -0.2534
 5612SOL    HW128295   3.483   3.057  12.275  2.5735 -0.5502 -0.5588
 5612SOL    HW228296   3.362   2.967  12.298  0.4148 -0.9222 -2.1872
 5613SOL     OW28297   0.068   1.961   9.360  0.0297 -0.1108  0.0823
 5613SOL    HW128298   0.014   1.890   9.324 -0.6565  1.0338 -1.1542
 5613SOL    HW228299   0.045   2.026   9.294  1.8468 -0.6614 -1.0538
 5614SOL     OW28300   2.742   1.654   6.025 -0.0068  0.2200 -0.1491
 5614SOL    HW128301   2.757   1.748   6.017 -1.4287  0.4876  0.3918
 5614SOL    HW228302   2.708   1.629   5.939 -1.4572 -1.8716  0.9991
 5615SOL     OW28303   3.140   2.042  10.839 -0.6648  0.1408 -0.5334
 5615SOL    HW128304   3.070   2.107  10.829  0.7763  1.6902 -0.5391
 5615SOL    HW228305   3.106   1.975  10.779 -1.0985 -0.6492  0.5903
 5616SOL     OW28306   2.714   3.407   1.809 -0.2376 -0.0628 -0.3941
 5616SOL    HW128307   2.668   3.385   1.728  2.3950  0.4961 -2.0420
 5616SOL    HW228308   2.646   3.452   1.859  1.6601  1.5638  0.6974
 5617SOL     OW28309   3.436   2.537  14.788 -0.1539  0.2012  1.2617
 5617SOL    HW128310   3.503   2.589  14.743 -0.3400 -0.6188  0.0387
 5617SOL    HW228311   3.358   2.582  14.757 -1.0419 -2.0029  0.3353
 5618SOL     OW28312   3.434   0.518  12.593 -0.5112 -0.6919 -0.3417
 5618SOL    HW128313   3.364   0.518  12.658  0.9071  2.2465  1.1922
 5618SOL    HW228314   3.510   0.552  12.641 -1.1325  0.0654  0.1024
 5619SOL     OW28315   4.206   4.630   7.136  0.2570 -0.2426  0.2494
 5619SOL    HW128316   4.233   4.630   7.228  2.5127 -4.3235 -0.4356
 5619SOL    HW228317   4.233   4.540   7.121 -0.1031 -0.2987 -0.0661
 5620SOL     OW28318   3.892   2.728   2.538  0.0646 -0.2314 -0.7880
 5620SOL    HW128319   3.819   2.745   2.479 -1.7012  2.1070  2.0560
 5620SOL    HW228320   3.881   2.634   2.552 -0.6948  0.2464  1.8099
 5621SOL     OW28321   1.666   3.706   9.418 -0.1944  0.1395  0.2713
 5621SOL    HW128322   1.672   3.772   9.488 -1.3004  1.7272 -1.1381
 5621SOL    HW228323   1.718   3.749   9.351  0.6622  0.3189  1.0443
 5622SOL     OW28324   4.674   0.083   2.786  0.2583 -0.1757  0.0370
 5622SOL    HW128325   4.637   0.120   2.866 -0.7679  1.0021 -0.9815
 5622SOL    HW228326   0.029   0.131   2.784 -0.2080  0.5867 -1.0145
 5623SOL     OW28327   1.995   2.601   3.017  0.3534 -0.4481 -0.2005
 5623SOL    HW128328   2.089   2.597   3.003  0.7379  0.6583  1.9255
 5623SOL    HW228329   1.964   2.635   2.934 -0.1503 -0.1209  0.1187
 5624SOL     OW28330   1.349   0.571  13.553  0.0058  0.3558 -0.2387
 5624SOL    HW128331   1.303   0.495  13.517  1.2709 -0.1471 -0.7792
 5624SOL    HW228332   1.362   0.551  13.645 -1.4480 -0.2551 -0.1529
 5625SOL     OW28333   2.893   3.108   6.946 -0.1883 -0.0074 -0.4258
 5625SOL    HW128334   2.873   3.134   7.036 -1.6916  1.0570 -1.0759
 5625SOL    HW228335   2.884   3.194   6.906  2.0560  0.0938 -0.6995
 5626SOL     OW28336   3.874   2.323   4.917  0.3483 -0.8002  0.1084
 5626SOL    HW128337   3.938   2.252   4.914 -0.4682 -1.4973 -1.0005
 5626SOL    HW228338   3.930   2.399   4.932 -1.6438  0.7207 -0.0547
 5627SOL     OW28339   1.695   3.913  10.352 -0.4310 -0.0763 -0.1688
 5627SOL    HW128340   1.715   3.900  10.445  0.5229  1.4802 -0.1527
 5627SOL    HW228341   1.615   3.965  10.362 -0.7996 -0.6476 -0.1421
 5628SOL     OW28342   0.128   3.828   7.608 -0.3535 -0.3928  0.0485
 5628SOL    HW128343   0.115   3.749   7.660  1.1899 -0.0572  0.9327
 5628SOL    HW228344   0.216   3.843   7.641 -1.0361  2.2414  0.6177
 5629SOL     OW28345   3.666   4.473   5.016 -0.2903  0.0466 -0.2535
 5629SOL    HW128346   3.686   4.549   4.961  0.8143  1.2099  1.7332
 5629SOL    HW228347   3.720   4.405   4.977 -1.7093 -1.0017 -0.3903
 5630SOL     OW28348   3.410   2.404   2.567 -0.5805  0.5566  0.1857
 5630SOL    HW128349   3.386   2.465   2.636 -0.9835  1.8904 -1.1269
 5630SOL    HW228350   3.473   2.447   2.509 -0.8667  1.3001  0.4252
 5631SOL     OW28351   4.547   1.179   3.967 -0.3153 -0.0737  0.2267
 5631SOL    HW128352   4.592   1.241   3.909  2.3771 -1.5862  0.7056
 5631SOL    HW228353   4.618   1.115   3.978 -4.2357 -4.2294  1.0036
 5632SOL     OW28354   3.157   1.317   6.887 -0.2286 -0.5126 -0.2367
 5632SOL    HW128355   3.093   1.345   6.822 -0.3941 -0.6033 -0.1093
 5632SOL    HW228356   3.227   1.297   6.824  0.5139  2.6024 -0.4365
 5633SOL     OW28357   1.140   1.158   8.015 -0.5792  0.0039 -0.5662
 5633SOL    HW128358   1.107   1.246   7.994  1.8950  1.4993  1.8298
 5633SOL    HW228359   1.164   1.119   7.931  0.1850  0.3384 -0.5030
 5634SOL     OW28360   1.971   1.169   8.221  0.1161 -0.0399  0.5152
 5634SOL    HW128361   1.925   1.139   8.143 -2.6324  0.2278  2.0594
 5634SOL    HW228362   2.051   1.119   8.205  0.1142  0.7446 -1.9829
 5635SOL     OW28363   0.318   2.681   7.231  0.1586  0.1371 -0.0227
 5635SOL    HW128364   0.389   2.662   7.170 -1.2228 -1.3567 -1.1577
 5635SOL    HW228365   0.353   2.683   7.320  0.1111 -1.6513  0.0401
 5636SOL     OW28366   3.641   2.037   4.789 -0.0984  0.0393  0.8171
 5636SOL    HW128367   3.578   2.076   4.729  1.7958  0.0165 -1.1637
 5636SOL    HW228368   3.707   1.991   4.737 -1.4938 -0.4689 -0.5004
 5637SOL     OW28369   2.588   2.729   3.804  0.3652  0.2093 -0.0686
 5637SOL    HW128370   2.573   2.823   3.816 -1.4051 -0.3859  2.3930
 5637SOL    HW228371   2.533   2.711   3.729 -1.6778  2.8493  0.7865
 5638SOL     OW28372   2.867   1.663  16.449  0.2443 -0.0070 -0.3388
 5638SOL    HW128373   2.935   1.731  16.451 -0.0205  0.3158 -1.9872
 5638SOL    HW228374   2.892   1.602  16.517 -0.7844 -0.3543 -0.2790
 5639SOL     OW28375   4.402   3.484   5.150 -0.5431  0.0661 -0.0572
 5639SOL    HW128376   4.415   3.552   5.083 -0.5963 -0.4547 -0.5986
 5639SOL    HW228377   4.362   3.411   5.103 -0.8066 -1.7658  3.0159
 5640SOL     OW28378   1.177   1.442   8.058  0.8206 -0.0489  0.8856
 5640SOL    HW128379   1.271   1.426   8.066  1.9261  3.8389 -3.8951
 5640SOL    HW228380   1.171   1.437   7.963 -1.9921 -2.5012  1.1990
 5641SOL     OW28381   4.173   2.044   0.108  0.2343  0.3369 -0.0591
 5641SOL    HW128382   4.134   1.978   0.051 -1.0732  0.4112  0.7682
 5641SOL    HW228383   4.103   2.109   0.102  1.3396  1.4813 -0.6133
 5642SOL     OW28384   4.089   0.815  11.363 -0.4907 -0.1353 -0.5268
 5642SOL    HW128385   4.054   0.897  11.399  1.1936 -0.4682  1.8697
 5642SOL    HW228386   4.042   0.745  11.408 -0.9441 -1.7186 -3.4865
 5643SOL     OW28387   1.055   4.404  12.873  0.0161  1.0196  0.3691
 5643SOL    HW128388   1.034   4.474  12.811 -1.6373  0.3423  0.1481
 5643SOL    HW228389   1.128   4.440  12.923  0.0441 -0.3492  1.3278
 5644SOL     OW28390   0.817   1.936   4.393  0.0877  0.1721 -0.2695
 5644SOL    HW128391   0.852   1.928   4.304  2.5464 -0.4550  0.7543
 5644SOL    HW228392   0.886   1.890   4.441  0.1545 -0.4398 -0.9479
 5645SOL     OW28393   4.090   1.919   3.245 -0.0885  0.4131  0.2264
 5645SOL    HW128394   4.012   1.900   3.194 -1.1493 -0.8255  2.3010
 5645SOL    HW228395   4.063   1.889   3.332 -0.3427 -1.6203 -0.5628
 5646SOL     OW28396   2.933   2.211   4.096 -0.1365 -0.3615  0.4279
 5646SOL    HW128397   2.859   2.214   4.156 -0.6330  2.2736 -0.3159
 5646SOL    HW228398   2.974   2.135   4.135  0.7368 -1.3684 -2.4273
 5647SOL     OW28399   2.094   3.768   7.876  0.3837  0.0410 -0.6629
 5647SOL    HW128400   2.103   3.769   7.781  0.0893 -1.4541 -0.7042
 5647SOL    HW228401   2.145   3.844   7.905  1.8937 -2.0225  2.0139
 5648SOL     OW28402   2.677   4.110   3.334  0.1680 -0.4643 -0.2788
 5648SOL    HW128403   2.750   4.146   3.284  1.5481 -1.0386  1.3320
 5648SOL    HW228404   2.638   4.182   3.384  0.8669  0.6151 -1.2750
 5649SOL     OW28405   2.118   3.150   5.793 -0.4793  0.0112  0.0068
 5649SOL    HW128406   2.114   3.239   5.758  0.5748 -0.4442 -1.3051
 5649SOL    HW228407   2.181   3.105   5.736  0.1077  0.6975  0.1189
 5650SOL     OW28408   3.041   2.656   0.158 -0.4482  0.5917 -0.0371
 5650SOL    HW128409   3.014   2.564   0.167 -1.0161  0.9523  2.0335
 5650SOL    HW228410   3.001   2.691   0.079 -0.8433 -1.5280 -0.7965
 5651SOL     OW28411   0.305   4.322   1.277  0.9185 -0.2552  0.1637
 5651SOL    HW128412   0.301   4.241   1.225 -1.3347  1.1022 -1.7855
 5651SOL    HW228413   0.363   4.373   1.221  0.9785 -2.1235 -1.4767
 5652SOL     OW28414   3.624   0.526   5.569  0.2518 -0.1579  0.4592
 5652SOL    HW128415   3.578   0.610   5.572  0.8970  0.1588  1.7442
 5652SOL    HW228416   3.712   0.558   5.591 -1.2933  2.8200  2.2464
 5653SOL     OW28417   3.918   3.350   1.252  0.5952 -0.1990  0.3983
 5653SOL    HW128418   3.927   3.444   1.236  2.3492 -0.6737 -1.3879
 5653SOL    HW228419   3.823   3.346   1.250  0.4840  3.9036 -1.4614
 5654SOL     OW28420   3.588   3.773  17.329 -0.1966 -0.2099  0.6361
 5654SOL    HW128421   3.587   3.685  17.291  0.9271 -1.1631  2.7559
 5654SOL    HW228422   3.548   3.815  17.253 -1.0318  0.7868  1.6321
 5655SOL     OW28423   2.583   0.742   6.287 -0.4346 -0.2027  0.6062
 5655SOL    HW128424   2.668   0.730   6.329 -0.7342 -0.5970  1.1139
 5655SOL    HW228425   2.527   0.685   6.340 -1.9966 -0.4370 -1.3006
 5656SOL     OW28426   2.410   1.436   9.705 -0.7611  0.3115  0.5770
 5656SOL    HW128427   2.410   1.428   9.800 -0.3161 -2.0803  0.3740
 5656SOL    HW228428   2.419   1.532   9.699  1.9746 -0.0708 -1.0946
 5657SOL     OW28429   1.570   0.919   4.377  0.1263 -0.0647  0.4204
 5657SOL    HW128430   1.563   1.014   4.368 -0.6594  0.0264  1.9621
 5657SOL    HW228431   1.607   0.896   4.292  0.5283  0.9354  0.3205
 5658SOL     OW28432   3.677   3.716   6.461  0.2768 -0.0864 -0.4393
 5658SOL    HW128433   3.686   3.652   6.392 -2.2768  0.3433 -1.1664
 5658SOL    HW228434   3.588   3.692   6.485  0.4363  1.7280  2.0002
 5659SOL     OW28435   0.970   2.186  16.089  0.0960 -0.4411 -0.6311
 5659SOL    HW128436   1.063   2.169  16.107 -0.0168  2.3895  2.8425
 5659SOL    HW228437   0.930   2.220  16.170  1.4587 -1.5691  0.5135
 5660SOL     OW28438   4.419   2.188  14.736  0.0506 -0.1041  1.2671
 5660SOL    HW128439   4.441   2.221  14.649 -0.9667  0.9655  1.4181
 5660SOL    HW228440   4.443   2.096  14.737 -4.2763 -1.2365 -0.4930
 5661SOL     OW28441   1.665   4.213   9.432  0.0110 -0.5366 -0.6415
 5661SOL    HW128442   1.610   4.163   9.493 -1.6545 -1.1688 -2.6644
 5661SOL    HW228443   1.745   4.160   9.431  1.0605  0.9683  1.5421
 5662SOL     OW28444   3.850   3.371   8.255 -0.6695 -0.1235 -0.2707
 5662SOL    HW128445   3.855   3.463   8.230  1.7105  0.2710  1.5983
 5662SOL    HW228446   3.778   3.365   8.319  1.8972  2.6309  2.8868
 5663SOL     OW28447   1.432   1.039   2.440  0.2743 -0.0119  0.2129
 5663SOL    HW128448   1.404   0.965   2.494  1.1678 -1.2286 -1.0176
 5663SOL    HW228449   1.483   0.996   2.372 -1.5386 -2.2539  0.2926
 5664SOL     OW28450   0.189   3.013  11.233 -0.1682 -0.1652 -0.1990
 5664SOL    HW128451   0.250   3.069  11.185  0.2812  0.0196  0.5885
 5664SOL    HW228452   0.216   3.026  11.324  1.3520 -1.5336 -0.4390
 5665SOL     OW28453   1.309   4.429   8.880 -0.2658 -0.2390 -0.0050
 5665SOL    HW128454   1.355   4.513   8.878 -0.3925 -0.1494  1.0490
 5665SOL    HW228455   1.233   4.455   8.933  0.6914 -2.5234  2.4303
 5666SOL     OW28456   1.079   2.109  12.932 -0.2463  0.0014 -0.2383
 5666SOL    HW128457   1.140   2.039  12.906 -0.2267 -0.0485 -0.0581
 5666SOL    HW228458   1.138   2.180  12.955 -1.3687  0.5483  0.9467
 5667SOL     OW28459   2.482   2.133   5.019  0.4809  0.3462 -0.2031
 5667SOL    HW128460   2.438   2.140   4.934  1.1366  0.1743 -0.5541
 5667SOL    HW228461   2.546   2.064   5.005  0.0533 -0.2735  0.8623
 5668SOL     OW28462   1.700   3.725  15.089 -0.2682  0.8632 -0.0678
 5668SOL    HW128463   1.704   3.643  15.039 -0.4861  1.6673 -1.4082
 5668SOL    HW228464   1.607   3.745  15.091 -0.1326  1.2929  1.5837
 5669SOL     OW28465   2.293   0.487   7.107 -1.0182  0.1380 -0.3882
 5669SOL    HW128466   2.345   0.533   7.173  2.3079  0.1031 -2.9695
 5669SOL    HW228467   2.202   0.492   7.136 -1.5826  0.3411 -2.1977
 5670SOL     OW28468   1.551   4.068   1.991  1.0401 -0.7152  0.2092
 5670SOL    HW128469   1.577   4.014   2.065 -1.7432 -0.2007  1.5657
 5670SOL    HW228470   1.606   4.144   2.006  0.5536 -0.0847 -1.1199
 5671SOL     OW28471   1.697   4.252  15.063  0.1346 -0.1532  0.3895
 5671SOL    HW128472   1.651   4.268  14.980  2.3474  0.9992 -0.6355
 5671SOL    HW228473   1.726   4.161  15.060 -1.4600 -0.6642  0.7155
 5672SOL     OW28474   4.636   3.671  12.278  0.1223  0.3667  0.6381
 5672SOL    HW128475   4.545   3.696  12.296 -0.3303 -0.4720 -0.4919
 5672SOL    HW228476   4.613   3.607  12.211 -0.4217  1.1957  0.0340
 5673SOL     OW28477   4.485   4.665   4.091  0.0117  0.1491  0.0739
 5673SOL    HW128478   4.541   4.619   4.153  0.9732  2.2153  0.7449
 5673SOL    HW228479   4.407   4.612   4.073  0.2932  0.6306 -2.5793
 5674SOL     OW28480   0.950   0.032   9.856 -0.3555  0.1999 -0.1871
 5674SOL    HW128481   0.859   0.008   9.840 -0.0944 -1.0800  0.2204
 5674SOL    HW228482   0.972   0.071   9.772 -0.9824 -0.6325 -0.7382
 5675SOL     OW28483   1.029   1.561   8.210 -0.1003 -0.0104  0.6723
 5675SOL    HW128484   0.963   1.501   8.177  2.4345 -3.0939  1.1663
 5675SOL    HW228485   1.099   1.524   8.156 -0.9158  0.2557 -0.5519
 5676SOL     OW28486   2.998   3.035   7.728 -0.5074 -0.3328 -0.9696
 5676SOL    HW128487   3.083   3.066   7.758  0.1891  0.3464 -3.6854
 5676SOL    HW228488   3.032   2.964   7.674  0.5469 -1.0743  0.7097
 5677SOL     OW28489   2.475   2.112   3.285 -0.3991 -0.2197 -0.6891
 5677SOL    HW128490   2.501   2.184   3.343 -1.7109  1.6953 -2.4797
 5677SOL    HW228491   2.434   2.053   3.348 -1.9998  1.2991 -0.3295
 5678SOL     OW28492   4.483   2.392   8.852 -0.7919  0.5441 -0.3784
 5678SOL    HW128493   4.394   2.372   8.823 -0.7471  1.9003 -1.4545
 5678SOL    HW228494   4.543   2.361   8.784  1.3292  0.3217  1.6190
 5679SOL     OW28495   2.951   3.328   5.667  0.0892 -0.0946 -0.2540
 5679SOL    HW128496   2.928   3.253   5.722  0.2782  1.1867  1.5597
 5679SOL    HW228497   2.934   3.400   5.727  0.9620 -0.1368  0.0439
 5680SOL     OW28498   0.698   0.099   6.440 -0.3037 -0.3179  0.1822
 5680SOL    HW128499   0.730   0.010   6.454 -0.9432 -0.0826  3.0202
 5680SOL    HW228500   0.765   0.137   6.382 -1.5617  1.2188 -0.2767
 5681SOL     OW28501   0.226   4.137  14.157  0.1182  0.4470 -0.0378
 5681SOL    HW128502   0.283   4.206  14.122 -0.2298  1.2507  0.9889
 5681SOL    HW228503   0.140   4.179  14.148 -1.4473 -2.7791  0.1560
 5682SOL     OW28504   1.101   1.260   6.514 -0.5725  0.0365 -0.5068
 5682SOL    HW128505   1.138   1.235   6.429  0.4390 -0.4915  0.0839
 5682SOL    HW228506   1.037   1.324   6.484 -0.7874  0.4760  0.8849
 5683SOL     OW28507   4.202   3.669   7.129 -0.2739  0.8618 -0.0510
 5683SOL    HW128508   4.117   3.651   7.169  0.0569 -0.9728 -0.1933
 5683SOL    HW228509   4.243   3.736   7.183  1.4571 -1.7157  1.8052
 5684SOL     OW28510   3.537   3.223   1.006 -0.3161  0.4298  0.2495
 5684SOL    HW128511   3.567   3.304   0.963 -0.2913  0.2417 -0.0862
 5684SOL    HW228512   3.517   3.172   0.928  0.5613  1.0558 -0.3950
 5685SOL     OW28513   2.536   3.644   8.080 -0.3200 -0.3410  0.1758
 5685SOL    HW128514   2.626   3.637   8.111  0.0478 -1.1485 -1.1046
 5685SOL    HW228515   2.510   3.733   8.105 -0.4881 -0.8392  1.7329
 5686SOL     OW28516   3.455   2.824   9.575  0.1414  0.2663  0.4109
 5686SOL    HW128517   3.390   2.876   9.624 -3.0315 -3.2007 -0.0942
 5686SOL    HW228518   3.447   2.874   9.494 -3.3604  1.4590  1.5067
 5687SOL     OW28519   0.192   4.369   6.426 -0.1017 -0.5686  0.0239
 5687SOL    HW128520   0.211   4.347   6.517  0.6129 -0.7573 -0.1766
 5687SOL    HW228521   0.098   4.351   6.423 -0.1008 -0.7846  1.1140
 5688SOL     OW28522   3.507   0.597   3.790  0.1403  1.0738  0.0995
 5688SOL    HW128523   3.425   0.643   3.771 -0.3111 -0.2179 -1.0485
 5688SOL    HW228524   3.555   0.627   3.712  1.6162 -0.5986  0.3811
 5689SOL     OW28525   4.397   1.244   7.372 -0.0853 -0.6363  0.1646
 5689SOL    HW128526   4.470   1.255   7.433 -0.6331  2.5129  0.2559
 5689SOL    HW228527   4.345   1.178   7.418 -2.6310  1.8779  0.8551
 5690SOL     OW28528   1.254   0.175   7.057  0.1627  0.2710  0.2219
 5690SOL    HW128529   1.342   0.139   7.049  0.2137  0.6862 -1.0646
 5690SOL    HW228530   1.269   0.260   7.099 -0.5160  0.8704 -0.7523
 5691SOL     OW28531   1.783   1.121   5.212  0.8379 -0.5364 -0.6012
 5691SOL    HW128532   1.807   1.056   5.278 -0.6730  0.7336  1.1924
 5691SOL    HW228533   1.688   1.132   5.221  0.8641 -0.2923 -0.6023
 5692SOL     OW28534   2.369   4.526  16.806  0.3204  0.8041  0.2018
 5692SOL    HW128535   2.326   4.599  16.850  0.8773  0.6774  0.9731
 5692SOL    HW228536   2.425   4.505  16.881 -1.0363 -0.2079  0.9272
 5693SOL     OW28537   2.944   3.391   7.818 -0.6315 -0.7231 -0.4553
 5693SOL    HW128538   3.030   3.372   7.856  0.0589 -0.5307 -1.9179
 5693SOL    HW228539   2.968   3.389   7.726  1.3808  1.2618  0.0006
 5694SOL     OW28540   3.531   1.032   8.169 -0.3526 -0.8108 -0.1463
 5694SOL    HW128541   3.614   1.063   8.205 -1.0672  0.6567  0.2339
 5694SOL    HW228542   3.548   1.004   8.079  1.0304  0.0050 -0.1391
 5695SOL     OW28543   4.029   4.528   4.128 -0.1671 -0.4900  0.1880
 5695SOL    HW128544   4.012   4.622   4.126 -0.8409 -0.5977  0.9533
 5695SOL    HW228545   3.956   4.488   4.081 -1.3481  1.8395  0.0341
 5696SOL     OW28546   1.466   3.954   2.699  0.1254 -0.0243  0.0765
 5696SOL    HW128547   1.407   3.901   2.646 -0.7740 -0.0150  1.0644
 5696SOL    HW228548   1.541   3.895   2.694  0.2432 -0.1333  3.0196
 5697SOL     OW28549   2.868   3.179   3.083 -0.1186  0.3231  0.2020
 5697SOL    HW128550   2.833   3.110   3.140 -0.7546  0.3218 -0.1838
 5697SOL    HW228551   2.961   3.175   3.105 -0.3915  0.6108  1.3881
 5698SOL     OW28552   0.534   1.856   3.819  0.2866 -0.1854  0.6988
 5698SOL    HW128553   0.612   1.911   3.808 -0.7811  1.2439  0.3405
 5698SOL    HW228554   0.527   1.828   3.728 -1.4682 -0.2801  0.8668
 5699SOL     OW28555   1.620   2.868   2.745 -0.0565 -0.1965  0.7497
 5699SOL    HW128556   1.563   2.870   2.668 -0.0457 -0.5175  0.7342
 5699SOL    HW228557   1.700   2.853   2.694 -0.3094 -1.3766  0.7049
 5700SOL     OW28558   1.212   0.850   2.996  0.9213 -0.2304 -0.2912
 5700SOL    HW128559   1.173   0.882   2.914  1.1390  0.1765 -0.2331
 5700SOL    HW228560   1.139   0.857   3.058 -0.0378  0.9820 -1.5625
 5701SOL     OW28561   4.260   1.484  12.284 -0.2934 -0.0591  0.2392
 5701SOL    HW128562   4.222   1.488  12.196 -2.7122  2.2209  1.3597
 5701SOL    HW228563   4.189   1.511  12.343 -0.4934  0.0684 -0.0603
 5702SOL     OW28564   3.516   0.515   8.163  0.3673  0.2959  0.0912
 5702SOL    HW128565   3.563   0.488   8.084 -1.6894  2.7246 -1.9771
 5702SOL    HW228566   3.427   0.513   8.127 -0.5399  0.6670  2.3525
 5703SOL     OW28567   0.517   0.537  16.851  0.1198  0.3082 -0.4051
 5703SOL    HW128568   0.600   0.536  16.898 -0.3844  0.3026  0.4870
 5703SOL    HW228569   0.503   0.631  16.839  3.0989  0.7951 -0.0306
 5704SOL     OW28570   4.693   0.231  15.909 -0.0441 -0.6401 -0.1508
 5704SOL    HW128571   0.027   0.162  15.884 -0.9926 -1.6065  0.2372
 5704SOL    HW228572   4.723   0.294  15.842 -3.2543 -0.3766 -1.3252
 5705SOL     OW28573   2.291   2.001   2.085 -0.1945 -0.1837 -0.1642
 5705SOL    HW128574   2.235   1.925   2.102  0.7690 -0.5485  1.3615
 5705SOL    HW228575   2.228   2.070   2.106 -2.0328 -1.5037 -1.3227
 5706SOL     OW28576   0.995   2.779  10.423  0.0180 -1.0816 -0.2959
 5706SOL    HW128577   1.079   2.776  10.377  0.5663  0.3506  0.5998
 5706SOL    HW228578   0.939   2.757  10.349  0.1924  0.4875 -0.8773
 5707SOL     OW28579   0.038   1.766  16.674 -0.0589  0.3363 -0.3887
 5707SOL    HW128580   4.675   1.756  16.646  0.2863  0.5541 -1.6172
 5707SOL    HW228581   0.062   1.857  16.658 -1.1606  0.6784 -0.0630
 5708SOL     OW28582   1.400   3.133   1.057 -0.5388  0.5411 -0.3830
 5708SOL    HW128583   1.307   3.153   1.057 -0.5419  0.5220 -2.1751
 5708SOL    HW228584   1.426   3.211   1.106  1.4367 -1.1712  1.3101
 5709SOL     OW28585   2.967   1.526   4.555 -0.0837  0.1569 -0.1333
 5709SOL    HW128586   3.060   1.503   4.565 -0.3202  0.1358  2.1295
 5709SOL    HW228587   2.958   1.532   4.650  0.9197 -0.6792  0.0215
 5710SOL     OW28588   1.451   4.260  11.959 -0.2694 -0.1791  0.4954
 5710SOL    HW128589   1.537   4.301  11.950  0.0500 -0.9276  0.0970
 5710SOL    HW228590   1.466   4.224  12.047  0.3339 -0.5674  0.2337
 5711SOL     OW28591   0.710   0.649  13.102 -0.1049  0.5035  0.2623
 5711SOL    HW128592   0.662   0.572  13.074  1.1644  0.3287 -1.4131
 5711SOL    HW228593   0.659   0.715  13.055  1.7726 -0.2703 -2.8566
 5712SOL     OW28594   4.603   1.109   9.262 -0.3574 -0.3117  0.1319
 5712SOL    HW128595   4.655   1.028   9.255  1.1566  0.7141 -0.6720
 5712SOL    HW228596   4.638   1.159   9.188 -1.7877 -1.1261 -1.0897
 5713SOL     OW28597   3.039   1.051  13.311  0.6373 -0.7823  0.0024
 5713SOL    HW128598   2.988   0.982  13.353 -1.0657  0.7999  0.5475
 5713SOL    HW228599   2.968   1.109  13.283  0.0912 -0.5035  1.8912
 5714SOL     OW28600   2.044   3.998  14.432 -0.3932  0.0271 -0.3303
 5714SOL    HW128601   1.987   3.927  14.403  0.0939 -0.5836  0.2231
 5714SOL    HW228602   2.131   3.957  14.431 -2.2718 -3.8978 -0.6255
 5715SOL     OW28603   0.605   2.997   9.317 -0.5765 -0.4043 -0.3853
 5715SOL    HW128604   0.573   2.958   9.237  0.3885  1.6790 -1.7996
 5715SOL    HW228605   0.666   3.063   9.283  0.8475 -0.8817  1.2570
 5716SOL     OW28606   3.877   1.464   0.756  0.4050  0.3201  0.2832
 5716SOL    HW128607   3.822   1.524   0.806 -0.5914 -1.4323  1.2839
 5716SOL    HW228608   3.853   1.494   0.668  1.8549 -0.8808 -0.5288
 5717SOL     OW28609   2.768   1.974   1.380  0.1525  0.0179  0.0480
 5717SOL    HW128610   2.734   1.911   1.443 -0.4321  0.4542  0.1664
 5717SOL    HW228611   2.721   2.052   1.410 -0.1906 -0.4028  0.5781
 5718SOL     OW28612   2.984   0.181  12.622  0.5384  0.3862  0.2436
 5718SOL    HW128613   2.938   0.121  12.680 -2.1806 -1.1204 -3.4806
 5718SOL    HW228614   3.040   0.229  12.684  0.1913 -0.2683  1.0568
 5719SOL     OW28615   1.027   3.213   1.390 -0.1287 -0.5268 -0.2082
 5719SOL    HW128616   0.937   3.237   1.408 -0.2312 -0.5961 -0.6330
 5719SOL    HW228617   1.020   3.189   1.297  1.4236  0.0279 -0.4845
 5720SOL     OW28618   1.951   2.205  12.605  0.1094  0.3049 -0.5172
 5720SOL    HW128619   2.035   2.240  12.633  0.2229 -1.5200  1.3658
 5720SOL    HW228620   1.911   2.288  12.579  1.1764  0.5793 -1.2885
 5721SOL     OW28621   1.639   3.611   5.348 -0.2367  0.5165 -0.1890
 5721SOL    HW128622   1.695   3.641   5.420  0.0746 -0.5376  0.0188
 5721SOL    HW228623   1.615   3.521   5.369  1.1949 -0.0136 -0.7938
 5722SOL     OW28624   3.067   2.321  13.211  0.0434 -0.1255 -0.2799
 5722SOL    HW128625   3.153   2.304  13.174  0.7379  0.9145  0.8196
 5722SOL    HW228626   3.005   2.327  13.138  1.7133 -0.8906 -1.7378
 5723SOL     OW28627   1.998   1.644   0.633  0.0186 -0.5219 -0.1266
 5723SOL    HW128628   1.965   1.558   0.663  0.3425 -0.4528  0.4229
 5723SOL    HW228629   2.035   1.679   0.714  4.0537  0.4068 -2.4134
 5724SOL     OW28630   1.228   0.537   0.227  0.1620  0.0669  0.3122
 5724SOL    HW128631   1.211   0.463   0.286 -0.3916 -0.6030 -0.6777
 5724SOL    HW228632   1.319   0.516   0.204  0.1021  0.1918 -0.0362
 5725SOL     OW28633   3.758   2.486   6.894  0.6605 -0.1161  0.4790
 5725SOL    HW128634   3.698   2.474   6.968 -2.8046 -0.0681 -2.3103
 5725SOL    HW228635   3.838   2.440   6.920  0.5038 -0.2080  0.8090
 5726SOL     OW28636   0.568   1.087   4.383 -0.4378 -0.0464  0.2347
 5726SOL    HW128637   0.545   1.145   4.455  1.1975  3.2239 -1.8649
 5726SOL    HW228638   0.628   1.151   4.346 -1.7114  1.8032  1.3827
 5727SOL     OW28639   1.864   0.813   1.678 -0.0787 -0.3862  0.2516
 5727SOL    HW128640   1.799   0.762   1.630 -0.2858  1.5286 -1.4492
 5727SOL    HW228641   1.886   0.747   1.744 -2.2500 -0.9004  0.4773
 5728SOL     OW28642   3.263   1.100   4.313  0.1304  0.2469  0.2745
 5728SOL    HW128643   3.289   1.098   4.405 -0.5199 -0.3113  0.4512
 5728SOL    HW228644   3.331   1.146   4.265 -1.4683 -0.3294 -2.5740
 5729SOL     OW28645   1.366   4.337  14.752 -0.6423 -0.0913  0.1270
 5729SOL    HW128646   1.440   4.277  14.750  0.8097  1.7280 -0.7685
 5729SOL    HW228647   1.353   4.338  14.847  2.3995  0.6326  0.5169
 5730SOL     OW28648   3.048   3.626   6.111  0.0626  0.2592  0.2525
 5730SOL    HW128649   3.003   3.711   6.110  0.1590  0.3140  0.5625
 5730SOL    HW228650   3.138   3.657   6.109 -0.2860  1.0919 -2.5731
 5731SOL     OW28651   3.932   3.871  15.205  0.1663 -0.3310 -0.2135
 5731SOL    HW128652   3.998   3.860  15.137  0.2100 -0.7415 -0.1070
 5731SOL    HW228653   3.992   3.854  15.278 -0.5289  3.6437  1.2402
 5732SOL     OW28654   2.450   0.325  12.958  0.4185  0.4068 -0.3720
 5732SOL    HW128655   2.398   0.326  12.878 -0.2122 -0.5599  0.0296
 5732SOL    HW228656   2.490   0.239  12.955 -0.5268 -0.0355 -0.3987
 5733SOL     OW28657   3.092   1.699   6.758 -0.5424 -0.8496 -0.1285
 5733SOL    HW128658   3.068   1.660   6.843  0.9961 -1.5518 -0.0096
 5733SOL    HW228659   3.008   1.717   6.717 -0.5226 -0.8853 -0.1849
 5734SOL     OW28660   0.168   1.083  10.861  0.4261  0.0183 -0.9227
 5734SOL    HW128661   0.112   1.115  10.932 -0.5684  1.3408 -2.3206
 5734SOL    HW228662   0.201   1.170  10.841  1.5011  0.4381  2.5370
 5735SOL     OW28663   0.379   4.691   5.637 -1.0062  0.6794  0.2704
 5735SOL    HW128664   0.294   4.670   5.675 -0.4671 -0.3522  0.8988
 5735SOL    HW228665   0.354   0.019   5.563  0.1397 -2.2094 -2.2540
 5736SOL     OW28666   0.090   3.380   2.769  0.1101  0.3763  0.1574
 5736SOL    HW128667   0.124   3.462   2.805 -0.5690  1.2224 -1.1270
 5736SOL    HW228668   0.027   3.419   2.709 -2.3364 -2.3294  0.9323
 5737SOL     OW28669   2.447   0.748   8.574 -0.0626  0.0372  0.2241
 5737SOL    HW128670   2.364   0.793   8.589  0.3299  0.9237 -0.2466
 5737SOL    HW228671   2.452   0.683   8.644 -1.7870 -2.0289 -1.5762
 5738SOL     OW28672   1.354   2.938   8.463 -0.0960  0.3134 -0.0292
 5738SOL    HW128673   1.427   2.941   8.524 -1.1659 -3.2495  1.4428
 5738SOL    HW228674   1.329   3.030   8.459  0.7270  0.5270 -0.0965
 5739SOL     OW28675   1.114   3.100   6.870  0.3955  0.4158 -0.4791
 5739SOL    HW128676   1.119   3.147   6.953 -0.9596 -0.1084 -0.1026
 5739SOL    HW228677   1.127   3.008   6.894 -1.4486  0.7568  1.7842
 5740SOL     OW28678   3.286   3.966   5.563 -0.3013 -0.6804  0.3776
 5740SOL    HW128679   3.322   4.020   5.494 -1.3110 -1.5209 -0.8025
 5740SOL    HW228680   3.192   3.982   5.561 -0.3803 -1.2190 -0.0239
 5741SOL     OW28681   2.648   1.552   4.238  0.1960 -0.2155 -0.2385
 5741SOL    HW128682   2.716   1.484   4.237  0.5112  0.1462 -1.9981
 5741SOL    HW228683   2.574   1.506   4.199 -1.0635  2.2100 -0.7091
 5742SOL     OW28684   1.748   2.679   6.490 -0.5399 -0.1754  0.3882
 5742SOL    HW128685   1.729   2.757   6.542 -2.5020 -0.8548  0.7093
 5742SOL    HW228686   1.801   2.721   6.422 -2.5555 -1.0148 -1.7496
 5743SOL     OW28687   1.507   4.607   0.738  0.2076  0.0918 -0.6669
 5743SOL    HW128688   1.526   4.695   0.706  0.2099 -0.5591 -2.4799
 5743SOL    HW228689   1.552   4.610   0.822 -0.1652 -1.7249 -0.3952
 5744SOL     OW28690   1.533   3.862   7.565  0.2894  0.5926  0.0055
 5744SOL    HW128691   1.475   3.830   7.634  0.3472 -1.0162 -0.7085
 5744SOL    HW228692   1.599   3.909   7.616  1.9021  0.4278 -1.9405
 5745SOL     OW28693   2.010   0.383   9.700  0.4971  0.3625  0.0768
 5745SOL    HW128694   2.029   0.474   9.724  1.1040 -0.0226  1.0311
 5745SOL    HW228695   2.019   0.343   9.786 -4.1908 -3.5925 -1.2622
 5746SOL     OW28696   4.562   3.588   7.210 -0.5138 -0.5480 -0.4941
 5746SOL    HW128697   4.492   3.604   7.274 -0.3100 -0.0350 -0.3985
 5746SOL    HW228698   4.542   3.497   7.188 -3.4334  0.2223 -1.0786
 5747SOL     OW28699   3.661   2.049   4.180 -0.3352  0.1023 -0.2578
 5747SOL    HW128700   3.731   2.062   4.116  0.6670  1.3875  1.0903
 5747SOL    HW228701   3.605   1.982   4.140 -0.5740 -0.7916  1.5887
 5748SOL     OW28702   2.652   2.999   1.325 -0.1472  0.0091 -0.4081
 5748SOL    HW128703   2.727   3.005   1.384  0.2282  2.5516 -1.1757
 5748SOL    HW228704   2.597   3.066   1.365  0.8547  1.5006 -1.5505
 5749SOL     OW28705   0.128   2.277   6.474  0.3492  0.0533 -0.2447
 5749SOL    HW128706   0.178   2.218   6.530 -2.3445 -1.5515  0.4389
 5749SOL    HW228707   0.157   2.265   6.383 -0.9576  3.6114 -1.1693
 5750SOL     OW28708   0.391   4.099   5.157  0.1157 -0.0866  0.4404
 5750SOL    HW128709   0.481   4.092   5.126  0.0784 -0.3000  0.3754
 5750SOL    HW228710   0.378   4.189   5.130 -3.6968 -0.7655  0.0084
 5751SOL     OW28711   3.504   4.586  11.671  0.3438  0.4773 -0.1453
 5751SOL    HW128712   3.534   4.500  11.639 -3.5680 -0.7571 -0.5082
 5751SOL    HW228713   3.411   4.564  11.674  0.6410 -0.7301  0.2902
 5752SOL     OW28714   3.804   3.043   5.116 -0.0826 -0.1144  0.7256
 5752SOL    HW128715   3.765   3.107   5.177 -0.2657 -0.1880  0.6862
 5752SOL    HW228716   3.857   2.996   5.179  2.4022  0.9213 -0.6175
 5753SOL     OW28717   0.827   1.478   8.526  0.2731 -0.0195  0.1120
 5753SOL    HW128718   0.732   1.492   8.533  0.1184 -1.0319 -0.0396
 5753SOL    HW228719   0.866   1.563   8.504 -0.7864  0.6758  0.8860
 5754SOL     OW28720   0.542   3.766   6.058  0.8979 -0.1851  0.0213
 5754SOL    HW128721   0.525   3.860   6.059 -0.6206 -0.4784  1.6281
 5754SOL    HW228722   0.574   3.760   5.968  0.1182  3.1178 -0.4785
 5755SOL     OW28723   1.937   0.793   2.624  0.1876  0.1168 -0.0453
 5755SOL    HW128724   1.955   0.730   2.694  0.4422 -0.8286 -0.9697
 5755SOL    HW228725   2.013   0.784   2.567  0.8638 -0.0620  0.8726
 5756SOL     OW28726   4.200   0.323   5.484 -0.3055  0.3475  0.1068
 5756SOL    HW128727   4.190   0.305   5.578 -0.3132 -1.1214 -0.1849
 5756SOL    HW228728   4.188   0.234   5.452  1.0717 -0.3217  1.4193
 5757SOL     OW28729   0.732   3.554   8.368  0.3162  0.1245 -0.2765
 5757SOL    HW128730   0.651   3.572   8.320  0.7035  2.8523  0.1139
 5757SOL    HW228731   0.722   3.461   8.387 -0.8475 -0.1200 -2.1028
 5758SOL     OW28732   0.765   0.482   4.296  0.4652 -0.3852  0.1462
 5758SOL    HW128733   0.830   0.514   4.234 -0.1793 -1.0632 -0.8842
 5758SOL    HW228734   0.790   0.520   4.380 -1.0450 -0.6258  0.7237
 5759SOL     OW28735   3.665   3.761  15.213  0.3106 -0.5080  0.0354
 5759SOL    HW128736   3.644   3.702  15.286 -0.7506 -0.2112 -0.0239
 5759SOL    HW228737   3.751   3.729  15.187  0.2230 -1.8967  1.4774
 5760SOL     OW28738   3.515   2.573  12.097 -0.3473  0.1069  0.2906
 5760SOL    HW128739   3.478   2.543  12.014  1.2717 -0.4970 -0.2044
 5760SOL    HW228740   3.438   2.606  12.144 -0.6516  1.8739 -1.4475
 5761SOL     OW28741   0.635   1.763  15.448  0.1332  0.0674  0.2404
 5761SOL    HW128742   0.705   1.823  15.421  0.7646 -0.5189  0.5680
 5761SOL    HW228743   0.567   1.827  15.469 -1.5308 -1.1390 -1.5285
 5762SOL     OW28744   3.360   4.113   6.693  0.1736  0.1449 -0.0291
 5762SOL    HW128745   3.391   4.069   6.772 -2.4117 -1.3737  0.1605
 5762SOL    HW228746   3.327   4.034   6.650  1.0946 -0.3157  0.1247
 5763SOL     OW28747   3.375   4.455  14.415  0.1464 -0.1482  0.1696
 5763SOL    HW128748   3.394   4.377  14.467  0.5557  0.8505  1.4904
 5763SOL    HW228749   3.369   4.521  14.484 -0.4835  0.9384 -0.9085
 5764SOL     OW28750   1.175   2.365   9.932  0.1207  0.2697 -0.1104
 5764SOL    HW128751   1.183   2.352  10.026 -0.1746 -2.9647 -0.5353
 5764SOL    HW228752   1.193   2.460   9.929  1.0156  0.0906 -0.5753
 5765SOL     OW28753   3.838   1.077   1.749  0.0466 -0.2313  0.3480
 5765SOL    HW128754   3.842   1.172   1.754  0.6971 -0.3662  2.3424
 5765SOL    HW228755   3.745   1.063   1.731 -0.0032  2.0111 -1.1368
 5766SOL     OW28756   1.383   3.552  14.245  0.1538 -0.1600 -0.2020
 5766SOL    HW128757   1.453   3.543  14.180 -1.4239 -1.4586 -1.7260
 5766SOL    HW228758   1.362   3.642  14.223 -0.3266 -0.5704 -1.4147
 5767SOL     OW28759   4.100   0.838   7.375  0.5335 -0.0769  0.5944
 5767SOL    HW128760   4.050   0.885   7.308  0.0452 -0.1738  0.8837
 5767SOL    HW228761   4.036   0.795   7.433 -0.2410  3.1291  2.1885
 5768SOL     OW28762   2.259   3.688   0.795 -0.0331  0.2646  0.2901
 5768SOL    HW128763   2.334   3.654   0.747  0.8465 -0.8831  2.5146
 5768SOL    HW228764   2.305   3.725   0.870 -0.8341 -0.7656  1.2942
 5769SOL     OW28765   1.570   2.469   3.635 -0.2016 -0.4828 -0.1464
 5769SOL    HW128766   1.510   2.399   3.662 -3.0407  1.7783 -0.5258
 5769SOL    HW228767   1.660   2.437   3.638 -0.2800 -0.6954 -0.0721
 5770SOL     OW28768   3.590   0.959   5.849  0.1047  0.0033 -0.5596
 5770SOL    HW128769   3.624   0.980   5.936 -0.3498 -3.1526  0.3961
 5770SOL    HW228770   3.496   0.972   5.864  0.6096  2.0851  0.7507
 5771SOL     OW28771   1.331   1.410   4.277 -0.6091 -0.3100  0.2036
 5771SOL    HW128772   1.405   1.379   4.224 -0.5984  1.5799 -0.8941
 5771SOL    HW228773   1.373   1.440   4.357 -0.3006 -1.2394  0.3914
 5772SOL     OW28774   2.968   4.512   5.385  0.3206  0.3002 -0.1147
 5772SOL    HW128775   2.964   4.605   5.406  2.2170 -0.1252  2.1758
 5772SOL    HW228776   2.896   4.482   5.440  1.4111 -0.9079  0.6404
 5773SOL     OW28777   2.953   1.392   6.401  0.7041  0.1215  0.5910
 5773SOL    HW128778   2.983   1.460   6.340 -0.6964  0.2933  0.0883
 5773SOL    HW228779   2.872   1.431   6.434  0.0467  0.4645 -1.4397
 5774SOL     OW28780   2.487   0.494   6.702 -0.1898 -0.1531  0.0350
 5774SOL    HW128781   2.479   0.420   6.762  0.1258 -0.2875 -0.0871
 5774SOL    HW228782   2.438   0.557   6.755 -1.9612 -1.9074  0.4833
 5775SOL     OW28783   3.252   2.196   8.264 -0.3196  0.5851  0.0226
 5775SOL    HW128784   3.210   2.127   8.214  0.6239  0.0829 -0.0869
 5775SOL    HW228785   3.195   2.206   8.340  0.3050  1.8049  0.3534
 5776SOL     OW28786   2.007   1.742  13.257  0.0354  0.1617  0.4191
 5776SOL    HW128787   2.012   1.657  13.301 -0.2106  0.5141  1.1274
 5776SOL    HW228788   1.919   1.770  13.283 -0.3711 -1.8813  1.3188
 5777SOL     OW28789   4.336   1.851  17.429 -0.6599 -0.1128 -0.1253
 5777SOL    HW128790   4.317   1.789  17.359  1.1247  0.1874 -0.8932
 5777SOL    HW228791   4.407   1.805  17.472  0.3536  0.9790 -0.6169
 5778SOL     OW28792   3.425   1.183  16.760  0.4318 -0.3791  0.1421
 5778SOL    HW128793   3.334   1.193  16.788  1.0475 -0.3856  2.1520
 5778SOL    HW228794   3.420   1.208  16.668  2.7201  2.1313  0.7248
 5779SOL     OW28795   3.578   1.561   1.933  0.0630  0.4910 -0.0290
 5779SOL    HW128796   3.573   1.578   2.027 -2.0947 -0.4285  0.0265
 5779SOL    HW228797   3.484   1.567   1.916  0.0814  0.5080 -0.1222
 5780SOL     OW28798   1.458   2.640   8.867  0.7458 -0.1034 -0.5042
 5780SOL    HW128799   1.368   2.663   8.889  1.8141  1.1356  2.5303
 5780SOL    HW228800   1.477   2.575   8.934 -3.8726  1.3716  2.2075
 5781SOL     OW28801   2.069   4.651   8.273  0.1049  0.2720 -0.0094
 5781SOL    HW128802   2.041   4.665   8.182  1.2694  0.3933 -0.3476
 5781SOL    HW228803   1.986   4.625   8.312 -0.3702  0.0367 -1.1765
 5782SOL     OW28804   3.947   3.878   7.084 -0.9837  0.4795  0.3767
 5782SOL    HW128805   3.990   3.954   7.124  0.8341  0.5779 -1.7332
 5782SOL    HW228806   3.987   3.870   6.997  5.2544 -3.1877  3.6169
 5783SOL     OW28807   4.205   2.048  14.489  0.5196 -0.2866  0.6097
 5783SOL    HW128808   4.298   2.039  14.469  0.5305  0.3004  0.4119
 5783SOL    HW228809   4.179   2.139  14.496 -1.8727 -0.8543 -1.1658
 5784SOL     OW28810   2.605   4.086  14.774  0.2387  0.3467  0.2859
 5784SOL    HW128811   2.550   4.009  14.759 -1.4572  1.2814  1.5706
 5784SOL    HW228812   2.661   4.050  14.843 -2.0496  0.9901  2.4705
 5785SOL     OW28813   0.548   2.182   6.097  0.2542 -0.6623  0.3835
 5785SOL    HW128814   0.522   2.203   6.008  0.0502 -0.7091  0.4302
 5785SOL    HW228815   0.625   2.127   6.082  0.4318 -0.2805 -0.0711
 5786SOL     OW28816   2.360   2.200   5.309 -0.0292  0.1093 -0.1767
 5786SOL    HW128817   2.318   2.118   5.335  0.1923 -0.1402 -0.6209
 5786SOL    HW228818   2.394   2.172   5.224  0.9448 -0.8599  0.5284
 5787SOL     OW28819   1.427   4.476   7.086 -0.1524 -0.2616  0.2711
 5787SOL    HW128820   1.479   4.397   7.094  2.1984  1.2462 -0.1314
 5787SOL    HW228821   1.350   4.427   7.057  1.7122 -0.9442 -3.4840
 5788SOL     OW28822   4.603   2.155   7.308 -0.6844 -0.0286 -0.2601
 5788SOL    HW128823   4.669   2.092   7.278 -0.2600  0.6165 -0.6738
 5788SOL    HW228824   4.528   2.122   7.259 -0.7931 -0.3940  0.1554
 5789SOL     OW28825   4.578   3.011   0.586 -0.1680 -0.7365 -0.1324
 5789SOL    HW128826   4.602   2.938   0.529  0.0495 -0.9966  0.2971
 5789SOL    HW228827   4.617   2.988   0.670  0.2046  0.6984  0.0941
 5790SOL     OW28828   2.100   4.535  10.080  0.2551 -0.0683 -0.1664
 5790SOL    HW128829   2.170   4.582  10.124  0.6514  1.9470 -2.9240
 5790SOL    HW228830   2.139   4.460  10.037  1.5977  0.5785 -0.0598
 5791SOL     OW28831   0.555   1.849   1.858 -0.1093  0.2019 -0.0376
 5791SOL    HW128832   0.471   1.828   1.898  0.5504  0.9873  1.7709
 5791SOL    HW228833   0.553   1.790   1.782  2.6730 -1.1385  0.9034
 5792SOL     OW28834   1.577   3.483   0.828  0.2756 -0.2446 -0.0293
 5792SOL    HW128835   1.539   3.395   0.816 -1.1484  0.3856 -0.1641
 5792SOL    HW228836   1.622   3.499   0.745 -0.2378  1.1032 -0.0498
 5793SOL     OW28837   1.017   1.742  16.293  0.2124  0.4815  0.7015
 5793SOL    HW128838   1.002   1.707  16.381 -1.1033 -0.0247  0.2783
 5793SOL    HW228839   1.014   1.833  16.322  0.4814  1.0699 -1.1076
 5794SOL     OW28840   1.678   4.538   5.465 -0.1195 -0.4027 -0.2270
 5794SOL    HW128841   1.733   4.613   5.485  1.0337 -1.0606 -0.9264
 5794SOL    HW228842   1.742   4.467   5.458  1.5327  1.1044 -0.0951
 5795SOL     OW28843   3.491   3.645  14.126 -0.8955  0.3646  0.5638
 5795SOL    HW128844   3.511   3.723  14.178  1.3846 -0.4450  0.9330
 5795SOL    HW228845   3.502   3.677  14.036 -1.6729  1.5475  0.8962
 5796SOL     OW28846   3.048   2.803  10.575  0.3456 -0.1458 -0.1902
 5796SOL    HW128847   2.953   2.806  10.558 -0.1547  1.8896  2.9221
 5796SOL    HW228848   3.052   2.772  10.665 -1.4373 -2.5192 -0.9096
 5797SOL     OW28849   1.216   2.123   1.588  0.2718 -0.3655 -0.7579
 5797SOL    HW128850   1.141   2.090   1.539 -1.1873  1.3616  0.3020
 5797SOL    HW228851   1.195   2.097   1.677  1.3523 -1.3565 -0.7934
 5798SOL     OW28852   1.998   2.243   0.185  0.3869  0.2571 -0.0178
 5798SOL    HW128853   2.054   2.288   0.248  2.2023 -0.6068 -1.0225
 5798SOL    HW228854   2.054   2.250   0.108  1.3813 -0.7368  0.6112
 5799SOL     OW28855   1.337   4.209   2.319  0.2163  0.4103  0.0444
 5799SOL    HW128856   1.417   4.184   2.272  1.3050  2.4834  0.8194
 5799SOL    HW228857   1.265   4.201   2.256  0.0277  3.9669 -0.2054
 5800SOL     OW28858   1.833   2.066   5.054  0.0723 -0.0241 -0.3203
 5800SOL    HW128859   1.851   2.070   4.960 -0.0719 -2.1778 -0.4357
 5800SOL    HW228860   1.914   2.027   5.088  0.1930  1.6920  1.3935
 5801SOL     OW28861   1.806   2.639   7.269 -0.6593  0.3782 -0.2612
 5801SOL    HW128862   1.749   2.637   7.346 -1.6647 -0.7751 -1.0429
 5801SOL    HW228863   1.754   2.700   7.215 -1.0905 -0.0278 -0.3063
 5802SOL     OW28864   3.763   0.085   0.316  0.0421 -1.0731 -0.1797
 5802SOL    HW128865   3.826   0.132   0.372 -0.0547 -1.9118  0.6246
 5802SOL    HW228866   3.784   0.131   0.235  1.9990 -0.5787  0.5962
 5803SOL     OW28867   1.279   0.523   5.845  0.1644 -0.5502  0.4274
 5803SOL    HW128868   1.351   0.491   5.899  0.0806  0.4903  1.1608
 5803SOL    HW228869   1.252   0.441   5.804 -0.6110  0.3576 -0.9101
 5804SOL     OW28870   3.870   1.995  13.182  0.5357  0.0762 -0.5594
 5804SOL    HW128871   3.917   2.075  13.159  1.9930 -0.4599  0.5702
 5804SOL    HW228872   3.820   1.973  13.103 -1.9338  0.9352  0.7371
 5805SOL     OW28873   3.930   4.390   7.509  0.4415 -0.0676 -0.1333
 5805SOL    HW128874   3.904   4.368   7.598 -0.4332  1.3894 -0.0223
 5805SOL    HW228875   3.851   4.369   7.459 -0.3659  0.6032  0.8504
 5806SOL     OW28876   2.850   2.904   4.036  0.3849 -0.1846  0.0540
 5806SOL    HW128877   2.867   2.949   4.119 -1.3705 -0.8199  0.7612
 5806SOL    HW228878   2.754   2.901   4.037  0.3796 -0.3109 -2.5695
 5807SOL     OW28879   1.584   0.951  17.240 -0.6644  0.3437  0.3150
 5807SOL    HW128880   1.665   0.961  17.190  0.2858  1.7414  2.1509
 5807SOL    HW228881   1.587   1.042  17.268  0.6085  0.7488 -1.1413
 5808SOL     OW28882   0.082   4.379   2.443  0.0643 -0.6482  0.2850
 5808SOL    HW128883   0.028   4.342   2.513 -1.3868 -0.2579 -0.6308
 5808SOL    HW228884   0.018   4.427   2.391  0.1863  1.2245  1.8784
 5809SOL     OW28885   1.847   1.241   7.858  0.0359  0.1138  0.1426
 5809SOL    HW128886   1.816   1.176   7.921  0.6101 -2.2142 -2.0012
 5809SOL    HW228887   1.837   1.325   7.903 -0.8244 -0.2975  0.7067
 5810SOL     OW28888   1.667   0.050   0.273  0.2981  0.5679  0.0921
 5810SOL    HW128889   1.654   4.688   0.305 -0.0803  0.5344 -0.1450
 5810SOL    HW228890   1.602   0.106   0.315 -0.4545 -1.3051  1.4526
 5811SOL     OW28891   0.319   0.624  17.163  0.4940 -0.0443  0.3064
 5811SOL    HW128892   0.406   0.642  17.127 -0.3923  0.4223 -1.6098
 5811SOL    HW228893   0.332   0.536  17.197 -1.4341 -0.3979  0.1426
 5812SOL     OW28894   0.530   0.261  13.215  0.1142  0.4096  0.1733
 5812SOL    HW128895   0.524   0.306  13.131 -2.5506 -2.1035 -0.9648
 5812SOL    HW228896   0.588   0.309  13.275  0.5325 -1.0611  0.9643
 5813SOL     OW28897   0.387   2.833   1.646 -0.2128 -0.3811  0.0017
 5813SOL    HW128898   0.321   2.765   1.656 -1.2609  0.4963 -0.9572
 5813SOL    HW228899   0.438   2.791   1.577  0.3445  0.0221  0.1674
 5814SOL     OW28900   3.194   3.909   1.464 -0.0899 -0.3916  0.6444
 5814SOL    HW128901   3.191   3.989   1.412 -2.0567 -2.3287 -2.1869
 5814SOL    HW228902   3.211   3.848   1.393 -2.4122 -0.1165 -0.1443
 5815SOL     OW28903   2.709   1.513  16.834 -0.8143  0.2623 -0.8554
 5815SOL    HW128904   2.751   1.583  16.784 -0.2523  0.5845  0.0590
 5815SOL    HW228905   2.656   1.474  16.765  0.3838 -2.0693 -0.4628
 5816SOL     OW28906   3.997   3.875   3.671 -0.0553  0.2345 -0.0765
 5816SOL    HW128907   4.017   3.944   3.734  2.1378 -3.3307  3.1932
 5816SOL    HW228908   3.902   3.868   3.665 -0.2632  2.0154  1.0713
 5817SOL     OW28909   0.005   2.087   3.795 -0.2715 -0.4319  0.2942
 5817SOL    HW128910   0.020   2.152   3.863  0.2102 -0.9004  0.6300
 5817SOL    HW228911   0.092   2.047   3.794 -1.0126 -2.0488 -0.0389
 5818SOL     OW28912   3.410   2.887   7.678  0.2275  0.3185 -0.2758
 5818SOL    HW128913   3.361   2.828   7.621  0.2827  0.1920 -0.1919
 5818SOL    HW228914   3.342   2.932   7.728  0.7730 -1.1701  1.7975
 5819SOL     OW28915   3.158   2.237   8.577 -0.1254 -0.0979 -0.7278
 5819SOL    HW128916   3.226   2.175   8.604 -1.2504 -1.7593 -1.6941
 5819SOL    HW228917   3.188   2.319   8.616  0.5790 -0.1946 -1.0619
 5820SOL     OW28918   2.642   3.664   8.788  0.1727 -0.1368 -0.2559
 5820SOL    HW128919   2.700   3.703   8.852  0.6828  0.1174 -0.8745
 5820SOL    HW228920   2.567   3.707   8.828  0.6500  1.5619 -1.1861
 5821SOL     OW28921   1.100   0.324   3.898  0.6280 -0.5094 -0.6369
 5821SOL    HW128922   1.180   0.280   3.868 -0.2532 -1.7396 -1.1677
 5821SOL    HW228923   1.129   0.339   3.988 -0.8615 -1.6755  0.0360
 5822SOL     OW28924   0.507   2.604   7.081  0.1230  0.3321  0.4186
 5822SOL    HW128925   0.501   2.544   7.006 -0.0562  1.2759 -0.3189
 5822SOL    HW228926   0.585   2.582   7.132  0.8333  1.7542 -0.0705
 5823SOL     OW28927   3.592   0.217   3.612 -0.1118  0.2797  0.0134
 5823SOL    HW128928   3.620   0.181   3.528  0.7634 -1.4792  1.0598
 5823SOL    HW228929   3.593   0.307   3.580 -1.4498 -0.2913 -1.5989
 5824SOL     OW28930   2.244   2.498   3.408  0.0136 -0.1412 -0.1759
 5824SOL    HW128931   2.203   2.443   3.341 -2.2126  1.1285  0.1569
 5824SOL    HW228932   2.214   2.459   3.490 -0.7617 -3.0164 -1.8406
 5825SOL     OW28933   1.836   3.280  16.785  0.1261 -0.0677  0.6814
 5825SOL    HW128934   1.866   3.280  16.694 -1.1585  0.4226  0.2498
 5825SOL    HW228935   1.869   3.194  16.810 -0.6107 -1.0250 -1.5849
 5826SOL     OW28936   2.226   1.570  12.119 -0.1562 -0.4515  0.3342
 5826SOL    HW128937   2.144   1.617  12.107 -0.7495 -2.0994 -1.9702
 5826SOL    HW228938   2.265   1.582  12.033  0.7717  1.4531  1.0153
 5827SOL     OW28939   3.213   1.910   7.433 -0.7529  0.6803 -0.1631
 5827SOL    HW128940   3.165   1.884   7.354  1.4293  1.0202 -1.5785
 5827SOL    HW228941   3.174   1.996   7.450 -1.3721  0.2801  0.4783
 5828SOL     OW28942   1.817   0.661   9.663 -0.3593  0.8101  0.7728
 5828SOL    HW128943   1.826   0.754   9.648  0.5884  0.0992 -2.9006
 5828SOL    HW228944   1.890   0.645   9.723 -0.9474 -1.2562  0.9735
 5829SOL     OW28945   3.307   3.663   1.293  0.7248 -0.1982 -0.4795
 5829SOL    HW128946   3.285   3.611   1.370 -3.2667  1.1843 -0.6965
 5829SOL    HW228947   3.401   3.646   1.282  1.2148  0.6031  2.5659
 5830SOL     OW28948   3.906   1.199   2.680 -0.4648  0.1213 -0.1120
 5830SOL    HW128949   3.961   1.128   2.648 -1.0906 -2.1617  3.8067
 5830SOL    HW228950   3.836   1.153   2.727  0.4921 -0.1422  1.0576
 5831SOL     OW28951   1.771   1.413   9.458 -0.2694  0.8185  0.6993
 5831SOL    HW128952   1.782   1.496   9.503 -1.8911  2.3828 -1.8047
 5831SOL    HW228953   1.847   1.418   9.400 -0.1002  0.0824  0.8475
 5832SOL     OW28954   0.822   3.659   2.207  0.1861  0.3116 -0.2194
 5832SOL    HW128955   0.842   3.569   2.184 -0.8436  0.1173 -0.3875
 5832SOL    HW228956   0.783   3.656   2.295  0.0260 -1.9250 -0.3667
 5833SOL     OW28957   2.250   2.817   6.087  0.1199  0.1618  0.0085
 5833SOL    HW128958   2.291   2.889   6.135 -1.6794  1.7655 -0.8946
 5833SOL    HW228959   2.278   2.826   5.996 -0.3390  0.6643 -0.0813
 5834SOL     OW28960   0.876   3.824   1.998 -0.7159 -0.0786  0.3074
 5834SOL    HW128961   0.828   3.905   2.018  1.0915  0.9679  0.3720
 5834SOL    HW228962   0.879   3.772   2.078  0.7395 -0.9311 -0.3176
 5835SOL     OW28963   1.174   1.994  14.924 -0.0687 -0.5893 -0.0502
 5835SOL    HW128964   1.132   2.074  14.953  0.6478  0.2166 -1.2465
 5835SOL    HW228965   1.194   1.950  15.007 -1.8344  0.1719  0.7885
 5836SOL     OW28966   2.043   1.811   1.954  0.1042 -0.1007  0.3803
 5836SOL    HW128967   1.976   1.859   1.906 -1.3957  0.3560  2.9448
 5836SOL    HW228968   1.997   1.759   2.019  1.7282  1.5692  2.8508
 5837SOL     OW28969   3.929   2.012   4.728 -0.4786  0.0665  0.1937
 5837SOL    HW128970   3.927   2.089   4.672 -1.0838 -0.8002 -0.9854
 5837SOL    HW228971   3.948   2.049   4.814 -0.2635  1.3904 -0.4184
 5838SOL     OW28972   4.672   4.135   4.721 -0.4274 -0.4912  0.1040
 5838SOL    HW128973   4.683   4.230   4.720  0.8084 -0.6135  3.0860
 5838SOL    HW228974   4.624   4.112   4.641 -2.0026 -0.3123  1.0024
 5839SOL     OW28975   3.863   2.915   8.572  0.7031  0.3485  0.1284
 5839SOL    HW128976   3.952   2.881   8.580  0.3325 -0.7218 -0.3200
 5839SOL    HW228977   3.811   2.835   8.570  3.0578 -1.1363 -2.5268
 5840SOL     OW28978   3.727   2.364   3.214 -0.0894  0.2929  0.4954
 5840SOL    HW128979   3.802   2.304   3.217 -1.1895 -1.1440 -0.5619
 5840SOL    HW228980   3.684   2.330   3.135  0.7757 -2.0299  1.0106
 5841SOL     OW28981   1.214   1.198   4.749 -0.7711 -0.1435  0.6641
 5841SOL    HW128982   1.176   1.197   4.837 -0.4800  0.6357  0.7972
 5841SOL    HW228983   1.289   1.139   4.757  0.8772  1.8606 -0.0751
 5842SOL     OW28984   1.313   0.283  11.331 -0.2537 -0.1379 -0.3055
 5842SOL    HW128985   1.273   0.314  11.250 -1.5926  2.3251  1.3121
 5842SOL    HW228986   1.322   0.190  11.310  2.4338  0.6978 -2.7934
 5843SOL     OW28987   1.739   4.189   2.548 -0.1029 -0.3978 -0.0672
 5843SOL    HW128988   1.776   4.148   2.470 -0.8583  0.8818 -1.1080
 5843SOL    HW228989   1.710   4.273   2.512  0.1098 -1.0591 -1.7445
 5844SOL     OW28990   1.033   3.836  11.441 -0.2947  0.2771  0.2239
 5844SOL    HW128991   1.122   3.822  11.471 -0.0924  1.7465  0.3243
 5844SOL    HW228992   1.017   3.768  11.375  2.6272  0.7038 -0.9184
 5845SOL     OW28993   0.709   1.190   8.539  0.4976 -0.5625  0.0131
 5845SOL    HW128994   0.758   1.269   8.517 -0.1481 -0.9971 -2.9238
 5845SOL    HW228995   0.774   1.131   8.577 -0.0103 -1.3875 -0.4099
 5846SOL     OW28996   3.357   1.324   2.729  0.1813  0.4283  0.0928
 5846SOL    HW128997   3.334   1.249   2.784 -0.2725 -0.5891 -1.4697
 5846SOL    HW228998   3.266   1.329   2.699 -0.4786 -6.1029  0.8951
 5847SOL     OW28999   1.468   0.625   2.326  0.5671 -0.3229 -0.0149
 5847SOL    HW129000   1.386   0.673   2.331  1.0979  0.7404 -1.5209
 5847SOL    HW229001   1.442   0.535   2.305  1.5453 -0.8466  1.0271
 5848SOL     OW29002   0.027   2.677   2.403 -0.3191  0.0366 -0.4512
 5848SOL    HW129003   4.666   2.640   2.405 -0.3899  0.2484  0.2341
 5848SOL    HW229004   0.063   2.589   2.418 -1.0101 -0.0188  0.8187
 5849SOL     OW29005   4.284   4.393   3.281  0.2003  0.1530 -0.1330
 5849SOL    HW129006   4.320   4.472   3.323  0.2337  0.7082 -1.2138
 5849SOL    HW229007   4.230   4.429   3.211  2.0618  2.4247 -0.4167
 5850SOL     OW29008   3.621   1.431   8.109  0.2235  0.5462 -0.2157
 5850SOL    HW129009   3.707   1.442   8.148  1.1056  0.9203 -2.2679
 5850SOL    HW229010   3.625   1.355   8.051  0.9164  0.5706 -0.1987
 5851SOL     OW29011   2.257   1.201   6.872  0.3409 -0.5928 -0.2387
 5851SOL    HW129012   2.214   1.137   6.815  0.2865 -0.2730 -0.5534
 5851SOL    HW229013   2.340   1.157   6.887  0.7986  0.4466  0.2689
 5852SOL     OW29014   3.774   2.779  16.797  0.4139 -0.5736 -0.4122
 5852SOL    HW129015   3.731   2.697  16.821  1.2428 -1.1390 -0.8284
 5852SOL    HW229016   3.858   2.734  16.786  1.1520  0.8673 -0.6590
 5853SOL     OW29017   3.536   0.441  10.832  0.0223  0.4191  0.2769
 5853SOL    HW129018   3.489   0.515  10.792  0.4237  0.6904  0.3081
 5853SOL    HW229019   3.481   0.441  10.910 -1.1571  2.4186 -0.5445
 5854SOL     OW29020   3.781   0.981   6.399 -0.5214  0.1432 -0.2358
 5854SOL    HW129021   3.844   0.913   6.425 -0.8576 -1.5780 -3.9132
 5854SOL    HW229022   3.816   1.066   6.426 -0.0569  0.6253 -2.3705
 5855SOL     OW29023   0.366   0.425   5.712 -0.5191 -0.2110 -0.2122
 5855SOL    HW129024   0.335   0.343   5.674  1.0575 -1.5530  1.3588
 5855SOL    HW229025   0.315   0.495   5.672  0.1126  0.4326  0.1079
 5856SOL     OW29026   0.207   2.650   5.657 -0.0274  0.4243  0.4042
 5856SOL    HW129027   0.213   2.681   5.747  1.6397  3.6151 -0.8015
 5856SOL    HW229028   0.296   2.635   5.626  0.3746  0.4909  1.5362
 5857SOL     OW29029   2.192   3.132   4.199  0.3135  0.2537  0.1903
 5857SOL    HW129030   2.133   3.057   4.197 -0.3770  0.7989  0.2630
 5857SOL    HW229031   2.270   3.110   4.148 -0.5556 -2.2168 -0.0922
 5858SOL     OW29032   3.254   1.950   0.972  0.2260  0.1344  0.2240
 5858SOL    HW129033   3.177   1.896   0.989  0.4869 -0.8323 -1.7512
 5858SOL    HW229034   3.324   1.923   1.032 -0.7859 -2.0801  0.4170
 5859SOL     OW29035   2.911   3.748   5.079  0.3502  0.4937  0.4985
 5859SOL    HW129036   2.952   3.814   5.024  1.9502 -0.0418  1.0490
 5859SOL    HW229037   2.844   3.796   5.127 -0.8851 -0.4696 -0.2548
 5860SOL     OW29038   1.088   1.605   3.661  0.1514  0.2208  0.4913
 5860SOL    HW129039   1.023   1.538   3.681  1.0642  0.0901  3.0354
 5860SOL    HW229040   1.176   1.569   3.652  0.6977  1.9635 -1.2080
 5861SOL     OW29041   3.512   3.111   0.757 -0.3972  0.2580 -0.2623
 5861SOL    HW129042   3.508   3.159   0.675  0.7868 -1.2853 -1.2197
 5861SOL    HW229043   3.521   3.027   0.713 -1.6524 -0.6431  1.1797
 5862SOL     OW29044   2.855   0.068   0.172 -0.4808 -0.2828  0.3208
 5862SOL    HW129045   2.863   0.121   0.252  1.5658  1.1420 -0.8216
 5862SOL    HW229046   2.786   0.006   0.195  0.6202 -1.0566  1.5603
 5863SOL     OW29047   3.191   1.981   7.127  0.0938 -0.7107  0.0844
 5863SOL    HW129048   3.232   1.895   7.122  2.2124  0.2381  0.9052
 5863SOL    HW229049   3.219   2.026   7.047 -3.2787 -1.3978 -1.4657
 5864SOL     OW29050   3.370   0.390   1.533  0.0608 -0.0125 -0.3046
 5864SOL    HW129051   3.302   0.444   1.494 -0.2019 -0.4095 -0.3912
 5864SOL    HW229052   3.429   0.373   1.460  1.6039  0.6391  0.7739
 5865SOL     OW29053   0.555   3.343   6.892  0.0123 -0.4002 -0.2304
 5865SOL    HW129054   0.539   3.397   6.970  3.2925 -0.2511  0.3310
 5865SOL    HW229055   0.589   3.406   6.829  0.6089  0.0481  0.5378
 5866SOL     OW29056   4.145   1.449   6.239 -0.0400 -0.2431  0.1432
 5866SOL    HW129057   4.205   1.451   6.164 -0.7525  0.2406 -0.4123
 5866SOL    HW229058   4.201   1.498   6.299 -0.6058  0.0970  0.3970
 5867SOL     OW29059   3.828   3.882  12.078  0.2716 -0.5186 -0.4755
 5867SOL    HW129060   3.787   3.813  12.129  0.2581  0.4724  0.8530
 5867SOL    HW229061   3.778   3.963  12.092  1.9303 -0.0005  2.5119
 5868SOL     OW29062   2.586   1.325   6.255 -0.2009 -0.2997 -0.0365
 5868SOL    HW129063   2.638   1.369   6.323 -2.8253  0.4986  1.4599
 5868SOL    HW229064   2.620   1.357   6.171  1.0115  2.3287  1.4684
 5869SOL     OW29065   2.397   2.649   7.169  0.3759  0.5218 -0.2747
 5869SOL    HW129066   2.385   2.571   7.222  1.5871  0.9459  0.6255
 5869SOL    HW229067   2.306   2.680   7.172  1.1029  2.6664 -0.0400
 5870SOL     OW29068   3.287   2.286   9.582  0.2246 -0.3731  0.1576
 5870SOL    HW129069   3.351   2.220   9.558 -0.4814 -0.5146 -1.3175
 5870SOL    HW229070   3.337   2.366   9.563  0.8537 -1.1417 -1.3778
 5871SOL     OW29071   3.453   1.997   4.375  0.0036  0.1237  0.1893
 5871SOL    HW129072   3.444   1.984   4.470 -1.2862 -1.2090 -0.1124
 5871SOL    HW229073   3.542   2.031   4.368  0.9391 -1.6605  3.5922
 5872SOL     OW29074   0.513   1.386   4.904  0.4628  0.6884  0.0604
 5872SOL    HW129075   0.579   1.455   4.901  0.7789  0.3806 -0.1365
 5872SOL    HW229076   0.447   1.419   4.843  0.1152  0.5085  0.3423
 5873SOL     OW29077   3.825   1.721   4.684 -0.4599  0.1133 -0.0615
 5873SOL    HW129078   3.835   1.728   4.779 -0.7218  1.4655 -0.1252
 5873SOL    HW229079   3.861   1.804   4.653 -1.5455  0.3413 -0.7120
 5874SOL     OW29080   1.502   1.021  10.380  0.3958 -0.0234  0.3588
 5874SOL    HW129081   1.415   0.993  10.408  0.3964 -1.2221 -0.8398
 5874SOL    HW229082   1.526   0.942  10.332 -0.5150 -0.0163 -0.1095
 5875SOL     OW29083   1.124   1.716   6.030  0.1398  0.6298 -0.4985
 5875SOL    HW129084   1.170   1.740   5.950 -0.4486 -0.0179 -1.0288
 5875SOL    HW229085   1.059   1.652   6.002 -0.6683  0.2513  2.2456
 5876SOL     OW29086   3.095   4.511  17.034  0.0481 -0.1674  0.2023
 5876SOL    HW129087   3.104   4.419  17.010 -0.4889 -0.7227  2.0901
 5876SOL    HW229088   3.004   4.500  17.064  1.5261 -2.4435  3.8104
 5877SOL     OW29089   2.156   2.831  11.899 -0.3200  0.6568  0.1167
 5877SOL    HW129090   2.156   2.835  11.995  1.3022 -2.1028  0.2304
 5877SOL    HW229091   2.206   2.753  11.876 -0.2022  0.8084 -0.1403
 5878SOL     OW29092   3.711   1.316   3.120 -0.0533 -0.0253 -0.3621
 5878SOL    HW129093   3.616   1.309   3.109 -0.0395  0.0187 -0.5162
 5878SOL    HW229094   3.734   1.246   3.181 -0.1251  0.9177  0.7443
 5879SOL     OW29095   2.012   0.185   2.395  1.0728  0.2533 -0.2762
 5879SOL    HW129096   2.069   0.134   2.453  1.4086 -1.5594 -2.2082
 5879SOL    HW229097   1.976   0.243   2.462 -2.8833  0.5383 -2.6770
 5880SOL     OW29098   4.710   0.128   3.331 -0.2830 -0.4145  0.5290
 5880SOL    HW129099   0.034   0.207   3.315  1.4137 -2.4845 -4.2444
 5880SOL    HW229100   4.623   0.153   3.300  0.1163 -0.4336 -0.6041
 5881SOL     OW29101   3.485   1.003   7.418  0.4809  0.3028 -0.0652
 5881SOL    HW129102   3.567   0.955   7.410 -0.4727 -0.7954 -3.0331
 5881SOL    HW229103   3.447   0.985   7.332 -2.1477 -0.8156  1.3109
 5882SOL     OW29104   3.676   2.348   6.393 -0.7926 -0.3908  0.1978
 5882SOL    HW129105   3.743   2.363   6.326 -1.2887 -0.1533 -0.2395
 5882SOL    HW229106   3.714   2.380   6.474 -0.6174 -1.5274  0.5738
 5883SOL     OW29107   0.101   2.973   1.898 -0.2482  0.3532 -0.5337
 5883SOL    HW129108   0.024   2.958   1.951  2.4908 -0.7148  3.1166
 5883SOL    HW229109   0.098   2.889   1.853 -1.3627  0.3532 -0.4507
 5884SOL     OW29110   2.254   3.153   2.703 -0.6818  1.0413  0.5034
 5884SOL    HW129111   2.208   3.163   2.787 -2.2202  0.8445 -0.3027
 5884SOL    HW229112   2.287   3.242   2.693  0.2000  0.4576 -1.7456
 5885SOL     OW29113   3.620   0.383   6.781  0.4157  0.4975 -0.4985
 5885SOL    HW129114   3.577   0.393   6.696 -0.2156 -0.6958 -0.3217
 5885SOL    HW229115   3.544   0.340   6.821  0.5278  0.4924 -0.2930
 5886SOL     OW29116   1.046   1.058   6.267 -0.1106  0.3743 -0.1307
 5886SOL    HW129117   1.092   0.977   6.245 -1.2860  1.0297 -4.8141
 5886SOL    HW229118   0.974   1.018   6.316  0.3144  1.1753  1.1815
 5887SOL     OW29119   4.550   3.505   8.197  0.1746 -1.1051  0.1492
 5887SOL    HW129120   4.612   3.434   8.212  0.7214 -1.1695 -2.3707
 5887SOL    HW229121   4.464   3.464   8.189 -0.0616 -0.4194 -0.8204
 5888SOL     OW29122   1.126   0.283   2.433  0.5004 -0.8552  0.0110
 5888SOL    HW129123   1.078   0.212   2.389  0.3744 -0.1068 -1.0527
 5888SOL    HW229124   1.101   0.361   2.383  1.7965 -0.2344  0.3400
 5889SOL     OW29125   2.738   1.394  11.610 -0.3012 -0.4408 -0.5205
 5889SOL    HW129126   2.765   1.486  11.614 -0.1878 -0.4841 -0.3203
 5889SOL    HW229127   2.818   1.343  11.623  0.4850  1.2483  1.1173
 5890SOL     OW29128   2.563   2.746   8.749  0.1252 -0.0801 -0.0161
 5890SOL    HW129129   2.592   2.828   8.788  2.4017 -0.4140 -1.0361
 5890SOL    HW229130   2.561   2.759   8.654  2.3673  1.9417  0.2453
 5891SOL     OW29131   2.533   2.691   2.463 -0.4680 -0.3625  0.4842
 5891SOL    HW129132   2.453   2.681   2.411 -0.8531  0.0807  0.9858
 5891SOL    HW229133   2.580   2.608   2.455  0.7051  0.3657 -0.1857
 5892SOL     OW29134   0.608   0.842   8.123 -0.4949  0.1041  0.0986
 5892SOL    HW129135   0.643   0.915   8.175 -1.0235  1.4945 -1.5074
 5892SOL    HW229136   0.606   0.887   8.039 -1.8383  1.2033  0.7318
 5893SOL     OW29137   2.378   4.106  14.259  0.0317  0.5458 -0.0669
 5893SOL    HW129138   2.426   4.028  14.286 -1.8570 -0.3204  0.8586
 5893SOL    HW229139   2.358   4.148  14.343 -0.9398 -0.3526  0.1504
 5894SOL     OW29140   0.395   2.368   9.272 -0.0593 -0.3698  0.2611
 5894SOL    HW129141   0.367   2.401   9.358 -1.5182 -1.1910  0.0943
 5894SOL    HW229142   0.478   2.416   9.277 -0.5289  0.6449 -1.7861
 5895SOL     OW29143   1.377   1.553   8.233 -0.2436 -0.4486  0.2150
 5895SOL    HW129144   1.376   1.631   8.290  0.2072 -0.3003  0.0233
 5895SOL    HW229145   1.454   1.506   8.266  1.3876  0.0009 -2.8930
 5896SOL     OW29146   1.443   2.123  13.095  0.2941  0.2979  0.0022
 5896SOL    HW129147   1.470   2.156  13.181  0.0883  0.3930  0.0313
 5896SOL    HW229148   1.351   2.107  13.115  0.7753  0.1955  2.1197
 5897SOL     OW29149   0.157   2.878   6.831  0.4709 -0.3601 -0.2233
 5897SOL    HW129150   0.069   2.866   6.866  0.5782  1.0689  0.5609
 5897SOL    HW229151   0.185   2.787   6.839  1.3519  0.1253  2.2584
 5898SOL     OW29152   3.315   4.460   4.227 -0.1497  0.1654 -0.5986
 5898SOL    HW129153   3.312   4.418   4.314 -1.1215 -0.4713 -0.9424
 5898SOL    HW229154   3.356   4.541   4.258 -0.2477 -0.6710  1.7598
 5899SOL     OW29155   1.579   4.275   6.723 -0.2250 -0.1417 -0.7985
 5899SOL    HW129156   1.560   4.361   6.687 -1.3066  0.3806  1.0240
 5899SOL    HW229157   1.670   4.286   6.751 -1.3018  1.2106  2.1057
 5900SOL     OW29158   2.862   4.417   1.769 -0.5441 -0.0178 -0.0082
 5900SOL    HW129159   2.767   4.427   1.778 -0.4637  0.4307  0.3587
 5900SOL    HW229160   2.895   4.498   1.729 -2.2634  0.5835 -0.1963
 5901SOL     OW29161   0.953   0.201   6.322 -0.2711  0.0711 -0.0746
 5901SOL    HW129162   0.978   0.160   6.405 -2.2370 -0.7371  0.1373
 5901SOL    HW229163   0.949   0.295   6.341 -1.7341 -0.0105  0.0642
 5902SOL     OW29164   3.180   0.154   9.353  1.0051  0.1451  0.1090
 5902SOL    HW129165   3.239   0.217   9.395  2.4672  0.3288 -2.2202
 5902SOL    HW229166   3.114   0.158   9.422  1.4716  2.3319  0.4383
 5903SOL     OW29167   3.542   2.828   0.877 -0.3576  0.3774 -0.0577
 5903SOL    HW129168   3.452   2.838   0.909 -0.4728 -1.3723  0.1316
 5903SOL    HW229169   3.572   2.918   0.887  0.4459 -0.1159  1.8549
 5904SOL     OW29170   2.822   4.210   4.870  0.3387 -0.1679 -0.2905
 5904SOL    HW129171   2.850   4.128   4.830  0.0889 -0.2412 -0.3140
 5904SOL    HW229172   2.728   4.192   4.866  0.2965  0.1965 -0.9283
 5905SOL     OW29173   3.057   2.775   1.102  0.1664  0.5899  0.5872
 5905SOL    HW129174   2.997   2.707   1.070  0.1716  0.3594  1.0733
 5905SOL    HW229175   3.012   2.809   1.180  1.0560  1.9108  0.5236
 5906SOL     OW29176   0.466   0.771   8.392  0.2760  0.3853 -0.6853
 5906SOL    HW129177   0.549   0.724   8.388 -1.1167 -2.1942  0.8518
 5906SOL    HW229178   0.487   0.846   8.335  1.9485 -0.0594 -0.6521
 5907SOL     OW29179   2.207   2.018   0.368  0.3752 -0.0799  0.2065
 5907SOL    HW129180   2.143   1.985   0.430 -1.7854  0.2539 -1.8542
 5907SOL    HW229181   2.221   2.101   0.414  2.0919 -0.7129  0.8483
 5908SOL     OW29182   1.778   3.302   7.571 -0.5674 -0.2727 -0.5015
 5908SOL    HW129183   1.789   3.337   7.482 -1.5635  1.9567  0.2586
 5908SOL    HW229184   1.862   3.261   7.592 -1.2372 -2.1143 -1.4305
 5909SOL     OW29185   1.137   2.092   1.196 -0.2931  0.2469 -0.1079
 5909SOL    HW129186   1.052   2.115   1.234 -0.1778  0.2204  0.1595
 5909SOL    HW229187   1.172   2.165   1.145  0.9251  1.3810  2.3812
 5910SOL     OW29188   2.591   4.596   4.265 -0.1709 -0.0419  0.8434
 5910SOL    HW129189   2.683   4.620   4.276 -0.9378  2.9765  0.6382
 5910SOL    HW229190   2.598   4.523   4.326 -2.0543 -0.7770  0.1909
 5911SOL     OW29191   3.910   3.986   2.505 -0.1366 -0.2195 -0.0026
 5911SOL    HW129192   3.936   3.915   2.445 -1.8045  0.1030 -1.1027
 5911SOL    HW229193   3.994   4.002   2.547  0.2817 -2.1594 -0.0880
 5912SOL     OW29194   3.947   0.713   4.975  0.1076 -0.2340  0.1589
 5912SOL    HW129195   3.946   0.640   5.037 -0.3647 -0.9811 -0.7350
 5912SOL    HW229196   3.994   0.672   4.903  0.1264 -1.6218  0.9610
 5913SOL     OW29197   1.305   1.125   3.564  0.3218 -0.4478  0.1997
 5913SOL    HW129198   1.278   1.096   3.477  0.1253 -3.7627  1.3563
 5913SOL    HW229199   1.252   1.073   3.625  3.0111 -1.2710  1.8441
 5914SOL     OW29200   0.306   3.419   5.309  0.6782  0.1236  0.1244
 5914SOL    HW129201   0.252   3.457   5.379 -2.4066 -0.6974 -1.7740
 5914SOL    HW229202   0.334   3.336   5.345  0.6231 -0.1569 -0.4804
 5915SOL     OW29203   0.833   3.787   0.089  0.5382 -0.2902  0.2244
 5915SOL    HW129204   0.852   3.696   0.110 -1.2972 -0.3070  1.7395
 5915SOL    HW229205   0.739   3.803   0.081  0.9313  1.8875  0.0549
 5916SOL     OW29206   3.252   1.388   9.556  0.3442  0.4661 -0.0865
 5916SOL    HW129207   3.323   1.327   9.535  0.1366 -0.8417  2.9509
 5916SOL    HW229208   3.293   1.470   9.529 -1.0601  0.8263 -1.0960
 5917SOL     OW29209   2.216   3.778   5.622 -0.5490  1.0377  0.0327
 5917SOL    HW129210   2.218   3.860   5.574  1.7355  0.8464 -0.2308
 5917SOL    HW229211   2.147   3.723   5.585  0.1931 -0.5729  0.9935
 5918SOL     OW29212   4.229   0.765   0.673 -0.0227  0.3209  0.3456
 5918SOL    HW129213   4.165   0.772   0.744 -1.4054 -1.2176 -0.7453
 5918SOL    HW229214   4.166   0.729   0.610  0.6794  0.5512 -0.4859
 5919SOL     OW29215   4.350   4.329  14.295  0.4164 -0.4008  0.4082
 5919SOL    HW129216   4.315   4.411  14.260  0.9143  0.5567  2.1117
 5919SOL    HW229217   4.425   4.318  14.237  0.4090 -2.9609  0.8604
 5920SOL     OW29218   3.190   0.477   1.087  0.8268 -0.7017 -0.2230
 5920SOL    HW129219   3.150   0.508   1.168  0.0445 -0.0636 -0.8563
 5920SOL    HW229220   3.255   0.543   1.063  0.8556 -0.6173  0.0907
 5921SOL     OW29221   0.532   2.891   0.426 -0.0217  0.3538  0.2481
 5921SOL    HW129222   0.533   2.890   0.330 -0.1571  3.6025  0.2123
 5921SOL    HW229223   0.558   2.982   0.439 -2.0992  1.2347 -1.6623
 5922SOL     OW29224   3.337   2.064   8.653 -0.3175 -0.6941  0.0402
 5922SOL    HW129225   3.391   2.112   8.716 -1.3836  2.6252 -1.5951
 5922SOL    HW229226   3.394   2.055   8.577  0.0463  0.1640  0.2175
 5923SOL     OW29227   4.061   3.632   4.569  0.2048 -0.3570 -0.2925
 5923SOL    HW129228   4.008   3.643   4.490 -1.3520  0.0907  0.7974
 5923SOL    HW229229   4.145   3.610   4.530 -0.2225 -0.3004 -1.2491
 5924SOL     OW29230   2.715   0.006   2.798 -0.0092 -0.4236 -0.2066
 5924SOL    HW129231   2.712   4.668   2.728  0.5101 -2.5739  1.7976
 5924SOL    HW229232   2.622   0.012   2.822 -0.4946  0.2661 -2.2603
 5925SOL     OW29233   3.589   3.280  17.257 -0.0614 -0.2862  0.8153
 5925SOL    HW129234   3.571   3.207  17.315 -1.4331 -0.0925  0.6507
 5925SOL    HW229235   3.660   3.324  17.304 -1.4794 -0.3359  2.9879
 5926SOL     OW29236   1.752   3.640   6.780  0.8844 -0.3479 -0.1244
 5926SOL    HW129237   1.769   3.728   6.813  0.0947 -0.5673  0.8859
 5926SOL    HW229238   1.750   3.661   6.687 -1.1032 -0.0038 -0.0238
 5927SOL     OW29239   3.686   0.617   3.151 -0.3823  0.5460  0.5955
 5927SOL    HW129240   3.719   0.527   3.150  1.7354  1.3423 -0.1901
 5927SOL    HW229241   3.685   0.641   3.059  2.5399 -1.9473 -0.0677
 5928SOL     OW29242   3.295   3.922  10.970 -0.2709  0.4554  0.2247
 5928SOL    HW129243   3.218   3.888  11.015  0.3452  3.5807  3.6312
 5928SOL    HW229244   3.327   3.987  11.033  1.1715 -0.6476  0.6431
 5929SOL     OW29245   4.603   0.235   8.230  0.1489  0.5072 -0.0429
 5929SOL    HW129246   4.559   0.161   8.187 -3.3396  1.7203  1.3974
 5929SOL    HW229247   4.650   0.188   8.299 -0.0964  1.1147  0.5454
 5930SOL     OW29248   4.527   0.207   6.742 -0.0846 -0.0123  0.2654
 5930SOL    HW129249   4.469   0.133   6.726 -1.4276  1.3024 -0.9563
 5930SOL    HW229250   4.514   0.206   6.837 -1.1741 -0.7370  0.1027
 5931SOL     OW29251   0.567   1.322  12.843 -0.1368 -0.5060 -0.0151
 5931SOL    HW129252   0.509   1.375  12.898  1.5974 -0.6028  1.9349
 5931SOL    HW229253   0.656   1.349  12.867 -0.6982  2.0169 -0.7526
 5932SOL     OW29254   1.191   0.951   2.038  1.0473 -0.2222  0.4790
 5932SOL    HW129255   1.235   0.977   2.118  1.5712 -1.7757  0.6949
 5932SOL    HW229256   1.109   1.000   2.046  0.2883 -1.3204 -0.4650
 5933SOL     OW29257   1.330   0.544  10.395  0.1333  0.3696 -0.1568
 5933SOL    HW129258   1.307   0.474  10.456  0.2596  0.0336 -0.4904
 5933SOL    HW229259   1.423   0.530  10.375  0.4599  0.9935  0.9671
 5934SOL     OW29260   3.076   3.572   9.047  0.5995  0.5079 -0.0259
 5934SOL    HW129261   3.164   3.539   9.029  0.7775  0.9572  0.0087
 5934SOL    HW229262   3.069   3.576   9.143  2.5885 -0.5713  0.1676
 5935SOL     OW29263   3.389   2.192   4.817 -0.3026  0.4076  0.3537
 5935SOL    HW129264   3.426   2.274   4.784  0.6892 -0.5139 -0.8604
 5935SOL    HW229265   3.298   2.221   4.820 -0.9806 -1.6433 -0.2546
 5936SOL     OW29266   3.479   0.310  15.943  0.1052 -0.1026 -0.2936
 5936SOL    HW129267   3.400   0.291  15.995  0.3586 -0.1592  0.0737
 5936SOL    HW229268   3.484   0.405  15.955 -1.7597 -0.3107  2.2170
 5937SOL     OW29269   1.831   0.839   7.459 -0.1625  0.2422 -0.2215
 5937SOL    HW129270   1.899   0.900   7.431 -0.4689 -0.1631 -1.8065
 5937SOL    HW229271   1.757   0.899   7.472 -1.2534 -1.7896  2.9825
 5938SOL     OW29272   1.245   3.726   3.066  0.2459 -0.3802 -0.5375
 5938SOL    HW129273   1.238   3.812   3.023 -3.0515 -0.5140 -0.2740
 5938SOL    HW229274   1.198   3.663   3.012 -0.5023 -0.0631 -0.2592
 5939SOL     OW29275   1.804   1.927   6.948 -0.1492 -0.6784  0.0411
 5939SOL    HW129276   1.740   1.878   6.999  0.7580  0.5546  2.3623
 5939SOL    HW229277   1.883   1.899   6.994 -0.9258  0.4445  2.0466
 5940SOL     OW29278   4.026   1.539   4.694  0.3571 -0.2076  0.2979
 5940SOL    HW129279   3.972   1.531   4.615 -1.5275  0.1343  1.5522
 5940SOL    HW229280   4.059   1.627   4.675  2.2299 -1.1453 -0.7681
 5941SOL     OW29281   0.512   4.027  14.290 -0.8760  0.1023  0.1002
 5941SOL    HW129282   0.528   3.943  14.333 -0.8152  0.5986  1.0526
 5941SOL    HW229283   0.443   4.009  14.227 -1.1025 -2.2886  1.0558
 5942SOL     OW29284   1.190   0.186   9.774 -0.0959  0.2468 -0.2865
 5942SOL    HW129285   1.267   0.235   9.804 -0.9726  0.3396  1.8056
 5942SOL    HW229286   1.164   0.153   9.859  0.9453 -1.1455 -0.5136
 5943SOL     OW29287   4.117   0.799   3.686  0.4637 -0.0165  0.2983
 5943SOL    HW129288   4.079   0.711   3.693  0.7789 -0.1722  0.0486
 5943SOL    HW229289   4.184   0.800   3.755  1.4716  2.7454 -0.7055
 5944SOL     OW29290   0.266   0.376   4.488 -0.1033  0.3951 -0.4099
 5944SOL    HW129291   0.211   0.347   4.416 -1.1766  2.0487 -0.2607
 5944SOL    HW229292   0.207   0.387   4.563  3.9588 -0.1184  2.8439
 5945SOL     OW29293   1.347   3.108   7.097 -0.0533 -0.3644  0.2566
 5945SOL    HW129294   1.254   3.106   7.073  0.2195  0.0828 -0.8106
 5945SOL    HW229295   1.383   3.109   7.009 -1.9280 -1.4568 -0.5282
 5946SOL     OW29296   3.382   0.757   1.522 -0.0106 -0.0271  0.2913
 5946SOL    HW129297   3.368   0.694   1.450  0.9519  1.2760 -1.0359
 5946SOL    HW229298   3.470   0.790   1.503  0.1331  1.1265  3.0946
 5947SOL     OW29299   1.593   3.625   9.034  0.4330  0.0773  0.0318
 5947SOL    HW129300   1.588   3.544   9.085  2.4107  0.0771  0.2251
 5947SOL    HW229301   1.688   3.637   9.024  0.4572 -1.1059 -1.1993
 5948SOL     OW29302   1.058   3.134   3.616  0.0189  0.2612 -0.6512
 5948SOL    HW129303   0.985   3.076   3.595  2.1385 -1.9727 -1.7992
 5948SOL    HW229304   1.133   3.077   3.601 -0.9020 -1.2431  0.5044
 5949SOL     OW29305   3.923   0.007   2.529  0.2793 -0.2087 -0.1162
 5949SOL    HW129306   3.967   4.651   2.542 -1.3957 -1.0613  0.1635
 5949SOL    HW229307   3.838   4.716   2.570  1.5543 -0.8279  2.1948
 5950SOL     OW29308   3.652   4.124   2.806  0.0240  0.6459 -0.1998
 5950SOL    HW129309   3.643   4.047   2.750  0.0578 -0.3620  1.1994
 5950SOL    HW229310   3.746   4.105   2.814 -0.3248 -1.7181 -1.5028
 5951SOL     OW29311   4.230   2.323   5.835 -0.0253 -0.5035  0.2535
 5951SOL    HW129312   4.213   2.242   5.787  1.4818 -1.1114  0.7688
 5951SOL    HW229313   4.295   2.376   5.789  0.1846  0.5866  1.7882
 5952SOL     OW29314   2.473   1.964   7.210 -0.1517 -0.0099 -0.7306
 5952SOL    HW129315   2.387   1.960   7.251 -0.1496 -2.4439 -0.9337
 5952SOL    HW229316   2.525   2.003   7.281 -1.6419  0.7018 -0.0409
 5953SOL     OW29317   1.582   4.116   9.786 -0.0026 -0.1661 -0.0370
 5953SOL    HW129318   1.655   4.178   9.797 -0.4082 -0.0925  2.2770
 5953SOL    HW229319   1.519   4.177   9.749  0.1284 -1.5459 -2.4988
 5954SOL     OW29320   1.028   0.949   7.340 -0.0042  0.4556  0.0500
 5954SOL    HW129321   0.966   1.023   7.338 -0.4347  0.0808 -0.5717
 5954SOL    HW229322   1.110   0.992   7.317 -1.1699  2.8972  0.3796
 5955SOL     OW29323   4.006   0.030   4.921 -0.0019 -0.8544 -0.8443
 5955SOL    HW129324   3.986   0.123   4.909  0.9196 -0.6226 -0.6099
 5955SOL    HW229325   4.025   4.724   4.834  0.6608 -1.8064 -0.3314
 5956SOL     OW29326   2.222   2.896   2.602  0.3505 -0.5041 -0.2961
 5956SOL    HW129327   2.245   2.986   2.624  2.4006 -1.4957  1.5810
 5956SOL    HW229328   2.251   2.851   2.682  0.9347  1.1585  0.4221
 5957SOL     OW29329   2.823   2.171  11.084 -0.6005  0.1289 -0.1354
 5957SOL    HW129330   2.864   2.238  11.139 -1.3678  1.1760 -0.8248
 5957SOL    HW229331   2.836   2.094  11.139  0.0573 -0.2498 -0.8203
 5958SOL     OW29332   2.337   3.947   0.036  0.0286 -0.3592 -0.1727
 5958SOL    HW129333   2.345   3.857   0.068 -1.6944 -0.3572  0.2979
 5958SOL    HW229334   2.379   3.934  17.662 -0.1488 -0.7621 -0.1980
 5959SOL     OW29335   4.109   4.287   7.328 -0.3158 -0.3939 -0.0503
 5959SOL    HW129336   4.192   4.334   7.340 -0.7638 -0.5129  3.4503
 5959SOL    HW229337   4.051   4.331   7.390 -1.8557 -2.9523  0.3197
 5960SOL     OW29338   0.409   1.714  13.167  0.7167 -0.2344  0.0623
 5960SOL    HW129339   0.418   1.809  13.160  0.1973 -0.0805  1.4054
 5960SOL    HW229340   0.314   1.715  13.183  0.6634  0.1996 -0.2528
 5961SOL     OW29341   1.814   4.587   8.374 -0.2763 -0.0071 -0.0975
 5961SOL    HW129342   1.794   4.579   8.467  0.0801  2.3116  0.1934
 5961SOL    HW229343   1.774   4.672   8.355 -1.8261 -1.1615 -1.9978
 5962SOL     OW29344   0.773   0.056   5.995 -0.6877  0.5029 -0.2338
 5962SOL    HW129345   0.691   0.105   5.983 -0.2980  0.3656 -3.3808
 5962SOL    HW229346   0.737   4.696   5.978 -2.0400  1.1137 -0.5700
 5963SOL     OW29347   2.390   4.366   9.215 -0.2005 -0.1825  0.1963
 5963SOL    HW129348   2.465   4.417   9.184 -0.4230  0.2918  0.4388
 5963SOL    HW229349   2.359   4.401   9.298 -0.1711  0.0794  0.0966
 5964SOL     OW29350   3.243   1.889   6.111 -0.0997  0.4426 -0.4081
 5964SOL    HW129351   3.271   1.818   6.168  0.7393  0.1723 -1.1410
 5964SOL    HW229352   3.307   1.949   6.149  1.3216 -1.2209 -0.1643
 5965SOL     OW29353   2.744   0.981   4.066  0.2239  0.1389  0.1667
 5965SOL    HW129354   2.833   1.017   4.072 -0.1857  0.8301  2.3792
 5965SOL    HW229355   2.763   0.912   4.003 -1.0320 -1.6337  1.7329
 5966SOL     OW29356   0.958   4.388  10.464  0.0670  0.0831  0.1663
 5966SOL    HW129357   1.018   4.394  10.539 -1.3869  0.1935  1.3209
 5966SOL    HW229358   0.888   4.436  10.508 -1.5478 -1.1987 -1.0095
 5967SOL     OW29359   3.392   0.128   7.293  0.9743 -0.1424 -0.0540
 5967SOL    HW129360   3.309   0.080   7.298  0.1962  1.3604  1.6651
 5967SOL    HW229361   3.353   0.212   7.271 -1.4814  0.1552  5.3401
 5968SOL     OW29362   2.940   3.393   1.982 -0.8431 -0.5211 -0.0817
 5968SOL    HW129363   3.013   3.416   1.926  0.1062 -2.0279  0.5143
 5968SOL    HW229364   2.869   3.391   1.917  0.5522 -2.4418 -1.5284
 5969SOL     OW29365   3.836   1.687  14.639 -0.2878  0.3765  0.0325
 5969SOL    HW129366   3.776   1.718  14.571 -0.5809  0.7033  0.4383
 5969SOL    HW229367   3.927   1.697  14.614  0.3488 -0.9480  1.7717
 5970SOL     OW29368   3.473   1.577   5.900  0.8361 -0.2986 -0.3630
 5970SOL    HW129369   3.421   1.552   5.976 -1.7975 -1.2310 -2.4627
 5970SOL    HW229370   3.405   1.612   5.842 -0.5969 -0.1881  1.3950
 5971SOL     OW29371   2.095   4.443  16.741  0.1421  0.1930  0.1320
 5971SOL    HW129372   2.187   4.467  16.737 -0.2781  1.9963  1.2745
 5971SOL    HW229373   2.058   4.530  16.731 -0.8192 -0.4235 -1.7024
 5972SOL     OW29374   3.685   0.912   3.901  0.0420  0.1029 -0.1575
 5972SOL    HW129375   3.749   0.926   3.831  1.3230  0.0984  1.0168
 5972SOL    HW229376   3.687   0.993   3.952  1.5796 -0.4574  0.6645
 5973SOL     OW29377   4.682   0.561   6.787  0.0151  0.0772  0.1596
 5973SOL    HW129378   4.706   0.475   6.821 -1.7101 -0.5354 -0.1190
 5973SOL    HW229379   0.042   0.588   6.761 -0.0652 -0.0682 -0.2632
 5974SOL     OW29380   2.276   3.373   7.004 -0.4874 -0.1790  0.0584
 5974SOL    HW129381   2.223   3.410   7.075 -0.4139 -1.7447  0.9163
 5974SOL    HW229382   2.238   3.425   6.933 -1.2359  0.5894  1.0169
 5975SOL     OW29383   3.781   2.490  11.958 -0.4430 -0.4767 -0.4160
 5975SOL    HW129384   3.734   2.454  12.034  2.7330 -0.5773  1.4899
 5975SOL    HW229385   3.703   2.515  11.908 -0.3691  0.7644  0.0821
 5976SOL     OW29386   0.019   0.566  12.644  0.3639 -0.1977 -0.2592
 5976SOL    HW129387   4.701   0.483  12.658  0.4629 -0.0434  0.9960
 5976SOL    HW229388   4.724   0.572  12.551  0.0066 -0.8444 -0.2165
 5977SOL     OW29389   4.393   3.038   5.776 -0.4093 -0.1733 -0.1830
 5977SOL    HW129390   4.434   3.104   5.832  3.0678  0.4401 -3.4719
 5977SOL    HW229391   4.302   3.059   5.797 -0.3790  2.0221 -2.2582
 5978SOL     OW29392   3.099   0.685  13.447  0.8118 -0.2031  0.5546
 5978SOL    HW129393   3.058   0.693  13.533 -0.0674 -2.8591  0.3690
 5978SOL    HW229394   3.025   0.712  13.392  0.2618 -0.4888  1.1523
 5979SOL     OW29395   4.097   4.238   6.309 -0.0847  0.6454  0.1707
 5979SOL    HW129396   4.157   4.235   6.235  1.8190  2.6560  1.6272
 5979SOL    HW229397   4.087   4.147   6.336  1.8596 -0.0296 -1.3961
 5980SOL     OW29398   4.585   0.005   7.213  0.5713  0.1440  0.3275
 5980SOL    HW129399   4.598   0.028   7.305 -2.2514 -1.3463  1.1053
 5980SOL    HW229400   4.638   4.653   7.215 -1.0923 -0.9314  1.7303
 5981SOL     OW29401   3.769   1.799  12.600  0.4189  0.2184 -0.4610
 5981SOL    HW129402   3.707   1.739  12.641 -0.8661  0.0208 -2.6784
 5981SOL    HW229403   3.763   1.765  12.511  1.7623 -0.3653 -0.3299
 5982SOL     OW29404   3.231   3.311   0.641  0.1112 -0.3655  0.7521
 5982SOL    HW129405   3.170   3.379   0.669  0.1408 -0.2766  0.5998
 5982SOL    HW229406   3.241   3.263   0.723 -0.8323 -1.6632  0.1106
 5983SOL     OW29407   1.295   0.229   5.345  0.0691 -0.1400 -0.1410
 5983SOL    HW129408   1.227   0.180   5.299 -0.8672 -0.2982  1.3944
 5983SOL    HW229409   1.282   0.198   5.435 -0.0332  1.6512  0.4701
 5984SOL     OW29410   3.573   2.949   5.807 -0.2063  0.2402  0.3842
 5984SOL    HW129411   3.660   2.954   5.846  1.6742 -1.1629 -3.5341
 5984SOL    HW229412   3.524   3.011   5.861  0.8049  0.2162  1.3176
 5985SOL     OW29413   4.356   0.581   8.523 -0.0387 -0.9935 -0.4886
 5985SOL    HW129414   4.266   0.581   8.555 -0.4789 -1.3844 -1.7175
 5985SOL    HW229415   4.397   0.657   8.564 -0.4107 -1.6728  1.1088
 5986SOL     OW29416   3.290   1.666  12.455 -0.3628  0.7603  0.2226
 5986SOL    HW129417   3.329   1.750  12.433 -0.3873  0.4257 -1.0816
 5986SOL    HW229418   3.283   1.620  12.372 -3.3456  0.3913  0.6755
 5987SOL     OW29419   1.215   0.509   2.615  0.4891  0.6896 -0.3093
 5987SOL    HW129420   1.208   0.432   2.558 -1.5799  1.7080 -1.4689
 5987SOL    HW229421   1.125   0.541   2.605  0.0857 -0.7325 -1.2533
 5988SOL     OW29422   1.867   0.291   7.842 -0.7165 -0.1743 -0.4019
 5988SOL    HW129423   1.800   0.240   7.795  0.8480 -0.9275 -1.8151
 5988SOL    HW229424   1.829   0.378   7.846  0.5599  0.3538  0.1531
 5989SOL     OW29425   1.018   2.703   4.444  0.1885 -0.1718 -0.8036
 5989SOL    HW129426   0.999   2.617   4.407 -0.1091 -0.1611 -0.6816
 5989SOL    HW229427   0.930   2.742   4.443  1.3452  2.4705  0.1226
 5990SOL     OW29428   4.564   0.578   3.122 -0.3395  0.9401 -0.3410
 5990SOL    HW129429   4.654   0.580   3.156 -0.7787  0.0461  0.9001
 5990SOL    HW229430   4.520   0.570   3.207 -1.5536 -1.9946 -1.2530
 5991SOL     OW29431   2.744   3.286   8.175 -0.0810  0.6211  0.5871
 5991SOL    HW129432   2.808   3.265   8.243  0.0723  0.2883  0.3382
 5991SOL    HW229433   2.662   3.241   8.198 -0.0747 -0.2766 -1.2134
 5992SOL     OW29434   4.657   0.965   6.553 -0.4478 -0.1094 -0.0305
 5992SOL    HW129435   4.644   0.997   6.464 -1.0659  0.3412  0.2156
 5992SOL    HW229436   4.567   0.953   6.584 -0.5732 -0.7684 -0.6567
 5993SOL     OW29437   2.332   3.979   6.800  0.0056  0.4405 -0.0304
 5993SOL    HW129438   2.248   3.982   6.845  0.1142 -2.9492  0.3943
 5993SOL    HW229439   2.382   3.924   6.860  1.2891  0.6584 -0.8915
 5994SOL     OW29440   3.749   1.283   5.332  0.5841  0.0372 -0.5809
 5994SOL    HW129441   3.697   1.203   5.329  0.0527  0.3311  0.6811
 5994SOL    HW229442   3.809   1.248   5.266  2.3922 -0.6406  1.4310
 5995SOL     OW29443   4.297   3.409   8.155  0.1105 -0.3750 -0.0854
 5995SOL    HW129444   4.257   3.348   8.217  1.9320 -2.7989 -1.2759
 5995SOL    HW229445   4.257   3.380   8.073 -1.3805 -3.2299  1.6632
 5996SOL     OW29446   0.548   3.719   8.225  0.5456 -0.6044 -0.4737
 5996SOL    HW129447   0.553   3.802   8.274  1.7946 -0.9494 -0.0089
 5996SOL    HW229448   0.460   3.683   8.234  0.6066 -0.7764 -0.5672
 5997SOL     OW29449   2.595   2.314   2.641  0.5220 -0.4315 -0.3383
 5997SOL    HW129450   2.539   2.251   2.596 -0.1870 -0.9293  1.2393
 5997SOL    HW229451   2.619   2.371   2.568 -0.0981 -0.5988 -0.6706
 5998SOL     OW29452   0.893   1.209   7.322 -0.0992  0.3025  0.7628
 5998SOL    HW129453   0.907   1.269   7.396  1.2374 -0.3882  1.0768
 5998SOL    HW229454   0.964   1.239   7.264  0.7120  1.2677  2.2575
 5999SOL     OW29455   0.303   4.112  12.615  0.2850 -0.2206 -0.8692
 5999SOL    HW129456   0.383   4.124  12.666  0.0237  0.7716 -0.6999
 5999SOL    HW229457   0.310   4.192  12.562  2.6250 -0.0216 -0.2691
 6000SOL     OW29458   4.392   0.298  16.380 -0.4879  0.4012  0.0288
 6000SOL    HW129459   4.304   0.271  16.407 -1.0469  0.4383 -1.7018
 6000SOL    HW229460   4.438   0.284  16.462 -0.8247  0.1309  0.1712
 6001SOL     OW29461   2.697   2.802   6.724  0.2681  0.0147 -0.6282
 6001SOL    HW129462   2.690   2.805   6.820  1.8353  1.9362 -0.5619
 6001SOL    HW229463   2.730   2.713   6.710  0.1488 -0.1420  0.0616
 6002SOL     OW29464   3.769   0.144  16.186 -0.3471 -0.2401  0.3521
 6002SOL    HW129465   3.811   0.229  16.196  0.9150 -0.9094  0.7600
 6002SOL    HW229466   3.800   0.118  16.099  0.0556 -1.7659  0.9573
 6003SOL     OW29467   4.655   2.056   8.730 -0.0665 -0.0415 -0.0326
 6003SOL    HW129468   4.637   2.064   8.636 -0.2972  0.2966  0.0419
 6003SOL    HW229469   0.019   2.085   8.739  0.2733 -1.0913 -0.0690
 6004SOL     OW29470   1.203   1.802   9.111  0.2800 -0.0646 -0.4131
 6004SOL    HW129471   1.285   1.851   9.122  1.1218 -0.6293 -4.1106
 6004SOL    HW229472   1.221   1.732   9.174  0.9518  0.7440  0.2992
 6005SOL     OW29473   2.104   0.268  10.749 -0.6540  0.3135 -0.6731
 6005SOL    HW129474   2.118   0.312  10.833 -0.7021  1.0017 -1.0291
 6005SOL    HW229475   2.097   0.338  10.685  1.0682  0.2069 -0.9767
 6006SOL     OW29476   2.300   0.201   2.020 -0.7074 -0.0985  0.3172
 6006SOL    HW129477   2.250   0.154   2.086  1.0522  0.1342  1.8283
 6006SOL    HW229478   2.265   0.154   1.944  0.1576 -1.6103  0.8427
 6007SOL     OW29479   1.776   2.989   7.697  0.2242 -0.5161 -0.1559
 6007SOL    HW129480   1.846   2.959   7.756 -0.6599 -0.9062  0.6948
 6007SOL    HW229481   1.816   3.071   7.668 -0.4411 -1.3011 -3.2255
 6008SOL     OW29482   0.235   1.965   8.488 -0.1028 -0.2780  0.0964
 6008SOL    HW129483   0.159   1.966   8.430 -0.1362 -2.5141  0.0954
 6008SOL    HW229484   0.229   2.046   8.538 -2.4836 -0.8831  0.7843
 6009SOL     OW29485   3.969   2.110  11.723 -0.2790  0.1504  0.2757
 6009SOL    HW129486   4.026   2.070  11.658 -0.2362  0.6389  0.0158
 6009SOL    HW229487   4.033   2.139  11.788 -2.1904  4.1113  0.4258
 6010SOL     OW29488   0.285   3.348   4.068  0.1288  0.0823 -0.1729
 6010SOL    HW129489   0.245   3.392   3.993  1.2877 -0.3203 -1.0275
 6010SOL    HW229490   0.379   3.359   4.049  0.1137 -0.5296 -0.5887
 6011SOL     OW29491   0.067   1.402  11.009 -0.1732  0.4478  0.1622
 6011SOL    HW129492   0.050   1.474  11.070 -1.8094 -0.4039  0.7163
 6011SOL    HW229493   0.149   1.432  10.971 -0.6211  1.6463  0.1466
 6012SOL     OW29494   2.435   2.225  14.905 -0.2177 -0.1705 -0.6737
 6012SOL    HW129495   2.516   2.191  14.866  0.0645  0.2058 -0.4198
 6012SOL    HW229496   2.466   2.313  14.929 -2.0888 -0.4494  2.7473
 6013SOL     OW29497   4.678   2.816   3.761  0.5169 -0.4220  0.6550
 6013SOL    HW129498   0.019   2.749   3.756  0.3822 -0.5192  0.0626
 6013SOL    HW229499   4.649   2.800   3.851  0.2938  1.0589  0.8358
 6014SOL     OW29500   1.048   1.981  10.205  0.4887  0.0732  0.6690
 6014SOL    HW129501   1.090   2.010  10.286  3.5299 -0.8813 -0.5688
 6014SOL    HW229502   1.106   1.998  10.132  0.3860  0.8706  0.7732
 6015SOL     OW29503   0.425   0.003  11.715  0.3118 -0.6686 -0.5585
 6015SOL    HW129504   0.432   0.091  11.753 -1.6115 -0.4628 -0.6576
 6015SOL    HW229505   0.513   4.694  11.717  0.7337  0.3471 -0.1462
 6016SOL     OW29506   4.719   0.398   2.090 -0.2422  0.0634 -0.1302
 6016SOL    HW129507   0.050   0.473   2.101  1.4908 -1.3707  0.4126
 6016SOL    HW229508   0.045   0.325   2.058  2.3719  2.0737 -0.3212
 6017SOL     OW29509   2.784   0.342   6.652  0.0844 -0.5667 -0.0810
 6017SOL    HW129510   2.695   0.324   6.622  0.9359 -2.3700 -1.5490
 6017SOL    HW229511   2.787   0.435   6.632 -0.5734 -0.0324  2.3446
 6018SOL     OW29512   4.247   2.031   6.115 -0.1979  0.1692  0.2209
 6018SOL    HW129513   4.325   2.041   6.059  0.9935 -0.6903  1.7215
 6018SOL    HW229514   4.219   1.943   6.090  3.6081 -1.2334  0.8759
 6019SOL     OW29515   2.500   1.350   9.064  0.0400  0.0627  0.1921
 6019SOL    HW129516   2.579   1.385   9.104 -0.0332 -2.0584  2.1969
 6019SOL    HW229517   2.489   1.275   9.122 -2.2525 -1.1176 -1.7624
 6020SOL     OW29518   1.869   1.617   3.493 -0.1631  0.1662  0.4461
 6020SOL    HW129519   1.881   1.667   3.574  2.0240  0.4853 -0.0661
 6020SOL    HW229520   1.794   1.663   3.455 -0.8867 -1.3966 -0.0365
 6021SOL     OW29521   1.775   4.370  14.222 -0.3105 -0.7429 -0.3339
 6021SOL    HW129522   1.797   4.458  14.191  0.5339 -0.2284  1.7215
 6021SOL    HW229523   1.860   4.344  14.257 -0.0801 -1.1012 -1.1648
 6022SOL     OW29524   3.164   0.175   7.573  0.2005 -0.4217 -0.2119
 6022SOL    HW129525   3.092   0.133   7.619  1.0982 -0.5731  1.0732
 6022SOL    HW229526   3.239   0.134   7.617  1.0132  1.1459 -0.1229
 6023SOL     OW29527   1.092   1.249   5.000 -0.0729  0.6046  0.4031
 6023SOL    HW129528   1.126   1.191   5.068 -0.1208 -0.9200 -0.8636
 6023SOL    HW229529   1.122   1.332   5.037 -1.4855  1.4993 -0.4330
 6024SOL     OW29530   2.128   3.520   8.322 -0.1658 -0.1227 -0.3815
 6024SOL    HW129531   2.147   3.513   8.228  1.1406 -0.6487 -0.0736
 6024SOL    HW229532   2.181   3.591   8.359 -0.7158 -0.8986  1.8861
 6025SOL     OW29533   3.173   0.667  11.458 -0.1273  0.0891 -0.3767
 6025SOL    HW129534   3.262   0.693  11.483  0.5783 -0.6299 -2.2135
 6025SOL    HW229535   3.129   0.662  11.543  0.1671 -2.5935 -0.4076
 6026SOL     OW29536   4.104   2.302   5.188 -0.3879 -0.5405  0.2354
 6026SOL    HW129537   4.180   2.283   5.132 -1.1859 -1.3603 -0.5831
 6026SOL    HW229538   4.148   2.347   5.259 -1.1077  2.2767 -1.1055
 6027SOL     OW29539   1.286   1.813   6.226 -0.3899 -0.0383  0.3583
 6027SOL    HW129540   1.216   1.781   6.170  0.1863  0.0620 -0.4184
 6027SOL    HW229541   1.244   1.817   6.312  1.0544 -0.7857  1.0956
 6028SOL     OW29542   0.650   3.707  12.459  0.2301 -0.2014  0.3027
 6028SOL    HW129543   0.672   3.640  12.525 -0.6590 -0.4876  0.3070
 6028SOL    HW229544   0.575   3.749  12.501 -0.3736 -2.5464  1.6252
 6029SOL     OW29545   1.322   3.763   3.548  0.0459 -0.6506 -0.2237
 6029SOL    HW129546   1.285   3.675   3.539 -0.2562 -0.4718 -0.7216
 6029SOL    HW229547   1.256   3.826   3.520  1.1336  0.8794  0.6442
 6030SOL     OW29548   4.344   2.177   7.598  0.0671 -0.3857  0.7511
 6030SOL    HW129549   4.253   2.194   7.575 -0.0330 -0.8311  0.8137
 6030SOL    HW229550   4.344   2.084   7.622  0.5290  0.0604  2.4346
 6031SOL     OW29551   1.185   3.619   8.225 -0.6416  0.2219  0.0282
 6031SOL    HW129552   1.272   3.630   8.262 -0.3930  0.6968 -0.7056
 6031SOL    HW229553   1.129   3.650   8.297 -1.0554 -1.5169  0.4804
 6032SOL     OW29554   2.107   2.030   7.212  0.3773  0.2065  0.1318
 6032SOL    HW129555   2.166   1.974   7.262  1.2015  1.0788  0.1100
 6032SOL    HW229556   2.040   1.967   7.184 -1.0157  1.4840  0.6338
 6033SOL     OW29557   2.229   3.189   1.481  0.5311 -0.0445  0.6113
 6033SOL    HW129558   2.290   3.116   1.470  3.4542  2.1328  2.3474
 6033SOL    HW229559   2.291   3.256   1.453 -0.8583  0.6323 -0.8406
 6034SOL     OW29560   3.629   2.279   5.448  0.5767 -0.3987  0.6636
 6034SOL    HW129561   3.554   2.257   5.392  1.4341 -1.8017  0.0673
 6034SOL    HW229562   3.695   2.312   5.388  1.7179 -2.4180  0.8004
 6035SOL     OW29563   0.816   4.202   7.851 -0.4396 -0.6806  0.8114
 6035SOL    HW129564   0.901   4.181   7.887  0.3296  0.2206 -0.4663
 6035SOL    HW229565   0.833   4.296   7.840  0.4968 -0.9373  0.1411
 6036SOL     OW29566   0.408   1.233   9.267  0.2151 -0.2090 -0.0037
 6036SOL    HW129567   0.315   1.211   9.262  0.2191 -0.1186 -0.5087
 6036SOL    HW229568   0.436   1.240   9.176  1.6781 -0.8008  0.3926
 6037SOL     OW29569   1.918   2.450   4.586 -0.1706  0.9934  0.2081
 6037SOL    HW129570   1.987   2.512   4.610  0.5439  0.9406 -1.6798
 6037SOL    HW229571   1.976   2.375   4.571 -0.5697  0.9599 -1.1761
 6038SOL     OW29572   3.138   0.360   0.856  0.3704 -0.2848  0.1564
 6038SOL    HW129573   3.157   0.394   0.944  0.4912  1.9836 -0.7696
 6038SOL    HW229574   3.179   0.428   0.802 -1.2975 -0.3042 -1.1105
 6039SOL     OW29575   2.120   3.915   6.014  0.1893  0.1526 -0.6225
 6039SOL    HW129576   2.099   4.004   6.043  0.6692  0.4460 -1.1960
 6039SOL    HW229577   2.030   3.883   6.004  0.0520  1.1006 -2.2986
 6040SOL     OW29578   2.314   1.468   6.163  0.3559  0.6012 -0.3534
 6040SOL    HW129579   2.256   1.468   6.239 -0.2502  1.2214 -0.8158
 6040SOL    HW229580   2.397   1.506   6.190  0.0871  0.4139  0.7162
 6041SOL     OW29581   3.272   0.965  11.876  0.0040 -0.2998 -0.3864
 6041SOL    HW129582   3.362   0.998  11.869  0.1334 -0.3623  1.0218
 6041SOL    HW229583   3.277   0.883  11.827 -0.2446 -0.5577  0.0288
 6042SOL     OW29584   0.495   3.578   6.996 -0.2222 -1.1994 -0.1679
 6042SOL    HW129585   0.482   3.651   6.936  0.7826 -1.3265 -0.5387
 6042SOL    HW229586   0.537   3.626   7.067 -0.1840  2.3940 -2.6206
 6043SOL     OW29587   1.409   0.938   4.023 -0.5787  0.2052  0.2274
 6043SOL    HW129588   1.355   0.965   4.097  2.2181  1.7503  1.7321
 6043SOL    HW229589   1.491   0.926   4.072 -3.4084 -0.1933  4.9475
 6044SOL     OW29590   3.009   3.547   0.239  0.0584  0.5760 -0.4070
 6044SOL    HW129591   3.001   3.452   0.247  1.6844  0.5339  0.7855
 6044SOL    HW229592   2.954   3.559   0.161 -4.1495 -0.4593  2.4057
 6045SOL     OW29593   3.172   0.923   2.336 -0.8550  0.1363  0.0287
 6045SOL    HW129594   3.258   0.885   2.319 -0.7956  1.1848 -2.0130
 6045SOL    HW229595   3.200   1.013   2.352 -0.0812 -0.7748  3.7500
 6046SOL     OW29596   3.558   3.301   1.837  0.4214  0.4114 -0.2236
 6046SOL    HW129597   3.611   3.356   1.779  0.2661  0.9252  0.1260
 6046SOL    HW229598   3.613   3.223   1.830 -1.5707 -0.7838 -2.5928
 6047SOL     OW29599   3.662   4.012   3.758  0.4670  0.1628 -0.3137
 6047SOL    HW129600   3.695   3.943   3.701 -1.1835 -1.7799  1.0814
 6047SOL    HW229601   3.586   3.962   3.788 -2.1187  4.2843  0.0684
 6048SOL     OW29602   2.896   0.326   6.202  0.2649  0.6400  0.1402
 6048SOL    HW129603   2.807   0.335   6.235  0.2654  0.6040  0.1514
 6048SOL    HW229604   2.914   0.239   6.237  0.1576 -0.0169 -1.4258
 6049SOL     OW29605   0.618   4.658   4.177 -0.4743 -0.1504  0.3208
 6049SOL    HW129606   0.568   4.577   4.168  2.6266 -2.0605  0.2627
 6049SOL    HW229607   0.602   4.709   4.097 -0.5379  1.4290  1.3542
 6050SOL     OW29608   4.207   2.244   2.133  0.3953  0.0958 -0.1367
 6050SOL    HW129609   4.205   2.327   2.084  0.6613  0.3475  0.2814
 6050SOL    HW229610   4.284   2.255   2.189  1.4713  0.1847 -1.6538
 6051SOL     OW29611   3.510   3.890   8.455  0.2477 -0.8685  0.3544
 6051SOL    HW129612   3.515   3.969   8.509  1.4296 -0.6509 -0.0636
 6051SOL    HW229613   3.584   3.907   8.396  0.6278  1.6838  1.5718
 6052SOL     OW29614   3.960   3.909  16.529  0.5752  0.4995 -0.0943
 6052SOL    HW129615   3.905   3.832  16.515  1.4184  0.0376 -0.8736
 6052SOL    HW229616   4.026   3.878  16.591  0.6619 -0.8154 -0.8498
 6053SOL     OW29617   0.275   1.473   3.587  0.4442 -0.4226  0.3701
 6053SOL    HW129618   0.273   1.439   3.676 -0.2332  1.1925  0.9646
 6053SOL    HW229619   0.370   1.472   3.586  0.4297 -1.4921  0.1851
 6054SOL     OW29620   0.442   2.065   7.422  0.0298 -0.2244  0.3620
 6054SOL    HW129621   0.401   2.000   7.480  2.7649  0.0194  2.5632
 6054SOL    HW229622   0.404   2.143   7.462  0.0874 -1.3956  2.7169
 6055SOL     OW29623   1.449   1.927  14.859  0.0977 -0.9532 -0.4206
 6055SOL    HW129624   1.451   2.011  14.906 -0.2998 -0.6610 -0.9264
 6055SOL    HW229625   1.436   1.864  14.930 -0.9363 -0.5900 -0.2832
 6056SOL     OW29626   0.962   4.343  14.743  0.3649 -0.0453 -0.0881
 6056SOL    HW129627   1.036   4.393  14.777  0.4920  0.9392 -1.7923
 6056SOL    HW229628   0.895   4.377  14.802 -0.3336 -2.8050  0.7331
 6057SOL     OW29629   3.629   3.194   5.325 -0.3760  0.1665 -0.4321
 6057SOL    HW129630   3.572   3.127   5.364 -0.2372  1.2846  1.6379
 6057SOL    HW229631   3.575   3.273   5.323  1.8074  1.6560  0.2266
 6058SOL     OW29632   0.725   4.577  12.611  0.3404 -0.1952  0.4158
 6058SOL    HW129633   0.768   4.661  12.593  3.1145 -2.1675 -2.1603
 6058SOL    HW229634   0.724   4.558  12.704 -1.0684  0.5770  0.5609
 6059SOL     OW29635   3.642   1.829   7.028 -0.0554  0.1750  0.0314
 6059SOL    HW129636   3.556   1.798   7.057 -0.0355 -0.5698 -0.7081
 6059SOL    HW229637   3.648   1.776   6.949  0.9506  1.3136 -0.6600
 6060SOL     OW29638   2.507   1.962   6.695 -0.2983 -0.1542  0.9154
 6060SOL    HW129639   2.458   1.881   6.680 -1.1352  0.3209  1.0478
 6060SOL    HW229640   2.511   1.973   6.790  0.9334 -0.3634  0.8797
 6061SOL     OW29641   0.274   4.541  11.858  0.0352 -0.0540  0.3116
 6061SOL    HW129642   0.326   4.604  11.808 -1.5585  1.0975  0.1174
 6061SOL    HW229643   0.299   4.566  11.947  0.0424  1.0933 -0.0137
 6062SOL     OW29644   4.230   4.123   4.613 -0.6105 -0.2294  0.3955
 6062SOL    HW129645   4.182   4.056   4.563  1.8552 -1.7528  0.0767
 6062SOL    HW229646   4.320   4.111   4.583 -1.5893 -0.5173 -2.4614
 6063SOL     OW29647   3.821   3.466  10.089  0.4115 -0.0820 -0.4787
 6063SOL    HW129648   3.843   3.531  10.022 -1.2709 -1.9173 -2.7899
 6063SOL    HW229649   3.729   3.482  10.109  0.8414 -1.5763  2.5978
 6064SOL     OW29650   2.136   1.590   5.811  0.0849 -0.4790 -0.7918
 6064SOL    HW129651   2.090   1.510   5.836  1.8352 -1.4734 -0.8216
 6064SOL    HW229652   2.111   1.655   5.878 -1.4960 -1.7188 -0.1637
 6065SOL     OW29653   3.001   0.922   4.744  0.4423  0.6119 -0.0602
 6065SOL    HW129654   2.992   0.862   4.670 -0.3769 -0.3912  0.8600
 6065SOL    HW229655   3.094   0.926   4.764  0.4736 -0.2469 -0.0505
 6066SOL     OW29656   1.117   2.099   9.904 -0.5948  0.3736 -0.0354
 6066SOL    HW129657   1.182   2.079   9.971 -0.4560 -0.5487 -0.4528
 6066SOL    HW229658   1.100   2.193   9.916  2.9225  1.0786 -0.4557
 6067SOL     OW29659   0.850   4.106  12.634  0.4181 -0.3704 -0.0281
 6067SOL    HW129660   0.775   4.102  12.575  0.5221  2.5077 -0.3883
 6067SOL    HW229661   0.879   4.015  12.633  2.1779  0.1483  6.3509
 6068SOL     OW29662   3.015   0.725   4.555  1.1234  0.0862  0.6181
 6068SOL    HW129663   3.056   0.770   4.482  2.1920 -1.7047  0.1021
 6068SOL    HW229664   2.924   0.733   4.528  1.2545  0.7031  0.3740
 6069SOL     OW29665   3.215   3.241   6.065 -0.6643  0.5850 -0.3203
 6069SOL    HW129666   3.286   3.279   6.117 -1.0578  0.8152  0.0575
 6069SOL    HW229667   3.139   3.247   6.123 -0.7936  0.9997 -0.5294
 6070SOL     OW29668   1.319   4.178   8.798 -0.1519 -0.1309  0.1351
 6070SOL    HW129669   1.404   4.166   8.756 -1.0077 -2.3941 -0.9449
 6070SOL    HW229670   1.327   4.270   8.823  0.1706  0.0322 -0.5621
 6071SOL     OW29671   4.142   4.599   8.863 -0.0709  0.3364 -0.0555
 6071SOL    HW129672   4.180   4.685   8.847  0.6769 -0.1680 -0.9912
 6071SOL    HW229673   4.141   4.592   8.959 -2.9648  1.4755 -0.0120
 6072SOL     OW29674   2.690   4.177   8.783  0.2719 -0.2545 -0.4624
 6072SOL    HW129675   2.712   4.269   8.799  0.5688  0.2918 -3.8720
 6072SOL    HW229676   2.773   4.133   8.803  0.1554 -0.3513 -0.1904
 6073SOL     OW29677   2.187   2.564   5.181  0.0763  0.3603 -0.1144
 6073SOL    HW129678   2.143   2.511   5.248 -0.3943 -0.4464 -1.0485
 6073SOL    HW229679   2.261   2.601   5.230  0.6928  2.2436 -2.5170
 6074SOL     OW29680   2.667   3.823   4.882  0.3641  0.0586 -0.0591
 6074SOL    HW129681   2.583   3.811   4.839  1.4541 -0.4926 -1.9913
 6074SOL    HW229682   2.640   3.841   4.973 -0.5154 -4.2686  0.5078
 6075SOL     OW29683   0.371   1.786  14.604  0.1018 -0.3246  0.0075
 6075SOL    HW129684   0.443   1.826  14.555 -0.7660 -1.2397 -2.0545
 6075SOL    HW229685   0.330   1.736  14.533 -0.9787  0.6372 -0.0564
 6076SOL     OW29686   3.231   0.585   6.902  0.0751 -0.1617 -0.3129
 6076SOL    HW129687   3.219   0.525   6.828 -0.9606 -0.3829  0.0297
 6076SOL    HW229688   3.286   0.528   6.956  2.2291  0.7563 -1.5540
 6077SOL     OW29689   0.360   3.905   7.745 -0.5811  0.3606  0.2647
 6077SOL    HW129690   0.397   3.971   7.804  1.7802 -0.1242 -0.6537
 6077SOL    HW229691   0.390   3.826   7.790  1.3442  0.6916 -0.4403
 6078SOL     OW29692   0.184   0.252   3.967  0.4722  0.0837  0.1904
 6078SOL    HW129693   0.202   0.178   3.909 -0.4926 -0.0473  0.0574
 6078SOL    HW229694   0.124   0.302   3.912 -0.5644 -0.9396  0.3829
 6079SOL     OW29695   3.218   0.200  16.086  0.0100 -0.0647 -0.4583
 6079SOL    HW129696   3.279   0.140  16.043 -1.1045 -2.6769  1.5358
 6079SOL    HW229697   3.180   0.141  16.151 -0.6188 -0.4676 -1.1951
 6080SOL     OW29698   0.704   0.175   0.309  0.1437 -0.0797  0.2169
 6080SOL    HW129699   0.662   0.255   0.279 -1.4885 -1.2709 -0.6783
 6080SOL    HW229700   0.647   0.157   0.384 -0.8983  0.0268 -0.5524
 6081SOL     OW29701   4.266   2.932   1.905  0.2491  0.2351  0.5724
 6081SOL    HW129702   4.307   2.846   1.919  0.4803  0.7627  3.1834
 6081SOL    HW229703   4.341   2.992   1.899 -1.8602  2.7703 -0.0898
 6082SOL     OW29704   4.262   0.236  13.182  0.7594  0.2806  0.2559
 6082SOL    HW129705   4.278   0.328  13.165  0.7736  0.4252  1.0285
 6082SOL    HW229706   4.301   0.213  13.267  1.3117 -1.8125 -0.5541
 6083SOL     OW29707   1.068   0.918   6.753 -0.4942 -0.0210  0.0723
 6083SOL    HW129708   1.046   0.982   6.821 -0.1629 -0.4979  0.6267
 6083SOL    HW229709   0.982   0.877   6.741 -0.5786  0.3823 -0.6754
 6084SOL     OW29710   3.796   0.186   5.423 -0.1662  0.2447 -0.3212
 6084SOL    HW129711   3.777   0.219   5.511  0.4205  0.9399 -0.4577
 6084SOL    HW229712   3.709   0.184   5.383  0.0733  2.0513 -0.9263
 6085SOL     OW29713   2.829   3.205   1.650  0.4593  0.1145 -0.1755
 6085SOL    HW129714   2.816   3.232   1.559  1.2991 -0.0652 -0.3548
 6085SOL    HW229715   2.822   3.287   1.698  0.9553 -0.3396  0.6754
 6086SOL     OW29716   2.322   0.921   8.899  0.8391  0.7465  0.6064
 6086SOL    HW129717   2.410   0.960   8.897  0.5008  1.6768  4.2258
 6086SOL    HW229718   2.310   0.903   8.992  0.5683 -1.2615  0.1651
 6087SOL     OW29719   0.727   2.745   9.443  0.1009 -0.2697  0.5612
 6087SOL    HW129720   0.695   2.817   9.388  2.2825  0.8392  0.7480
 6087SOL    HW229721   0.785   2.712   9.375 -1.4595  1.8460 -1.8224
 6088SOL     OW29722   2.476   4.327   4.421  0.5873  0.3457 -0.2640
 6088SOL    HW129723   2.479   4.375   4.504  0.9740 -3.0831  1.7060
 6088SOL    HW229724   2.384   4.302   4.417  0.0688  1.8139  2.1685
 6089SOL     OW29725   1.130   4.654   0.337  0.6800 -0.0530  0.4276
 6089SOL    HW129726   1.063   4.692   0.280  1.5670 -0.3333 -0.7986
 6089SOL    HW229727   1.131   4.567   0.297 -0.2548 -0.1338  0.5695
 6090SOL     OW29728   0.088   3.627   7.778  0.2428  0.0851  0.1589
 6090SOL    HW129729   4.726   3.616   7.810  0.6552  1.1345  1.6719
 6090SOL    HW229730   0.136   3.571   7.839 -1.0870 -1.7338 -0.4976
 6091SOL     OW29731   1.859   3.202   2.236  0.3897 -0.2223 -0.3314
 6091SOL    HW129732   1.948   3.235   2.226  0.2221  0.2170 -0.3627
 6091SOL    HW229733   1.815   3.222   2.153 -0.1347  0.3876  0.0968
 6092SOL     OW29734   1.673   4.396   3.494 -0.3429 -0.5201 -0.2736
 6092SOL    HW129735   1.764   4.419   3.513 -0.1057 -0.6201 -1.2715
 6092SOL    HW229736   1.620   4.461   3.540  0.0220  1.8754 -3.2505
 6093SOL     OW29737   2.318   0.216  10.254  0.1003 -0.9263 -0.1102
 6093SOL    HW129738   2.287   0.130  10.283  1.0498 -0.6455  1.7459
 6093SOL    HW229739   2.352   0.260  10.331  2.8594 -2.4424 -0.4544
 6094SOL     OW29740   1.659   1.803   3.458  0.1240  0.2150  0.1076
 6094SOL    HW129741   1.600   1.734   3.489 -0.6711  1.0651  0.4746
 6094SOL    HW229742   1.633   1.873   3.518 -1.4778  0.5147 -0.9563
 6095SOL     OW29743   3.108   3.730  10.187  0.0744  0.5280  0.1894
 6095SOL    HW129744   3.032   3.691  10.230 -0.4975 -0.1759 -1.4593
 6095SOL    HW229745   3.178   3.707  10.248 -0.9727 -0.6735  0.9377
 6096SOL     OW29746   0.501   3.610  13.069  0.2586 -0.6242  0.1156
 6096SOL    HW129747   0.428   3.672  13.071 -0.8551 -1.8785 -1.1337
 6096SOL    HW229748   0.506   3.609  12.973  1.0779 -0.5455  0.1627
 6097SOL     OW29749   4.113   4.245   7.767 -0.1898  0.2367  0.7288
 6097SOL    HW129750   4.033   4.296   7.761  0.7852  1.7161  0.4722
 6097SOL    HW229751   4.090   4.191   7.691  1.1539  0.7749 -0.0574
 6098SOL     OW29752   0.692   2.439   6.594  0.7456 -0.0868  0.2163
 6098SOL    HW129753   0.654   2.426   6.507  1.8606 -1.4970 -0.0717
 6098SOL    HW229754   0.759   2.370   6.594  1.1777  0.3315 -0.7885
 6099SOL     OW29755   0.776   1.182   0.354  0.0319  0.5369 -0.7627
 6099SOL    HW129756   0.812   1.101   0.391 -3.6277 -0.6516  0.1756
 6099SOL    HW229757   0.830   1.247   0.399  0.8771 -1.4679  1.1331
 6100SOL     OW29758   2.566   2.903  11.842  0.2160 -0.4364  0.3484
 6100SOL    HW129759   2.555   2.998  11.847 -0.8222 -0.5335 -0.2352
 6100SOL    HW229760   2.565   2.886  11.937  0.9090  1.5211  0.7106
 6101SOL     OW29761   2.468   4.621   7.532  0.0703 -0.1434 -0.2070
 6101SOL    HW129762   2.549   4.672   7.536  1.4179 -2.3091 -0.3274
 6101SOL    HW229763   2.483   4.550   7.594 -2.4829 -2.9467 -2.7576
 6102SOL     OW29764   3.963   4.247  15.290  0.1447 -0.2404  0.4537
 6102SOL    HW129765   3.969   4.206  15.376  2.9027  1.0962  0.9096
 6102SOL    HW229766   3.879   4.217  15.255  0.6019  0.0098 -0.8560
 6103SOL     OW29767   1.380   1.151  15.923  0.3539 -0.6702  0.0039
 6103SOL    HW129768   1.390   1.224  15.983  2.7099 -0.5596 -0.5185
 6103SOL    HW229769   1.362   1.191  15.838 -0.0181  1.0019  0.8885
 6104SOL     OW29770   3.899   3.190  17.666  0.1547  0.3199 -0.3374
 6104SOL    HW129771   3.982   3.165  17.625  0.2307  0.7773 -0.4556
 6104SOL    HW229772   3.928   3.271  17.707 -2.8485  0.6467  1.1448
 6105SOL     OW29773   2.311   3.131   6.537  0.1351  0.0153  0.4001
 6105SOL    HW129774   2.341   3.177   6.615 -1.0256 -3.0428  2.6085
 6105SOL    HW229775   2.388   3.075   6.534 -0.7138 -1.0669 -1.3409
 6106SOL     OW29776   1.977   4.220   2.708 -0.0430  0.4627  0.0970
 6106SOL    HW129777   1.881   4.221   2.712 -0.0127 -2.5080  1.0451
 6106SOL    HW229778   1.997   4.276   2.633  1.0460  0.2823  0.2540
 6107SOL     OW29779   2.342   1.868  13.307 -0.1712  0.0826  0.3561
 6107SOL    HW129780   2.319   1.959  13.290  1.8088  0.5980  0.4870
 6107SOL    HW229781   2.265   1.834  13.352  0.3210 -0.4655  0.7720
 6108SOL     OW29782   3.274   0.851   3.267  0.1874 -0.8762  0.3689
 6108SOL    HW129783   3.368   0.847   3.282  0.4164 -1.4017 -1.2392
 6108SOL    HW229784   3.262   0.768   3.221 -1.8139  0.1792 -1.0171
 6109SOL     OW29785   1.449   1.956  17.176 -0.0670 -0.1677  0.1284
 6109SOL    HW129786   1.412   1.963  17.088  1.8255 -3.4707 -0.9080
 6109SOL    HW229787   1.448   2.047  17.205  0.8202  0.3131 -1.3449
 6110SOL     OW29788   2.578   2.372   2.898 -0.2911 -0.2145 -0.2523
 6110SOL    HW129789   2.622   2.288   2.913  0.8401  0.3575 -0.3908
 6110SOL    HW229790   2.568   2.369   2.803 -1.6011  0.0628 -0.1281
 6111SOL     OW29791   0.606   2.691   5.942 -0.3753  0.0082 -0.0419
 6111SOL    HW129792   0.516   2.695   5.974 -0.1834  1.2814  0.3335
 6111SOL    HW229793   0.635   2.767   5.993 -0.5411  1.4536 -2.1174
 6112SOL     OW29794   3.725   2.743   1.498  0.2190  0.4819 -0.0655
 6112SOL    HW129795   3.795   2.694   1.456 -1.3233 -0.5347 -1.4800
 6112SOL    HW229796   3.772   2.760   1.580  0.5899  3.6300 -0.9199
 6113SOL     OW29797   0.004   1.739   9.155  0.4224 -0.5007 -0.0368
 6113SOL    HW129798   4.690   1.686   9.223  0.5668 -1.3410 -0.6141
 6113SOL    HW229799   4.655   1.792   9.131 -0.5996 -1.3798  1.2443
 6114SOL     OW29800   4.390   0.908   6.647  0.4420  0.7829  0.0993
 6114SOL    HW129801   4.297   0.897   6.630  0.9514 -1.5012 -1.1597
 6114SOL    HW229802   4.422   0.834   6.699  1.7841  0.2234 -1.5352
 6115SOL     OW29803   2.049   0.639   1.373 -0.7312  0.2969 -0.6439
 6115SOL    HW129804   1.963   0.622   1.334 -0.8017  2.4854 -1.4389
 6115SOL    HW229805   2.043   0.584   1.451 -1.3255  0.9546 -0.2300
 6116SOL     OW29806   3.127   2.186   5.977 -0.1747  0.1677  0.2216
 6116SOL    HW129807   3.175   2.136   5.912  0.2487 -0.3795  0.9596
 6116SOL    HW229808   3.186   2.172   6.051 -1.2170 -1.0510  0.8072
 6117SOL     OW29809   3.680   4.644   6.518 -0.3805  0.8685 -0.0935
 6117SOL    HW129810   3.683   4.667   6.425 -2.1627  0.2499 -0.3058
 6117SOL    HW229811   3.729   4.719   6.553  1.3484 -0.3926  0.1891
 6118SOL     OW29812   2.672   3.396   2.468 -0.5004 -0.0239 -0.2449
 6118SOL    HW129813   2.630   3.372   2.385 -0.2603 -1.6068  0.0865
 6118SOL    HW229814   2.717   3.315   2.493  1.6104  1.7716  1.7230
 6119SOL     OW29815   3.672   2.536   9.471  0.0435  0.0355  0.3695
 6119SOL    HW129816   3.614   2.461   9.456 -0.7252  0.8619 -0.7816
 6119SOL    HW229817   3.673   2.567   9.381  3.1328  0.3565  0.5248
 6120SOL     OW29818   2.713   3.080  17.117 -0.0377  0.4634  0.1932
 6120SOL    HW129819   2.791   3.031  17.142  1.5246  0.9744 -3.5763
 6120SOL    HW229820   2.718   3.099  17.023  0.0982 -2.0720 -0.3311
 6121SOL     OW29821   3.976   0.338  16.213 -0.4245  0.0602 -0.1462
 6121SOL    HW129822   3.962   0.326  16.307  0.3411  0.9872  0.0841
 6121SOL    HW229823   4.035   0.413  16.215  2.2945 -2.0783 -0.6626
 6122SOL     OW29824   2.539   2.246   1.806  0.2407 -0.1598  0.2509
 6122SOL    HW129825   2.518   2.195   1.728 -2.2695 -1.0960  1.5522
 6122SOL    HW229826   2.455   2.289   1.825  0.7826  0.8331  0.4430
 6123SOL     OW29827   2.138   2.280  10.807  0.5647  0.0644 -0.1583
 6123SOL    HW129828   2.105   2.341  10.742  0.0168 -1.7761 -1.6082
 6123SOL    HW229829   2.221   2.322  10.828  1.5206 -1.4271 -1.0207
 6124SOL     OW29830   2.066   0.463   3.620  0.1470 -0.6098  0.1456
 6124SOL    HW129831   2.060   0.541   3.675  0.4112 -1.1399  0.9423
 6124SOL    HW229832   1.986   0.476   3.571  1.0932 -0.1595 -1.2623
 6125SOL     OW29833   2.981   2.668   1.639  0.2807 -0.0145 -0.2613
 6125SOL    HW129834   3.019   2.716   1.713  2.3918  1.1793 -2.0848
 6125SOL    HW229835   2.986   2.585   1.685 -0.0164 -0.7679 -1.5975
 6126SOL     OW29836   2.670   1.569   7.004  0.3725  0.3647 -0.0227
 6126SOL    HW129837   2.580   1.596   7.019 -0.3174 -2.1378  0.4381
 6126SOL    HW229838   2.712   1.653   7.019  1.9085  0.0747 -2.6047
 6127SOL     OW29839   1.138   3.431   6.038 -0.5267  0.4333 -0.0307
 6127SOL    HW129840   1.212   3.383   6.074 -1.5507  0.1334  1.6423
 6127SOL    HW229841   1.179   3.481   5.967  1.6433 -2.0716 -0.5226
 6128SOL     OW29842   2.647   4.439  13.935  0.2339 -0.0983 -0.0866
 6128SOL    HW129843   2.689   4.519  13.905  1.3194 -0.4334  0.5579
 6128SOL    HW229844   2.646   4.392  13.851 -2.3476  0.3150 -0.2900
 6129SOL     OW29845   1.264   0.558   5.400 -0.6110 -0.2237 -0.8414
 6129SOL    HW129846   1.302   0.475   5.371  1.0732  0.1694  0.3026
 6129SOL    HW229847   1.185   0.554   5.345  0.3422  0.3657 -2.2525
 6130SOL     OW29848   0.392   2.788   4.429  0.2746  0.1953 -0.2847
 6130SOL    HW129849   0.312   2.839   4.416 -0.1974 -0.3245  0.5554
 6130SOL    HW229850   0.384   2.710   4.376  3.1441 -1.7601  2.1305
 6131SOL     OW29851   0.943   1.881  15.152 -0.0734 -0.4825  0.3014
 6131SOL    HW129852   0.891   1.928  15.087  0.3657  2.1935  1.8863
 6131SOL    HW229853   0.881   1.809  15.162 -0.2225 -0.6748 -1.8853
 6132SOL     OW29854   1.214   1.052   5.999 -0.1966  0.7126  0.4604
 6132SOL    HW129855   1.161   1.019   6.071 -0.0012 -1.3221 -0.3165
 6132SOL    HW229856   1.293   0.999   6.013 -1.2592 -0.8127  0.5752
 6133SOL     OW29857   4.127   2.784   0.951  0.0282 -0.0422 -0.2762
 6133SOL    HW129858   4.211   2.827   0.934  1.0864 -2.1358 -0.2692
 6133SOL    HW229859   4.085   2.774   0.866 -1.0536  2.9740 -0.1055
 6134SOL     OW29860   1.282   1.079   2.765 -0.0449  0.1855 -0.2568
 6134SOL    HW129861   1.257   1.009   2.705  2.8192 -1.3820  0.3765
 6134SOL    HW229862   1.276   1.157   2.709  1.9197  1.2180  0.9572
 6135SOL     OW29863   0.892   0.964   8.005  0.6811  0.1433  0.3040
 6135SOL    HW129864   0.827   0.936   7.941  1.4297  1.4860 -1.0631
 6135SOL    HW229865   0.933   1.031   7.949  1.7320 -1.2639 -0.6309
 6136SOL     OW29866   1.860   2.604   4.353  0.2494  0.1876 -0.1082
 6136SOL    HW129867   1.953   2.618   4.335  0.3606  2.0607  1.8963
 6136SOL    HW229868   1.871   2.550   4.432  1.1727 -2.0328 -1.7596
 6137SOL     OW29869   3.122   3.583   0.998  0.1830 -0.0457 -0.4516
 6137SOL    HW129870   3.216   3.595   1.013  0.4373 -1.8520 -0.6679
 6137SOL    HW229871   3.100   3.520   1.066  0.9375 -0.8669 -0.9698
 6138SOL     OW29872   4.432   2.262   4.766  0.0697  0.5206  0.4645
 6138SOL    HW129873   4.373   2.209   4.713 -0.0078 -0.4603  1.5305
 6138SOL    HW229874   4.404   2.232   4.853 -1.5407 -1.1190 -0.6284
 6139SOL     OW29875   0.293   2.272   7.547  0.7379 -0.0448  0.2926
 6139SOL    HW129876   0.278   2.237   7.635 -1.0888 -1.3320 -0.5416
 6139SOL    HW229877   0.254   2.358   7.564  0.0245  0.0440 -1.8916
 6140SOL     OW29878   2.526   2.081  16.617 -0.4804 -0.1541 -0.0172
 6140SOL    HW129879   2.433   2.085  16.639  0.3162  1.2479  3.1802
 6140SOL    HW229880   2.539   2.176  16.610 -0.4463 -0.1257  0.3875
 6141SOL     OW29881   3.191   3.505   3.243 -0.0504  0.3333  0.4192
 6141SOL    HW129882   3.274   3.479   3.202 -0.7726 -0.0076 -0.8118
 6141SOL    HW229883   3.162   3.414   3.253 -0.5295  0.1449 -2.6622
 6142SOL     OW29884   3.093   4.147   3.039 -0.3026 -0.1046 -0.7594
 6142SOL    HW129885   3.053   4.060   3.032  0.0563 -0.4179  1.1090
 6142SOL    HW229886   3.184   4.123   3.025  0.0499  1.0180 -0.3329
 6143SOL     OW29887   2.583   1.923  10.550 -0.4231 -0.9140  0.0307
 6143SOL    HW129888   2.675   1.947  10.564 -0.3844 -0.5097 -0.9000
 6143SOL    HW229889   2.539   1.992  10.599  2.3662 -2.4299  4.6929
 6144SOL     OW29890   1.836   0.014   2.692 -0.0828 -0.2727 -0.3378
 6144SOL    HW129891   1.913   0.016   2.750 -0.6870  2.5831  0.3336
 6144SOL    HW229892   1.775   4.709   2.759 -1.1922  1.9288 -0.2840
 6145SOL     OW29893   3.929   2.909   9.949  0.1335  0.6071  0.5218
 6145SOL    HW129894   3.984   2.974   9.994  1.6052 -0.4424  0.2610
 6145SOL    HW229895   3.877   2.881  10.024 -2.1352  0.8217 -0.9706
 6146SOL     OW29896   0.535   2.562   3.982  0.9033  0.1548 -0.1456
 6146SOL    HW129897   0.559   2.506   4.056  3.5664  1.2602 -0.1894
 6146SOL    HW229898   0.538   2.643   4.033 -0.0124 -0.4071  0.8214
 6147SOL     OW29899   2.907   3.507   2.935 -0.2408 -0.1081  0.7686
 6147SOL    HW129900   2.953   3.534   2.855  0.7196 -2.5859  0.4773
 6147SOL    HW229901   2.955   3.550   3.005  0.1368 -0.8201  0.9446
 6148SOL     OW29902   3.731   3.502   4.751 -0.1812  0.2910 -0.4565
 6148SOL    HW129903   3.723   3.504   4.847 -0.7982 -0.2934 -0.4959
 6148SOL    HW229904   3.653   3.463   4.711 -0.7999  0.1153  0.9124
 6149SOL     OW29905   2.890   3.356   6.799 -0.7126  0.0028  0.3072
 6149SOL    HW129906   2.889   3.421   6.869 -1.3003  0.0372  0.2610
 6149SOL    HW229907   2.797   3.335   6.791 -0.4795 -1.2052  0.7877
 6150SOL     OW29908   2.499   0.006   3.605  0.1328  0.0012  0.1469
 6150SOL    HW129909   2.424   4.711   3.661  0.1486  0.3472  0.3081
 6150SOL    HW229910   2.454   0.012   3.521 -1.1114 -0.4305  0.7916
 6151SOL     OW29911   2.081   2.116   1.309  0.6776 -0.2530  0.1216
 6151SOL    HW129912   1.988   2.141   1.302  0.4310 -1.0699  0.5031
 6151SOL    HW229913   2.081   2.024   1.284 -0.9609 -0.1264 -0.3733
 6152SOL     OW29914   4.100   3.512   5.370  0.3788  0.5924 -0.4586
 6152SOL    HW129915   4.055   3.567   5.305  0.0490  0.7738 -0.0719
 6152SOL    HW229916   4.050   3.528   5.449 -1.3191 -2.7224 -0.8975
 6153SOL     OW29917   2.002   2.183   7.933  0.2221 -0.4472 -0.4067
 6153SOL    HW129918   1.935   2.207   7.868 -0.6241 -1.0077  0.2610
 6153SOL    HW229919   1.960   2.201   8.017  0.1295  1.4637 -0.8629
 6154SOL     OW29920   1.979   2.778   7.872  0.1768 -0.3620  0.5821
 6154SOL    HW129921   1.983   2.855   7.929  1.2610  2.1546 -2.9113
 6154SOL    HW229922   1.945   2.714   7.934  2.0810 -2.9385 -1.0409
 6155SOL     OW29923   2.346   2.619  11.819  0.1869 -0.4739 -0.3860
 6155SOL    HW129924   2.307   2.541  11.858 -1.4716  1.2380  1.3582
 6155SOL    HW229925   2.433   2.628  11.858  0.1129 -1.2947 -0.0217
 6156SOL     OW29926   1.270   4.702   3.684  0.0290 -0.3681  0.6493
 6156SOL    HW129927   1.306   0.054   3.723  0.4161 -0.0938 -0.2797
 6156SOL    HW229928   1.176   4.702   3.700 -0.0734  0.6696  0.0107
 6157SOL     OW29929   0.753   1.579   1.828 -0.1787 -0.2271  0.3673
 6157SOL    HW129930   0.679   1.616   1.780 -0.7061 -0.4698  0.9903
 6157SOL    HW229931   0.722   1.490   1.809 -1.3301  0.1226  0.6774
 6158SOL     OW29932   0.902   2.030  10.982 -0.0659  0.5357 -0.3110
 6158SOL    HW129933   0.918   2.016  11.076  0.8787 -1.2424 -0.7369
 6158SOL    HW229934   0.821   1.979  10.977  0.3172 -0.2911  1.6982
 6159SOL     OW29935   4.141   0.320   1.565 -0.2459  0.0372 -0.3595
 6159SOL    HW129936   4.154   0.231   1.533 -0.8251 -0.6619  1.3361
 6159SOL    HW229937   4.047   0.333   1.555 -0.7595 -2.9397  0.5507
 6160SOL     OW29938   1.621   2.369   7.888  0.4901  0.3562  0.0902
 6160SOL    HW129939   1.598   2.437   7.825  1.0679 -0.4670 -1.0048
 6160SOL    HW229940   1.706   2.336   7.861 -0.3713 -0.7641 -1.2187
 6161SOL     OW29941   4.471   1.627   6.486  0.2388 -0.6251  0.4659
 6161SOL    HW129942   4.451   1.719   6.470 -1.4931 -0.4518  3.5167
 6161SOL    HW229943   4.384   1.588   6.492 -0.5289  0.7146 -2.0635
 6162SOL     OW29944   4.662   3.509   4.730 -0.3246  0.1756 -0.2605
 6162SOL    HW129945   4.643   3.418   4.751 -0.4921  0.8678  2.6828
 6162SOL    HW229946   0.013   3.526   4.783  0.3610 -0.0333 -1.2121
 6163SOL     OW29947   3.963   3.669   2.483  0.2769 -0.0661 -0.2373
 6163SOL    HW129948   4.055   3.641   2.485 -0.1481 -1.3407  0.8261
 6163SOL    HW229949   3.924   3.598   2.534  0.3410 -0.8925 -1.3262
 6164SOL     OW29950   2.620   3.521  17.590  0.1646 -0.5511 -0.0482
 6164SOL    HW129951   2.680   3.592  17.567  0.0459 -0.2192  0.6665
 6164SOL    HW229952   2.570   3.506  17.510  0.1600 -0.6169 -0.0331
 6165SOL     OW29953   1.330   2.769   7.460 -0.2917  0.3617  0.2306
 6165SOL    HW129954   1.397   2.832   7.487 -0.3614  1.1899 -1.5031
 6165SOL    HW229955   1.355   2.703   7.525  2.4236  0.8467 -0.3425
 6166SOL     OW29956   2.338   2.975   5.013  0.1537 -0.9410  0.3482
 6166SOL    HW129957   2.244   2.991   5.010  0.2998  0.4557  3.0104
 6166SOL    HW229958   2.377   3.062   5.010 -0.7362 -0.4755  2.4313
 6167SOL     OW29959   3.104   2.340   5.462  0.0488 -0.4381 -0.2560
 6167SOL    HW129960   3.084   2.300   5.378  1.7846  0.4363 -1.1059
 6167SOL    HW229961   3.131   2.425   5.428  1.8322 -0.7615  0.3402
 6168SOL     OW29962   0.827   0.142   2.115 -1.1359  0.4860  0.4624
 6168SOL    HW129963   0.805   0.086   2.189 -0.5889 -1.2590 -0.7129
 6168SOL    HW229964   0.754   0.128   2.055  0.4537  0.2748 -1.4252
 6169SOL     OW29965   2.829   0.926   3.326  0.1469 -0.8283 -0.3391
 6169SOL    HW129966   2.844   0.840   3.366 -2.6768 -0.9748  0.3764
 6169SOL    HW229967   2.746   0.905   3.283 -0.0166 -1.4815  0.2921
 6170SOL     OW29968   4.649   2.951   7.202  0.0576 -0.0299 -0.2928
 6170SOL    HW129969   4.596   2.885   7.246  0.7204 -0.5320 -0.2399
 6170SOL    HW229970   4.687   2.996   7.277 -0.1410  1.3383 -1.0291
 6171SOL     OW29971   1.588   2.254   1.989 -0.1937  0.1087  1.0396
 6171SOL    HW129972   1.552   2.324   2.044 -1.7854  0.6243 -0.6511
 6171SOL    HW229973   1.606   2.303   1.909 -0.4958 -3.4302 -1.1842
 6172SOL     OW29974   3.689   0.360   4.911 -0.0375  0.1917 -0.0427
 6172SOL    HW129975   3.691   0.332   5.002 -0.9716 -1.3965 -0.5154
 6172SOL    HW229976   3.606   0.407   4.909 -0.8793 -1.3740 -2.0591
 6173SOL     OW29977   1.909   3.092   4.808  0.6075 -0.3945 -0.6156
 6173SOL    HW129978   1.967   3.057   4.740  1.0545  1.5648 -1.2520
 6173SOL    HW229979   1.839   3.135   4.758  0.4240  0.3394  0.2797
 6174SOL     OW29980   2.697   2.838   9.146  0.2599  0.1528 -0.6951
 6174SOL    HW129981   2.752   2.760   9.134  0.3296  0.0118  0.5747
 6174SOL    HW229982   2.613   2.807   9.178  1.0138  0.0495  1.1630
 6175SOL     OW29983   1.670   1.707   8.141  0.2792 -0.0716 -0.4382
 6175SOL    HW129984   1.585   1.708   8.186  1.7282  1.8467  2.2036
 6175SOL    HW229985   1.676   1.612   8.128  0.5874 -0.3157  1.5365
 6176SOL     OW29986   4.619   1.447   3.573  0.4740  0.2546 -0.0361
 6176SOL    HW129987   4.577   1.403   3.499 -0.1860  2.5326 -1.0003
 6176SOL    HW229988   4.618   1.539   3.548 -0.9087 -0.0390 -1.0776
 6177SOL     OW29989   3.656   2.363  12.190  0.0226 -0.3087  0.1314
 6177SOL    HW129990   3.583   2.421  12.212 -0.8302 -1.8759  1.4782
 6177SOL    HW229991   3.732   2.407  12.228 -0.6587  1.3282 -0.4249
 6178SOL     OW29992   1.477   1.227   4.973  0.2936 -0.2723  0.1938
 6178SOL    HW129993   1.499   1.174   5.049 -2.0278 -0.5320  0.6946
 6178SOL    HW229994   1.456   1.166   4.902  0.6946 -0.5916  0.3522
 6179SOL     OW29995   4.266   2.434   1.356  0.1705  0.5478  0.0724
 6179SOL    HW129996   4.266   2.520   1.313  0.7564  1.0846  1.1597
 6179SOL    HW229997   4.328   2.444   1.428 -0.1552  0.3421  0.3839
 6180SOL     OW29998   2.607   0.147   3.191  0.3623  0.0321  0.2696
 6180SOL    HW129999   2.541   0.181   3.251  0.9273  1.3099  0.1564
 6180SOL    HW230000   2.558   0.124   3.112 -1.1141 -0.4486  1.3210
 6181SOL     OW30001   0.752   1.271   4.298  0.2555  0.5277 -0.2078
 6181SOL    HW130002   0.773   1.308   4.212 -2.3151 -0.4694 -1.2490
 6181SOL    HW230003   0.731   1.349   4.350  2.3095 -0.3834  2.0035
 6182SOL     OW30004   0.480   3.285  11.403  0.3266 -0.3468 -0.1872
 6182SOL    HW130005   0.537   3.244  11.339  1.4729  1.9293 -0.6062
 6182SOL    HW230006   0.404   3.226  11.405  0.7151 -0.8479 -0.0790
 6183SOL     OW30007   4.200   3.340   5.639  0.1313 -0.0029  0.0412
 6183SOL    HW130008   4.182   3.272   5.703  1.9043 -1.0858 -0.6212
 6183SOL    HW230009   4.121   3.393   5.654  0.4882  1.0777 -1.9192
 6184SOL     OW30010   4.689   4.609   4.266 -0.1330 -0.5465  0.4486
 6184SOL    HW130011   0.024   4.601   4.338 -0.9574  1.5343  1.3997
 6184SOL    HW230012   4.710   4.530   4.216 -0.0055 -0.3657  0.2135
 6185SOL     OW30013   1.742   2.581   8.451  0.0069  0.0410  0.2322
 6185SOL    HW130014   1.702   2.659   8.412 -0.0782  0.9705  2.1706
 6185SOL    HW230015   1.726   2.594   8.545 -0.9019  2.0413 -0.1892
 6186SOL     OW30016   4.647   4.258   5.391  0.1085 -0.2147  0.1552
 6186SOL    HW130017   4.642   4.204   5.470 -3.5147  0.4545  0.3847
 6186SOL    HW230018   0.014   4.260   5.373  0.1474 -0.8495  0.2876
 6187SOL     OW30019   2.062   1.257   4.186  0.0319  0.0284 -0.2987
 6187SOL    HW130020   2.141   1.294   4.225 -2.3622  3.6387  1.0889
 6187SOL    HW230021   2.087   1.255   4.094 -1.1389 -1.6620 -0.5811
 6188SOL     OW30022   0.974   0.248   8.788 -0.8661 -0.4900  0.2239
 6188SOL    HW130023   0.908   0.189   8.823 -1.2367 -0.8551 -1.0959
 6188SOL    HW230024   0.974   0.217   8.697  3.6416 -0.4925  0.2349
 6189SOL     OW30025   3.700   2.269  11.105 -0.3765  0.4178  0.2966
 6189SOL    HW130026   3.637   2.232  11.043 -3.2729  0.8237  2.9893
 6189SOL    HW230027   3.689   2.223  11.188  0.5055 -1.0994 -0.4356
 6190SOL     OW30028   3.390   0.978   7.163 -0.1966  0.3632 -0.4759
 6190SOL    HW130029   3.416   1.031   7.088 -0.0743  2.0916  0.7889
 6190SOL    HW230030   3.310   0.936   7.132  1.4967 -1.9827 -1.6849
 6191SOL     OW30031   0.664   0.191   0.729  0.4574 -0.7525 -0.3040
 6191SOL    HW130032   0.624   0.199   0.642  0.0783 -1.6829 -0.2109
 6191SOL    HW230033   0.632   0.105   0.755 -1.0560 -0.9207 -2.7107
 6192SOL     OW30034   4.455   4.217   7.966 -0.7369 -0.0744  0.6007
 6192SOL    HW130035   4.498   4.139   7.932  1.5399  0.7181  1.6716
 6192SOL    HW230036   4.523   4.254   8.022  1.2996 -0.7387 -1.4556
 6193SOL     OW30037   1.086   3.603   6.539 -0.3343  0.4642  0.0778
 6193SOL    HW130038   1.179   3.596   6.519 -0.2268  0.3747  0.6026
 6193SOL    HW230039   1.044   3.620   6.454  0.4563 -2.0369 -0.8016
 6194SOL     OW30040   3.947   2.003  12.455  0.1390 -0.1338 -0.3285
 6194SOL    HW130041   3.893   1.967  12.385 -1.4062  3.8870 -1.1684
 6194SOL    HW230042   3.981   2.085  12.419 -0.8159 -0.2875 -1.5818
 6195SOL     OW30043   1.963   4.372  10.600 -0.2856 -0.0622  0.2028
 6195SOL    HW130044   2.008   4.395  10.681 -0.3323 -0.4970  0.3473
 6195SOL    HW230045   1.875   4.378  10.636  0.7242  3.2885  2.0932
 6196SOL     OW30046   2.040   0.283   5.239  0.2449 -0.1870  0.2557
 6196SOL    HW130047   1.993   0.353   5.284 -0.2895 -0.8932  0.8108
 6196SOL    HW230048   1.978   0.211   5.254 -1.5742  1.1797 -0.6530
 6197SOL     OW30049   1.429   4.481   6.604  0.0101  0.3292 -0.2897
 6197SOL    HW130050   1.427   4.531   6.685 -2.1754  1.6731 -1.1779
 6197SOL    HW230051   1.347   4.431   6.612 -1.1260  2.4789  1.4194
 6198SOL     OW30052   4.360   2.981  11.777  0.1524 -0.1001 -0.1407
 6198SOL    HW130053   4.283   2.939  11.816  1.9574 -1.3487  2.0628
 6198SOL    HW230054   4.395   2.915  11.717 -1.1182 -1.5664  0.7206
 6199SOL     OW30055   2.195   0.874  14.874  0.2724 -0.4776  0.1642
 6199SOL    HW130056   2.247   0.796  14.893  1.2547 -0.4531 -2.3787
 6199SOL    HW230057   2.125   0.846  14.816  0.5339 -0.8571  0.0293
 6200SOL     OW30058   0.998   3.098   8.747 -0.3154  0.4533  0.2190
 6200SOL    HW130059   1.028   3.180   8.707 -0.2015  0.4196  0.2338
 6200SOL    HW230060   1.082   3.052   8.747 -0.9596 -0.7130  1.8370
 6201SOL     OW30061   3.838   0.345  15.290 -0.1391  0.2624  0.1894
 6201SOL    HW130062   3.880   0.408  15.232 -0.3461  1.9360  1.8679
 6201SOL    HW230063   3.802   0.408  15.352  0.7198  1.1721 -0.2366
 6202SOL     OW30064   3.883   3.122  10.454 -0.1982  0.1854 -0.4592
 6202SOL    HW130065   3.845   3.037  10.433  1.0638 -1.3010  3.2241
 6202SOL    HW230066   3.925   3.106  10.539 -0.6582 -0.9880 -0.4496
 6203SOL     OW30067   2.557   0.778   2.773 -0.4013 -0.6491  0.2089
 6203SOL    HW130068   2.503   0.713   2.818 -1.2113 -0.8803 -1.0859
 6203SOL    HW230069   2.543   0.849   2.834  0.6221 -0.3216  0.0611
 6204SOL     OW30070   4.034   4.397  14.779  0.0876  0.7318  0.1470
 6204SOL    HW130071   4.054   4.403  14.686  0.3938  0.4656  0.1977
 6204SOL    HW230072   4.118   4.353  14.790 -2.0068 -3.3937 -0.1245
 6205SOL     OW30073   3.274   0.764   5.684 -0.3857 -0.1113 -0.2366
 6205SOL    HW130074   3.284   0.854   5.713 -1.9012  0.8841 -2.7853
 6205SOL    HW230075   3.181   0.773   5.660 -0.9525 -3.0964  0.8601
 6206SOL     OW30076   3.899   1.652   6.589 -0.0485 -0.4671 -0.3427
 6206SOL    HW130077   3.814   1.696   6.583  0.0776 -0.2659 -0.6748
 6206SOL    HW230078   3.883   1.592   6.516  0.9702  1.1223 -1.8883
 6207SOL     OW30079   0.591   3.346   6.098 -0.5317  0.1608  0.8387
 6207SOL    HW130080   0.647   3.379   6.168 -0.8412  0.8523  0.7531
 6207SOL    HW230081   0.619   3.254   6.095  0.8652  0.6068  0.1327
 6208SOL     OW30082   0.397   1.562   9.111 -0.0225  0.3434 -0.0182
 6208SOL    HW130083   0.318   1.513   9.135 -1.5159  2.0913 -1.3402
 6208SOL    HW230084   0.376   1.644   9.157  0.3459  0.8094 -0.6893
 6209SOL     OW30085   1.652   0.273   3.474  0.2166 -0.6043 -0.0195
 6209SOL    HW130086   1.569   0.301   3.436  0.1253 -0.0860  0.5610
 6209SOL    HW230087   1.636   0.314   3.559  0.3245 -0.4974 -0.0499
 6210SOL     OW30088   1.630   1.419   7.386 -0.0681  0.2848 -0.6060
 6210SOL    HW130089   1.589   1.495   7.343 -0.8588  0.9980  1.3877
 6210SOL    HW230090   1.713   1.464   7.403 -1.3714  1.8100  1.8422
 6211SOL     OW30091   1.002   0.289   9.252  0.0448 -0.2771 -0.0993
 6211SOL    HW130092   0.986   0.200   9.284  0.4215  0.9067  3.4160
 6211SOL    HW230093   0.915   0.329   9.261  0.0635 -0.3115  0.2554
 6212SOL     OW30094   4.317   0.688   7.373  0.1451 -0.4223 -0.2668
 6212SOL    HW130095   4.283   0.600   7.356 -0.5997 -0.0164 -0.8115
 6212SOL    HW230096   4.236   0.739   7.370 -0.2617 -1.0886 -0.6275
 6213SOL     OW30097   4.695   2.488  12.020 -0.1663  0.2955  0.1416
 6213SOL    HW130098   4.609   2.508  11.985  0.2734  0.1117 -1.0445
 6213SOL    HW230099   0.032   2.528  11.961  0.9808 -0.5008  0.8326
 6214SOL     OW30100   2.512   1.052   7.746  0.2956 -0.3505  0.3727
 6214SOL    HW130101   2.511   1.148   7.741  0.4873 -0.3195  0.9545
 6214SOL    HW230102   2.549   1.044   7.834 -0.6800 -2.7718  0.5707
 6215SOL     OW30103   0.916   2.369  13.092  0.2972  0.6243  0.3996
 6215SOL    HW130104   0.846   2.428  13.119 -0.5640  0.1483 -0.8117
 6215SOL    HW230105   0.933   2.341  13.182 -0.4837  0.6883  0.5604
 6216SOL     OW30106   4.072   2.291   2.646  0.3177 -0.1751  0.0342
 6216SOL    HW130107   4.146   2.348   2.624  0.6096 -0.6408 -0.1989
 6216SOL    HW230108   4.111   2.261   2.729 -0.9306  0.4767  0.8461
 6217SOL     OW30109   1.690   1.086   7.444 -0.2980 -0.2180  0.0391
 6217SOL    HW130110   1.731   1.144   7.508  0.5742  0.1473 -0.8532
 6217SOL    HW230111   1.699   1.146   7.370  0.2980  0.6222  0.7929
 6218SOL     OW30112   3.726   4.271   4.683  0.4036  0.1898 -0.1823
 6218SOL    HW130113   3.782   4.222   4.744 -1.1753 -1.1149  0.2251
 6218SOL    HW230114   3.745   4.363   4.703 -0.2862  0.0412  1.2012
 6219SOL     OW30115   1.158   2.315   4.186  0.2513 -0.0361 -0.3590
 6219SOL    HW130116   1.089   2.365   4.230  0.8436  1.3722 -1.0526
 6219SOL    HW230117   1.210   2.297   4.265 -1.2501 -2.1267  0.1661
 6220SOL     OW30118   1.777   2.556   5.129 -0.1481  0.2046  0.6736
 6220SOL    HW130119   1.683   2.558   5.146  0.0879  0.4950  1.9688
 6220SOL    HW230120   1.775   2.501   5.051 -0.4570 -1.1002  1.6228
 6221SOL     OW30121   1.437   1.502   4.508  0.0777  0.4602 -0.5405
 6221SOL    HW130122   1.483   1.448   4.573 -0.5993  0.1268 -0.3466
 6221SOL    HW230123   1.404   1.575   4.560  1.3513  0.0793  0.8387
 6222SOL     OW30124   0.192   3.816   9.421 -0.0540  0.9084  0.6961
 6222SOL    HW130125   0.110   3.771   9.442  0.1970  0.4165  0.6242
 6222SOL    HW230126   0.263   3.769   9.463 -0.1030 -0.9336 -1.2995
 6223SOL     OW30127   4.419   3.494   3.240  0.1938  0.0757  0.0072
 6223SOL    HW130128   4.483   3.543   3.291  0.0910  1.2735 -1.0071
 6223SOL    HW230129   4.348   3.485   3.304  0.8922  1.5606  0.9678
 6224SOL     OW30130   1.345   4.485   4.126 -0.4829 -0.2830 -0.3293
 6224SOL    HW130131   1.376   4.575   4.120 -1.8260  0.0693 -2.1885
 6224SOL    HW230132   1.356   4.461   4.034 -0.1970  2.6770 -1.0441
 6225SOL     OW30133   0.838   3.685  13.758 -0.0878 -0.4964  0.1161
 6225SOL    HW130134   0.867   3.637  13.835 -1.4685 -1.7992 -0.1828
 6225SOL    HW230135   0.926   3.695  13.720  0.0340 -2.8821 -0.2248
 6226SOL     OW30136   3.757   3.417   1.657 -0.0593  0.3809  0.2353
 6226SOL    HW130137   3.677   3.449   1.615 -0.4750 -1.2539 -0.2376
 6226SOL    HW230138   3.796   3.499   1.687 -1.7471  2.7522 -3.9994
 6227SOL     OW30139   2.429   4.414   6.385  0.0371 -0.0166 -0.6899
 6227SOL    HW130140   2.454   4.491   6.333  1.5809 -0.9920 -1.3991
 6227SOL    HW230141   2.513   4.369   6.377  1.4764  2.5590 -0.1463
 6228SOL     OW30142   1.508   0.888  16.627 -0.1624  0.7863 -0.7790
 6228SOL    HW130143   1.474   0.802  16.651 -0.0927  1.0670  0.3184
 6228SOL    HW230144   1.438   0.934  16.580  0.2928  1.0111 -1.2468
 6229SOL     OW30145   2.752   4.245   9.371 -0.2133 -0.0350  0.4774
 6229SOL    HW130146   2.735   4.314   9.308  0.2904 -0.6162 -0.2956
 6229SOL    HW230147   2.838   4.271   9.403  0.9927 -2.1561 -1.0406
 6230SOL     OW30148   3.536   0.778   4.258  0.2598  0.0063  0.3788
 6230SOL    HW130149   3.618   0.808   4.218  0.3328  0.9903  1.2707
 6230SOL    HW230150   3.556   0.779   4.352 -0.0665 -0.9026  0.4575
 6231SOL     OW30151   0.319   0.703  14.643 -0.0978 -0.4133 -0.2447
 6231SOL    HW130152   0.231   0.682  14.675 -0.3706  0.6803 -0.2797
 6231SOL    HW230153   0.310   0.696  14.548 -1.1860  0.7213 -0.2159
 6232SOL     OW30154   4.193   0.708   3.069 -0.0552 -0.2596  0.5788
 6232SOL    HW130155   4.100   0.727   3.058  0.1211  1.4159  2.0625
 6232SOL    HW230156   4.205   0.629   3.016 -3.6127 -2.0797  2.4842
 6233SOL     OW30157   1.107   2.428   6.580  0.1464 -0.4534 -0.0866
 6233SOL    HW130158   1.043   2.442   6.649 -0.0757  0.8060 -0.5467
 6233SOL    HW230159   1.185   2.459   6.626 -1.1220  1.9025  0.4838
 6234SOL     OW30160   3.045   1.374   8.380  0.1873 -0.0554  0.6107
 6234SOL    HW130161   3.050   1.281   8.404 -0.3865 -0.2065  0.1742
 6234SOL    HW230162   3.135   1.404   8.382  0.0146  0.5680 -1.0316
 6235SOL     OW30163   1.418   1.186   3.903  0.4168 -0.0616 -0.4482
 6235SOL    HW130164   1.364   1.256   3.940  0.2153 -1.5016  1.9828
 6235SOL    HW230165   1.391   1.112   3.958  1.4488  0.1961  0.3822
 6236SOL     OW30166   2.709   0.465   1.993  0.9401  0.0690 -0.1925
 6236SOL    HW130167   2.701   0.399   2.061  1.1710 -0.7490 -0.9602
 6236SOL    HW230168   2.631   0.451   1.939 -0.1731 -0.3442  1.5555
 6237SOL     OW30169   1.526   2.671  10.792  0.3243  0.0607 -0.1362
 6237SOL    HW130170   1.494   2.621  10.868  2.0397 -0.1958  0.4158
 6237SOL    HW230171   1.571   2.745  10.832 -0.8575  1.2788 -1.0879
 6238SOL     OW30172   0.435   1.188   5.051 -0.4516  0.3121 -0.4885
 6238SOL    HW130173   0.352   1.207   5.095  0.4107  2.6000  0.1261
 6238SOL    HW230174   0.446   1.269   5.002  3.0181 -0.9886 -1.7888
 6239SOL     OW30175   2.352   3.963   9.134 -0.8471 -0.5026 -0.1054
 6239SOL    HW130176   2.289   3.947   9.064 -0.9084 -0.3120 -0.0951
 6239SOL    HW230177   2.387   4.049   9.110  0.9517 -0.2229  3.5480
 6240SOL     OW30178   3.074   2.734   1.390  0.0180 -0.3152  0.6267
 6240SOL    HW130179   3.027   2.695   1.464  2.7809 -0.8350  2.0896
 6240SOL    HW230180   3.102   2.651   1.350  3.7379  1.2521 -0.0360
 6241SOL     OW30181   2.806   2.085  13.669  0.1844  0.1042 -0.3094
 6241SOL    HW130182   2.872   2.021  13.643 -1.9562 -2.9899  1.8263
 6241SOL    HW230183   2.793   2.121  13.581  3.6308  0.0110 -0.8276
 6242SOL     OW30184   3.228   3.987  12.218 -0.2654  0.0696  0.1732
 6242SOL    HW130185   3.177   4.031  12.150  0.1045  0.2991  0.0437
 6242SOL    HW230186   3.271   3.918  12.168  0.5503 -0.8038  2.1011
 6243SOL     OW30187   4.569   3.412   7.878  0.6566  0.2603 -0.8517
 6243SOL    HW130188   4.487   3.373   7.849 -0.9063  2.0515  1.1359
 6243SOL    HW230189   4.611   3.338   7.921 -1.8789 -1.0275 -0.6218
 6244SOL     OW30190   0.041   1.795  10.105  0.6205 -0.2263  0.0512
 6244SOL    HW130191   0.124   1.811  10.060  1.4939 -1.5892  1.1734
 6244SOL    HW230192   0.065   1.727  10.168 -2.2980 -0.8940  0.4696
 6245SOL     OW30193   3.794   1.611   4.447 -0.0139  0.5573  1.0556
 6245SOL    HW130194   3.803   1.639   4.538  0.6072  1.6506  0.6515
 6245SOL    HW230195   3.883   1.624   4.414  0.2440 -0.5132  1.3259
 6246SOL     OW30196   3.560   0.401   7.432  0.1141 -0.4865 -0.1323
 6246SOL    HW130197   3.596   0.374   7.517  1.1829  0.4186 -0.2991
 6246SOL    HW230198   3.504   0.475   7.456  1.6839  0.5303  0.3915
 6247SOL     OW30199   1.592   0.916   8.330 -0.2270  0.2834 -0.1583
 6247SOL    HW130200   1.525   0.952   8.389  0.5664  1.4251  0.0441
 6247SOL    HW230201   1.654   0.989   8.334  0.7058 -0.5260  0.2215
 6248SOL     OW30202   3.448   3.696   8.669 -0.3512  0.4777  0.7005
 6248SOL    HW130203   3.522   3.677   8.727 -1.3680 -0.5709  1.6565
 6248SOL    HW230204   3.483   3.766   8.613  0.1061  0.3174  0.7846
 6249SOL     OW30205   3.695   0.778   2.848  0.0018 -0.6582  0.0855
 6249SOL    HW130206   3.683   0.871   2.826  3.0607 -0.4574 -0.6978
 6249SOL    HW230207   3.681   0.743   2.760  2.7414  0.4616 -0.8098
 6250SOL     OW30208   3.452   2.365   6.057  0.0013 -0.3089  0.2592
 6250SOL    HW130209   3.362   2.393   6.048  0.3958 -0.2109 -3.0976
 6250SOL    HW230210   3.486   2.407   6.137  0.7366 -0.3839 -0.0134
 6251SOL     OW30211   1.380   2.216   3.626 -0.2456  0.1262  0.2966
 6251SOL    HW130212   1.292   2.178   3.639  0.0492 -1.0673 -1.1783
 6251SOL    HW230213   1.385   2.283   3.694 -2.2257 -0.1858  0.7602
 6252SOL     OW30214   1.512   1.221   7.273 -0.0431 -0.0915  0.1183
 6252SOL    HW130215   1.587   1.216   7.213 -0.3264 -1.0654 -0.1589
 6252SOL    HW230216   1.532   1.301   7.321  1.7005 -0.8282  0.6234
 6253SOL     OW30217   0.653   2.905   8.370 -0.3633  0.1259 -0.0901
 6253SOL    HW130218   0.593   2.835   8.345 -0.2766 -0.5029  1.4406
 6253SOL    HW230219   0.599   2.984   8.374  0.2779  0.5317  0.8106
 6254SOL     OW30220   4.235   0.413   7.315  0.0762 -0.5791 -0.2400
 6254SOL    HW130221   4.275   0.340   7.269  0.0579 -0.2358 -0.8109
 6254SOL    HW230222   4.147   0.413   7.278  0.0564  0.0592 -0.2034
 6255SOL     OW30223   2.888   2.083   7.530 -0.2489 -0.2533  0.4726
 6255SOL    HW130224   2.907   2.062   7.438  0.4063 -0.1295  0.5781
 6255SOL    HW230225   2.861   2.175   7.526 -0.0092 -0.2154 -0.2603
 6256SOL     OW30226   0.869   3.112   4.723 -0.0266  0.1791 -0.1795
 6256SOL    HW130227   0.800   3.092   4.659 -1.4041 -1.9778  1.9418
 6256SOL    HW230228   0.944   3.070   4.682  1.3887  1.8779  0.6769
 6257SOL     OW30229   4.549   1.409   5.003  0.0633 -0.1087 -0.0484
 6257SOL    HW130230   4.564   1.497   5.037 -1.4616  0.2771 -0.3572
 6257SOL    HW230231   4.586   1.356   5.073  0.2116 -1.0379 -0.8172
 6258SOL     OW30232   0.548   0.185   8.188  1.0061 -0.2390  0.3951
 6258SOL    HW130233   0.483   0.207   8.121  3.0945 -0.2713 -1.6512
 6258SOL    HW230234   0.497   0.121   8.237 -0.7368  0.7880 -0.1010
 6259SOL     OW30235   4.417   2.862  13.530 -0.1573  0.1532 -0.2793
 6259SOL    HW130236   4.446   2.894  13.615  1.1880  0.1208 -0.7298
 6259SOL    HW230237   4.461   2.777  13.519 -0.3169  0.1179 -0.6497
 6260SOL     OW30238   2.518   2.952   6.555  0.2103  0.1587  0.3089
 6260SOL    HW130239   2.583   2.957   6.625 -0.9041 -0.1869  1.3733
 6260SOL    HW230240   2.492   2.860   6.560  0.6028  0.0376  0.1288
 6261SOL     OW30241   3.476   0.486   9.370  0.2081  0.0627  0.1633
 6261SOL    HW130242   3.473   0.400   9.329 -0.1321  0.1204  0.0654
 6261SOL    HW230243   3.500   0.466   9.460  0.2092 -0.5376  0.0255
 6262SOL     OW30244   2.102   3.892   4.325 -0.0522  0.1845  0.5585
 6262SOL    HW130245   2.026   3.951   4.320  0.6393  1.0181  0.0064
 6262SOL    HW230246   2.118   3.865   4.235 -2.1353  0.7472  0.0167
 6263SOL     OW30247   4.551   3.482   0.393  0.7115 -0.3785  0.0378
 6263SOL    HW130248   4.456   3.487   0.383  0.9223 -0.6625 -1.9314
 6263SOL    HW230249   4.551   3.411   0.458 -1.9865  0.5723  1.0288
 6264SOL     OW30250   0.179   3.072  15.188  0.1944  0.2666 -0.6128
 6264SOL    HW130251   0.230   3.007  15.234 -0.6812  0.0851  0.1073
 6264SOL    HW230252   0.132   3.119  15.257  2.4905  1.5954  0.0413
 6265SOL     OW30253   0.652   4.560  15.057 -0.4382  0.2928  0.0113
 6265SOL    HW130254   0.587   4.537  14.990  0.9910 -0.9209 -0.9530
 6265SOL    HW230255   0.728   4.504  15.048  0.5386  1.4454  1.0833
 6266SOL     OW30256   4.385   0.113   3.683 -0.1871  0.9884  0.3580
 6266SOL    HW130257   4.386   0.169   3.606  2.4090  0.2444 -0.1342
 6266SOL    HW230258   4.457   0.156   3.729  0.2014  0.7825 -0.0600
 6267SOL     OW30259   3.709   2.712   4.257  1.0565  0.5334  0.1286
 6267SOL    HW130260   3.697   2.633   4.205 -0.5647 -0.3628  1.8659
 6267SOL    HW230261   3.620   2.742   4.279  0.3818 -0.7417 -0.8809
 6268SOL     OW30262   2.232   2.590   7.560 -0.5055 -0.1921 -0.7694
 6268SOL    HW130263   2.222   2.539   7.640 -0.0278 -0.9633 -1.2069
 6268SOL    HW230264   2.305   2.646   7.587 -0.6965 -0.4062  0.1838
 6269SOL     OW30265   3.229   2.339   1.493 -0.0915 -0.7479 -0.1557
 6269SOL    HW130266   3.203   2.294   1.573  0.5242  2.1292  1.6665
 6269SOL    HW230267   3.284   2.407   1.531  0.4503  0.4463 -3.0432
 6270SOL     OW30268   4.222   2.514   3.194 -0.4431  0.5286 -0.2491
 6270SOL    HW130269   4.165   2.459   3.141 -0.5407  1.0971 -0.7348
 6270SOL    HW230270   4.221   2.471   3.280 -2.4072  1.4011  0.1552
 6271SOL     OW30271   4.475   4.653   6.334 -0.3655 -0.3356 -0.3391
 6271SOL    HW130272   4.390   4.682   6.365 -0.3033 -1.7737  1.1845
 6271SOL    HW230273   4.524   4.640   6.415 -0.5496 -1.1521 -0.3560
 6272SOL     OW30274   3.877   3.378  17.246 -0.2414 -0.0942 -0.9678
 6272SOL    HW130275   3.850   3.416  17.330 -0.9245 -1.2663 -0.6623
 6272SOL    HW230276   3.950   3.323  17.274 -0.8313 -0.3050  0.1373
 6273SOL     OW30277   3.874   2.603   3.269 -0.3043  0.5969  0.0604
 6273SOL    HW130278   3.812   2.533   3.251  1.9160 -0.7925 -2.0863
 6273SOL    HW230279   3.926   2.606   3.188  3.9382  2.0163  2.8166
 6274SOL     OW30280   3.417   1.191  13.974  0.3913 -0.1814  0.6532
 6274SOL    HW130281   3.368   1.157  14.049  0.6933 -0.7010  0.6143
 6274SOL    HW230282   3.500   1.148  13.993  1.6068  0.6249 -2.7661
 6275SOL     OW30283   4.521   3.633   3.615  0.2605 -0.2881 -0.3953
 6275SOL    HW130284   4.492   3.647   3.705  0.7195 -0.1601 -0.2674
 6275SOL    HW230285   4.484   3.708   3.567 -2.0607 -1.1123  0.1011
 6276SOL     OW30286   3.620   0.719   3.582 -0.1735 -0.1062  0.6396
 6276SOL    HW130287   3.703   0.766   3.580  1.1185 -2.5880 -3.5613
 6276SOL    HW230288   3.586   0.749   3.498  0.8439  2.4283  1.1429
 6277SOL     OW30289   0.697   2.017   0.980  0.1306 -0.1500  0.5239
 6277SOL    HW130290   0.633   2.074   1.021 -1.6080 -1.1609 -0.7802
 6277SOL    HW230291   0.733   2.082   0.920 -0.7287  0.6991  0.9348
 6278SOL     OW30292   4.513   1.651   4.676  0.3575  0.1867  0.0673
 6278SOL    HW130293   4.503   1.556   4.666  0.9025  0.1865 -0.5506
 6278SOL    HW230294   4.593   1.661   4.728 -0.0305  1.2697  0.4521
 6279SOL     OW30295   1.778   0.187   1.173 -0.2136  0.6273  0.0920
 6279SOL    HW130296   1.745   0.098   1.160  1.8582 -0.0616 -0.5205
 6279SOL    HW230297   1.726   0.230   1.105  1.0294 -0.2818 -1.4177
 6280SOL     OW30298   4.516   3.488   2.979  0.8419  0.2492  0.0060
 6280SOL    HW130299   4.442   3.462   2.923  0.5898  1.4410 -0.2182
 6280SOL    HW230300   4.477   3.487   3.066 -1.7735 -1.5167 -1.1577
 6281SOL     OW30301   2.306   1.197   6.409 -0.2771  0.5066 -0.0841
 6281SOL    HW130302   2.258   1.117   6.431 -1.9478  1.5090 -0.1049
 6281SOL    HW230303   2.287   1.241   6.492 -1.0724  0.9394 -0.4946
 6282SOL     OW30304   3.463   2.793  10.337 -0.0699  0.1904 -0.7961
 6282SOL    HW130305   3.426   2.732  10.273  1.7202 -1.6403 -0.0768
 6282SOL    HW230306   3.388   2.811  10.394 -0.2841 -1.5090 -0.5402
 6283SOL     OW30307   1.977   1.618   8.742 -0.0254 -0.6677 -0.2403
 6283SOL    HW130308   2.010   1.661   8.821 -2.2229  0.5675  0.0010
 6283SOL    HW230309   2.056   1.566   8.725  1.0136  1.4932 -1.9810
 6284SOL     OW30310   2.536   4.175   2.064  0.4030  0.3850  0.4550
 6284SOL    HW130311   2.587   4.249   2.033  0.9072 -0.7848 -1.4700
 6284SOL    HW230312   2.491   4.157   1.982  1.7007 -2.4453  0.3481
 6285SOL     OW30313   4.011   4.540   2.725 -0.1395  0.4009 -0.4380
 6285SOL    HW130314   3.987   4.461   2.676 -0.9849 -0.1227  0.8392
 6285SOL    HW230315   4.104   4.527   2.742 -0.2183 -0.8233 -0.9329
 6286SOL     OW30316   2.970   1.473  16.620 -0.2387  0.6111  0.0823
 6286SOL    HW130317   3.056   1.432  16.612 -1.3747 -2.1842  1.9216
 6286SOL    HW230318   2.923   1.403  16.667 -1.4338  1.1593 -0.2798
 6287SOL     OW30319   0.534   1.399   3.890 -0.1583 -0.5372 -0.2006
 6287SOL    HW130320   0.458   1.456   3.904 -0.7483 -1.2086 -0.7476
 6287SOL    HW230321   0.544   1.412   3.796 -0.4887 -2.4334 -0.4785
 6288SOL     OW30322   2.901   2.882   6.072 -0.2112  0.2700 -0.4548
 6288SOL    HW130323   2.843   2.945   6.116  0.1985  0.6282 -0.4261
 6288SOL    HW230324   2.982   2.931   6.084 -0.0970  0.2902 -1.3003
 6289SOL     OW30325   3.037   3.913   1.702  0.2614  0.0566  0.1449
 6289SOL    HW130326   3.075   3.896   1.616  0.4868  0.3329  0.1909
 6289SOL    HW230327   3.112   3.914   1.762  0.7054  0.2283 -0.4052
 6290SOL     OW30328   1.163   1.302   9.120  0.1929  0.3841  0.3177
 6290SOL    HW130329   1.085   1.261   9.082 -0.6023  1.7309  0.4979
 6290SOL    HW230330   1.187   1.355   9.044  0.0687 -1.1623 -0.7889
 6291SOL     OW30331   2.549   1.030   6.641  0.1927 -0.0919  0.1635
 6291SOL    HW130332   2.460   1.019   6.609  0.0787 -0.5082  0.6135
 6291SOL    HW230333   2.593   1.067   6.564 -0.9622  0.9061 -0.0151
 6292SOL     OW30334   0.140   2.099   1.849 -0.6219  0.1555 -0.0321
 6292SOL    HW130335   0.211   2.156   1.818 -0.6179 -1.3211 -2.6973
 6292SOL    HW230336   0.188   2.049   1.914 -0.2575  1.5318  0.7711
 6293SOL     OW30337   1.777   4.154   9.042  0.2856 -0.1466  0.0903
 6293SOL    HW130338   1.723   4.223   9.004 -2.9685 -1.8644  1.6332
 6293SOL    HW230339   1.844   4.205   9.087 -0.2037  0.3910  0.2071
 6294SOL     OW30340   3.698   2.630   5.697  1.0208 -0.8797  0.1440
 6294SOL    HW130341   3.614   2.629   5.744  0.5946  0.2599 -0.5870
 6294SOL    HW230342   3.739   2.553   5.735  2.5851  0.9274  2.1024
 6295SOL     OW30343   4.549   3.477  14.525  0.8591 -0.5764  0.5815
 6295SOL    HW130344   4.609   3.463  14.451 -0.4606  0.5883 -0.7122
 6295SOL    HW230345   4.487   3.404  14.527  1.1779 -0.8557  0.2373
 6296SOL     OW30346   3.561   2.873   2.722  0.3222  1.0516  0.1578
 6296SOL    HW130347   3.511   2.896   2.800 -0.2362 -1.7647  0.6298
 6296SOL    HW230348   3.549   2.778   2.726  1.3598  1.0557  2.8636
 6297SOL     OW30349   3.831   0.673  17.447 -0.1961 -0.5416  0.0392
 6297SOL    HW130350   3.890   0.746  17.464  0.3076 -0.9458  0.0420
 6297SOL    HW230351   3.762   0.736  17.428  0.0992 -0.2389 -0.0339
 6298SOL     OW30352   2.444   3.959   7.895  0.2132  0.5535 -0.7291
 6298SOL    HW130353   2.435   3.974   7.989 -1.3266 -1.9059 -0.4666
 6298SOL    HW230354   2.354   3.952   7.861  0.4773 -0.6761 -1.1681
 6299SOL     OW30355   2.381   2.128   4.505  0.2436  0.1296 -0.6105
 6299SOL    HW130356   2.361   2.053   4.561  1.9530 -1.8106 -2.5794
 6299SOL    HW230357   2.474   2.147   4.521 -0.1802 -0.2081  2.2229
 6300SOL     OW30358   0.767   2.330   7.906  0.1799  0.0970  0.0876
 6300SOL    HW130359   0.761   2.425   7.915 -0.7387  0.0649 -0.1953
 6300SOL    HW230360   0.841   2.317   7.846 -0.7005  1.3121 -1.2610
 6301SOL     OW30361   3.029   3.355   2.364 -0.6649  0.0448  0.0937
 6301SOL    HW130362   2.978   3.279   2.339 -1.1632 -0.0612  1.4086
 6301SOL    HW230363   3.102   3.309   2.407 -0.1949 -0.8752 -1.7222
 6302SOL     OW30364   4.578   0.259  10.644 -0.9930 -0.2856 -0.6124
 6302SOL    HW130365   4.503   0.282  10.589 -1.4374 -1.0188 -0.3120
 6302SOL    HW230366   4.528   0.199  10.700 -1.0810  0.8632  0.5289
 6303SOL     OW30367   3.213   2.304   4.317  0.2167 -0.5846 -0.4082
 6303SOL    HW130368   3.121   2.329   4.326  0.0621 -0.5442 -2.1174
 6303SOL    HW230369   3.199   2.221   4.271  1.4025 -0.5141 -0.9004
 6304SOL     OW30370   0.514   3.109   5.453 -0.4492 -0.1030  0.7088
 6304SOL    HW130371   0.501   3.047   5.525  0.2357  0.4924  1.3434
 6304SOL    HW230372   0.529   3.050   5.380 -1.7776 -0.4704  0.7216
 6305SOL     OW30373   0.784   2.046   3.197 -0.6711 -0.1459 -0.0402
 6305SOL    HW130374   0.878   2.032   3.209  0.1584  2.6755 -3.1458
 6305SOL    HW230375   0.784   2.108   3.123  1.6337  0.8001  0.7613
 6306SOL     OW30376   3.385   4.187   8.688 -0.2201  0.4492  0.3757
 6306SOL    HW130377   3.411   4.249   8.756  0.2313  0.6142  0.0527
 6306SOL    HW230378   3.297   4.222   8.676 -0.1281  0.5434 -0.0067
 6307SOL     OW30379   2.719   0.027   7.487  0.7177  0.0987  0.2904
 6307SOL    HW130380   2.752   4.680   7.436 -1.4774 -0.2477 -0.6184
 6307SOL    HW230381   2.799   0.059   7.529 -0.9518  3.4667  0.8482
 6308SOL     OW30382   4.006   1.454   4.111  0.4572 -0.1188 -0.6393
 6308SOL    HW130383   4.074   1.471   4.045 -0.0296 -0.2093 -1.1699
 6308SOL    HW230384   4.025   1.517   4.180 -0.9912  0.2335 -0.5720
 6309SOL     OW30385   4.396   2.235   2.326 -0.0949 -0.3903 -0.4048
 6309SOL    HW130386   4.458   2.214   2.396 -0.1437 -0.6752 -0.4459
 6309SOL    HW230387   4.318   2.189   2.357  0.3542  0.8515  2.5777
 6310SOL     OW30388   0.168   3.717   1.225  0.1392 -0.0382  0.5666
 6310SOL    HW130389   0.213   3.777   1.166  0.4382 -1.2528 -0.4336
 6310SOL    HW230390   0.090   3.768   1.245 -0.4148 -0.8489  0.4858
 6311SOL     OW30391   0.114   1.081   8.827  0.3318 -0.3482 -0.2588
 6311SOL    HW130392   0.038   1.023   8.831  0.8912 -1.1297 -0.9007
 6311SOL    HW230393   0.065   1.163   8.831  0.0400 -0.7597  4.8215
 6312SOL     OW30394   1.557   1.941   5.959 -0.7087  0.0436  0.0758
 6312SOL    HW130395   1.637   1.958   5.909  0.2755 -1.4743  1.1531
 6312SOL    HW230396   1.494   1.974   5.894 -0.4531  1.1537  0.4012
 6313SOL     OW30397   4.441   4.265   7.658 -0.0021  0.2831  0.1015
 6313SOL    HW130398   4.527   4.224   7.663 -0.6996 -0.9746  1.9793
 6313SOL    HW230399   4.395   4.227   7.733 -0.1176 -1.0049 -0.6344
 6314SOL     OW30400   2.585   3.414   6.485  0.3159 -0.9241 -0.1917
 6314SOL    HW130401   2.501   3.408   6.532  1.6138 -0.1348  2.2740
 6314SOL    HW230402   2.645   3.464   6.541  1.2003 -0.7052 -1.3378
 6315SOL     OW30403   2.526   2.457  15.704 -0.3296 -0.2414 -0.2104
 6315SOL    HW130404   2.575   2.388  15.659 -2.4023 -0.8309 -1.5104
 6315SOL    HW230405   2.440   2.432  15.671 -0.3709 -0.0119 -0.2761
 6316SOL     OW30406   0.683   1.803   3.343 -0.2419  0.0366  0.1240
 6316SOL    HW130407   0.759   1.747   3.357  0.7246  1.8516  2.0717
 6316SOL    HW230408   0.710   1.872   3.283  1.7917 -0.5669  0.3603
 6317SOL     OW30409   1.677   3.878   4.384 -0.0078  0.1383  0.0032
 6317SOL    HW130410   1.694   3.786   4.364 -0.5588 -0.0923  0.5926
 6317SOL    HW230411   1.619   3.871   4.459  0.8997  1.6658  0.8307
 6318SOL     OW30412   0.211   4.550   8.498  0.0046  0.1684  0.3523
 6318SOL    HW130413   0.181   4.484   8.560  0.6022 -0.7924 -0.3745
 6318SOL    HW230414   0.267   4.503   8.436 -0.5385  1.6194 -1.2419
 6319SOL     OW30415   4.551   3.296  14.979 -0.3694  0.6131 -0.2654
 6319SOL    HW130416   4.456   3.303  14.987 -0.2927  0.5422  0.7923
 6319SOL    HW230417   4.542   3.202  14.967  0.3005  0.6264 -0.8732
 6320SOL     OW30418   1.913   2.948   3.656 -0.4046 -0.4641  0.2187
 6320SOL    HW130419   1.860   2.901   3.720 -2.0522  3.7129  1.9249
 6320SOL    HW230420   1.846   2.963   3.589  1.0294 -0.0773 -1.1361
 6321SOL     OW30421   3.419   2.683   4.294 -0.4991  0.4544 -0.1716
 6321SOL    HW130422   3.400   2.691   4.201 -0.7167  2.0238  0.0058
 6321SOL    HW230423   3.330   2.671   4.327 -0.2520 -2.9803 -0.7903
 6322SOL     OW30424   4.349   0.550   9.353  0.5380  0.3984  0.8864
 6322SOL    HW130425   4.420   0.513   9.300 -1.0403  0.1096 -1.0351
 6322SOL    HW230426   4.328   0.479   9.415  0.1646  1.3557  1.8454
 6323SOL     OW30427   0.265   0.070  12.448 -0.9686 -0.3795  0.4495
 6323SOL    HW130428   0.188   0.100  12.497  0.8577  2.5887  1.5626
 6323SOL    HW230429   0.285   4.715  12.492 -0.6020 -1.4319 -1.6900
 6324SOL     OW30430   2.673   4.656   6.881  0.1593  0.2629 -0.5596
 6324SOL    HW130431   2.715   0.008   6.848  0.7774  0.3832  0.5105
 6324SOL    HW230432   2.598   4.669   6.823 -0.9810  1.9373  1.2571
 6325SOL     OW30433   0.659   0.667   3.442 -0.1726  0.0539 -0.0689
 6325SOL    HW130434   0.651   0.746   3.388  1.5233  1.6426  1.9802
 6325SOL    HW230435   0.676   0.605   3.372 -2.0948  0.7096 -1.1291
 6326SOL     OW30436   3.167   1.228   7.597  0.0256 -0.0376 -0.5544
 6326SOL    HW130437   3.255   1.255   7.623 -1.1346  0.7511  2.5524
 6326SOL    HW230438   3.153   1.159   7.662  0.4023  0.6286  0.2345
 6327SOL     OW30439   2.663   3.767   6.163  0.0403  0.0241  0.1153
 6327SOL    HW130440   2.644   3.813   6.081  1.4551 -0.9263 -0.7335
 6327SOL    HW230441   2.622   3.682   6.149  2.6223 -1.0493 -0.9907
 6328SOL     OW30442   1.103   3.776   9.339 -0.1200  0.3535 -0.5067
 6328SOL    HW130443   1.086   3.725   9.418 -1.5196  0.4368 -0.7521
 6328SOL    HW230444   1.194   3.790   9.364 -0.3898  2.2564 -0.5810
 6329SOL     OW30445   1.847   0.204   3.073 -0.2345 -0.1065 -0.0235
 6329SOL    HW130446   1.830   0.292   3.107 -1.5633 -0.0891 -0.7439
 6329SOL    HW230447   1.761   0.164   3.078  0.2206 -1.6469 -5.0488
 6330SOL     OW30448   2.426   0.740  15.527 -0.3353  0.3454  0.0779
 6330SOL    HW130449   2.478   0.664  15.552  0.2928  1.2267  1.4178
 6330SOL    HW230450   2.499   0.797  15.503 -0.6181  0.6360 -0.0888
 6331SOL     OW30451   2.811   4.540  17.061 -0.2563 -0.8224  0.0954
 6331SOL    HW130452   2.735   4.557  17.115 -0.3199 -1.6739  0.2822
 6331SOL    HW230453   2.810   4.613  16.999  3.5706 -0.8015  0.0629
 6332SOL     OW30454   1.026   3.975   4.490 -0.1385 -0.1823 -0.4470
 6332SOL    HW130455   1.010   4.069   4.483 -1.7295 -0.3821  0.4126
 6332SOL    HW230456   0.944   3.938   4.455  0.1539 -1.5404  0.2963
 6333SOL     OW30457   2.370   0.355   4.421 -0.0463 -0.2812 -0.7157
 6333SOL    HW130458   2.443   0.334   4.363 -0.3237 -3.3884  0.0334
 6333SOL    HW230459   2.306   0.377   4.354 -1.7207  1.4995  1.4590
 6334SOL     OW30460   2.132   0.870   7.415  0.1439 -0.0437  0.1084
 6334SOL    HW130461   2.161   0.851   7.504  0.0772 -0.3526  0.0640
 6334SOL    HW230462   2.147   0.964   7.399  1.1773 -0.4866 -1.6134
 6335SOL     OW30463   3.264   3.430  13.914  0.5885  0.0697 -0.1669
 6335SOL    HW130464   3.254   3.356  13.973  0.4049 -0.5147 -0.9351
 6335SOL    HW230465   3.237   3.500  13.973  0.9706 -0.5937  0.8008
 6336SOL     OW30466   1.233   1.779   7.908 -0.1451  0.2766 -0.0474
 6336SOL    HW130467   1.183   1.783   7.989 -0.4214  0.2241 -0.2157
 6336SOL    HW230468   1.316   1.810   7.945  0.2539 -0.3299 -0.4329
 6337SOL     OW30469   3.535   0.687  12.390 -0.2132  0.4447 -0.3566
 6337SOL    HW130470   3.461   0.726  12.344  0.1472  2.0215  0.3865
 6337SOL    HW230471   3.496   0.608  12.429  1.0962 -0.5212 -0.9892
 6338SOL     OW30472   1.910   1.378   4.446 -0.2236 -0.3259 -0.4725
 6338SOL    HW130473   1.944   1.318   4.379  0.0945  0.0868 -0.6752
 6338SOL    HW230474   1.974   1.349   4.512 -0.5859  1.2681  0.5663
 6339SOL     OW30475   0.230   1.937   6.295 -0.4108 -0.0518  0.3489
 6339SOL    HW130476   0.260   2.026   6.278  0.8987 -0.0434  2.6190
 6339SOL    HW230477   0.280   1.887   6.230 -1.7093 -0.9116  0.0104
 6340SOL     OW30478   0.232   1.751   3.621  0.0584  0.0221  0.0255
 6340SOL    HW130479   0.323   1.743   3.592 -0.2728  1.9472 -1.5230
 6340SOL    HW230480   0.187   1.675   3.584 -1.1208  1.3224 -1.1774
 6341SOL     OW30481   1.289   0.127   7.339  0.4215  0.3039  0.2202
 6341SOL    HW130482   1.274   0.112   7.246 -1.3124 -0.4247  0.6156
 6341SOL    HW230483   1.353   0.061   7.365  2.1150  1.8485 -0.0107
 6342SOL     OW30484   3.213   0.114   9.759 -0.2155 -0.5895 -0.4597
 6342SOL    HW130485   3.117   0.112   9.754 -0.3489 -0.3855  1.8899
 6342SOL    HW230486   3.242   0.024   9.750  2.8136  0.2913  0.5312
 6343SOL     OW30487   2.635   3.271   6.863 -0.2035 -0.6791 -0.6202
 6343SOL    HW130488   2.600   3.281   6.951  0.5955  0.2062 -0.3995
 6343SOL    HW230489   2.557   3.277   6.809 -1.4476 -0.6459  1.1672
 6344SOL     OW30490   3.709   3.105  12.019 -0.2788  0.4804 -0.0496
 6344SOL    HW130491   3.641   3.173  12.027 -1.3661 -0.8246  1.8203
 6344SOL    HW230492   3.769   3.129  12.090  1.7270 -0.5381 -1.4360
 6345SOL     OW30493   1.781   2.508   4.117  0.5645  0.1226  0.0477
 6345SOL    HW130494   1.814   2.518   4.206  0.5960  0.0761  0.0410
 6345SOL    HW230495   1.834   2.578   4.079  0.9194 -0.1637  0.0213
 6346SOL     OW30496   2.153   1.262   2.441 -0.0738 -0.3637  0.1248
 6346SOL    HW130497   2.158   1.229   2.352 -2.5371  2.6543 -1.1316
 6346SOL    HW230498   2.098   1.190   2.472  0.5097  0.2874  2.6977
 6347SOL     OW30499   4.225   1.388   2.277 -0.0425 -0.3256 -0.1545
 6347SOL    HW130500   4.217   1.390   2.373 -1.4415  1.2072 -0.2959
 6347SOL    HW230501   4.133   1.380   2.254 -0.2249 -1.4242  0.9435
 6348SOL     OW30502   4.224   0.075   3.408 -0.2168  0.4824  0.5598
 6348SOL    HW130503   4.294   0.010   3.403 -0.4986 -0.1782  5.0061
 6348SOL    HW230504   4.242   0.117   3.324 -0.9009 -1.0882 -0.3651
 6349SOL     OW30505   2.859   3.444  12.151  0.6272  0.5977  0.4632
 6349SOL    HW130506   2.836   3.378  12.086  3.2437 -0.9674  1.1302
 6349SOL    HW230507   2.891   3.389  12.222  0.2632  2.8860  2.3984
 6350SOL     OW30508   3.288   4.022   0.695  0.2328 -0.4963 -0.1643
 6350SOL    HW130509   3.270   3.953   0.631 -0.2663 -1.3165  0.8756
 6350SOL    HW230510   3.328   4.082   0.632 -1.7850  0.1015 -0.8993
 6351SOL     OW30511   0.906   0.522   0.291  0.0160 -0.5266 -0.3255
 6351SOL    HW130512   0.906   0.463   0.366 -1.8724 -0.2650 -0.1111
 6351SOL    HW230513   0.910   0.462   0.216 -1.9407  0.8280 -1.5333
 6352SOL     OW30514   2.934   0.067   7.709  0.0340 -0.1228  0.1845
 6352SOL    HW130515   2.864   0.005   7.727 -0.1834  0.0903  0.0729
 6352SOL    HW230516   2.963   0.085   7.799  0.5642 -2.6167  0.4992
 6353SOL     OW30517   2.170   1.082   7.140 -0.5644 -0.7156 -0.0704
 6353SOL    HW130518   2.200   0.991   7.141  2.3485  0.2426 -0.6209
 6353SOL    HW230519   2.198   1.110   7.053  0.0067 -1.5876 -0.1607
 6354SOL     OW30520   2.691   1.909   0.328 -0.3015 -0.4002 -0.8602
 6354SOL    HW130521   2.721   1.846   0.263 -0.5396  0.9710 -2.3196
 6354SOL    HW230522   2.754   1.910   0.399 -1.7265 -0.3222  0.3974
 6355SOL     OW30523   3.210   3.714   7.540  0.1343 -0.2209 -0.4091
 6355SOL    HW130524   3.140   3.699   7.476 -0.6746  0.3614  0.3463
 6355SOL    HW230525   3.159   3.758   7.608 -0.0031 -1.0913  0.0574
 6356SOL     OW30526   3.555   3.152   4.251 -0.2397 -0.3305 -0.3700
 6356SOL    HW130527   3.504   3.163   4.171  1.0401  1.3836 -0.9351
 6356SOL    HW230528   3.616   3.089   4.212  1.7703  1.4943 -0.1220
 6357SOL     OW30529   2.132   3.907   8.691 -0.2516 -0.1919  0.7274
 6357SOL    HW130530   2.092   3.993   8.702  1.6242  0.5184  2.0524
 6357SOL    HW230531   2.061   3.846   8.673  1.2101 -1.8864  0.6355
 6358SOL     OW30532   3.868   0.449   6.579  0.3181  0.1178  0.0150
 6358SOL    HW130533   3.956   0.453   6.617 -0.4424 -2.3756  2.0768
 6358SOL    HW230534   3.810   0.451   6.656 -1.1393  0.6520 -1.0921
 6359SOL     OW30535   1.695   0.576   6.251  0.4845 -0.4063  0.0141
 6359SOL    HW130536   1.775   0.524   6.258  0.9610  0.7174  3.0906
 6359SOL    HW230537   1.713   0.620   6.168 -1.9702 -1.2458 -0.9531
 6360SOL     OW30538   0.865   0.338   8.516  0.0873 -0.1388 -0.3041
 6360SOL    HW130539   0.788   0.390   8.537  1.4727  1.0362  1.8039
 6360SOL    HW230540   0.875   0.354   8.422  0.9449 -0.1709 -0.2227
 6361SOL     OW30541   1.369   1.035   8.476 -0.2473  0.5234 -0.3723
 6361SOL    HW130542   1.397   1.097   8.543 -1.2709 -2.1251  2.5065
 6361SOL    HW230543   1.359   1.096   8.403  0.9244 -0.2818 -1.1945
 6362SOL     OW30544   1.627   4.688   6.480  0.0104  0.2432  0.1041
 6362SOL    HW130545   1.668   4.608   6.513  0.7942  0.1175 -1.2170
 6362SOL    HW230546   1.625   0.000   6.568 -1.9573 -0.7579  0.5230
 6363SOL     OW30547   1.314   4.538   7.331  0.0261  0.0541  0.8682
 6363SOL    HW130548   1.324   4.517   7.238 -1.5578  0.7557  0.5317
 6363SOL    HW230549   1.353   4.457   7.364  2.1120  1.2517  1.3399
 6364SOL     OW30550   3.712   3.655   1.836  0.0521  0.0810  0.4613
 6364SOL    HW130551   3.790   3.711   1.838 -0.5020  0.8281  1.4171
 6364SOL    HW230552   3.641   3.716   1.857 -0.4167  0.1710 -1.3783
 6365SOL     OW30553   1.261   0.661   4.718 -0.9493  0.1426 -0.2050
 6365SOL    HW130554   1.194   0.626   4.661  0.5966  0.1167 -2.0064
 6365SOL    HW230555   1.327   0.683   4.652 -1.2588 -0.9741 -0.8839
 6366SOL     OW30556   2.912   4.642   5.048 -0.6143 -0.1584 -0.4485
 6366SOL    HW130557   2.889   4.562   5.096 -1.5283  0.6140  0.3941
 6366SOL    HW230558   2.914   4.709   5.116  2.6599 -1.8898  1.2010
 6367SOL     OW30559   3.632   4.493   3.259 -0.1873 -0.1324 -0.2953
 6367SOL    HW130560   3.593   4.521   3.342  1.4663  2.9903 -0.5730
 6367SOL    HW230561   3.721   4.525   3.274 -1.1379  3.5608 -2.5283
 6368SOL     OW30562   0.222   1.746   8.145 -0.1451  0.2592  0.6369
 6368SOL    HW130563   0.184   1.678   8.089  1.3406  0.7239 -0.9285
 6368SOL    HW230564   0.226   1.723   8.237  1.0313 -1.3529  0.1769
 6369SOL     OW30565   1.662   1.648   0.905  0.3360  0.2936  0.1789
 6369SOL    HW130566   1.711   1.570   0.880 -0.5191  0.8002 -3.0323
 6369SOL    HW230567   1.736   1.679   0.958  0.0395  3.3947 -1.2228
 6370SOL     OW30568   1.079   4.404   4.681 -0.0980 -0.3022 -0.4109
 6370SOL    HW130569   1.078   4.466   4.607  1.9763 -1.1539 -1.1409
 6370SOL    HW230570   0.989   4.388   4.708 -0.1708  0.1603 -0.3744
 6371SOL     OW30571   4.541   0.473   6.362 -0.2916 -0.1411  0.5205
 6371SOL    HW130572   4.587   0.429   6.290 -0.5899  2.5448 -1.2762
 6371SOL    HW230573   4.607   0.523   6.411 -0.8357 -0.2317  1.3435
 6372SOL     OW30574   3.382   3.251   2.302 -0.3849 -0.9137 -0.1463
 6372SOL    HW130575   3.316   3.283   2.240  0.6501  1.9260  0.1958
 6372SOL    HW230576   3.436   3.330   2.295 -1.2382 -0.3593 -0.4737
 6373SOL     OW30577   4.396   2.371   8.096  0.1401  0.0430 -0.1996
 6373SOL    HW130578   4.379   2.370   8.002  1.1916 -1.1824 -0.3828
 6373SOL    HW230579   4.426   2.461   8.110  0.1779  0.2330 -1.5781
 6374SOL     OW30580   1.558   2.168   1.241 -0.5565  0.3486 -0.2234
 6374SOL    HW130581   1.602   2.190   1.159  2.5275 -3.9608  0.2768
 6374SOL    HW230582   1.468   2.192   1.216 -0.1506  0.7408 -1.2878
 6375SOL     OW30583   0.278   2.163  16.546  0.2884 -0.7326 -0.0042
 6375SOL    HW130584   0.194   2.203  16.569 -0.2812 -1.7369 -0.3399
 6375SOL    HW230585   0.272   2.080  16.594 -0.3091 -0.8145 -0.2308
 6376SOL     OW30586   2.397   0.095   2.537  0.1717 -0.2285 -0.3236
 6376SOL    HW130587   2.320   0.041   2.518 -0.6623  0.5662  0.8113
 6376SOL    HW230588   2.371   0.147   2.613  0.3538 -1.4380  0.5720
 6377SOL     OW30589   2.678   4.440   8.000 -0.8159  0.2827 -0.5307
 6377SOL    HW130590   2.754   4.403   8.043 -0.7169 -0.7770 -1.6356
 6377SOL    HW230591   2.621   4.363   7.993 -1.7832  0.7917  1.7952
 6378SOL     OW30592   2.321   3.193  11.959 -0.2471 -0.5815  0.5055
 6378SOL    HW130593   2.394   3.214  11.900 -1.4673 -0.8623 -1.1069
 6378SOL    HW230594   2.367   3.184  12.042 -0.1853 -1.4293  0.3810
 6379SOL     OW30595   3.551   1.468   7.473  0.6841  0.6296  0.2266
 6379SOL    HW130596   3.484   1.504   7.530  0.0267  2.1220 -1.4842
 6379SOL    HW230597   3.528   1.378   7.498  1.9164  0.3907  0.4757
 6380SOL     OW30598   1.843   2.595   8.040 -0.2726  0.8083  0.0389
 6380SOL    HW130599   1.792   2.529   8.087 -1.1952  0.9815 -0.7013
 6380SOL    HW230600   1.770   2.655   8.026 -0.3472  0.1019 -2.7095
 6381SOL     OW30601   3.828   1.391   3.730 -0.0992 -0.2161  0.0074
 6381SOL    HW130602   3.877   1.308   3.730  1.4752  0.7188 -0.4920
 6381SOL    HW230603   3.753   1.377   3.672 -0.5165  0.1342  0.4636
 6382SOL     OW30604   4.169   1.676   1.752 -0.4764  0.3734 -0.1651
 6382SOL    HW130605   4.092   1.656   1.806 -2.3256  2.1877 -2.1417
 6382SOL    HW230606   4.147   1.765   1.724 -2.6303  0.7222  2.5469
 6383SOL     OW30607   3.031   3.832   0.646  0.4186  0.2120 -0.0346
 6383SOL    HW130608   2.976   3.770   0.598 -1.0369  0.5287  1.2411
 6383SOL    HW230609   2.989   3.829   0.732  1.4515  0.1906  0.4741
 6384SOL     OW30610   2.644   4.373   7.389 -0.1141 -0.5825 -0.2339
 6384SOL    HW130611   2.567   4.376   7.446  0.2661  2.4733  0.1268
 6384SOL    HW230612   2.680   4.290   7.419 -0.5904 -1.5609 -2.3933
 6385SOL     OW30613   4.675   4.473   9.236  0.0744  0.0240  0.1222
 6385SOL    HW130614   0.031   4.440   9.203 -0.3639  2.1868 -3.0562
 6385SOL    HW230615   4.654   4.394   9.286  0.1635 -0.5250 -0.7123
 6386SOL     OW30616   4.192   3.036   7.480  0.2253 -0.0752 -0.2793
 6386SOL    HW130617   4.137   2.960   7.464  0.6081 -0.2830 -0.5758
 6386SOL    HW230618   4.253   3.028   7.408 -0.9644  0.8255 -1.3971
 6387SOL     OW30619   1.151   2.112   2.452  0.3709 -0.3320 -0.3291
 6387SOL    HW130620   1.208   2.076   2.521  0.3021 -1.2693 -0.7645
 6387SOL    HW230621   1.209   2.173   2.407 -1.5109  1.4660 -0.2941
 6388SOL     OW30622   1.856   2.942   9.493  0.1409  0.3539  0.5175
 6388SOL    HW130623   1.950   2.960   9.482  0.0014  1.8246  1.6293
 6388SOL    HW230624   1.826   2.913   9.408 -0.8021 -0.5924  1.1820
 6389SOL     OW30625   1.419   3.266   4.487  0.2998  0.3153  0.1965
 6389SOL    HW130626   1.462   3.234   4.566  1.4699 -1.4587 -1.1624
 6389SOL    HW230627   1.371   3.187   4.463  0.9562 -0.3817  1.1845
 6390SOL     OW30628   2.107   1.518   7.896 -0.1839  0.3407  0.2777
 6390SOL    HW130629   2.173   1.583   7.919  0.3257 -0.9054  2.3428
 6390SOL    HW230630   2.137   1.433   7.928 -0.3422  1.2875  2.9353
 6391SOL     OW30631   1.185   3.620   3.791 -0.5081  0.7338 -0.0405
 6391SOL    HW130632   1.164   3.713   3.786 -1.0209  0.4495 -2.9268
 6391SOL    HW230633   1.279   3.622   3.811 -0.7141 -0.8866  1.1516
 6392SOL     OW30634   1.110   0.116   4.220 -0.2136 -0.0784  0.1585
 6392SOL    HW130635   1.176   0.181   4.197  0.0211  0.4435  2.3284
 6392SOL    HW230636   1.093   0.137   4.312  2.7589  1.3067  0.3735
 6393SOL     OW30637   1.564   2.913   7.539  0.0486 -0.1983  0.2437
 6393SOL    HW130638   1.606   2.968   7.473  2.3846 -1.0453  1.0306
 6393SOL    HW230639   1.631   2.917   7.607  0.5983 -3.4258 -0.1141
 6394SOL     OW30640   1.981   4.152   4.916 -0.6475 -0.2598  0.1961
 6394SOL    HW130641   1.946   4.137   4.829 -0.0629 -0.5191  0.0062
 6394SOL    HW230642   2.074   4.129   4.915 -0.1573  1.6713  0.6475
 6395SOL     OW30643   2.514   2.961   7.072 -0.6246  0.0995 -0.3021
 6395SOL    HW130644   2.591   2.959   7.016  0.1086 -0.9973  0.7458
 6395SOL    HW230645   2.459   2.886   7.048  2.0504 -2.2030  0.7895
 6396SOL     OW30646   3.903   4.325   0.348  0.1374  0.5819 -0.1893
 6396SOL    HW130647   3.925   4.410   0.308 -0.8226  0.8926 -0.0513
 6396SOL    HW230648   3.988   4.284   0.334 -0.3148 -0.9154  1.5056
 6397SOL     OW30649   2.401   0.734   9.534  0.5510  0.0176 -0.7934
 6397SOL    HW130650   2.325   0.688   9.570 -1.0436  2.8343 -0.5950
 6397SOL    HW230651   2.458   0.719   9.610  0.9791  0.9247 -0.9448
 6398SOL     OW30652   4.658   3.226   2.544 -0.2407  0.6249 -0.2599
 6398SOL    HW130653   4.654   3.150   2.486 -2.4861  2.1566 -2.1118
 6398SOL    HW230654   0.022   3.252   2.549  0.4026 -2.1719  2.2084
 6399SOL     OW30655   2.623   1.106   5.123 -0.3207  1.0075 -0.5689
 6399SOL    HW130656   2.665   1.163   5.187  0.1520 -1.2360  1.0984
 6399SOL    HW230657   2.680   1.029   5.131  0.2453  1.5270  0.3645
 6400SOL     OW30658   1.522   1.009   6.782  0.1467  0.0186 -0.0605
 6400SOL    HW130659   1.546   1.092   6.822 -0.3721  1.0842 -1.9428
 6400SOL    HW230660   1.535   0.951   6.856  0.3648  0.5794  0.3391
 6401SOL     OW30661   1.678   4.297   4.445 -0.0552 -0.3847  0.0760
 6401SOL    HW130662   1.613   4.304   4.375 -0.3970  1.2051  0.5487
 6401SOL    HW230663   1.638   4.342   4.520 -3.5718  0.0305 -2.0577
 6402SOL     OW30664   1.664   4.314  13.035  0.0082  0.5439  0.1360
 6402SOL    HW130665   1.681   4.247  12.968  2.7401  1.6819 -0.2705
 6402SOL    HW230666   1.568   4.313  13.034  0.0056  0.6066  0.4325
 6403SOL     OW30667   1.464   3.041  14.361 -0.7905  0.3702  0.0202
 6403SOL    HW130668   1.443   3.079  14.275  2.1150  0.0956 -0.8094
 6403SOL    HW230669   1.433   3.120  14.407 -1.3508  0.2852 -0.2075
 6404SOL     OW30670   3.752   2.553   8.290 -0.0862 -0.1850  0.3172
 6404SOL    HW130671   3.690   2.626   8.279  0.6170  0.2345 -0.7669
 6404SOL    HW230672   3.693   2.487   8.326 -1.2442  1.3924  1.3709
 6405SOL     OW30673   3.461   3.324   7.463  0.0899  0.1796 -0.3384
 6405SOL    HW130674   3.483   3.240   7.422  1.1859  0.7000 -0.8167
 6405SOL    HW230675   3.549   3.358   7.480 -0.0657 -0.1236  1.0909
 6406SOL     OW30676   2.694   4.463   9.142 -0.0969  0.1808  0.2845
 6406SOL    HW130677   2.716   4.556   9.137 -0.3312  0.2502  0.5787
 6406SOL    HW230678   2.745   4.423   9.071 -0.8301  0.2341 -0.2734
 6407SOL     OW30679   4.152   2.800   3.288  0.0320 -0.5939 -0.0604
 6407SOL    HW130680   4.140   2.833   3.377  1.7588 -0.8523  0.2739
 6407SOL    HW230681   4.182   2.711   3.307  1.5370 -0.0608  0.0399
 6408SOL     OW30682   2.969   4.671   8.397 -0.6799  0.3071 -0.1783
 6408SOL    HW130683   2.919   4.680   8.317 -0.2271 -0.3910 -0.5360
 6408SOL    HW230684   2.967   0.031   8.437 -1.4474  1.3245 -2.4339
 6409SOL     OW30685   0.117   0.105  13.333 -0.6697  0.6741  0.1893
 6409SOL    HW130686   0.045   0.097  13.270 -0.0747  1.8067 -0.6155
 6409SOL    HW230687   0.094   0.028  13.385  1.9945 -1.4886 -1.8991
 6410SOL     OW30688   2.725   3.678  14.341  0.4601  0.1078 -0.1404
 6410SOL    HW130689   2.726   3.584  14.320 -1.8507  0.0431  0.0473
 6410SOL    HW230690   2.644   3.705  14.298 -0.3120 -0.0874  1.2056
 6411SOL     OW30691   3.756   1.026   7.629 -0.8879  0.4184 -0.3468
 6411SOL    HW130692   3.846   1.014   7.661 -1.2195  1.6791  1.0067
 6411SOL    HW230693   3.763   0.984   7.543 -1.4661  2.4475 -1.3841
 6412SOL     OW30694   3.786   0.680   7.269 -0.6808  0.1364 -0.5290
 6412SOL    HW130695   3.744   0.596   7.252 -0.4924  0.0514 -0.5713
 6412SOL    HW230696   3.780   0.721   7.183 -0.8098 -0.7692 -0.9550
 6413SOL     OW30697   1.400   3.712  10.121 -0.0455  0.4922  0.3445
 6413SOL    HW130698   1.448   3.793  10.104  2.3268 -1.2200 -1.1296
 6413SOL    HW230699   1.363   3.724  10.208  0.1775  2.0778  0.2254
 6414SOL     OW30700   2.373   4.403  13.234 -0.1009 -0.1989 -0.3103
 6414SOL    HW130701   2.422   4.332  13.192  1.5910  1.2232 -0.7447
 6414SOL    HW230702   2.292   4.365  13.268 -1.4343  2.0726 -0.9718
 6415SOL     OW30703   1.424   1.960   9.144 -0.7933 -0.1535  0.1904
 6415SOL    HW130704   1.504   1.977   9.096 -1.1026  2.5218  0.6324
 6415SOL    HW230705   1.456   1.906   9.216  0.7049  0.0406 -0.3434
 6416SOL     OW30706   3.991   0.911   1.617  0.6429  0.0432  0.4512
 6416SOL    HW130707   3.932   0.837   1.633 -0.7603  1.0518  0.0112
 6416SOL    HW230708   3.953   0.975   1.677 -1.6206 -0.0018 -0.8886
 6417SOL     OW30709   2.851   4.346   5.133 -0.1766  0.9023  0.1844
 6417SOL    HW130710   2.830   4.302   5.051  0.7739 -0.6134  0.7653
 6417SOL    HW230711   2.942   4.322   5.151  0.4172  0.1764 -3.9236
 6418SOL     OW30712   2.978   3.578   3.415  0.8233 -0.5831 -0.5780
 6418SOL    HW130713   3.041   3.563   3.345 -0.0350 -0.4203 -1.3915
 6418SOL    HW230714   2.987   3.491   3.454 -0.7741 -0.2327  0.6215
 6419SOL     OW30715   0.863   4.459   7.782  0.1762  0.2859  0.3217
 6419SOL    HW130716   0.775   4.469   7.745  0.0208  2.7569  1.3642
 6419SOL    HW230717   0.871   4.517   7.858  0.4604  0.6933 -0.0266
 6420SOL     OW30718   1.787   2.174   4.480  0.7699  0.6124  0.3526
 6420SOL    HW130719   1.831   2.164   4.564  0.0655 -0.5789  0.5710
 6420SOL    HW230720   1.858   2.209   4.426  0.2390  0.5230 -0.4124
 6421SOL     OW30721   4.334   4.398   7.430 -0.3474 -0.4910  0.0346
 6421SOL    HW130722   4.365   4.489   7.425 -0.3341 -0.4906  0.1244
 6421SOL    HW230723   4.375   4.373   7.512  0.7581  1.0756 -0.0365
 6422SOL     OW30724   1.287   4.326  17.506 -0.3305 -0.4701 -0.2058
 6422SOL    HW130725   1.258   4.242  17.541 -1.7098  0.4710  0.9117
 6422SOL    HW230726   1.364   4.310  17.451 -0.8292 -1.0038 -0.7422
 6423SOL     OW30727   3.124   2.386   9.891  0.0168  0.2170  0.0238
 6423SOL    HW130728   3.154   2.303   9.853 -2.1775 -1.8343  2.7650
 6423SOL    HW230729   3.092   2.364   9.979 -1.3251  0.4565 -0.3981
 6424SOL     OW30730   0.958   1.599   3.923 -0.1140  0.7483  0.6140
 6424SOL    HW130731   0.961   1.629   4.014  1.8229 -2.1290  1.4751
 6424SOL    HW230732   1.044   1.558   3.919 -0.6212 -0.3049  0.4986
 6425SOL     OW30733   2.135   1.271   1.544  0.0516 -0.0311 -0.0606
 6425SOL    HW130734   2.061   1.260   1.485  0.1853  2.2824 -0.6568
 6425SOL    HW230735   2.180   1.186   1.538 -0.3738 -0.0173 -3.3043
 6426SOL     OW30736   3.664   0.658   6.398 -0.1949 -0.2970 -0.0123
 6426SOL    HW130737   3.597   0.605   6.354 -0.9430  0.8366 -0.2317
 6426SOL    HW230738   3.612   0.700   6.466 -2.1216 -1.1602 -0.9491
 6427SOL     OW30739   2.775   4.531   9.661  0.3685  0.1722 -0.4164
 6427SOL    HW130740   2.718   4.457   9.641  2.8506 -2.0148  0.5727
 6427SOL    HW230741   2.826   4.500   9.736 -0.4351 -1.6919 -0.6453
 6428SOL     OW30742   2.579   3.240   7.642  0.4129  0.3827  0.3992
 6428SOL    HW130743   2.587   3.284   7.727 -1.0838  1.2248  0.1093
 6428SOL    HW230744   2.549   3.311   7.585 -0.4613  0.6304  1.1778
 6429SOL     OW30745   2.935   3.202  17.640 -0.2108  0.0098  0.6337
 6429SOL    HW130746   2.984   3.278  17.608  0.3620 -0.1538  1.1271
 6429SOL    HW230747   3.009   3.150  17.672  0.8218  1.6275  0.8227
 6430SOL     OW30748   1.019   1.156   3.143 -0.9985 -0.0320 -0.2037
 6430SOL    HW130749   1.098   1.158   3.088 -0.0047  0.5993  1.2703
 6430SOL    HW230750   1.002   1.062   3.137 -0.4312 -0.2416  1.7024
 6431SOL     OW30751   2.934   0.046   9.743  0.1489 -0.2782 -0.3771
 6431SOL    HW130752   2.875   4.700   9.729 -0.1505  0.3030 -2.1555
 6431SOL    HW230753   2.934   0.058   9.838  0.2994 -2.8823 -0.0569
 6432SOL     OW30754   3.275   1.634   6.307  0.1919  0.1701 -0.4497
 6432SOL    HW130755   3.260   1.559   6.249  0.9904 -0.2233 -0.1484
 6432SOL    HW230756   3.368   1.654   6.303  0.5024 -1.4559 -1.1903
 6433SOL     OW30757   1.486   4.530  10.601  0.0890 -0.0531 -0.1944
 6433SOL    HW130758   1.429   4.586  10.549 -1.3666 -0.3126  1.1517
 6433SOL    HW230759   1.499   4.581  10.681  1.5902 -0.0898 -0.4133
 6434SOL     OW30760   2.158   2.021   6.315 -0.6427  0.5494  0.4146
 6434SOL    HW130761   2.123   1.941   6.356  1.6120 -0.3864  0.5402
 6434SOL    HW230762   2.232   2.033   6.375  0.1735 -3.2477  0.1701
 6435SOL     OW30763   2.083   1.563   9.618 -0.1929  0.2224 -0.1957
 6435SOL    HW130764   2.161   1.562   9.562 -1.3222 -0.8427 -1.7104
 6435SOL    HW230765   2.025   1.620   9.568  0.5820  0.1040 -1.2247
 6436SOL     OW30766   4.659   1.851  15.890 -0.9490  0.0607 -0.2113
 6436SOL    HW130767   0.027   1.857  15.892 -0.8515 -1.7803  0.8545
 6436SOL    HW230768   4.623   1.940  15.888  1.4227  1.0577  1.1858
 6437SOL     OW30769   4.329   4.506   2.639 -0.2704  0.3409 -0.1645
 6437SOL    HW130770   4.422   4.529   2.627  0.3702 -1.6933  0.9962
 6437SOL    HW230771   4.307   4.498   2.546 -0.8964  1.2111 -0.0956
 6438SOL     OW30772   0.060   4.540   8.186  0.1444 -0.2777  0.1469
 6438SOL    HW130773   0.144   4.584   8.173 -0.8494  0.8507 -2.6079
 6438SOL    HW230774   0.047   4.569   8.276  0.8371  0.1500  0.1090
 6439SOL     OW30775   4.436   1.900   6.477  0.0788  0.5662  0.6413
 6439SOL    HW130776   4.417   1.984   6.519 -2.1608  0.0858  0.5653
 6439SOL    HW230777   4.368   1.910   6.410  1.2241  2.0291 -0.3163
 6440SOL     OW30778   2.304   1.553  12.439  0.2460 -0.1720  0.4951
 6440SOL    HW130779   2.229   1.610  12.451  1.0183  0.3263  2.9296
 6440SOL    HW230780   2.282   1.537  12.347  1.2073  0.0610  0.2202
 6441SOL     OW30781   2.901   4.671  14.255 -0.7583  0.5822  0.4050
 6441SOL    HW130782   2.961   4.676  14.330 -2.2277 -3.0952  1.8008
 6441SOL    HW230783   2.862   4.585  14.264  1.7823 -0.4888  1.2945
 6442SOL     OW30784   3.830   4.677  15.917 -0.0447 -0.0530 -0.0333
 6442SOL    HW130785   3.913   4.703  15.877  0.2808  1.3885  1.5565
 6442SOL    HW230786   3.767   0.017  15.891 -1.6329 -1.6952 -0.4422
 6443SOL     OW30787   2.430   4.205   3.837  0.3333  0.1381  0.1245
 6443SOL    HW130788   2.431   4.140   3.907  0.5028  0.2274  0.2065
 6443SOL    HW230789   2.437   4.144   3.763  1.5817 -1.2151  1.3660
 6444SOL     OW30790   1.546   3.473  10.105  0.0746 -0.1497  0.1776
 6444SOL    HW130791   1.461   3.430  10.118  0.9433 -0.9876  3.1558
 6444SOL    HW230792   1.517   3.563  10.089  2.2105  0.3177 -0.9518
 6445SOL     OW30793   1.697   1.849   5.148 -0.6505  0.6333 -0.4320
 6445SOL    HW130794   1.620   1.845   5.091  0.1974 -3.0335 -1.3247
 6445SOL    HW230795   1.747   1.927   5.120  2.3453  0.0984  3.5271
 6446SOL     OW30796   3.835   2.271   0.845 -0.0973 -0.1154  0.6420
 6446SOL    HW130797   3.887   2.351   0.855 -0.7394  0.0222  2.9985
 6446SOL    HW230798   3.763   2.301   0.789  1.0030 -0.5115 -0.9692
 6447SOL     OW30799   3.755   3.483   3.637  0.0981 -0.1598 -0.2420
 6447SOL    HW130800   3.803   3.485   3.720  0.9608  3.0065 -0.8230
 6447SOL    HW230801   3.685   3.545   3.660  1.2797  0.4492  1.6903
 6448SOL     OW30802   3.938   0.780   3.028  0.5891 -0.0506 -0.0317
 6448SOL    HW130803   3.983   0.852   2.983 -1.4616  2.3747  1.8205
 6448SOL    HW230804   3.864   0.761   2.970  0.4749  0.8099 -0.1724
 6449SOL     OW30805   4.277   4.302  12.112  0.0709  0.8481 -0.1725
 6449SOL    HW130806   4.196   4.291  12.061  0.7904  0.0919 -1.1738
 6449SOL    HW230807   4.335   4.328  12.041 -0.9750  1.9860 -0.6138
 6450SOL     OW30808   2.248   0.844   9.157 -0.0852  0.3885 -0.0163
 6450SOL    HW130809   2.309   0.771   9.151 -1.1306 -0.4977  0.0447
 6450SOL    HW230810   2.200   0.829   9.239  2.6289  1.2379  1.7405
 6451SOL     OW30811   0.974   2.112   8.407  0.2599 -0.0143  0.4401
 6451SOL    HW130812   0.980   2.207   8.403 -1.0613  0.0926  1.0813
 6451SOL    HW230813   0.975   2.089   8.500 -0.6717  1.7543  0.8805
 6452SOL     OW30814   3.680   3.728  12.866  0.5765 -0.1663  0.1567
 6452SOL    HW130815   3.613   3.735  12.934 -0.5497  1.7701 -1.1530
 6452SOL    HW230816   3.623   3.747  12.791  0.7739 -1.9754 -0.4383
 6453SOL     OW30817   1.733   4.104  10.176 -0.0860 -0.6469 -0.4366
 6453SOL    HW130818   1.802   4.170  10.168  2.3152 -3.0429  0.3555
 6453SOL    HW230819   1.763   4.053  10.252  1.4487  0.3628 -0.3524
 6454SOL     OW30820   4.593   3.514   1.764  0.0540  0.1304  0.4788
 6454SOL    HW130821   4.667   3.504   1.705  0.1010  0.6680  0.4429
 6454SOL    HW230822   4.551   3.592   1.728  0.0459 -0.3781 -0.6099
 6455SOL     OW30823   2.755   1.511   8.702  0.1686  0.4334  0.2191
 6455SOL    HW130824   2.819   1.461   8.650 -0.8678  0.1723 -0.7978
 6455SOL    HW230825   2.796   1.596   8.718  2.0007  0.0977 -2.6300
 6456SOL     OW30826   0.798   2.848   7.113  0.0271  0.0451  0.1458
 6456SOL    HW130827   0.756   2.932   7.095  0.1406 -0.3734 -2.0977
 6456SOL    HW230828   0.773   2.837   7.205 -0.2439  1.9112  0.2989
 6457SOL     OW30829   2.364   2.840  10.301 -0.4906  0.0262 -0.3555
 6457SOL    HW130830   2.359   2.933  10.278 -3.3391  0.4190  1.8357
 6457SOL    HW230831   2.330   2.840  10.391  0.3478 -3.0568 -0.0547
 6458SOL     OW30832   3.801   4.389   4.410 -0.2710 -0.2089  0.3447
 6458SOL    HW130833   3.776   4.316   4.354 -0.1829 -2.1144  2.8279
 6458SOL    HW230834   3.815   4.347   4.494  0.3020  2.1568  1.4482
 6459SOL     OW30835   4.434   1.420   6.743  0.1016 -1.2999  0.3317
 6459SOL    HW130836   4.456   1.337   6.702  0.5358 -2.2553  2.5500
 6459SOL    HW230837   4.525   1.449   6.753  0.3238 -1.0664 -2.2931
 6460SOL     OW30838   1.933   1.524   2.328  0.1988 -0.0411  0.0974
 6460SOL    HW130839   1.891   1.584   2.266  0.7438  0.7811  0.5125
 6460SOL    HW230840   1.857   1.473   2.356 -0.8977 -0.1016 -3.0303
 6461SOL     OW30841   2.863   4.258   9.022 -0.2293  0.6010  0.1572
 6461SOL    HW130842   2.867   4.167   8.994 -0.2411  0.3466  0.9973
 6461SOL    HW230843   2.907   4.248   9.106 -0.2365 -0.2325  0.0596
 6462SOL     OW30844   2.815   2.650   3.288  0.1324  0.4623 -0.3102
 6462SOL    HW130845   2.866   2.575   3.318 -0.4848  0.0347 -0.3544
 6462SOL    HW230846   2.802   2.621   3.198 -1.5022  1.2815 -0.3302
 6463SOL     OW30847   3.824   0.439   6.968  0.0485  0.4269 -0.3197
 6463SOL    HW130848   3.788   0.383   6.899  2.7204 -1.6950  0.0154
 6463SOL    HW230849   3.743   0.455   7.017  0.6442  0.8535  0.5220
 6464SOL     OW30850   1.277   2.293   2.728  0.3584 -0.0266 -0.2197
 6464SOL    HW130851   1.342   2.299   2.659  2.3122  1.7481  1.7901
 6464SOL    HW230852   1.303   2.359   2.792  1.5308 -0.2443 -0.4721
 6465SOL     OW30853   0.370   3.518   6.072  0.0040  0.7694  0.2030
 6465SOL    HW130854   0.404   3.606   6.061 -1.3383  1.3818  0.9367
 6465SOL    HW230855   0.446   3.460   6.069 -0.9280 -0.5113  1.0703
 6466SOL     OW30856   4.112   3.205   2.866 -0.0466  0.1146  0.4255
 6466SOL    HW130857   4.169   3.282   2.867  0.5769 -0.3455  0.3580
 6466SOL    HW230858   4.180   3.138   2.855 -1.3806 -1.6070  2.6285
 6467SOL     OW30859   3.174   2.166   0.565 -0.5781 -0.3480  0.1905
 6467SOL    HW130860   3.167   2.177   0.659  1.3657 -2.0399  0.5293
 6467SOL    HW230861   3.269   2.155   0.557 -0.6950 -0.0655 -1.7332
 6468SOL     OW30862   2.596   2.769   8.249 -0.2991  0.4584  0.0019
 6468SOL    HW130863   2.670   2.828   8.234  1.0475 -1.2348  0.0487
 6468SOL    HW230864   2.584   2.718   8.169 -1.5914 -2.1271  1.8571
 6469SOL     OW30865   0.983   3.575   4.843  0.3746 -0.5659 -0.1594
 6469SOL    HW130866   1.036   3.581   4.764  1.2008  0.7963  0.5002
 6469SOL    HW230867   0.909   3.523   4.812  0.5556  2.0433 -4.9065
 6470SOL     OW30868   1.874   3.679  13.021 -0.1528 -0.1770 -0.3648
 6470SOL    HW130869   1.814   3.711  12.953 -0.7105  1.9260  1.1048
 6470SOL    HW230870   1.896   3.588  13.003  0.2753  0.1325 -1.4268
 6471SOL     OW30871   4.414   4.075   6.094  0.2015 -0.3707  0.2572
 6471SOL    HW130872   4.487   4.137   6.100 -1.1027  1.2892 -0.8826
 6471SOL    HW230873   4.453   3.992   6.068  2.0236  0.5649 -0.0189
 6472SOL     OW30874   1.249   1.108   4.152 -0.1221  0.0937 -0.7682
 6472SOL    HW130875   1.194   1.067   4.219  1.9286 -0.0465  0.8638
 6472SOL    HW230876   1.273   1.182   4.207 -1.5651  0.9934 -1.3725
 6473SOL     OW30877   0.589   2.019  14.734  0.6973  0.0972 -0.0658
 6473SOL    HW130878   0.623   2.010  14.645 -1.1541 -1.4250 -0.6230
 6473SOL    HW230879   0.560   2.111  14.732 -1.0674 -0.4909 -1.1935
 6474SOL     OW30880   2.269   3.905   2.135  0.5072  0.2686 -0.1373
 6474SOL    HW130881   2.275   3.819   2.096  3.4407  0.1775  0.5153
 6474SOL    HW230882   2.363   3.916   2.147  0.4900 -0.6381  0.8316
 6475SOL     OW30883   4.003   1.175  15.959  0.4461 -0.2465 -0.5405
 6475SOL    HW130884   3.908   1.167  15.972  0.5978  1.7517  1.7531
 6475SOL    HW230885   4.024   1.169  16.052  1.6618  3.9280 -0.5215
 6476SOL     OW30886   4.542   3.667   6.272 -0.0069  0.6351 -0.2860
 6476SOL    HW130887   4.461   3.666   6.322  0.4861 -2.8434  0.4389
 6476SOL    HW230888   4.601   3.629   6.338  0.7588 -0.4517 -1.6027
 6477SOL     OW30889   3.972   1.098  16.689  0.1854  0.2156  0.1685
 6477SOL    HW130890   4.005   1.019  16.733 -1.0507  0.5222  1.6325
 6477SOL    HW230891   3.880   1.069  16.686  0.2191 -0.0192  1.8817
 6478SOL     OW30892   0.011   1.508  13.822 -0.2634  0.2091 -0.2146
 6478SOL    HW130893   0.070   1.582  13.807 -0.5465  0.6315  0.7357
 6478SOL    HW230894   4.685   1.534  13.898 -0.7824 -2.5692  0.3917
 6479SOL     OW30895   2.880   0.561  10.491  0.8057  0.2151  0.1422
 6479SOL    HW130896   2.895   0.633  10.552  0.6641  0.2855  0.0947
 6479SOL    HW230897   2.803   0.594  10.444  1.3625  1.7959  0.3690
 6480SOL     OW30898   4.700   2.075   4.552  0.1574 -0.5208  0.0496
 6480SOL    HW130899   4.643   2.122   4.492  0.3633  0.3225  0.5067
 6480SOL    HW230900   0.042   2.042   4.495  0.1904 -0.0291 -0.1942
 6481SOL     OW30901   1.844   2.114  12.013  0.1713  0.3813 -0.1961
 6481SOL    HW130902   1.835   2.114  12.109  1.5282  0.5276 -0.0744
 6481SOL    HW230903   1.755   2.133  11.982  0.0078 -0.5456 -0.3016
 6482SOL     OW30904   0.058   1.339   7.117  0.5769  0.2302  0.0790
 6482SOL    HW130905   0.061   1.426   7.076  2.6932  0.2092  0.2097
 6482SOL    HW230906   0.025   1.285   7.045 -0.5459 -1.7502  2.0936
 6483SOL     OW30907   0.530   1.962   5.615 -0.2799 -0.0903  0.2347
 6483SOL    HW130908   0.480   1.881   5.610  1.1584 -0.9507 -0.4376
 6483SOL    HW230909   0.615   1.932   5.648 -0.2108  0.0015  0.1397
 6484SOL     OW30910   0.795   1.024   9.916 -0.0294  0.3483 -0.0666
 6484SOL    HW130911   0.861   0.958   9.893 -0.5457 -0.2813  0.2638
 6484SOL    HW230912   0.849   1.091   9.959 -0.9242  0.5219  0.7769
 6485SOL     OW30913   1.102   4.315   8.382  0.3556 -0.2795 -0.0817
 6485SOL    HW130914   1.178   4.315   8.325  1.9902 -1.7585  2.0629
 6485SOL    HW230915   1.127   4.385   8.443  1.9362  0.4975 -1.6272
 6486SOL     OW30916   1.037   2.672   9.540 -0.3953  0.3627  0.0629
 6486SOL    HW130917   1.121   2.627   9.536 -2.0358 -2.6462 -0.2511
 6486SOL    HW230918   1.011   2.694   9.451  1.2465 -1.0269 -0.7465
 6487SOL     OW30919   4.561   3.212   8.340 -0.1585  0.5492 -0.1542
 6487SOL    HW130920   4.495   3.278   8.361 -1.4946 -0.1612 -2.1513
 6487SOL    HW230921   4.513   3.131   8.328 -0.0332  0.6059 -1.0897
 6488SOL     OW30922   3.948   3.169   7.579  0.5349  0.1829  0.1467
 6488SOL    HW130923   4.000   3.242   7.612 -3.6533  1.7685  3.2159
 6488SOL    HW230924   4.022   3.117   7.548 -0.2845  0.2293 -1.9122
 6489SOL     OW30925   3.004   3.426  17.494  0.0496  0.2339  0.2982
 6489SOL    HW130926   2.942   3.447  17.425  0.2817 -1.4059 -0.3972
 6489SOL    HW230927   2.982   3.496  17.555 -0.2351  0.7711 -0.4183
 6490SOL     OW30928   1.221   1.474  11.254  0.0849 -0.4557  0.2453
 6490SOL    HW130929   1.193   1.551  11.304 -1.8857 -1.6888  1.0634
 6490SOL    HW230930   1.150   1.464  11.191  0.5591  0.2261 -0.4016
 6491SOL     OW30931   2.822   0.856  10.115  0.3033 -0.4419  0.6204
 6491SOL    HW130932   2.783   0.812  10.190 -1.3322  0.2390  0.1779
 6491SOL    HW230933   2.913   0.828  10.122  0.2650 -0.5733  0.6087
 6492SOL     OW30934   2.377   4.436  12.592  0.1884 -0.5246  0.0341
 6492SOL    HW130935   2.302   4.377  12.590  0.5155 -0.9708  1.0542
 6492SOL    HW230936   2.443   4.381  12.635  1.1007  2.2157  2.1512
 6493SOL     OW30937   1.617   3.838   5.813  0.2791  0.0732  0.2318
 6493SOL    HW130938   1.653   3.755   5.782 -1.5239  0.0556 -1.7384
 6493SOL    HW230939   1.611   3.885   5.730 -0.2760  0.4544  0.4930
 6494SOL     OW30940   0.072   3.487   6.952  0.0953  0.0342  0.0419
 6494SOL    HW130941   0.014   3.550   6.997 -1.8618 -0.9941 -1.0359
 6494SOL    HW230942   0.089   3.538   6.873 -0.1071  0.5933  0.3507
 6495SOL     OW30943   0.419   0.569   5.184  0.3975 -0.0403  0.1225
 6495SOL    HW130944   0.480   0.581   5.257 -1.0082 -1.8234  1.5966
 6495SOL    HW230945   0.448   0.488   5.143 -0.0026  0.4602 -1.1298
 6496SOL     OW30946   3.340   3.452   8.513  0.3608  0.3635  0.4924
 6496SOL    HW130947   3.407   3.505   8.556  0.8277  0.0441  0.1673
 6496SOL    HW230948   3.314   3.389   8.580  2.5950  0.0178  1.0472
 6497SOL     OW30949   1.910   0.447   9.961  0.8155 -0.2740 -0.8798
 6497SOL    HW130950   1.827   0.447   9.913  1.2325  1.0272 -1.5924
 6497SOL    HW230951   1.945   0.526   9.919  1.4448  0.2857  0.7036
 6498SOL     OW30952   3.158   2.761  10.345 -0.0563 -0.1976  0.3390
 6498SOL    HW130953   3.136   2.790  10.434  0.1919  2.2428 -0.3781
 6498SOL    HW230954   3.110   2.819  10.286 -0.0641 -1.1485 -0.5893
 6499SOL     OW30955   2.384   2.153  12.534 -0.0249 -0.1106 -0.5992
 6499SOL    HW130956   2.290   2.140  12.536 -0.1428  0.4391 -2.7458
 6499SOL    HW230957   2.405   2.094  12.461  1.1909 -1.5845  0.9165
 6500SOL     OW30958   4.645   3.273   4.835 -0.0749 -0.5385  0.4998
 6500SOL    HW130959   4.609   3.215   4.903 -0.9670 -2.0583 -1.2830
 6500SOL    HW230960   0.006   3.245   4.861  0.1945 -0.7570 -0.6559
 6501SOL     OW30961   0.732   2.163  14.206 -0.1264  0.4544 -0.6078
 6501SOL    HW130962   0.672   2.111  14.152 -0.3951 -0.2191  0.3514
 6501SOL    HW230963   0.809   2.157  14.149  0.8503 -2.0507  0.9779
 6502SOL     OW30964   0.612   3.043   4.613 -0.5680  0.1629  0.5134
 6502SOL    HW130965   0.532   3.084   4.581 -0.1285 -0.2042 -1.0222
 6502SOL    HW230966   0.576   2.971   4.665  2.5108 -1.4282  0.4492
 6503SOL     OW30967   0.812   2.518   5.043  0.0698  0.7166 -0.2618
 6503SOL    HW130968   0.895   2.515   4.994 -0.3894  0.9259 -1.0574
 6503SOL    HW230969   0.766   2.588   4.996  0.1430  1.6169  0.9942
 6504SOL     OW30970   0.847   2.947   3.563  0.3121 -0.3436  0.0075
 6504SOL    HW130971   0.879   2.945   3.473  3.9012 -0.8981  1.2897
 6504SOL    HW230972   0.796   2.869   3.583 -1.7084  0.3384 -2.5345
 6505SOL     OW30973   1.742   2.101   5.792 -0.2094  0.2319 -0.3422
 6505SOL    HW130974   1.767   2.133   5.705 -1.6342  0.5403 -0.6450
 6505SOL    HW230975   1.673   2.166   5.805 -0.9643 -0.7593  0.5857
 6506SOL     OW30976   1.657   2.326   4.985  0.6542  0.3633 -0.4132
 6506SOL    HW130977   1.739   2.277   4.978  0.6439  0.3600 -0.5077
 6506SOL    HW230978   1.633   2.351   4.896 -2.4330  0.7456  0.5400
 6507SOL     OW30979   2.448   3.379   5.721 -0.1147  0.5349  0.0839
 6507SOL    HW130980   2.493   3.454   5.760  1.3230  0.7633 -2.0804
 6507SOL    HW230981   2.374   3.359   5.779  1.0796  1.0964  1.8071
 6508SOL     OW30982   4.095   4.007   1.573  0.1773  0.0337  0.3920
 6508SOL    HW130983   4.095   4.098   1.603  0.0127  0.4187 -0.7615
 6508SOL    HW230984   4.178   4.010   1.525 -0.2148  0.1246 -0.2811
 6509SOL     OW30985   1.109   1.892  13.440  0.2202  0.3454  0.2876
 6509SOL    HW130986   1.093   1.961  13.503  1.5749  0.0516  0.9602
 6509SOL    HW230987   1.192   1.855  13.471  0.6202 -0.8430 -2.1684
 6510SOL     OW30988   1.053   0.421   4.845 -0.5265 -0.5756 -0.0532
 6510SOL    HW130989   1.092   0.434   4.759 -1.3292  2.8896  0.1232
 6510SOL    HW230990   0.988   0.353   4.828 -0.4748 -0.4665 -0.6843
 6511SOL     OW30991   4.087   4.155  14.377 -0.2756 -0.2447  0.3100
 6511SOL    HW130992   4.102   4.152  14.283 -0.9174 -0.3735  0.2108
 6511SOL    HW230993   4.163   4.206  14.405  0.1800 -1.6637  1.6846
 6512SOL     OW30994   2.330   1.642   8.041  0.0773 -0.3623  0.0665
 6512SOL    HW130995   2.305   1.679   8.126  0.6037 -0.2206  0.1548
 6512SOL    HW230996   2.424   1.636   8.055 -0.0862 -0.1924  1.2846
 6513SOL     OW30997   1.676   3.798   2.656  0.3281 -0.4093  0.3938
 6513SOL    HW130998   1.760   3.815   2.699 -0.3695  1.3820  1.0283
 6513SOL    HW230999   1.705   3.790   2.565 -0.7884  1.6341 -0.1261
 6514SOL     OW31000   4.119   0.869  17.236 -0.4441  0.0110 -0.0097
 6514SOL    HW131001   4.068   0.866  17.318  0.2875  0.8311  0.4718
 6514SOL    HW231002   4.193   0.815  17.264 -1.3372 -0.7141  1.0147
 6515SOL     OW31003   0.170   0.968   2.899  0.6283 -0.0646  0.5020
 6515SOL    HW131004   0.085   0.975   2.943  0.5556 -0.2659  0.3947
 6515SOL    HW231005   0.201   0.890   2.945  3.4943  0.6485 -0.2471
 6516SOL     OW31006   3.380   1.732   7.130 -0.0493  0.4426 -0.8861
 6516SOL    HW131007   3.347   1.649   7.096  1.2184  0.9790 -3.3708
 6516SOL    HW231008   3.428   1.698   7.206 -1.8600 -1.0996 -0.4360
 6517SOL     OW31009   1.893   4.034  11.768 -0.1939 -0.4610 -1.0170
 6517SOL    HW131010   1.917   4.055  11.859 -1.8227  0.0743 -0.7128
 6517SOL    HW231011   1.934   3.948  11.755 -0.6876 -0.6571 -1.2594
 6518SOL     OW31012   4.009   3.608   8.284  0.3339  0.3297  0.0802
 6518SOL    HW131013   4.101   3.624   8.303  0.6132 -0.5391 -0.5745
 6518SOL    HW231014   3.978   3.580   8.370 -0.1322  2.4761  0.6108
 6519SOL     OW31015   1.839   1.715   9.504 -0.4779  0.5959 -0.7813
 6519SOL    HW131016   1.802   1.739   9.419  0.9622  0.1839 -1.5119
 6519SOL    HW231017   1.854   1.792   9.560 -0.2643 -0.7422  1.0137
 6520SOL     OW31018   0.229   4.231   7.669  0.0708  0.2680 -0.0513
 6520SOL    HW131019   0.322   4.239   7.647  0.1565 -0.3157  0.1027
 6520SOL    HW231020   0.218   4.253   7.762 -0.0369 -0.8918  0.2128
 6521SOL     OW31021   0.094   1.390   4.723  0.7285 -0.0853 -0.5887
 6521SOL    HW131022   0.101   1.462   4.785 -2.9493 -0.9971  0.8971
 6521SOL    HW231023   0.180   1.390   4.681  0.3039  0.1654 -1.4820
 6522SOL     OW31024   1.674   0.204   7.294  0.5510  0.0958 -0.6451
 6522SOL    HW131025   1.638   0.171   7.376 -1.1498 -0.0929 -1.4597
 6522SOL    HW231026   1.769   0.198   7.308  0.5084  0.9406 -0.0280
 6523SOL     OW31027   1.204   2.357  11.631 -0.2172  0.2214  0.5516
 6523SOL    HW131028   1.278   2.349  11.570  0.4682 -0.8404  1.5082
 6523SOL    HW231029   1.210   2.449  11.656  0.6550  0.3818 -0.2200
 6524SOL     OW31030   3.286   4.256   0.183  0.3730 -0.2481  0.2015
 6524SOL    HW131031   3.247   4.291   0.263  0.8742 -4.8019  2.4583
 6524SOL    HW231032   3.380   4.277   0.190  0.6070 -1.5706  0.9044
 6525SOL     OW31033   1.919   2.552   2.043  0.0751  0.1061 -0.3797
 6525SOL    HW131034   1.827   2.579   2.047  0.3869  1.0558  0.5044
 6525SOL    HW231035   1.917   2.460   2.017  1.1732 -0.4700  1.6110
 6526SOL     OW31036   1.201   4.371   3.855 -0.4587  0.3136  0.0564
 6526SOL    HW131037   1.167   4.347   3.769  0.4031 -2.7024  0.5300
 6526SOL    HW231038   1.284   4.323   3.859 -1.9013 -2.1921 -0.2873
 6527SOL     OW31039   1.401   4.567   4.816 -0.0030  0.1105  0.1250
 6527SOL    HW131040   1.492   4.594   4.823  0.0330 -0.0737  0.3896
 6527SOL    HW231041   1.375   4.630   4.749  2.8879  2.4018  1.1641
 6528SOL     OW31042   0.823   2.016  17.670  0.7681  0.0325 -0.0855
 6528SOL    HW131043   0.804   2.109  17.681  0.4537  0.2714 -2.5519
 6528SOL    HW231044   0.808   2.005  17.576  0.2386 -0.0976  0.0086
 6529SOL     OW31045   1.185   4.501   2.802  0.0508  0.3952 -0.0617
 6529SOL    HW131046   1.248   4.529   2.736 -1.5667 -1.8756 -2.5849
 6529SOL    HW231047   1.101   4.504   2.756 -0.3604 -0.5212  0.6443
 6530SOL     OW31048   0.206   2.246   3.315 -0.3045 -0.1360 -0.3895
 6530SOL    HW131049   0.295   2.225   3.287  0.2118  1.2180  0.2323
 6530SOL    HW231050   0.213   2.341   3.326  2.1064 -0.5462  1.5833
 6531SOL     OW31051   4.487   1.364   3.328 -0.3790 -0.8277  0.2097
 6531SOL    HW131052   4.420   1.392   3.265  0.0543 -1.9137 -0.7352
 6531SOL    HW231053   4.555   1.345   3.263  0.2041 -0.0285  0.5794
 6532SOL     OW31054   3.520   2.644   6.748 -0.6390 -0.0644  0.1083
 6532SOL    HW131055   3.541   2.551   6.749  0.9475  0.3141  1.7602
 6532SOL    HW231056   3.555   2.660   6.660  0.4441 -0.0000  0.5465
 6533SOL     OW31057   0.261   3.649   8.133  0.7812 -0.3988  0.4035
 6533SOL    HW131058   0.266   3.571   8.078 -1.9345 -0.7382  0.6135
 6533SOL    HW231059   0.192   3.626   8.195  0.1875 -1.4585 -0.6427
 6534SOL     OW31060   0.102   4.361   6.722  0.1506 -0.0875 -0.5530
 6534SOL    HW131061   0.066   4.293   6.666  2.5402 -1.1395 -0.8197
 6534SOL    HW231062   0.037   4.358   6.792 -0.6471 -3.0358 -1.4403
 6535SOL     OW31063   4.511   1.421   0.088 -0.2568  0.1248  0.0950
 6535SOL    HW131064   4.583   1.371   0.126 -0.2805 -2.2157 -3.0552
 6535SOL    HW231065   4.433   1.376   0.119  1.3758 -1.7339  1.5712
 6536SOL     OW31066   1.505   1.945  10.237  0.0791 -0.3007 -0.0802
 6536SOL    HW131067   1.517   1.853  10.212  2.6666 -0.8503  3.0263
 6536SOL    HW231068   1.564   1.942  10.312  0.0406  0.0281 -0.0383
 6537SOL     OW31069   0.280   1.243   2.244  0.0182 -0.0086 -0.0824
 6537SOL    HW131070   0.366   1.283   2.254 -0.3458  0.3561  1.6974
 6537SOL    HW231071   0.264   1.244   2.150 -0.3512 -0.3260 -0.0214
 6538SOL     OW31072   3.230   2.481   8.718 -0.1469 -0.1523  0.2349
 6538SOL    HW131073   3.147   2.528   8.720  0.1835  0.3841  1.5702
 6538SOL    HW231074   3.233   2.435   8.802  0.3253 -1.0373 -0.2709
 6539SOL     OW31075   0.513   0.181   5.931 -0.7750  0.3713 -0.0038
 6539SOL    HW131076   0.466   0.104   5.962  0.5338 -1.3374 -2.3458
 6539SOL    HW231077   0.524   0.231   6.012 -2.3557  0.3601  0.2203
 6540SOL     OW31078   0.984   0.684   2.321 -0.4315 -0.1492  0.2268
 6540SOL    HW131079   0.940   0.732   2.251  2.2638  1.5294 -0.3063
 6540SOL    HW231080   0.960   0.601   2.280 -1.0953 -0.4546  1.2256
 6541SOL     OW31081   4.151   2.724  13.509 -0.0120  0.0263  0.1621
 6541SOL    HW131082   4.122   2.758  13.593  1.7243 -0.1293  0.8283
 6541SOL    HW231083   4.234   2.770  13.496 -0.0383 -0.4573 -1.6612
 6542SOL     OW31084   2.257   0.063   3.436  1.0170 -0.4494 -0.1059
 6542SOL    HW131085   2.206   0.030   3.362  2.3683  0.4038 -1.4256
 6542SOL    HW231086   2.192   0.064   3.505  0.8133  2.3489 -0.3489
 6543SOL     OW31087   1.467   0.284  10.759  0.3749 -0.1346  0.4509
 6543SOL    HW131088   1.424   0.259  10.677 -0.7607 -0.3374  1.1041
 6543SOL    HW231089   1.560   0.283  10.736  0.7975  0.4589  2.1387
 6544SOL     OW31090   2.974   2.028   7.272 -0.3393 -0.0070  0.0477
 6544SOL    HW131091   3.043   2.028   7.205 -0.3229  0.7920  0.0606
 6544SOL    HW231092   2.936   1.941   7.268 -0.2805  0.0115 -0.9337
 6545SOL     OW31093   3.053   4.436   7.514  0.0568  0.3987 -0.1941
 6545SOL    HW131094   3.119   4.467   7.451  0.1458 -0.0985 -0.3422
 6545SOL    HW231095   2.971   4.475   7.484 -1.8005 -2.1055  1.6786
 6546SOL     OW31096   3.003   1.316   0.687  0.0590 -0.1234  0.0767
 6546SOL    HW131097   3.055   1.394   0.668 -0.4463  0.0183 -0.7281
 6546SOL    HW231098   3.043   1.271   0.761  1.4409 -1.0249 -1.2323
 6547SOL     OW31099   1.990   1.853   1.267  0.3023  0.1937 -0.0333
 6547SOL    HW131100   1.928   1.902   1.321 -1.3335 -1.5802 -0.2886
 6547SOL    HW231101   2.063   1.822   1.320  0.4197  0.2570 -0.1597
 6548SOL     OW31102   4.718   3.121   5.763 -0.2082  0.3282  0.1120
 6548SOL    HW131103   0.016   3.120   5.855 -0.7384  0.1597  0.2578
 6548SOL    HW231104   4.669   3.203   5.754 -0.7750  0.0317  0.4708
 6549SOL     OW31105   2.200   1.035   8.108  0.5188  1.0811 -0.2248
 6549SOL    HW131106   2.262   1.035   8.180  1.3437 -0.8079 -0.9387
 6549SOL    HW231107   2.194   0.941   8.089  1.1452  0.9186  0.4138
 6550SOL     OW31108   1.807   2.421   3.439  0.2569 -0.0474  0.0044
 6550SOL    HW131109   1.835   2.337   3.401 -0.5386 -0.6666  0.7875
 6550SOL    HW231110   1.845   2.492   3.388 -0.3793 -0.1413 -0.6129
 6551SOL     OW31111   0.660   2.434   3.425  0.3885 -0.3607  0.7444
 6551SOL    HW131112   0.589   2.486   3.386  1.3725 -1.0133 -1.9417
 6551SOL    HW231113   0.624   2.350   3.395  1.0812  0.0465 -1.1838
 6552SOL     OW31114   3.562   0.340   1.336  0.5232  0.2940  0.3135
 6552SOL    HW131115   3.658   0.337   1.346  0.5990  1.0024 -0.2488
 6552SOL    HW231116   3.563   0.282   1.260  0.5942 -1.8175  1.9260
 6553SOL     OW31117   2.364   1.013   9.493 -0.1439  0.0736 -0.4122
 6553SOL    HW131118   2.387   1.050   9.578 -2.0620 -2.3612  1.1482
 6553SOL    HW231119   2.371   0.919   9.508  1.7621  0.2052 -0.4179
 6554SOL     OW31120   2.047   4.534   8.764 -0.1438 -0.0020 -0.7065
 6554SOL    HW131121   2.094   4.459   8.726  2.3662  0.8521  0.7513
 6554SOL    HW231122   2.085   4.610   8.719  2.1386 -0.1673  0.9215
 6555SOL     OW31123   1.007   2.685  10.950  0.6714  0.1118 -0.7453
 6555SOL    HW131124   0.931   2.741  10.965  1.7256  1.2165  0.4155
 6555SOL    HW231125   1.011   2.692  10.855 -0.1854  1.7832 -0.6565
 6556SOL     OW31126   1.791   0.292   9.220  0.1742  0.1248  0.2556
 6556SOL    HW131127   1.701   0.294   9.253  0.7666 -0.7528  1.9081
 6556SOL    HW231128   1.827   0.235   9.288  0.2690 -0.2585 -0.1198
 6557SOL     OW31129   1.608   2.951   6.910  0.0018  0.1477  0.5954
 6557SOL    HW131130   1.540   2.941   6.843 -1.3433  1.4067  1.7600
 6557SOL    HW231131   1.603   3.047   6.915  0.6517  0.2951 -1.7167
 6558SOL     OW31132   1.370   1.786  13.217 -0.1001 -0.1175 -0.1812
 6558SOL    HW131133   1.399   1.825  13.300  0.0910 -0.4166 -0.1057
 6558SOL    HW231134   1.278   1.810  13.217  0.0665  0.5662  1.3793
 6559SOL     OW31135   2.428   1.230   5.673 -0.1080 -0.9529 -0.1301
 6559SOL    HW131136   2.492   1.175   5.627  0.5283  1.0880 -1.6980
 6559SOL    HW231137   2.385   1.275   5.601 -0.2989 -0.3054  0.3922
 6560SOL     OW31138   3.856   1.516   6.014  0.1214 -0.8581 -0.5723
 6560SOL    HW131139   3.866   1.611   6.005 -0.3120 -0.7090  0.4678
 6560SOL    HW231140   3.783   1.509   6.076 -0.5213  1.8232 -1.0291
 6561SOL     OW31141   3.045   2.694   8.764 -0.8931  0.4979  0.2395
 6561SOL    HW131142   2.986   2.723   8.694 -0.5538  0.8415  0.1006
 6561SOL    HW231143   2.980   2.632   8.799  2.0092 -2.0781  1.0186
 6562SOL     OW31144   1.775   2.992  14.300  1.0322  0.0922 -0.0142
 6562SOL    HW131145   1.707   2.984  14.367  1.2015 -0.5833  0.0819
 6562SOL    HW231146   1.720   2.974  14.224  1.4512 -0.0637 -0.2819
 6563SOL     OW31147   0.764   0.301   6.627  0.1695  0.8157  0.0656
 6563SOL    HW131148   0.722   0.250   6.558  1.4412 -1.1155  0.7497
 6563SOL    HW231149   0.743   0.250   6.705 -2.1943  0.2450 -0.9375
 6564SOL     OW31150   0.463   1.291  11.933  0.3396 -0.8179  0.4869
 6564SOL    HW131151   0.466   1.267  12.025  1.2824 -2.3984  0.0323
 6564SOL    HW231152   0.517   1.370  11.935 -1.5267  0.5267 -1.9495
 6565SOL     OW31153   0.432   3.838  10.462 -0.0108  0.3138  0.4917
 6565SOL    HW131154   0.508   3.802  10.417 -0.4090  1.9135 -1.4295
 6565SOL    HW231155   0.476   3.856  10.545  0.1312  0.9784  0.2710
 6566SOL     OW31156   1.057   0.071   1.866 -0.0118 -0.3995 -0.3679
 6566SOL    HW131157   0.995   4.726   1.855  1.0101 -1.6031  1.8293
 6566SOL    HW231158   1.001   0.137   1.825  0.0714  2.8613  4.8406
 6567SOL     OW31159   3.977   3.774   4.892  0.0453 -0.4594 -0.1258
 6567SOL    HW131160   4.051   3.829   4.865 -0.9970  0.4631 -1.1200
 6567SOL    HW231161   4.000   3.688   4.856 -0.3054  0.2546 -2.0538
 6568SOL     OW31162   1.631   3.635   7.438 -0.8124  0.1712  0.1531
 6568SOL    HW131163   1.666   3.608   7.523 -0.3666 -0.7903 -0.3294
 6568SOL    HW231164   1.576   3.711   7.458 -1.1472  0.1010 -0.5017
 6569SOL     OW31165   2.087   2.051   4.041  0.1902 -0.2546 -0.2653
 6569SOL    HW131166   2.167   1.999   4.038  0.8661  0.8195 -0.9432
 6569SOL    HW231167   2.034   2.015   3.970  1.0882 -1.9697 -0.0571
 6570SOL     OW31168   2.093   0.843   9.372 -0.4797  0.0580  0.6261
 6570SOL    HW131169   2.041   0.898   9.431 -1.4141 -1.2369  1.0069
 6570SOL    HW231170   2.054   0.759   9.395 -0.2278 -0.6825 -1.5643
 6571SOL     OW31171   1.320   1.685  10.440 -0.1907  0.0039  0.0400
 6571SOL    HW131172   1.344   1.754  10.378 -1.9124 -0.1276 -0.7655
 6571SOL    HW231173   1.247   1.721  10.490  0.6598  1.5899  0.1288
 6572SOL     OW31174   0.904   0.485  11.661 -0.0437 -0.0427 -0.1516
 6572SOL    HW131175   0.824   0.444  11.629  0.0191  0.8680 -1.4687
 6572SOL    HW231176   0.950   0.492  11.577 -1.2318 -0.9518 -0.8824
 6573SOL     OW31177   2.939   2.026   4.980  0.3057 -0.0910  0.1826
 6573SOL    HW131178   2.967   2.084   5.051  0.7073 -2.3958  1.8936
 6573SOL    HW231179   2.893   1.958   5.029  0.0518  0.2933  0.4840
 6574SOL     OW31180   2.784   1.756  16.694 -0.2886  0.1815 -0.1095
 6574SOL    HW131181   2.828   1.840  16.705 -1.1168  0.6863 -0.6186
 6574SOL    HW231182   2.793   1.746  16.599  0.0329  0.0078 -0.0608
 6575SOL     OW31183   2.104   3.084   3.836 -0.0623  0.0854 -0.2206
 6575SOL    HW131184   2.054   3.040   3.766 -1.7711  1.3174  0.2340
 6575SOL    HW231185   2.142   3.163   3.797 -0.2458  0.0167 -0.5401
 6576SOL     OW31186   2.377   3.385   2.657  0.4039  0.2199 -0.5088
 6576SOL    HW131187   2.402   3.473   2.684 -0.5128 -0.7366  3.3173
 6576SOL    HW231188   2.388   3.406   2.564  0.1057  2.0981 -0.1292
 6577SOL     OW31189   4.262   1.226  16.370 -0.4328 -0.1526  0.1358
 6577SOL    HW131190   4.290   1.291  16.305 -3.5921  2.7038  1.6319
 6577SOL    HW231191   4.198   1.164  16.335 -0.8365  0.7036 -0.6434
 6578SOL     OW31192   0.630   3.737   3.634 -0.2858 -0.0606 -0.0131
 6578SOL    HW131193   0.645   3.801   3.564  2.2679 -0.6499 -0.0098
 6578SOL    HW231194   0.710   3.684   3.626 -0.4478 -0.4981  1.2967
 6579SOL     OW31195   3.254   3.732   2.920 -0.1000  0.2658 -0.0032
 6579SOL    HW131196   3.265   3.640   2.895  1.3425 -0.2594  2.6023
 6579SOL    HW231197   3.343   3.743   2.954 -0.3529 -2.1770  1.4324
 6580SOL     OW31198   2.352   3.826   3.548 -0.2930 -0.3044 -0.1846
 6580SOL    HW131199   2.422   3.776   3.505  0.0335 -0.0646  0.0687
 6580SOL    HW231200   2.271   3.780   3.527  0.9050 -1.2629 -2.7128
 6581SOL     OW31201   2.570   1.026   8.842 -0.1037 -0.0898 -0.3113
 6581SOL    HW131202   2.638   1.002   8.779 -0.9804 -1.3480 -0.7781
 6581SOL    HW231203   2.599   1.116   8.854  0.9104 -0.4705  0.1050
 6582SOL     OW31204   0.573   4.430   7.800  0.2909  0.4884  0.3484
 6582SOL    HW131205   0.552   4.362   7.736 -0.5644 -0.0552  1.1926
 6582SOL    HW231206   0.504   4.402   7.861  0.5757 -0.9819  0.0046
 6583SOL     OW31207   4.220   4.319   2.810 -0.5769 -0.1102  0.2940
 6583SOL    HW131208   4.288   4.289   2.870 -2.3000  0.7693  2.7181
 6583SOL    HW231209   4.266   4.382   2.754  0.7201 -1.5798 -0.2661
 6584SOL     OW31210   4.291   4.220  15.825 -0.2100  0.6258 -0.0038
 6584SOL    HW131211   4.350   4.187  15.893  0.8439  1.2728 -0.5953
 6584SOL    HW231212   4.281   4.314  15.842  3.7119  1.1753 -0.5582
 6585SOL     OW31213   3.654   2.952  13.675  0.0722 -0.2442 -0.1723
 6585SOL    HW131214   3.643   2.862  13.644 -4.3144  0.4344 -0.7362
 6585SOL    HW231215   3.588   2.994  13.620  0.1395  0.0628 -0.0187
 6586SOL     OW31216   0.600   2.371  15.494 -0.4874  0.2158 -0.0111
 6586SOL    HW131217   0.584   2.277  15.498 -1.2980  0.4064  1.2962
 6586SOL    HW231218   0.556   2.394  15.413  1.4962 -1.3108 -1.5156
 6587SOL     OW31219   0.762   1.404   2.598 -0.3994  0.4753 -0.1690
 6587SOL    HW131220   0.804   1.442   2.521 -3.7912  0.7822 -1.8858
 6587SOL    HW231221   0.696   1.348   2.557 -0.2341  1.4726 -1.7784
 6588SOL     OW31222   2.637   4.093   7.794 -0.3605  0.2074 -0.1551
 6588SOL    HW131223   2.562   4.044   7.829 -0.0440  0.1172  0.4069
 6588SOL    HW231224   2.680   4.124   7.874 -0.6178  1.8209 -0.6415
 6589SOL     OW31225   3.982   4.632   6.982  0.0916  0.0795 -0.2948
 6589SOL    HW131226   3.903   4.669   7.023  0.0666  0.0818 -0.3450
 6589SOL    HW231227   4.051   4.638   7.048 -2.6023  1.6283  2.4318
 6590SOL     OW31228   4.502   2.706   9.216  0.1362  0.4359  0.1668
 6590SOL    HW131229   4.411   2.731   9.201 -0.6589 -2.0835  0.8541
 6590SOL    HW231230   4.542   2.722   9.131  3.0163 -1.2192  1.2284
 6591SOL     OW31231   1.795   2.457   1.213  0.3117 -0.0100  0.0798
 6591SOL    HW131232   1.721   2.499   1.257 -1.6037 -1.1702 -2.0452
 6591SOL    HW231233   1.849   2.531   1.185 -0.4278 -0.1608 -1.7427
 6592SOL     OW31234   1.315   0.079   4.940 -0.2284  0.2662 -0.0494
 6592SOL    HW131235   1.353   4.722   4.964  0.2634  0.4638 -0.1248
 6592SOL    HW231236   1.221   0.067   4.924 -0.1969  0.2655 -0.2364
 6593SOL     OW31237   4.446   2.784  11.595  0.0554 -0.0599 -0.5934
 6593SOL    HW131238   4.375   2.720  11.606  0.9932 -1.0782 -0.5422
 6593SOL    HW231239   4.477   2.758  11.508  2.5176 -0.6051  0.4769
 6594SOL     OW31240   2.235   1.485  14.500 -0.1574 -0.1617  0.4045
 6594SOL    HW131241   2.321   1.496  14.540  0.6428  1.0613 -1.6647
 6594SOL    HW231242   2.222   1.390  14.491  1.8517 -0.3924  0.1107
 6595SOL     OW31243   3.842   1.228   8.996  0.1649 -1.4777 -0.0349
 6595SOL    HW131244   3.902   1.203   8.926  0.4626  2.1099 -1.0998
 6595SOL    HW231245   3.896   1.295   9.039 -0.8052 -1.5379  1.2646
 6596SOL     OW31246   3.328   0.469  10.021 -0.3077  0.5202 -0.2733
 6596SOL    HW131247   3.401   0.410  10.042 -0.8127 -0.8690 -2.4178
 6596SOL    HW231248   3.328   0.529  10.095  0.7131  0.7731 -0.4743
 6597SOL     OW31249   0.604   4.078   7.257 -0.3369  0.0225 -0.0530
 6597SOL    HW131250   0.529   4.108   7.206 -1.0290  1.3261  1.7241
 6597SOL    HW231251   0.644   4.164   7.275  1.2936 -0.1680 -2.7273
 6598SOL     OW31252   4.579   3.011   0.155  0.2825  0.0155 -0.2629
 6598SOL    HW131253   4.673   2.994   0.169 -0.0478 -4.4527 -3.8935
 6598SOL    HW231254   4.570   3.102   0.183  1.6929 -0.6497  2.3931
 6599SOL     OW31255   0.829   2.001   9.148  0.0154 -0.4873 -0.1804
 6599SOL    HW131256   0.781   1.919   9.151 -1.7306  0.5041 -0.8139
 6599SOL    HW231257   0.913   1.966   9.178 -0.8592 -1.3171  1.2727
 6600SOL     OW31258   0.006   4.039   6.724 -0.1025 -0.3570 -0.7806
 6600SOL    HW131259   0.042   4.027   6.636  2.3168  2.6706 -0.2114
 6600SOL    HW231260   4.643   4.033   6.694 -0.0050 -1.2142 -0.8906
 6601SOL     OW31261   3.461   2.329  11.344  0.3695 -0.0392  0.2573
 6601SOL    HW131262   3.381   2.318  11.395  0.9642  1.3716  1.5090
 6601SOL    HW231263   3.442   2.292  11.258  1.7064  0.0929 -0.1005
 6602SOL     OW31264   0.756   2.823   4.488  0.3633 -0.4655 -0.0932
 6602SOL    HW131265   0.684   2.817   4.426  0.9136  1.7169 -0.9402
 6602SOL    HW231266   0.730   2.896   4.545 -0.2111  0.0992 -1.0787
 6603SOL     OW31267   2.369   2.409   1.580  0.0172  0.0570  0.0732
 6603SOL    HW131268   2.437   2.453   1.530  0.9570 -0.9995  0.4135
 6603SOL    HW231269   2.358   2.328   1.529  0.7545 -0.7619  1.2113
 6604SOL     OW31270   2.527   4.413   7.699 -0.0827 -0.1936 -0.0657
 6604SOL    HW131271   2.569   4.444   7.779 -1.6122 -1.5926  1.2830
 6604SOL    HW231272   2.451   4.367   7.735 -1.0493  0.0733 -1.7482
 6605SOL     OW31273   2.771   4.344   1.382 -0.0218  0.1873  0.2125
 6605SOL    HW131274   2.719   4.263   1.383  1.5575 -0.8198  1.8252
 6605SOL    HW231275   2.846   4.318   1.329 -0.0661  0.5977 -0.0472
 6606SOL     OW31276   3.651   2.572   7.344  0.2097  0.2182  0.3754
 6606SOL    HW131277   3.663   2.516   7.268 -2.1225  0.7809 -0.4309
 6606SOL    HW231278   3.695   2.523   7.413  0.6960 -1.1186 -0.8775
 6607SOL     OW31279   1.786   1.777  15.151  0.1607  0.0978 -0.0770
 6607SOL    HW131280   1.692   1.788  15.167 -0.2613  1.5989 -3.4373
 6607SOL    HW231281   1.801   1.869  15.128  1.5551 -0.0234  0.3656
 6608SOL     OW31282   4.591   2.719   1.891 -0.0609  0.6154  0.1981
 6608SOL    HW131283   4.642   2.742   1.814 -0.8564 -1.0165 -0.8056
 6608SOL    HW231284   4.591   2.624   1.879  0.2505  0.5034  1.0835
 6609SOL     OW31285   2.765   2.513  10.053  0.2286  0.2893 -0.4537
 6609SOL    HW131286   2.739   2.532   9.963 -0.6119 -1.1370 -0.5081
 6609SOL    HW231287   2.685   2.474  10.088  0.2603 -1.5391 -2.4030
 6610SOL     OW31288   3.586   0.972  15.249  0.0689  0.4278 -0.5146
 6610SOL    HW131289   3.496   0.962  15.278  0.0329  3.1193  0.2871
 6610SOL    HW231290   3.593   1.067  15.245 -0.8563  0.4913 -0.5099
 6611SOL     OW31291   1.869   0.051   7.107 -0.8273 -0.0977  0.5317
 6611SOL    HW131292   1.881   4.707   7.044  1.2175  0.8105 -0.1411
 6611SOL    HW231293   1.817   0.001   7.169  0.3297 -1.6534  0.2576
 6612SOL     OW31294   4.101   4.467  13.972 -0.2962  0.0403  0.9612
 6612SOL    HW131295   4.041   4.396  13.948 -1.0720  0.3949  1.8540
 6612SOL    HW231296   4.104   4.521  13.893 -2.9714 -1.0803  0.1052
 6613SOL     OW31297   1.637   0.351   5.829  0.5298 -0.3315  0.3247
 6613SOL    HW131298   1.682   0.434   5.815  0.2793 -0.3866 -0.8530
 6613SOL    HW231299   1.634   0.361   5.924 -1.1409 -1.3507  0.3723
 6614SOL     OW31300   2.210   0.716   1.678  0.2613 -0.2340 -0.3124
 6614SOL    HW131301   2.217   0.640   1.620 -0.7271 -1.3660  1.0584
 6614SOL    HW231302   2.173   0.777   1.615  0.0423 -2.5531 -2.4674
 6615SOL     OW31303   2.912   0.418   7.915 -0.2167  0.7745 -0.2003
 6615SOL    HW131304   2.944   0.476   7.846  4.4185 -1.0713  0.3588
 6615SOL    HW231305   2.825   0.397   7.882  0.5394 -1.2046 -0.9650
 6616SOL     OW31306   4.124   2.802   8.617 -0.1188 -0.5092 -0.2843
 6616SOL    HW131307   4.218   2.797   8.603 -0.2689 -3.5355 -0.3067
 6616SOL    HW231308   4.127   2.831   8.708 -0.8852 -0.6685 -0.2067
 6617SOL     OW31309   1.778   0.421   3.290 -0.2997 -0.1117  0.3570
 6617SOL    HW131310   1.835   0.480   3.340 -0.1078  1.0190 -1.2187
 6617SOL    HW231311   1.752   0.361   3.360 -1.6278  1.2475  1.0388
 6618SOL     OW31312   4.045   0.320   0.841 -0.2353 -0.6142 -0.1225
 6618SOL    HW131313   4.022   0.392   0.899  1.4586 -1.7344  1.9135
 6618SOL    HW231314   4.059   0.360   0.755 -0.1599  3.4149  1.7591
 6619SOL     OW31315   2.061   3.225   0.503 -0.0552 -0.3597 -0.1257
 6619SOL    HW131316   2.047   3.151   0.563  1.0334 -0.8943 -0.5175
 6619SOL    HW231317   2.026   3.194   0.420  0.7195 -1.0676 -0.1900
 6620SOL     OW31318   2.011   2.645  12.687 -0.6867  0.0615  0.0177
 6620SOL    HW131319   1.938   2.615  12.632 -2.2508  1.1609  1.4807
 6620SOL    HW231320   2.056   2.564  12.709  1.2315  1.3973  1.0706
 6621SOL     OW31321   1.443   3.941   6.080 -0.7844 -1.6117  0.3204
 6621SOL    HW131322   1.417   4.009   6.018 -1.5428 -1.7641  0.4790
 6621SOL    HW231323   1.524   3.923   6.032 -0.1160  1.5346  0.2212
 6622SOL     OW31324   2.936   2.718  17.613  0.4784  0.3254  0.2673
 6622SOL    HW131325   2.970   2.703  17.525 -0.0613 -3.0435  0.6362
 6622SOL    HW231326   2.856   2.765  17.591  0.2582 -0.7356 -1.1777
 6623SOL     OW31327   2.889   3.878   9.854 -0.3554  0.4703 -0.4623
 6623SOL    HW131328   2.833   3.826   9.912  2.4969 -1.8181  0.2159
 6623SOL    HW231329   2.968   3.880   9.908 -1.7645 -1.0589  1.6493
 6624SOL     OW31330   0.846   4.707   2.536 -0.0455  0.6714 -0.2435
 6624SOL    HW131331   0.911   4.671   2.475  1.0906  1.5664  0.4409
 6624SOL    HW231332   0.785   0.023   2.477 -1.1813 -0.0472  0.4154
 6625SOL     OW31333   3.353   1.605   3.293 -0.8269  0.2042 -0.0108
 6625SOL    HW131334   3.306   1.572   3.217  1.5833 -0.5762 -1.1852
 6625SOL    HW231335   3.444   1.576   3.281  0.3608  2.8141  2.6610
 6626SOL     OW31336   2.372   4.543  11.733 -0.2143 -0.0821  0.2874
 6626SOL    HW131337   2.393   4.598  11.657  0.0130  0.0168  0.4215
 6626SOL    HW231338   2.308   4.590  11.786  0.1935  0.7250  0.0652
 6627SOL     OW31339   0.287   3.527   2.494 -0.2231 -0.2552 -0.7570
 6627SOL    HW131340   0.361   3.469   2.513 -0.8029 -0.0571  2.0817
 6627SOL    HW231341   0.323   3.560   2.411 -1.5850 -0.2672 -1.3495
 6628SOL     OW31342   4.145   2.639   3.584 -0.1421 -0.2171  0.6867
 6628SOL    HW131343   4.198   2.678   3.654 -0.2674  1.9557 -0.4238
 6628SOL    HW231344   4.201   2.568   3.553 -2.1865 -1.4291 -0.1489
 6629SOL     OW31345   1.560   2.779   2.988  0.2614 -0.0986  0.4000
 6629SOL    HW131346   1.593   2.806   2.903 -0.6191  0.0099  0.0955
 6629SOL    HW231347   1.637   2.791   3.044  0.5614 -0.4196  0.0598
 6630SOL     OW31348   0.544   1.273   4.573  0.0033 -0.4803  0.5851
 6630SOL    HW131349   0.492   1.341   4.529 -1.0717 -0.1954  2.3028
 6630SOL    HW231350   0.529   1.293   4.666 -2.9713  2.0393 -0.4341
 6631SOL     OW31351   3.081   4.019   6.857  0.4130 -0.1369 -0.4083
 6631SOL    HW131352   3.037   4.101   6.838 -2.3225 -1.5499 -0.2485
 6631SOL    HW231353   3.174   4.041   6.860  0.7584 -1.6608  0.2824
 6632SOL     OW31354   0.797   0.924  13.566  0.0625  0.4962 -0.1160
 6632SOL    HW131355   0.737   1.000  13.565 -2.3452 -1.3813  0.9087
 6632SOL    HW231356   0.875   0.957  13.612 -1.0323  0.1274  2.0246
 6633SOL     OW31357   3.031   1.152   4.452  0.4145  0.1862 -0.2211
 6633SOL    HW131358   3.066   1.119   4.534  2.2765 -0.5485 -1.3060
 6633SOL    HW231359   3.103   1.126   4.395 -0.4491 -0.1036 -1.2010
 6634SOL     OW31360   0.391   3.760   5.515  0.4009 -0.2131 -0.3496
 6634SOL    HW131361   0.418   3.850   5.529  0.6541 -0.6347  1.9063
 6634SOL    HW231362   0.322   3.782   5.453 -0.5031 -0.7674  0.4631
 6635SOL     OW31363   2.963   2.586  13.998 -0.1104 -0.4488  0.4914
 6635SOL    HW131364   2.901   2.636  13.947  0.1607 -1.1101 -0.4782
 6635SOL    HW231365   2.914   2.580  14.080 -0.7979 -0.7188  0.0554
 6636SOL     OW31366   3.608   4.440   2.560  0.8743  0.1051 -0.0117
 6636SOL    HW131367   3.677   4.376   2.541  0.2628 -0.2750 -0.9905
 6636SOL    HW231368   3.653   4.518   2.592 -0.2780  0.4421  0.7933
 6637SOL     OW31369   0.463   1.872   5.222 -0.2324 -0.4793  0.3838
 6637SOL    HW131370   0.403   1.944   5.240 -1.6492 -1.4749 -0.2970
 6637SOL    HW231371   0.485   1.896   5.132  1.4754 -1.8497  0.4373
 6638SOL     OW31372   0.024   0.163  14.984 -0.6404  0.6695  0.3632
 6638SOL    HW131373   0.115   0.161  15.014 -0.3633  3.6396 -0.2291
 6638SOL    HW231374   4.706   0.138  15.064  0.8332  0.8810  1.2764
 6639SOL     OW31375   2.029   4.278   4.103  0.9649  0.3316  0.0005
 6639SOL    HW131376   1.962   4.313   4.162  1.1969 -1.5701  1.4170
 6639SOL    HW231377   2.091   4.351   4.103  1.2846  0.0991  3.7930
 6640SOL     OW31378   0.028   1.350   4.348  0.1943  0.2273  0.1868
 6640SOL    HW131379   0.091   1.306   4.291  1.0917 -0.9209  2.0884
 6640SOL    HW231380   4.676   1.328   4.300  0.8227 -1.9409  0.1656
 6641SOL     OW31381   1.826   4.247   7.724 -0.1398  0.5840 -0.1852
 6641SOL    HW131382   1.891   4.262   7.792  0.7988 -2.1103 -0.5142
 6641SOL    HW231383   1.746   4.287   7.758 -0.3804 -1.2459  1.3663
 6642SOL     OW31384   4.235   2.102  12.975 -0.2473  0.3077 -0.0363
 6642SOL    HW131385   4.231   2.185  13.022  1.3392  1.1223 -1.3986
 6642SOL    HW231386   4.328   2.097  12.954 -0.4337 -2.4345 -0.2855
 6643SOL     OW31387   3.407   1.492   3.960 -0.2455  0.1393  0.1087
 6643SOL    HW131388   3.328   1.438   3.948  0.3802 -0.6463 -0.4610
 6643SOL    HW231389   3.476   1.435   3.926 -0.1095  1.7981 -2.3384
 6644SOL     OW31390   2.089   1.981  12.521 -0.3453 -0.3918  0.8007
 6644SOL    HW131391   2.021   2.040  12.554  0.8992  0.8931  1.0787
 6644SOL    HW231392   2.123   1.958  12.607 -0.0875  0.2401  0.8703
 6645SOL     OW31393   4.124   0.761   1.424 -0.2450  0.4114 -0.3981
 6645SOL    HW131394   4.158   0.711   1.498  1.7351  1.0526 -0.8651
 6645SOL    HW231395   4.080   0.829   1.476 -2.5334 -0.3781 -1.3425
 6646SOL     OW31396   2.964   1.623   7.789  0.2211 -0.5712  0.6353
 6646SOL    HW131397   3.047   1.665   7.769 -0.7095  0.5022 -0.9651
 6646SOL    HW231398   2.994   1.560   7.856  0.3061  0.1958  1.3186
 6647SOL     OW31399   1.960   1.051   3.559 -0.3535  0.0502 -0.1103
 6647SOL    HW131400   1.918   1.042   3.644  1.2197  2.5623  0.9014
 6647SOL    HW231401   2.021   1.124   3.560  1.0584 -1.1607  1.5989
 6648SOL     OW31402   0.917   0.262   5.874  0.4394  0.0807  0.1433
 6648SOL    HW131403   0.872   0.243   5.791  0.0896 -0.1809  0.3915
 6648SOL    HW231404   0.862   0.203   5.925 -0.5061 -0.4146 -1.4284
 6649SOL     OW31405   0.463   3.463  14.676  0.0599  0.5131  0.1056
 6649SOL    HW131406   0.483   3.397  14.741  0.9424  2.3438  1.6776
 6649SOL    HW231407   0.546   3.511  14.677  0.3984 -0.0352 -1.1830
 6650SOL     OW31408   4.405   0.041  17.245 -0.1822  0.6039  0.3522
 6650SOL    HW131409   4.496   0.013  17.242 -0.0765  0.7950  1.9616
 6650SOL    HW231410   4.373   4.683  17.274 -0.6224  1.0789  1.2580
 6651SOL     OW31411   4.064   3.932   3.071 -0.7756  0.2938 -0.0924
 6651SOL    HW131412   4.075   3.941   3.166  0.6498  1.6046 -0.3704
 6651SOL    HW231413   4.077   3.838   3.060 -2.2822  0.3264 -2.1255
 6652SOL     OW31414   0.070   0.680   5.834 -0.7875 -0.5454 -0.6494
 6652SOL    HW131415   0.001   0.741   5.809  1.3871  3.0055  1.9394
 6652SOL    HW231416   0.039   0.653   5.920 -1.0286 -0.9471 -0.8630
 6653SOL     OW31417   4.619   4.382   3.865 -0.7450  0.4298 -0.5478
 6653SOL    HW131418   4.659   4.394   3.779  0.8324  0.3242  0.1615
 6653SOL    HW231419   4.529   4.364   3.838 -1.2649  1.8830  0.2429
 6654SOL     OW31420   4.253   2.760  12.025  0.5773 -0.5257  0.2739
 6654SOL    HW131421   4.218   2.816  11.956  1.3792 -1.0188 -0.5353
 6654SOL    HW231422   4.173   2.712  12.044  1.6179 -2.4790 -0.2640
 6655SOL     OW31423   0.173   4.573   5.328 -0.1816 -0.2006 -0.6831
 6655SOL    HW131424   0.184   4.523   5.408  0.4230 -0.3460 -0.8568
 6655SOL    HW231425   0.100   4.629   5.354 -0.1774 -0.7836  0.5407
 6656SOL     OW31426   0.821   0.128   7.403 -0.5024  0.0142  0.5643
 6656SOL    HW131427   0.822   0.218   7.435  1.5812  0.4615 -0.7547
 6656SOL    HW231428   0.893   0.089   7.452 -1.0878  2.5619  3.4214
 6657SOL     OW31429   1.450   2.944  12.732  0.0825  0.5879 -0.2918
 6657SOL    HW131430   1.453   2.848  12.732  1.3700  0.6240  0.6739
 6657SOL    HW231431   1.380   2.955  12.796 -0.8048 -0.6632 -1.0524
 6658SOL     OW31432   1.566   4.621   9.741 -0.2176 -0.2553  0.4369
 6658SOL    HW131433   1.643   4.672   9.717  1.0860 -1.8360  1.3048
 6658SOL    HW231434   1.505   4.636   9.669  1.1335 -0.6578 -0.7940
 6659SOL     OW31435   0.802   3.520   1.135 -0.3768 -0.2735  0.5080
 6659SOL    HW131436   0.738   3.573   1.183  0.1544  0.4794  0.3751
 6659SOL    HW231437   0.782   3.429   1.158 -1.1712 -0.0166  0.8233
 6660SOL     OW31438   3.145   1.204  13.611 -0.7629  0.0478 -0.0187
 6660SOL    HW131439   3.138   1.298  13.632 -0.1454 -0.0618  0.6573
 6660SOL    HW231440   3.066   1.164  13.647  0.1109 -0.4661  1.3359
 6661SOL     OW31441   0.605   3.971   0.112  0.2057  0.3806  0.2916
 6661SOL    HW131442   0.524   4.021   0.101 -1.3530 -2.4738 -0.9872
 6661SOL    HW231443   0.582   3.932   0.196  0.7567 -1.5394 -0.4570
 6662SOL     OW31444   4.606   1.745   2.986 -0.4638 -0.4036  0.0088
 6662SOL    HW131445   4.591   1.831   3.025  1.2735  0.5416 -1.3999
 6662SOL    HW231446   4.692   1.724   3.022  0.3590  3.2334  0.1325
 6663SOL     OW31447   4.615   3.285   3.996 -0.3500 -0.1347  0.2542
 6663SOL    HW131448   4.522   3.266   4.011  0.2854 -1.9552  1.8928
 6663SOL    HW231449   4.640   3.226   3.925  1.6335  0.5108  0.4172
 6664SOL     OW31450   2.495   0.147   4.924 -0.2440 -0.4627  0.3343
 6664SOL    HW131451   2.497   0.186   4.836 -1.2010  0.3521  0.6758
 6664SOL    HW231452   2.401   0.127   4.927 -0.1931 -1.0077 -1.7525
 6665SOL     OW31453   1.468   0.745   2.575 -0.2362 -0.2235 -0.3839
 6665SOL    HW131454   1.465   0.691   2.496 -2.4183  0.6043 -0.8821
 6665SOL    HW231455   1.540   0.702   2.621 -0.2266  0.3763  0.1682
 6666SOL     OW31456   2.469   3.943   5.588  0.0039 -0.9170 -0.5191
 6666SOL    HW131457   2.419   3.940   5.669 -1.6571 -0.6064 -1.5320
 6666SOL    HW231458   2.513   4.028   5.597  0.2738 -1.2516  1.3972
 6667SOL     OW31459   3.597   3.721   5.467  0.1553 -0.3104  0.4539
 6667SOL    HW131460   3.629   3.775   5.539  0.2235  0.5997 -0.2633
 6667SOL    HW231461   3.503   3.711   5.487 -0.2263  3.4996  0.5760
 6668SOL     OW31462   4.421   3.663   6.533 -0.4852 -0.7334  0.1348
 6668SOL    HW131463   4.346   3.605   6.547  0.1096 -1.7369 -0.8318
 6668SOL    HW231464   4.439   3.699   6.620 -1.1752 -2.5597  1.0258
 6669SOL     OW31465   0.192   1.011   7.057 -0.0734  0.3288  0.1358
 6669SOL    HW131466   0.137   0.985   7.131  2.2721 -0.3919  1.6210
 6669SOL    HW231467   0.260   1.059   7.104 -0.7999 -0.6295  2.1681
 6670SOL     OW31468   2.920   3.001   6.687 -0.0093  0.0237 -0.1442
 6670SOL    HW131469   2.896   2.908   6.696  0.1974 -0.0186 -0.0234
 6670SOL    HW231470   2.921   3.023   6.780 -1.9668 -0.3829 -0.0064
 6671SOL     OW31471   0.915   4.039   6.351 -0.0821  0.5527  0.0399
 6671SOL    HW131472   0.925   4.025   6.257  1.4472 -3.6721  0.8294
 6671SOL    HW231473   0.965   4.119   6.365 -0.1100  0.6140 -0.2071
 6672SOL     OW31474   3.859   3.907   4.124  0.1372 -0.1722 -0.0774
 6672SOL    HW131475   3.938   3.945   4.086 -0.1548  2.3692  1.8619
 6672SOL    HW231476   3.796   3.976   4.100  0.9389  1.3230  2.1749
 6673SOL     OW31477   0.430   3.807  17.449  0.5095 -0.0217  0.6162
 6673SOL    HW131478   0.524   3.790  17.438  0.4496 -0.8308  1.3867
 6673SOL    HW231479   0.430   3.901  17.466  0.1351 -0.0369  0.7011
 6674SOL     OW31480   4.006   1.917  14.820 -0.1461  0.4520 -0.8513
 6674SOL    HW131481   4.009   1.839  14.876 -1.0015  2.1121  1.4543
 6674SOL    HW231482   4.046   1.870  14.746  3.3151  1.1264  0.6276
 6675SOL     OW31483   0.745   3.093   3.028  0.2033 -0.3890  0.0926
 6675SOL    HW131484   0.664   3.129   2.992 -0.1974 -0.7443  0.6336
 6675SOL    HW231485   0.737   3.007   2.986  1.2035 -0.7104  0.5410
 6676SOL     OW31486   1.844   4.589   2.437  0.0579 -0.1945  0.2053
 6676SOL    HW131487   1.818   4.650   2.506 -1.2452  0.9096 -1.2610
 6676SOL    HW231488   1.913   4.542   2.483  0.5156  0.8440  0.5713
 6677SOL     OW31489   1.241   0.649  10.170  0.2004 -0.3212 -0.2414
 6677SOL    HW131490   1.277   0.606  10.248  0.2049 -0.0603 -0.0993
 6677SOL    HW231491   1.251   0.581  10.103  0.1110 -0.2540 -0.3227
 6678SOL     OW31492   3.831   1.158   4.479 -0.3933 -0.5091  0.2226
 6678SOL    HW131493   3.834   1.194   4.568  1.2850  0.8803 -0.4089
 6678SOL    HW231494   3.857   1.067   4.493 -2.6700 -0.9807  1.4978
 6679SOL     OW31495   2.672   2.236   4.591 -0.2763 -0.1442 -0.4372
 6679SOL    HW131496   2.621   2.294   4.647  1.8250  0.6353  0.6632
 6679SOL    HW231497   2.706   2.292   4.521  2.0806 -1.5460 -0.4211
 6680SOL     OW31498   2.064   0.906   0.788 -0.4968  0.0737 -0.5790
 6680SOL    HW131499   2.122   0.904   0.712  0.2847  0.1106  0.0153
 6680SOL    HW231500   2.065   0.817   0.821  0.5522 -0.8879 -3.2345
 6681SOL     OW31501   4.648   3.934   2.279  0.2290 -0.1022 -0.5665
 6681SOL    HW131502   4.621   3.964   2.193 -1.7286  0.0862  0.0958
 6681SOL    HW231503   4.580   3.868   2.290  0.4344 -0.3096 -0.5353
 6682SOL     OW31504   0.297   3.843   2.269 -0.6103 -0.2867  0.4357
 6682SOL    HW131505   0.301   3.903   2.194 -2.3842  3.4471  3.3213
 6682SOL    HW231506   0.244   3.893   2.330  0.7811  0.8910  0.6906
 6683SOL     OW31507   2.233   0.264  15.677 -0.1406  0.4778  0.6063
 6683SOL    HW131508   2.159   0.204  15.664  0.1877  0.6280 -1.9551
 6683SOL    HW231509   2.285   0.217  15.742 -0.6713 -3.3991 -1.7201
 6684SOL     OW31510   3.588   1.745   2.903 -0.2997  0.2279  0.2504
 6684SOL    HW131511   3.545   1.661   2.889  0.1427  0.0209  0.1461
 6684SOL    HW231512   3.571   1.765   2.995 -2.7923  0.3975 -0.2579
 6685SOL     OW31513   3.835   0.999  13.762  0.1098  0.0268 -0.0660
 6685SOL    HW131514   3.884   1.080  13.752 -0.8098  0.3186 -2.3413
 6685SOL    HW231515   3.846   0.987  13.856  0.1505  0.5541 -0.0029
 6686SOL     OW31516   1.311   3.343   8.708  0.2850  0.2641  0.2251
 6686SOL    HW131517   1.359   3.416   8.748  1.3875 -0.5581  0.4067
 6686SOL    HW231518   1.247   3.333   8.778 -1.6478  0.5930 -1.4951
 6687SOL     OW31519   1.610   3.346   4.310  0.4369 -0.1072 -0.1138
 6687SOL    HW131520   1.653   3.261   4.302  1.6977  0.4853  0.2556
 6687SOL    HW231521   1.525   3.324   4.349  0.9551 -1.3167  0.3201
 6688SOL     OW31522   3.893   0.268   4.775  0.4951  0.1023  0.2451
 6688SOL    HW131523   3.817   0.307   4.818  0.8052  1.5589 -0.5512
 6688SOL    HW231524   3.861   0.259   4.685  0.7347  1.4029  0.0344
 6689SOL     OW31525   1.495   1.380   7.945 -0.1677  0.3332  0.2817
 6689SOL    HW131526   1.483   1.305   7.886  0.1248  2.1121 -2.0510
 6689SOL    HW231527   1.531   1.341   8.025  0.9015  0.9367  0.1012
 6690SOL     OW31528   3.002   4.169  16.041 -0.0603 -0.0006 -0.1297
 6690SOL    HW131529   3.059   4.096  16.017 -1.5397 -1.5715  1.1542
 6690SOL    HW231530   2.977   4.196  15.952 -1.1932 -0.7273 -0.0317
 6691SOL     OW31531   0.477   1.917  11.809  0.4101  0.4365 -0.0490
 6691SOL    HW131532   0.523   1.838  11.781 -2.0195 -0.6691 -0.8269
 6691SOL    HW231533   0.387   1.907  11.779 -0.2688 -1.5632  2.6740
 6692SOL     OW31534   2.729   1.359   6.016  0.2238 -0.1997 -0.6536
 6692SOL    HW131535   2.763   1.449   6.015  2.5215 -1.0262  2.2759
 6692SOL    HW231536   2.813   1.313   6.022  1.1019  1.2887 -1.5455
 6693SOL     OW31537   3.142   4.595   8.867  0.2394 -0.2746  0.0592
 6693SOL    HW131538   3.153   4.671   8.924  0.2123  1.9199 -2.8490
 6693SOL    HW231539   3.111   4.631   8.784 -0.4563 -1.0863 -0.0319
 6694SOL     OW31540   3.048   3.481   5.330 -0.6290  0.3419  0.1909
 6694SOL    HW131541   3.108   3.422   5.376 -0.1912 -0.6171 -1.5781
 6694SOL    HW231542   3.023   3.544   5.397  0.0776  1.3878 -0.5209
 6695SOL     OW31543   4.590   1.723   8.005 -0.4513 -0.1769  0.4338
 6695SOL    HW131544   4.502   1.688   8.018 -1.1350  1.5529  0.5069
 6695SOL    HW231545   4.609   1.680   7.923 -0.2944  0.4689  0.1307
 6696SOL     OW31546   1.389   0.242   3.843  0.3769 -0.5444  0.6374
 6696SOL    HW131547   1.478   0.270   3.818 -0.6152  1.9872 -0.0231
 6696SOL    HW231548   1.348   0.249   3.757 -1.5512  1.6866  1.7535
 6697SOL     OW31549   1.452   2.335   3.873  0.3580  0.2179 -0.1003
 6697SOL    HW131550   1.434   2.398   3.943 -0.8486  0.9603 -1.0634
 6697SOL    HW231551   1.532   2.295   3.905 -0.2047 -0.8258 -0.0274
 6698SOL     OW31552   0.817   1.470  11.322  0.8760  0.1489  0.0288
 6698SOL    HW131553   0.792   1.519  11.244  0.4286 -0.0562  0.0404
 6698SOL    HW231554   0.851   1.388  11.285  0.1187 -0.1127 -0.0999
 6699SOL     OW31555   1.018   4.396  17.573 -0.3923  0.2272 -0.0679
 6699SOL    HW131556   1.112   4.406  17.558 -0.2969  0.9994  1.0934
 6699SOL    HW231557   1.014   4.434  17.661 -1.2355 -2.9880  1.2886
 6700SOL     OW31558   3.582   2.235   2.182  0.3255 -0.5068  0.1566
 6700SOL    HW131559   3.541   2.153   2.154 -0.6738  0.8907 -2.4150
 6700SOL    HW231560   3.627   2.261   2.102  1.1268  0.6489  0.9891
 6701SOL     OW31561   1.895   3.596  14.213  0.0906  0.3606  0.2635
 6701SOL    HW131562   1.838   3.670  14.193 -0.6762 -0.5175 -0.8390
 6701SOL    HW231563   1.948   3.575  14.136 -0.0130  1.2800 -0.0562
 6702SOL     OW31564   0.545   4.599   6.012  0.2886  0.1966 -0.4214
 6702SOL    HW131565   0.491   4.533   6.055  1.3676 -0.4036  0.0222
 6702SOL    HW231566   0.627   4.551   6.021  1.0360  1.5413 -0.0701
 6703SOL     OW31567   0.483   0.313   3.343  0.1265 -0.1371 -0.4257
 6703SOL    HW131568   0.446   0.346   3.425 -0.4860  0.5602 -0.9777
 6703SOL    HW231569   0.414   0.324   3.277  0.2882  0.7076 -0.4520
 6704SOL     OW31570   3.299   0.810  12.313  0.2053  0.8401 -0.2903
 6704SOL    HW131571   3.241   0.740  12.285  0.9159  0.3905 -0.6260
 6704SOL    HW231572   3.277   0.881  12.252 -0.3509  1.3525  0.5120
 6705SOL     OW31573   2.463   1.495   5.446 -0.0554 -0.4195  0.4255
 6705SOL    HW131574   2.528   1.430   5.419  2.3163  1.9394  0.4356
 6705SOL    HW231575   2.417   1.506   5.362  0.5233 -2.8453 -0.2120
 6706SOL     OW31576   2.947   1.475   3.724  0.1111  0.0398  0.2765
 6706SOL    HW131577   2.880   1.417   3.761  1.2201  0.2980  2.6549
 6706SOL    HW231578   2.919   1.476   3.632 -3.0161  1.3813  1.2297
 6707SOL     OW31579   2.804   2.946   8.191 -0.3572  0.4390  0.1370
 6707SOL    HW131580   2.780   3.019   8.247 -2.3814  0.6987 -1.0663
 6707SOL    HW231581   2.818   2.984   8.104 -3.2970  0.8272 -0.1731
 6708SOL     OW31582   1.590   1.054   6.068 -0.2885 -0.3489  0.0429
 6708SOL    HW131583   1.634   1.007   5.997  0.1457 -1.6885  1.1898
 6708SOL    HW231584   1.510   1.002   6.078 -1.3338  0.8319 -2.1165
 6709SOL     OW31585   3.667   0.790  15.418 -0.1609 -0.4604 -0.2349
 6709SOL    HW131586   3.576   0.799  15.446 -0.6755 -0.4686 -1.9158
 6709SOL    HW231587   3.660   0.857  15.351  0.3594 -0.1951 -0.0217
 6710SOL     OW31588   4.657   2.523   6.958  0.0458  0.5190 -0.0160
 6710SOL    HW131589   0.005   2.523   7.018 -0.3656 -1.2052  0.4831
 6710SOL    HW231590   4.587   2.566   7.007  0.2128 -0.0534  0.7329
 6711SOL     OW31591   0.884   3.920   6.652 -0.0247 -0.3124 -0.7028
 6711SOL    HW131592   0.811   3.928   6.591 -1.7899  2.0091  1.7044
 6711SOL    HW231593   0.934   3.856   6.602 -1.7070 -2.3945  0.2996
 6712SOL     OW31594   3.557   2.744   8.281 -0.1132 -0.3036  0.3355
 6712SOL    HW131595   3.469   2.779   8.292 -0.1608 -0.8731  1.7316
 6712SOL    HW231596   3.574   2.774   8.192  1.0787  0.2136  0.7369
 6713SOL     OW31597   4.478   2.598   7.142 -0.3366 -0.1281  0.5050
 6713SOL    HW131598   4.481   2.655   7.219  1.6078  0.3563  0.0819
 6713SOL    HW231599   4.430   2.650   7.078 -0.9969  2.0365  2.7621
 6714SOL     OW31600   1.184   4.181   6.005  0.2047 -0.5927 -0.3385
 6714SOL    HW131601   1.276   4.195   5.980  0.7802 -0.4583  1.8785
 6714SOL    HW231602   1.178   4.243   6.078  1.3641 -0.3706 -0.4385
 6715SOL     OW31603   1.554   3.465   9.373  0.2649  0.1413  0.3112
 6715SOL    HW131604   1.616   3.537   9.381 -0.4078  0.7938 -0.3274
 6715SOL    HW231605   1.569   3.439   9.282 -0.3164 -0.9754  0.5262
 6716SOL     OW31606   3.877   3.205   8.038 -0.1147 -0.1506 -0.3941
 6716SOL    HW131607   3.855   3.283   8.088 -0.8949  0.3608 -1.5553
 6716SOL    HW231608   3.946   3.167   8.093  0.3278  3.0021  1.2344
 6717SOL     OW31609   3.571   0.766   9.101 -0.6514  0.1471 -0.1499
 6717SOL    HW131610   3.631   0.839   9.089  1.4308 -1.3593  1.0847
 6717SOL    HW231611   3.567   0.758   9.196  0.1032  0.6352 -0.0817
 6718SOL     OW31612   3.591   0.295   7.694 -0.0277  0.7673  0.0785
 6718SOL    HW131613   3.636   0.275   7.776  0.6796 -0.4591 -0.6232
 6718SOL    HW231614   3.582   0.210   7.651 -1.0722  0.1819  1.4442
 6719SOL     OW31615   3.672   2.134   0.193 -0.2761  0.1147 -0.0814
 6719SOL    HW131616   3.618   2.152   0.116  0.3537  1.8360 -0.1181
 6719SOL    HW231617   3.631   2.064   0.244  0.1985  0.8830  1.3664
 6720SOL     OW31618   3.032   3.389   4.071 -0.1292  0.1899  0.0382
 6720SOL    HW131619   3.061   3.451   4.004  1.7590 -0.0499  0.6218
 6720SOL    HW231620   2.941   3.418   4.078 -0.4792 -0.9170 -0.0275
 6721SOL     OW31621   0.583   1.753   8.304  0.9007  0.3333 -0.2025
 6721SOL    HW131622   0.629   1.827   8.344 -2.2025  0.9887  2.1540
 6721SOL    HW231623   0.501   1.798   8.281  0.4349 -0.0055  0.8060
 6722SOL     OW31624   2.402   0.353   8.642 -0.0666 -0.1467  0.1341
 6722SOL    HW131625   2.385   0.427   8.700 -0.5362  0.9276 -1.3892
 6722SOL    HW231626   2.464   0.388   8.578 -1.6941  1.0551 -0.7772
 6723SOL     OW31627   1.473   0.190   1.883 -0.8775  0.3931  0.4173
 6723SOL    HW131628   1.523   0.258   1.928 -2.3122  1.1123  0.9151
 6723SOL    HW231629   1.539   0.127   1.855 -1.4074  0.4260 -0.8976
 6724SOL     OW31630   3.119   1.885  17.580  0.6793  0.3359 -0.0320
 6724SOL    HW131631   3.071   1.936  17.645 -2.1740  1.4507 -2.9932
 6724SOL    HW231632   3.197   1.939  17.565  0.9661 -0.0708 -0.0074
 6725SOL     OW31633   2.083   4.711   2.822 -0.1164  0.1197 -0.3538
 6725SOL    HW131634   2.115   4.628   2.857 -0.5650  0.1417  0.1083
 6725SOL    HW231635   2.108   0.040   2.895  0.0252 -2.2395  1.4054
 6726SOL     OW31636   3.295   0.106  11.869 -0.5450  0.2988 -0.0239
 6726SOL    HW131637   3.238   0.103  11.792  1.2560 -3.2931 -1.2021
 6726SOL    HW231638   3.230   0.138  11.931 -0.0989 -1.0429  1.1313
 6727SOL     OW31639   2.790   3.930   2.330  0.2580  0.2124 -0.0112
 6727SOL    HW131640   2.858   3.864   2.340 -0.3969 -0.4708 -0.1307
 6727SOL    HW231641   2.737   3.916   2.409  1.2913  1.3625  0.8935
 6728SOL     OW31642   0.627   0.858   3.271  0.5819 -0.3976  0.3587
 6728SOL    HW131643   0.647   0.878   3.180  1.2716 -0.3354  0.5241
 6728SOL    HW231644   0.560   0.926   3.281  0.1132 -0.6189 -1.2855
 6729SOL     OW31645   2.107   3.693  15.478  0.4531 -0.4768  0.1787
 6729SOL    HW131646   2.031   3.702  15.420  1.6747 -0.8129 -1.4689
 6729SOL    HW231647   2.072   3.749  15.547 -0.4599  0.2718 -0.8770
 6730SOL     OW31648   3.762   3.107  11.397  0.0135  0.0390 -0.3523
 6730SOL    HW131649   3.801   3.174  11.341 -1.3978 -1.4112 -3.0880
 6730SOL    HW231650   3.670   3.115  11.373 -0.5841  2.8854  3.0450
 6731SOL     OW31651   1.785   1.435   0.830 -0.1817 -0.7840  0.2573
 6731SOL    HW131652   1.859   1.409   0.775  0.3659 -1.4907  1.3220
 6731SOL    HW231653   1.793   1.358   0.887 -1.7117  0.2369  1.8598
 6732SOL     OW31654   1.918   0.690   2.148  0.5125 -0.0102  0.3163
 6732SOL    HW131655   1.881   0.715   2.232  0.2107 -0.2680  0.2641
 6732SOL    HW231656   1.943   0.775   2.113  1.2560 -0.9387 -1.4324
 6733SOL     OW31657   3.541   4.405   7.082  0.5770  0.0692  0.2605
 6733SOL    HW131658   3.490   4.338   7.037  0.1410 -0.0892  0.9877
 6733SOL    HW231659   3.480   4.478   7.094  1.0133  0.6847 -1.2443
 6734SOL     OW31660   1.273   4.477   2.333 -0.5455  0.8822  0.4179
 6734SOL    HW131661   1.323   4.483   2.252 -1.4529  0.7301 -0.1629
 6734SOL    HW231662   1.297   4.387   2.357  0.7266  1.2027  0.3007
 6735SOL     OW31663   0.769   0.193   1.148 -0.2750  0.2812  0.3524
 6735SOL    HW131664   0.808   0.265   1.098 -0.2672 -0.0769 -0.1467
 6735SOL    HW231665   0.771   0.123   1.083 -3.0428  0.4457  0.0581
 6736SOL     OW31666   2.665   2.355   9.064 -0.1755  0.3643 -0.2211
 6736SOL    HW131667   2.679   2.343   8.970 -1.4956  1.8237 -0.5939
 6736SOL    HW231668   2.573   2.328   9.068 -0.4287  1.1122 -0.9938
 6737SOL     OW31669   2.813   4.348   0.924 -0.0465  0.6977  0.0557
 6737SOL    HW131670   2.890   4.329   0.871 -0.2812 -1.1139  0.3678
 6737SOL    HW231671   2.834   4.435   0.957  2.6842  0.1894 -0.3756
 6738SOL     OW31672   1.507   2.170   9.436 -0.0372 -0.2911 -0.0516
 6738SOL    HW131673   1.578   2.125   9.391  0.1104  1.1519 -1.3009
 6738SOL    HW231674   1.553   2.226   9.498  0.2384  0.6202 -1.0714
 6739SOL     OW31675   2.998   2.571  16.666  0.4192  0.3682  0.3317
 6739SOL    HW131676   2.999   2.482  16.631 -0.7000  1.4265 -2.3811
 6739SOL    HW231677   2.975   2.546  16.755  2.3738 -3.8065 -0.3266
 6740SOL     OW31678   3.752   2.119  16.229 -0.5483 -0.1513  0.1856
 6740SOL    HW131679   3.702   2.041  16.204 -0.3687  0.5810 -2.3901
 6740SOL    HW231680   3.714   2.132  16.316  0.5325  1.7402  0.3755
 6741SOL     OW31681   0.265   2.129   4.794  0.0360 -0.2923  0.2387
 6741SOL    HW131682   0.228   2.179   4.722  0.5621 -1.3548 -0.7646
 6741SOL    HW231683   0.353   2.164   4.784 -0.1696  1.0818  3.0148
 6742SOL     OW31684   3.587   1.853  14.810 -0.6317 -0.3561  0.3647
 6742SOL    HW131685   3.666   1.851  14.757 -1.2553 -1.1384 -0.5307
 6742SOL    HW231686   3.601   1.937  14.855  0.9627 -0.9827  1.0231
 6743SOL     OW31687   4.556   3.135   6.213  0.3076 -0.0741 -0.3825
 6743SOL    HW131688   4.597   3.106   6.294  0.2901  2.2832  0.4741
 6743SOL    HW231689   4.470   3.094   6.225  0.1171 -0.0034 -1.5184
 6744SOL     OW31690   1.695   0.865   4.904  0.4645 -0.0086  0.3862
 6744SOL    HW131691   1.679   0.781   4.860  0.9209 -0.3691  0.9031
 6744SOL    HW231692   1.789   0.884   4.909  0.3544  0.9825 -1.3881
 6745SOL     OW31693   3.366   3.638   8.140  0.0352 -0.2070  0.6595
 6745SOL    HW131694   3.406   3.650   8.226  2.0179 -0.1231 -0.2706
 6745SOL    HW231695   3.420   3.572   8.097  0.4893 -0.0568  1.0019
 6746SOL     OW31696   3.632   0.622   5.140 -0.1989 -0.2254  0.8029
 6746SOL    HW131697   3.653   0.670   5.220 -0.4064 -1.1643  1.4171
 6746SOL    HW231698   3.712   0.570   5.141 -0.9670 -1.3961  0.1465
 6747SOL     OW31699   2.722   0.910   2.489  0.3181  0.0645 -0.6653
 6747SOL    HW131700   2.643   0.906   2.436 -0.6256  1.6157  0.6161
 6747SOL    HW231701   2.744   1.001   2.469 -2.9815  1.2882  1.2012
 6748SOL     OW31702   3.312   1.518  10.551 -0.2634  0.3057 -0.6941
 6748SOL    HW131703   3.284   1.577  10.481  0.0290 -1.0042 -1.9148
 6748SOL    HW231704   3.249   1.556  10.612  1.9849  0.4147  1.5721
 6749SOL     OW31705   3.445   2.669   7.950 -0.1704 -0.3012  0.2628
 6749SOL    HW131706   3.375   2.713   7.998  0.2265  2.3792 -1.5735
 6749SOL    HW231707   3.501   2.745   7.935 -1.3085  0.7207  1.1259
 6750SOL     OW31708   4.295   0.480  16.710 -0.4612 -0.2580  0.2577
 6750SOL    HW131709   4.207   0.442  16.710 -0.7257  0.2771  4.4681
 6750SOL    HW231710   4.333   0.440  16.632 -0.7348  0.9445 -0.4882
 6751SOL     OW31711   4.566   1.105  13.610  0.3116 -0.1560  0.2591
 6751SOL    HW131712   4.537   1.040  13.546  0.5310 -0.9509  0.9572
 6751SOL    HW231713   4.628   1.156  13.558  0.0632 -3.5113 -3.3475
 6752SOL     OW31714   4.272   2.594  13.829 -0.2250  0.2942 -0.4144
 6752SOL    HW131715   4.300   2.552  13.747 -0.4077  1.0742 -0.8723
 6752SOL    HW231716   4.199   2.643  13.791 -0.1499 -0.0570 -1.0238
 6753SOL     OW31717   1.620   2.124   8.500  0.4529  0.2717  0.0570
 6753SOL    HW131718   1.662   2.141   8.584  1.8255 -5.2604  0.4874
 6753SOL    HW231719   1.561   2.055   8.529  0.6956 -0.8806 -2.1832
 6754SOL     OW31720   1.252   3.533   9.403 -0.0016 -0.2119 -0.5648
 6754SOL    HW131721   1.307   3.454   9.406  2.0269  1.1816 -1.0566
 6754SOL    HW231722   1.310   3.608   9.419 -0.1018 -0.2082 -0.2260
 6755SOL     OW31723   4.600   0.308   5.118  0.0589  0.1536  0.3213
 6755SOL    HW131724   4.676   0.254   5.139 -1.1178 -1.6517 -0.0761
 6755SOL    HW231725   4.644   0.362   5.053  1.8861 -1.3930  0.2590
 6756SOL     OW31726   0.973   3.268   0.428 -0.1986 -0.0680 -0.1697
 6756SOL    HW131727   0.904   3.294   0.489 -1.8585 -1.1563 -1.5979
 6756SOL    HW231728   0.939   3.187   0.390  1.7461 -1.4341  1.0012
 6757SOL     OW31729   1.300   1.938   4.922 -0.2529 -0.0269 -0.0284
 6757SOL    HW131730   1.335   2.000   4.986 -0.8824  0.3687 -0.0631
 6757SOL    HW231731   1.211   1.972   4.913 -0.2673 -0.6738 -2.4219
 6758SOL     OW31732   0.006   2.844   6.235  0.2799  0.0886  0.3091
 6758SOL    HW131733   4.712   2.810   6.322  1.3009 -0.4757  0.3408
 6758SOL    HW231734   0.082   2.894   6.267  1.3772 -0.9031 -0.7957
 6759SOL     OW31735   0.843   3.527   0.849 -0.6633 -0.1943  0.3958
 6759SOL    HW131736   0.937   3.517   0.866 -0.7093 -0.7526  0.3256
 6759SOL    HW231737   0.806   3.554   0.933 -2.3341 -1.9422  0.2169
 6760SOL     OW31738   0.902   3.202   2.431  0.1175 -0.2055  0.7219
 6760SOL    HW131739   0.922   3.113   2.459  2.2332 -0.2493 -0.9779
 6760SOL    HW231740   0.980   3.232   2.385 -1.9874  2.6651 -1.0387
 6761SOL     OW31741   3.689   4.403   1.100  0.2527 -0.2596 -0.5170
 6761SOL    HW131742   3.722   4.475   1.154 -0.5898  0.5754 -1.1112
 6761SOL    HW231743   3.635   4.454   1.041  2.1865  1.9369 -0.3563
 6762SOL     OW31744   0.658   3.871  15.074  0.7470 -0.5974  0.0035
 6762SOL    HW131745   0.731   3.867  15.136  1.5634 -0.3970 -0.9592
 6762SOL    HW231746   0.641   3.965  15.069  2.4167 -0.3502 -1.0623
 6763SOL     OW31747   1.973   3.133   7.326 -0.0669 -0.2004  0.3043
 6763SOL    HW131748   2.056   3.154   7.368  0.2363  1.6601 -1.2461
 6763SOL    HW231749   1.987   3.038   7.329  0.3627 -0.1547 -0.3067
 6764SOL     OW31750   1.049   3.361   8.311  0.2716  0.4707 -0.1948
 6764SOL    HW131751   1.061   3.285   8.254 -1.3127  0.9178 -1.1175
 6764SOL    HW231752   1.119   3.418   8.279  1.2371  0.0154  1.1224
 6765SOL     OW31753   1.997   4.203  13.427  0.1878  0.3165  0.1631
 6765SOL    HW131754   1.954   4.256  13.360 -0.0897  0.4518  0.4520
 6765SOL    HW231755   1.968   4.112  13.421  0.9169  0.1079 -0.2841
 6766SOL     OW31756   1.856   4.093  14.257 -0.3677 -0.6126  0.1499
 6766SOL    HW131757   1.921   4.094  14.328 -1.8150  0.1358  1.4463
 6766SOL    HW231758   1.781   4.072  14.313 -1.0838  1.8693  0.0800
 6767SOL     OW31759   2.206   4.552   0.186  0.2153 -0.5003 -0.4767
 6767SOL    HW131760   2.213   4.642   0.153  1.9563 -0.6206 -0.4028
 6767SOL    HW231761   2.118   4.550   0.224  1.1623  1.2193  1.8329
 6768SOL     OW31762   3.864   3.384   9.539 -0.3157  0.1124 -0.2005
 6768SOL    HW131763   3.905   3.382   9.625  2.2899 -1.6268 -1.4992
 6768SOL    HW231764   3.803   3.310   9.542 -1.4729  1.1546  1.8172
 6769SOL     OW31765   3.853   2.814   1.737  0.0823  0.0897  0.5369
 6769SOL    HW131766   3.793   2.888   1.748 -0.4404  0.1030 -2.5966
 6769SOL    HW231767   3.936   2.861   1.730  0.0530  0.1812  0.7968
 6770SOL     OW31768   0.164   3.525   2.211 -0.0247  0.6827 -0.2591
 6770SOL    HW131769   0.197   3.439   2.184  1.5753  1.6107 -1.2675
 6770SOL    HW231770   0.098   3.485   2.267  1.7659 -0.5501  0.9396
 6771SOL     OW31771   3.306   3.491   9.191  0.0629 -0.4699  0.4595
 6771SOL    HW131772   3.372   3.443   9.243 -1.0396 -2.2870  0.2005
 6771SOL    HW231773   3.367   3.564   9.185  0.5634 -0.9623 -0.5057
 6772SOL     OW31774   4.359   1.851   4.102  0.3462  0.4612 -0.3939
 6772SOL    HW131775   4.436   1.908   4.103  1.6521 -1.2716 -2.5879
 6772SOL    HW231776   4.322   1.874   4.016 -0.2559 -0.9155 -0.4921
 6773SOL     OW31777   4.490   1.258   6.475 -0.6326  0.0825 -0.3138
 6773SOL    HW131778   4.541   1.247   6.395  1.8682  1.9756  1.0695
 6773SOL    HW231779   4.547   1.306   6.534  0.8118 -0.9316 -0.8837
 6774SOL     OW31780   1.266   3.280   2.861 -0.1318  0.3041  0.4585
 6774SOL    HW131781   1.328   3.207   2.848 -2.3335 -1.5333  0.2125
 6774SOL    HW231782   1.297   3.336   2.790  1.4732  0.2225  1.0751
 6775SOL     OW31783   1.283   3.070  13.870  0.4251 -0.2144 -0.3440
 6775SOL    HW131784   1.290   3.052  13.777  1.7874 -0.0629 -0.2804
 6775SOL    HW231785   1.193   3.103  13.875  0.8887  1.1512 -0.8791
 6776SOL     OW31786   3.257   1.236   6.385  0.0879 -0.5772 -0.2632
 6776SOL    HW131787   3.187   1.295   6.414  0.7989  0.1485 -0.0062
 6776SOL    HW231788   3.219   1.148   6.385 -1.8018  0.2438  0.3700
 6777SOL     OW31789   1.657   2.765   3.312  0.7204  0.6076 -0.0378
 6777SOL    HW131790   1.610   2.682   3.311  0.8861  0.5166 -0.1855
 6777SOL    HW231791   1.741   2.742   3.272  0.9162 -0.5437  1.0442
 6778SOL     OW31792   1.392   0.035   4.060  0.2678  0.0330 -0.1940
 6778SOL    HW131793   1.426   0.068   3.977  2.3873 -1.1714  0.1848
 6778SOL    HW231794   1.373   0.118   4.104 -1.9478 -0.2406 -0.6337
 6779SOL     OW31795   0.241   3.801  15.703 -0.2277 -0.3246 -0.5299
 6779SOL    HW131796   0.178   3.810  15.775  1.0176  0.1326  0.5032
 6779SOL    HW231797   0.224   3.886  15.662  0.2415  0.1886  0.3332
 6780SOL     OW31798   1.437   1.090   8.115 -0.0066 -0.6416  0.3532
 6780SOL    HW131799   1.437   1.016   8.055 -1.2268 -0.3345 -0.0296
 6780SOL    HW231800   1.343   1.108   8.126 -0.0593  0.2641 -1.6075
 6781SOL     OW31801   2.364   4.279   6.073  0.2096  0.6184 -0.0009
 6781SOL    HW131802   2.419   4.340   6.024  2.0503 -1.6789 -0.7943
 6781SOL    HW231803   2.289   4.337   6.090 -0.3531 -0.2160  0.3589
 6782SOL     OW31804   1.639   3.930   9.988  0.0487  0.1377  0.1292
 6782SOL    HW131805   1.617   3.999   9.925  0.6112  0.0907 -0.1213
 6782SOL    HW231806   1.677   3.979  10.060 -0.0646  4.1799 -2.5648
 6783SOL     OW31807   4.338   3.565   4.102 -0.5143  0.5238 -0.2353
 6783SOL    HW131808   4.413   3.580   4.160 -1.5117  2.6533  0.4849
 6783SOL    HW231809   4.285   3.501   4.149  0.3494  0.8958  1.2188
 6784SOL     OW31810   0.460   1.587   5.151 -1.0585 -0.3425  0.4048
 6784SOL    HW131811   0.436   1.672   5.190 -1.7379 -1.0056  1.4395
 6784SOL    HW231812   0.525   1.553   5.213 -0.3400 -1.9567 -1.2481
 6785SOL     OW31813   3.929   2.222  16.737 -0.3094 -0.2060 -0.1528
 6785SOL    HW131814   3.850   2.200  16.786 -0.1386 -0.3745  0.0439
 6785SOL    HW231815   3.961   2.133  16.721 -0.6590 -0.7974  2.5312
 6786SOL     OW31816   3.434   3.596  15.287  0.5330  0.1959  0.1908
 6786SOL    HW131817   3.451   3.578  15.379 -0.9295 -0.3975  0.3558
 6786SOL    HW231818   3.386   3.679  15.288  0.5535  0.2149 -0.5266
 6787SOL     OW31819   4.399   3.233  14.452  0.2618  0.0929  0.5785
 6787SOL    HW131820   4.473   3.206  14.397  0.1900  0.8957  0.0837
 6787SOL    HW231821   4.338   3.278  14.392  0.2065 -1.8760 -0.8423
 6788SOL     OW31822   1.817   4.624  15.440  0.4494  0.5309  0.2537
 6788SOL    HW131823   1.879   4.577  15.384 -0.3460  0.8892 -0.9332
 6788SOL    HW231824   1.790   4.696  15.382  0.4003 -1.8210 -2.6533
 6789SOL     OW31825   0.793   4.184   5.512  0.2513  0.0247 -0.2039
 6789SOL    HW131826   0.721   4.166   5.572  1.5526  0.3586  1.4562
 6789SOL    HW231827   0.812   4.267   5.555  1.2052 -0.4348  0.2592
 6790SOL     OW31828   0.663   3.320   2.342 -0.3318 -0.1178  0.4577
 6790SOL    HW131829   0.744   3.269   2.352 -0.3442 -0.1351  0.4713
 6790SOL    HW231830   0.696   3.409   2.351 -0.5280 -0.0217  0.1885
 6791SOL     OW31831   2.195   0.715   2.497 -0.2017  0.1117  0.5115
 6791SOL    HW131832   2.263   0.777   2.522  0.9846  1.2314 -5.4622
 6791SOL    HW231833   2.175   0.740   2.407 -2.1690 -1.7430  0.4202
 6792SOL     OW31834   2.938   1.793   1.965 -0.2414 -0.2546  0.8697
 6792SOL    HW131835   2.890   1.828   1.890  1.8577  0.4417 -0.1538
 6792SOL    HW231836   2.975   1.721   1.915  0.3302  1.2998 -0.9374
 6793SOL     OW31837   2.746   1.356   6.818  0.1724  0.5574 -0.2512
 6793SOL    HW131838   2.816   1.384   6.759 -0.5999  3.0604 -0.0024
 6793SOL    HW231839   2.717   1.433   6.868 -1.3602 -0.1679 -0.0142
 6794SOL     OW31840   3.293   1.179   4.579 -0.5484 -0.1893  0.0221
 6794SOL    HW131841   3.281   1.273   4.570  0.7722 -0.3078 -3.1019
 6794SOL    HW231842   3.388   1.175   4.566 -0.7852 -2.1837 -1.2297
 6795SOL     OW31843   2.417   0.891   7.130  0.4640  0.6338 -0.0618
 6795SOL    HW131844   2.415   0.849   7.044  2.3885 -1.4141  0.8899
 6795SOL    HW231845   2.369   0.826   7.182  1.0164  1.4248  1.4295
 6796SOL     OW31846   1.025   2.214   3.472 -0.1724  0.0804  0.1858
 6796SOL    HW131847   1.078   2.208   3.551 -2.0992  1.9780  1.6121
 6796SOL    HW231848   0.979   2.297   3.490 -0.9497 -0.2395 -0.3298
 6797SOL     OW31849   1.136   0.389  11.056 -0.7486 -0.6210 -0.3489
 6797SOL    HW131850   1.052   0.345  11.063 -0.9399 -0.3174 -0.6683
 6797SOL    HW231851   1.107   0.478  11.079 -0.2767 -0.3536 -0.7686
 6798SOL     OW31852   3.651   1.250  11.127  0.4532  0.1989 -0.2386
 6798SOL    HW131853   3.577   1.300  11.093 -0.3125 -1.0822 -0.4219
 6798SOL    HW231854   3.695   1.236  11.043 -1.4197 -2.2667 -0.7910
 6799SOL     OW31855   2.599   0.735   9.341  0.2903 -0.0102  0.2236
 6799SOL    HW131856   2.523   0.705   9.391  0.7498 -2.3030 -0.4596
 6799SOL    HW231857   2.594   0.829   9.354 -2.3125  0.1701 -2.0951
 6800SOL     OW31858   4.076   2.931   6.848 -0.0721  0.1968 -0.6693
 6800SOL    HW131859   4.064   2.917   6.942  0.5321 -0.5137 -0.6877
 6800SOL    HW231860   4.031   2.853   6.816 -1.2515 -0.8035  3.4307
 6801SOL     OW31861   1.600   0.387   7.126 -0.9500 -0.0635  0.0431
 6801SOL    HW131862   1.653   0.454   7.170 -0.9718  0.2078 -0.3477
 6801SOL    HW231863   1.612   0.319   7.193 -1.1077 -1.6236 -1.4875
 6802SOL     OW31864   0.485   0.911  15.485  0.0889 -0.2167 -0.1087
 6802SOL    HW131865   0.580   0.900  15.477  0.2647  0.2250  1.2518
 6802SOL    HW231866   0.484   0.964  15.406 -0.8174 -0.1274 -0.0397
 6803SOL     OW31867   1.757   2.062   9.233  0.5412  0.2021  0.0360
 6803SOL    HW131868   1.756   2.027   9.322  0.2842  1.7756  0.6668
 6803SOL    HW231869   1.730   1.995   9.171 -1.3029  0.8194  0.1524
 6804SOL     OW31870   1.607   3.917   1.760 -0.0211  0.7715 -0.3918
 6804SOL    HW131871   1.606   3.988   1.824 -3.3910  0.0560  0.3765
 6804SOL    HW231872   1.689   3.937   1.716  0.0662 -0.9518 -1.0071
 6805SOL     OW31873   0.647   2.549   4.456 -0.3503 -0.3116 -0.6387
 6805SOL    HW131874   0.714   2.481   4.458  0.0629  0.1243  0.2922
 6805SOL    HW231875   0.601   2.524   4.536 -0.5920  1.3086 -0.2710
 6806SOL     OW31876   1.869   0.987  11.176  0.5629 -0.3319 -0.2612
 6806SOL    HW131877   1.902   0.939  11.100  3.6671  0.2292  0.7337
 6806SOL    HW231878   1.788   0.940  11.196  1.7632 -1.1693  2.7310
 6807SOL     OW31879   2.214   1.611   2.699  0.0052  0.2523 -0.0818
 6807SOL    HW131880   2.220   1.573   2.611 -1.3460  1.7106 -0.8094
 6807SOL    HW231881   2.305   1.603   2.727  0.6285  1.9422 -1.6767
 6808SOL     OW31882   3.209   2.298  11.452  0.2120 -0.1605  0.4808
 6808SOL    HW131883   3.130   2.244  11.441  0.9605 -1.2299  0.3893
 6808SOL    HW231884   3.169   2.376  11.413  2.1044 -0.7956 -2.6141
 6809SOL     OW31885   2.303   0.423   9.569 -0.0438 -0.1258 -0.4617
 6809SOL    HW131886   2.249   0.495   9.601  0.4636  0.6766 -1.4322
 6809SOL    HW231887   2.248   0.344   9.572 -0.3309  0.1570  1.7414
 6810SOL     OW31888   1.950   3.348   5.395  0.1280 -0.4124 -0.6233
 6810SOL    HW131889   1.966   3.381   5.306 -0.7519 -1.9875 -1.3569
 6810SOL    HW231890   1.940   3.255   5.377  1.3594 -0.5607 -0.5400
 6811SOL     OW31891   4.230   3.501  11.749 -0.6655 -0.1178  0.3800
 6811SOL    HW131892   4.287   3.528  11.677  0.4642  0.4501  1.4914
 6811SOL    HW231893   4.182   3.431  11.705  0.6266  0.0917 -1.3332
 6812SOL     OW31894   0.192   3.000   3.056  0.1751  0.0624 -0.5237
 6812SOL    HW131895   0.118   2.939   3.045  0.7304 -0.7072  0.0135
 6812SOL    HW231896   0.175   3.062   2.985 -2.0356  0.7116  0.5651
 6813SOL     OW31897   2.763   2.533   6.783 -0.0362  0.1076 -0.2621
 6813SOL    HW131898   2.732   2.444   6.796 -0.3654  0.3576  0.6435
 6813SOL    HW231899   2.788   2.556   6.873 -4.0249 -0.1426  0.8827
 6814SOL     OW31900   1.286   2.538   5.360  0.3501  0.3900 -0.4583
 6814SOL    HW131901   1.256   2.579   5.279  1.1868  2.6916  0.3999
 6814SOL    HW231902   1.215   2.478   5.384 -0.5886  1.8283  0.3706
 6815SOL     OW31903   1.436   1.772   2.054  0.0911  0.2916  0.2315
 6815SOL    HW131904   1.493   1.849   2.045  0.4280 -0.1972 -1.9481
 6815SOL    HW231905   1.492   1.714   2.106 -0.4361 -0.1886  0.2589
 6816SOL     OW31906   3.713   2.642   4.804 -0.2582 -0.0552 -0.6098
 6816SOL    HW131907   3.705   2.734   4.829 -0.5967 -0.2905  0.1173
 6816SOL    HW231908   3.800   2.624   4.841  0.0904  0.8623 -0.9800
 6817SOL     OW31909   2.440   3.248  11.650 -0.5855 -0.2332  0.3611
 6817SOL    HW131910   2.507   3.222  11.713  0.4142  2.5717  0.4382
 6817SOL    HW231911   2.445   3.179  11.583  0.9991 -0.1549  0.3999
 6818SOL     OW31912   4.123   2.518   4.563  0.1846 -0.0740  0.1446
 6818SOL    HW131913   4.073   2.567   4.499 -1.2335  1.4956  2.4402
 6818SOL    HW231914   4.052   2.462   4.596  0.0459  0.1869  0.2931
 6819SOL     OW31915   4.197   4.557   9.127  0.0246 -0.1625  0.1098
 6819SOL    HW131916   4.138   4.613   9.178 -0.2994 -1.2975  0.9772
 6819SOL    HW231917   4.252   4.516   9.193  1.5962 -0.1937 -1.2156
 6820SOL     OW31918   1.405   4.335   4.644  0.5554  0.5537  0.2383
 6820SOL    HW131919   1.349   4.402   4.684 -0.3409  0.9174 -1.6088
 6820SOL    HW231920   1.488   4.368   4.679  1.0687 -0.1794 -0.2795
 6821SOL     OW31921   1.114   0.269   0.322 -0.2814 -0.0161  0.1039
 6821SOL    HW131922   1.074   0.222   0.395 -2.3345 -0.3224 -1.1948
 6821SOL    HW231923   1.204   0.259   0.351 -0.2929  1.0525  0.4875
 6822SOL     OW31924   0.692   0.474   6.032 -0.0661 -0.2830  0.0961
 6822SOL    HW131925   0.674   0.471   6.126 -0.9164 -1.4103 -0.0960
 6822SOL    HW231926   0.601   0.471   6.001 -0.1064 -0.0890  0.1958
 6823SOL     OW31927   2.132   1.189   3.256 -0.1736  0.2645  0.9761
 6823SOL    HW131928   2.133   1.113   3.198  0.6801 -0.3183  1.7722
 6823SOL    HW231929   2.092   1.153   3.336 -0.6807  1.7888  1.4033
 6824SOL     OW31930   2.902   4.218   6.651  0.2274 -0.5703 -0.2446
 6824SOL    HW131931   2.912   4.243   6.559 -0.7934 -1.2683 -0.5552
 6824SOL    HW231932   2.885   4.127   6.629  2.3914 -1.7015  2.8272
 6825SOL     OW31933   4.341   2.332   4.396 -0.9158  0.6654 -0.0282
 6825SOL    HW131934   4.302   2.288   4.472  2.5750  0.5724  1.6910
 6825SOL    HW231935   4.289   2.286   4.331 -2.0210 -0.4471  1.6233
 6826SOL     OW31936   3.990   3.895   3.362  0.1017  0.2185 -0.4807
 6826SOL    HW131937   3.931   3.822   3.344  0.6811 -0.9662  2.4643
 6826SOL    HW231938   3.982   3.891   3.457  0.4356 -0.3355 -0.4735
 6827SOL     OW31939   2.640   2.566   6.242 -0.3685 -0.1810 -0.2470
 6827SOL    HW131940   2.653   2.599   6.153  2.1111  0.2077  0.2567
 6827SOL    HW231941   2.617   2.643   6.294  1.5007 -0.0932  0.4423
 6828SOL     OW31942   1.429   0.278  14.036 -0.0177  0.9065  0.1690
 6828SOL    HW131943   1.394   0.302  14.122  0.0952  0.4507  0.3437
 6828SOL    HW231944   1.381   0.327  13.969 -0.6251  0.2047  0.0964
 6829SOL     OW31945   3.624   2.145   8.021 -0.0597  0.4584  0.2423
 6829SOL    HW131946   3.705   2.101   7.996  0.6914  1.2520  1.2426
 6829SOL    HW231947   3.601   2.192   7.941  2.7399 -0.7326 -1.2901
 6830SOL     OW31948   3.826   4.144   3.353  0.8589 -0.6762 -0.0484
 6830SOL    HW131949   3.861   4.059   3.328 -0.6421 -1.4792  0.6084
 6830SOL    HW231950   3.872   4.174   3.432  1.1379 -0.5916 -0.2437
 6831SOL     OW31951   3.984   4.406   5.000  0.5325  0.2008  0.0866
 6831SOL    HW131952   3.966   4.434   4.910  2.6444  1.3928  0.0377
 6831SOL    HW231953   4.079   4.415   5.013  0.0885  2.5444  1.7360
 6832SOL     OW31954   2.603   2.950   5.148 -0.1274 -0.4594  0.4843
 6832SOL    HW131955   2.541   2.928   5.079  0.5298  0.8911 -0.5410
 6832SOL    HW231956   2.550   2.987   5.218 -1.0594 -2.4642  0.8439
 6833SOL     OW31957   3.033   1.246   5.023  0.6456  0.1155 -0.4743
 6833SOL    HW131958   3.024   1.192   5.101 -0.4189  1.5288  0.3841
 6833SOL    HW231959   2.997   1.197   4.950  0.3282 -2.8743  1.6945
 6834SOL     OW31960   4.310   2.931   2.490 -0.1431  0.0059 -0.7816
 6834SOL    HW131961   4.223   2.949   2.527  0.6897  0.8918  0.7457
 6834SOL    HW231962   4.305   2.980   2.407 -0.3255 -0.7091 -1.1880
 6835SOL     OW31963   4.537   4.271   2.202  0.1088  0.4550  0.4163
 6835SOL    HW131964   4.559   4.291   2.111 -0.9114 -2.5162 -0.4901
 6835SOL    HW231965   4.465   4.332   2.218  0.7584  0.4658  3.3212
 6836SOL     OW31966   3.427   1.255   4.184  0.3513  0.0813 -0.0092
 6836SOL    HW131967   3.442   1.249   4.090  1.6188 -2.2858  0.3417
 6836SOL    HW231968   3.495   1.314   4.218  0.3937 -0.5780  1.0547
 6837SOL     OW31969   3.020   2.005   4.242 -0.3798 -0.3239 -0.1716
 6837SOL    HW131970   3.111   2.029   4.256 -0.5886 -0.1659  0.9478
 6837SOL    HW231971   3.014   1.913   4.270 -1.2662 -0.2619 -0.1463
 6838SOL     OW31972   3.072   3.482   7.252 -0.4387  0.4103 -0.6964
 6838SOL    HW131973   3.099   3.394   7.277 -0.5582  0.5253 -0.1534
 6838SOL    HW231974   3.147   3.536   7.278 -1.2964 -0.1057  2.8909
 6839SOL     OW31975   0.710   4.208   0.024  0.3747  0.0973 -0.6765
 6839SOL    HW131976   0.624   4.249   0.028  0.3229 -0.0576 -0.1362
 6839SOL    HW231977   0.697   4.122   0.065  1.5925  1.0337  1.7058
 6840SOL     OW31978   4.062   2.728  12.310 -0.6122  0.4760  0.1010
 6840SOL    HW131979   3.997   2.797  12.312 -0.1426  0.8455  2.5635
 6840SOL    HW231980   4.138   2.786  12.315 -0.4211  0.0270  2.1547
 6841SOL     OW31981   0.714   3.562   4.166 -0.0582 -0.1573 -0.8118
 6841SOL    HW131982   0.693   3.560   4.072 -2.7925  0.3265 -0.2082
 6841SOL    HW231983   0.710   3.468   4.183 -0.3801  0.0311  0.1207
 6842SOL     OW31984   1.820   3.562   8.813  0.2179 -0.8079  0.6914
 6842SOL    HW131985   1.867   3.588   8.892  2.2086 -0.1354 -0.7096
 6842SOL    HW231986   1.792   3.478   8.850 -3.4508  0.6913  1.3427
 6843SOL     OW31987   0.094   2.070   4.274 -0.3308 -0.0921 -0.8592
 6843SOL    HW131988   0.016   2.115   4.307  0.6221  2.3436 -1.8989
 6843SOL    HW231989   0.145   2.145   4.244  0.3324  0.7521  2.2890
 6844SOL     OW31990   1.716   3.360   8.499  0.2178  0.1562 -0.1867
 6844SOL    HW131991   1.697   3.292   8.434  1.2276 -0.6901  0.3906
 6844SOL    HW231992   1.791   3.326   8.548  0.1797  1.2128  0.6052
 6845SOL     OW31993   4.710   1.389   8.189  0.2355  0.0017  0.0151
 6845SOL    HW131994   0.036   1.329   8.242  2.7269  2.5459  0.3317
 6845SOL    HW231995   0.046   1.454   8.159 -1.6660  0.1328 -3.6943
 6846SOL     OW31996   2.791   3.660   4.703 -0.2022 -0.6359  0.3024
 6846SOL    HW131997   2.763   3.735   4.649  0.1639 -0.9562 -0.3250
 6846SOL    HW231998   2.755   3.685   4.789 -1.8187  1.0202 -0.8603
 6847SOL     OW31999   3.900   0.947  14.031  0.2784 -0.1597 -0.6507
 6847SOL    HW132000   3.920   0.950  14.125  0.8978 -0.6683 -0.7685
 6847SOL    HW232001   3.957   0.875  14.006 -0.7586 -0.3878 -2.4149
 6848SOL     OW32002   1.147   2.491   7.512  0.1024 -0.0620 -0.0364
 6848SOL    HW132003   1.203   2.522   7.583 -1.8313 -0.6862  1.7531
 6848SOL    HW232004   1.112   2.579   7.493  0.3690 -0.8741 -4.3341
 6849SOL     OW32005   0.416   3.895  12.395  0.3325  0.7122 -0.9710
 6849SOL    HW132006   0.333   3.868  12.356  0.3386 -1.2910  0.3808
 6849SOL    HW232007   0.385   3.960  12.457  0.0012 -1.1895  0.8463
 6850SOL     OW32008   0.957   2.406  11.846  0.0165 -0.1132  0.1713
 6850SOL    HW132009   0.991   2.353  11.775 -1.6067  1.6003 -1.8792
 6850SOL    HW232010   1.028   2.405  11.910  1.1714 -0.5182 -1.1393
 6851SOL     OW32011   3.548   1.926   2.560  0.3008 -0.2449 -0.1170
 6851SOL    HW132012   3.575   1.953   2.472 -1.7999  1.9298 -0.0811
 6851SOL    HW232013   3.597   1.998   2.600  0.7784 -0.6591  0.0456
 6852SOL     OW32014   2.004   3.386   4.905  0.1118  0.4379 -0.3465
 6852SOL    HW132015   2.006   3.290   4.906  1.0584  0.4552 -0.8850
 6852SOL    HW232016   1.940   3.399   4.836 -0.5847  0.2607  0.2690
 6853SOL     OW32017   1.396   0.852   6.109  0.0552  0.2078 -0.5398
 6853SOL    HW132018   1.305   0.856   6.137  0.6177  0.0653  1.3522
 6853SOL    HW232019   1.445   0.824   6.187 -1.6861  0.1238  0.5164
 6854SOL     OW32020   2.623   3.233   0.477  0.9042  0.5559  0.0697
 6854SOL    HW132021   2.591   3.313   0.518 -0.5737 -0.0853  0.1426
 6854SOL    HW232022   2.559   3.205   0.412  1.9668  1.7300 -1.5001
 6855SOL     OW32023   2.059   0.876   8.824  0.0996 -0.2710  0.3890
 6855SOL    HW132024   2.032   0.805   8.881  0.0819 -1.7381 -1.4350
 6855SOL    HW232025   2.141   0.895   8.868  0.5002 -1.0710 -0.0082
 6856SOL     OW32026   1.231   0.267  10.278 -0.1570  0.0572 -0.1720
 6856SOL    HW132027   1.162   0.246  10.216 -0.0044  0.7874 -0.5940
 6856SOL    HW232028   1.287   0.316  10.218  0.6743 -0.1690  0.4151
 6857SOL     OW32029   3.749   0.887   4.832 -0.1533  0.4401 -0.3087
 6857SOL    HW132030   3.802   0.839   4.895 -0.8342 -0.9979 -0.8458
 6857SOL    HW232031   3.799   0.886   4.750  0.6094  0.6093  0.1532
 6858SOL     OW32032   2.672   2.449  15.350  0.0029  0.1649 -0.0208
 6858SOL    HW132033   2.753   2.500  15.351  0.7240 -0.9519 -1.0131
 6858SOL    HW232034   2.627   2.495  15.420 -1.4801 -0.9391 -0.2435
 6859SOL     OW32035   3.106   0.584  12.267 -0.7089  0.2025 -0.4130
 6859SOL    HW132036   3.025   0.635  12.270 -1.7119 -1.5568  2.2328
 6859SOL    HW232037   3.122   0.571  12.360  1.3473 -0.2427 -0.8414
 6860SOL     OW32038   4.168   3.233   9.634 -0.2713 -1.0469 -0.3712
 6860SOL    HW132039   4.152   3.197   9.546 -0.2465  0.6099 -1.0488
 6860SOL    HW232040   4.150   3.156   9.687  2.1602 -0.0385  1.9465
 6861SOL     OW32041   0.060   2.449   1.949  0.2981 -0.0936  0.3124
 6861SOL    HW132042   4.714   2.453   1.888 -0.2735  1.1905  1.1066
 6861SOL    HW232043   0.060   2.363   1.992 -1.7831  0.9361  2.3389
 6862SOL     OW32044   2.679   1.868   6.271 -0.0672  0.5701  0.0428
 6862SOL    HW132045   2.621   1.941   6.293 -1.4664 -0.4380 -0.3398
 6862SOL    HW232046   2.687   1.884   6.177 -0.6075  1.9995  0.2359
 6863SOL     OW32047   3.022   4.662  10.023  0.1088 -0.4147  0.0787
 6863SOL    HW132048   3.107   4.660  10.067 -0.3650 -1.6069  0.9440
 6863SOL    HW232049   2.984   4.722  10.088  0.4164 -0.1155 -0.0171
 6864SOL     OW32050   1.065   2.405  11.083 -0.3203 -0.1513 -0.1128
 6864SOL    HW132051   0.970   2.397  11.095 -0.2837 -0.4432 -0.0019
 6864SOL    HW232052   1.094   2.335  11.142 -3.5786 -1.2018  0.2529
 6865SOL     OW32053   0.561   0.920   1.264  0.0652  0.0672 -0.1908
 6865SOL    HW132054   0.621   0.949   1.196  0.9297 -1.3686 -0.0446
 6865SOL    HW232055   0.565   1.000   1.316  0.3192 -2.4652  3.6755
 6866SOL     OW32056   0.401   0.948   4.623  0.5646  0.3308 -0.4603
 6866SOL    HW132057   0.321   1.002   4.629 -0.7030 -1.6754  0.7065
 6866SOL    HW232058   0.414   0.931   4.716 -1.2607 -0.2327 -0.2950
 6867SOL     OW32059   0.198   4.366   9.156 -0.3593  0.4674  0.0930
 6867SOL    HW132060   0.272   4.425   9.138  0.8181 -0.7998  0.7849
 6867SOL    HW232061   0.195   4.310   9.078 -0.1105  0.5581  0.0190
 6868SOL     OW32062   2.542   2.221   2.319  0.0709  0.4475 -0.0281
 6868SOL    HW132063   2.557   2.213   2.225  1.7122  0.4228  0.2355
 6868SOL    HW232064   2.492   2.140   2.329 -1.0211  0.9358 -1.4261
 6869SOL     OW32065   3.608   1.126   6.540  0.3688 -0.5829  0.0150
 6869SOL    HW132066   3.672   1.097   6.475 -2.6342 -2.1229 -2.3247
 6869SOL    HW232067   3.638   1.077   6.616 -1.5801  0.4848  1.4623
 6870SOL     OW32068   3.816   3.191   4.878 -0.5166  0.1559 -0.2610
 6870SOL    HW132069   3.800   3.140   4.957  1.5894 -1.6195 -0.9890
 6870SOL    HW232070   3.758   3.149   4.814  2.6210 -2.1739 -1.5900
 6871SOL     OW32071   0.735   2.089  15.176  0.0010 -0.0726  0.1389
 6871SOL    HW132072   0.648   2.123  15.197  0.8309  2.4477 -0.5427
 6871SOL    HW232073   0.765   2.064  15.263 -3.6757 -4.1411  0.2916
 6872SOL     OW32074   1.568   2.512   3.336 -0.4946 -0.0745 -0.2726
 6872SOL    HW132075   1.597   2.451   3.268 -1.7395  0.2290 -1.0627
 6872SOL    HW232076   1.627   2.487   3.408 -2.3391 -0.3545  1.1486
 6873SOL     OW32077   2.160   0.579   8.272  0.4390 -0.2796 -0.4073
 6873SOL    HW132078   2.123   0.660   8.237 -0.4817 -0.1900  0.7761
 6873SOL    HW232079   2.132   0.578   8.363  0.4555 -0.4701 -0.4035
 6874SOL     OW32080   2.576   1.057  10.294  0.0417 -0.0029 -0.0980
 6874SOL    HW132081   2.606   1.144  10.320  1.3774 -0.8955  1.3704
 6874SOL    HW232082   2.628   1.005  10.355 -0.1698  1.7671  1.5756
 6875SOL     OW32083   0.449   0.665  11.684 -0.5702  0.0089 -0.2119
 6875SOL    HW132084   0.425   0.732  11.749  0.8679 -0.5504  0.9035
 6875SOL    HW232085   0.444   0.711  11.600 -0.9727 -1.3420 -0.9233
 6876SOL     OW32086   2.657   0.405  15.036  0.3062  0.0550 -0.1069
 6876SOL    HW132087   2.598   0.333  15.014  0.4194 -0.4337  1.1938
 6876SOL    HW232088   2.670   0.391  15.129 -1.0542  1.3396  0.2863
 6877SOL     OW32089   1.680   3.650   2.373 -0.2827 -0.2741 -0.0943
 6877SOL    HW132090   1.772   3.663   2.397 -0.3988  2.0382 -0.9104
 6877SOL    HW232091   1.688   3.594   2.295  1.4917 -1.4645  0.9516
 6878SOL     OW32092   0.589   0.820   6.992 -0.5081  0.0183  0.1411
 6878SOL    HW132093   0.654   0.767   6.947 -1.4337 -1.2518  0.2737
 6878SOL    HW232094   0.627   0.908   6.995  0.8257 -0.4651 -2.8852
 6879SOL     OW32095   4.499   0.487   7.129  0.0535  0.1670 -0.1440
 6879SOL    HW132096   4.454   0.542   7.064 -0.7890 -1.1415 -0.6661
 6879SOL    HW232097   4.428   0.483   7.193 -0.8621  2.4787 -0.9957
 6880SOL     OW32098   1.618   1.664  11.904  0.3200  0.2354 -0.9098
 6880SOL    HW132099   1.659   1.581  11.877  2.9924  0.9819  0.9031
 6880SOL    HW232100   1.700   1.713  11.906 -0.5895  1.5849  2.8676
 6881SOL     OW32101   0.304   1.907   1.092  0.0584  0.1764 -0.5214
 6881SOL    HW132102   0.311   1.873   1.003 -1.6462  0.4291 -0.7428
 6881SOL    HW232103   0.315   1.823   1.137 -2.2663 -1.5212 -3.1889
 6882SOL     OW32104   4.582   0.846  10.414 -0.2291 -0.5957  0.2494
 6882SOL    HW132105   4.502   0.817  10.372  0.2853 -0.3110 -0.9412
 6882SOL    HW232106   4.548   0.881  10.496 -1.0670 -1.0176  0.0725
 6883SOL     OW32107   3.984   0.565   0.117  0.1442  0.7303 -0.0333
 6883SOL    HW132108   3.996   0.617   0.038  0.4488 -2.0038 -1.7649
 6883SOL    HW232109   3.911   0.610   0.160 -1.6494 -2.3385  0.0774
 6884SOL     OW32110   3.685   2.108  16.472 -0.1722 -0.3577 -0.7086
 6884SOL    HW132111   3.737   2.188  16.478  1.7338 -1.7066  0.8016
 6884SOL    HW232112   3.752   2.039  16.474  0.8479  0.6308 -1.1613
 6885SOL     OW32113   0.226   0.390  13.172 -0.1456  0.5602 -0.0852
 6885SOL    HW132114   0.163   0.377  13.100  1.4460  1.9814 -1.7327
 6885SOL    HW232115   0.192   0.461  13.226  0.4412  1.8912 -1.4656
 6886SOL     OW32116   0.623   2.828  17.379 -0.0199 -0.6803 -0.1041
 6886SOL    HW132117   0.688   2.898  17.384  1.2040 -2.0467  2.8235
 6886SOL    HW232118   0.663   2.759  17.325 -1.4843  0.0244 -2.1220
 6887SOL     OW32119   2.374   1.158   8.679 -0.5292 -0.0342 -0.0798
 6887SOL    HW132120   2.405   1.107   8.753 -1.0742 -0.8876 -0.4446
 6887SOL    HW232121   2.439   1.228   8.681 -0.7899  0.2118 -0.1976
 6888SOL     OW32122   4.518   1.340   4.192 -0.0948  0.5127  0.3686
 6888SOL    HW132123   4.525   1.266   4.132  1.0237  0.9854 -0.0737
 6888SOL    HW232124   4.527   1.413   4.131  0.9983  1.8500  2.1363
 6889SOL     OW32125   2.801   3.445   5.469 -0.0195  0.1512  0.6859
 6889SOL    HW132126   2.865   3.433   5.539 -0.2269 -0.2855  0.8066
 6889SOL    HW232127   2.758   3.528   5.487 -2.3617 -0.8084 -0.4271
 6890SOL     OW32128   3.764   4.149   4.271  0.2188 -0.3874  0.0974
 6890SOL    HW132129   3.703   4.109   4.209 -1.3579  2.8591 -0.4004
 6890SOL    HW232130   3.767   4.083   4.341 -0.4584 -3.3056 -2.6142
 6891SOL     OW32131   3.353   2.225   7.240  0.1226  0.0323  0.5744
 6891SOL    HW132132   3.260   2.234   7.221 -0.3490 -3.2675  1.3060
 6891SOL    HW232133   3.370   2.134   7.214 -2.6528 -1.6112  4.5864
 6892SOL     OW32134   4.274   4.587   8.133 -0.5434  0.1843 -0.0726
 6892SOL    HW132135   4.291   4.532   8.209 -0.6977  0.5458  0.2252
 6892SOL    HW232136   4.246   4.526   8.065 -1.0720  0.4475 -0.0964
 6893SOL     OW32137   0.698   1.768   9.176 -0.0191  0.2670 -0.0645
 6893SOL    HW132138   0.645   1.803   9.248  0.8265 -1.2508  1.3102
 6893SOL    HW232139   0.766   1.731   9.233 -0.4272  1.2647  1.0783
 6894SOL     OW32140   1.022   1.253   5.924 -0.8693 -0.0763 -0.1888
 6894SOL    HW132141   1.085   1.211   5.982 -0.4189 -1.2045 -1.4953
 6894SOL    HW232142   1.000   1.174   5.875 -1.5107 -0.4331  0.6721
 6895SOL     OW32143   3.965   2.342   3.738  0.1356 -0.2607  0.5289
 6895SOL    HW132144   3.995   2.372   3.824  0.3361 -3.4243  1.5889
 6895SOL    HW232145   3.956   2.429   3.700  0.3321 -0.4457  0.0649
 6896SOL     OW32146   2.700   1.097   2.215 -0.3230 -0.1810 -0.1259
 6896SOL    HW132147   2.765   1.038   2.178 -0.4944 -0.1812 -0.4187
 6896SOL    HW232148   2.756   1.151   2.271 -2.5993  0.0915  1.9054
 6897SOL     OW32149   1.599   1.602  13.114 -0.6985  0.8648 -0.2792
 6897SOL    HW132150   1.685   1.570  13.086 -1.1510 -1.9400  1.4485
 6897SOL    HW232151   1.627   1.660  13.185 -1.3363  1.9742 -0.9360
 6898SOL     OW32152   0.849   3.936   5.887  0.0069 -0.4807 -0.7612
 6898SOL    HW132153   0.766   3.890   5.875  0.7636 -1.7943 -0.9328
 6898SOL    HW232154   0.902   3.886   5.826  1.8578  1.5497 -0.8497
 6899SOL     OW32155   2.531   2.950   4.713 -0.2400  0.4156 -0.0652
 6899SOL    HW132156   2.496   3.034   4.681  0.1328  0.8999  0.8013
 6899SOL    HW232157   2.581   2.973   4.791 -0.2402  0.9213 -0.2142
 6900SOL     OW32158   0.082   0.830  13.205  0.3259 -0.6243  0.2565
 6900SOL    HW132159   0.157   0.880  13.173 -0.5624  0.0131 -0.8144
 6900SOL    HW232160   0.016   0.899  13.216  1.6845  0.9048 -1.2882
 6901SOL     OW32161   4.199   0.586   4.464  0.0170  0.3341  0.3845
 6901SOL    HW132162   4.109   0.576   4.431  0.5280 -3.6514  0.2279
 6901SOL    HW232163   4.227   0.649   4.398 -1.1771 -1.6411 -2.0131
 6902SOL     OW32164   2.487   1.724   2.624 -0.2914 -0.0859  0.5465
 6902SOL    HW132165   2.548   1.651   2.639 -2.0858 -1.2331  2.2459
 6902SOL    HW232166   2.473   1.700   2.532 -0.3029 -0.7221  0.7113
 6903SOL     OW32167   4.685   2.850  16.598 -1.0095  0.3470  0.2325
 6903SOL    HW132168   0.034   2.812  16.641 -1.0077  0.5473  0.4081
 6903SOL    HW232169   4.670   2.932  16.646 -0.7905 -0.3595  1.4971
 6904SOL     OW32170   2.948   2.092   9.028 -0.1319 -0.7352 -0.1199
 6904SOL    HW132171   2.981   2.175   9.062 -1.5470 -0.0887 -0.3199
 6904SOL    HW232172   2.876   2.129   8.977  1.7115 -0.2707 -2.3851
 6905SOL     OW32173   4.201   2.777   3.835 -0.1819  0.4293 -0.5361
 6905SOL    HW132174   4.155   2.831   3.898  1.0228  1.6709 -0.7402
 6905SOL    HW232175   4.288   2.766   3.873  0.9157 -0.5896 -3.2639
 6906SOL     OW32176   2.391   0.241   9.872 -0.5797 -0.6857  0.2541
 6906SOL    HW132177   2.388   0.299   9.796  3.1743 -1.5662 -0.5830
 6906SOL    HW232178   2.302   0.210   9.887 -1.0852  0.9920  0.8150
 6907SOL     OW32179   3.295   0.722   3.652 -0.0923 -0.1772 -0.6087
 6907SOL    HW132180   3.226   0.785   3.631  2.5009  1.9145 -2.7026
 6907SOL    HW232181   3.282   0.654   3.586 -2.0885 -0.1447 -0.2693
 6908SOL     OW32182   4.330   3.914   5.201  0.2913  0.4849 -0.6653
 6908SOL    HW132183   4.388   3.989   5.217  2.1971 -1.3223  0.7115
 6908SOL    HW232184   4.338   3.865   5.283 -0.2470 -1.1166 -1.5784
 6909SOL     OW32185   2.600   3.751   0.896  0.0322 -0.3163  0.3873
 6909SOL    HW132186   2.593   3.656   0.903  1.6176 -0.4910 -0.4521
 6909SOL    HW232187   2.516   3.789   0.923  0.6538 -0.2364  2.2234
 6910SOL     OW32188   4.209   4.107   8.006 -0.1702  0.2439  0.0381
 6910SOL    HW132189   4.175   4.143   7.924 -1.8906 -0.7470  0.3211
 6910SOL    HW232190   4.301   4.127   7.989 -0.5128  1.8294  0.0046
 6911SOL     OW32191   1.844   0.860   9.953  0.1644  0.0946 -0.1711
 6911SOL    HW132192   1.805   0.947   9.959 -0.7969 -0.4993  2.1552
 6911SOL    HW232193   1.897   0.865   9.874  1.1420  2.6791  0.6677
 6912SOL     OW32194   2.027   3.030   1.434  0.7283  1.0955 -0.2658
 6912SOL    HW132195   2.094   3.096   1.454  0.3649  1.7400 -1.1428
 6912SOL    HW232196   2.079   2.954   1.410  0.7467  0.6619  1.1671
 6913SOL     OW32197   0.749   3.165   6.844 -0.3006 -0.2157  0.4319
 6913SOL    HW132198   0.835   3.202   6.820 -0.7015 -0.3814 -1.2587
 6913SOL    HW232199   0.688   3.239   6.841 -0.6722 -0.5799 -0.9858
 6914SOL     OW32200   1.407   3.296   2.579  0.3171  0.2938  0.2614
 6914SOL    HW132201   1.358   3.221   2.546 -0.2088  0.4698  0.6550
 6914SOL    HW232202   1.493   3.255   2.568 -0.2114 -1.0998  1.3766
 6915SOL     OW32203   2.461   3.188  15.888 -0.5390  0.7761 -0.6150
 6915SOL    HW132204   2.505   3.256  15.838 -0.6383  0.8785 -0.5647
 6915SOL    HW232205   2.454   3.119  15.823 -0.0693 -0.0796  0.2475
 6916SOL     OW32206   2.410   4.716   1.119  0.9782 -0.1541 -0.3440
 6916SOL    HW132207   2.383   0.073   1.153  2.6784  1.0246 -1.9214
 6916SOL    HW232208   2.429   4.678   1.205  0.8576 -0.0427 -0.2682
 6917SOL     OW32209   0.376   0.300  12.773 -0.0662  0.8091  0.4109
 6917SOL    HW132210   0.344   0.380  12.815  0.6141  1.3929 -0.1776
 6917SOL    HW232211   0.346   0.304  12.682  2.8523  0.8328 -0.5380
 6918SOL     OW32212   1.188   1.880   1.378  0.1963  0.3765 -0.9001
 6918SOL    HW132213   1.104   1.836   1.392  0.1557  0.2288 -1.6065
 6918SOL    HW232214   1.171   1.937   1.304 -0.5651 -0.6436 -1.5130
 6919SOL     OW32215   2.667   4.671   7.834  0.0332 -0.2638 -0.2125
 6919SOL    HW132216   2.696   4.592   7.879  0.8338  0.3311  0.3175
 6919SOL    HW232217   2.575   4.675   7.859  0.3519 -0.1264  0.9803
 6920SOL     OW32218   3.302   4.515  14.164 -0.0082  0.1177  0.2162
 6920SOL    HW132219   3.379   4.556  14.125  0.8388  0.3515  2.1295
 6920SOL    HW232220   3.353   4.488  14.240  1.3383 -1.5975 -1.2946
 6921SOL     OW32221   2.522   1.778   5.137  0.3798 -0.3474  0.8671
 6921SOL    HW132222   2.598   1.729   5.168 -0.0966 -1.0243  0.9748
 6921SOL    HW232223   2.552   1.816   5.055  1.7950 -2.5606  0.3547
 6922SOL     OW32224   4.507   2.350  14.958 -0.3287 -0.7450 -0.0785
 6922SOL    HW132225   4.468   2.299  14.887  0.3275 -0.2594 -0.7841
 6922SOL    HW232226   4.588   2.366  14.910 -1.4041  0.1409 -1.5661
 6923SOL     OW32227   0.806   1.448   5.223 -0.1862 -0.2748  0.1362
 6923SOL    HW132228   0.898   1.431   5.242  0.2688  1.6729 -0.3039
 6923SOL    HW232229   0.816   1.525   5.166 -1.3293 -0.2512 -0.0283
 6924SOL     OW32230   2.376   2.122   0.171  0.0352 -0.2377  0.0844
 6924SOL    HW132231   2.314   2.077   0.229 -0.7753 -0.9393 -1.3333
 6924SOL    HW232232   2.331   2.197   0.134  2.5798  0.4995 -1.5107
 6925SOL     OW32233   1.762   3.079   8.077 -0.3116  0.6237 -0.3820
 6925SOL    HW132234   1.855   3.061   8.059 -0.1068 -0.5704  1.7937
 6925SOL    HW232235   1.757   3.159   8.026  1.1495  0.3523 -0.9720
 6926SOL     OW32236   1.457   2.959   4.988 -0.0041  0.1928 -0.2938
 6926SOL    HW132237   1.420   2.980   5.074 -1.4965 -0.4700 -0.7856
 6926SOL    HW232238   1.378   2.954   4.935  1.1201  1.1410 -2.0692
 6927SOL     OW32239   1.342   3.340  14.389 -0.1188  0.1115 -0.3739
 6927SOL    HW132240   1.358   3.425  14.346  0.2481  0.0358 -0.3917
 6927SOL    HW232241   1.270   3.365  14.446  1.8671  1.8850  1.3925
 6928SOL     OW32242   1.394   3.713   6.257  0.0422  0.0506  0.3212
 6928SOL    HW132243   1.299   3.713   6.244  0.0140 -1.7110  0.5181
 6928SOL    HW232244   1.416   3.790   6.205  1.0135 -0.0371  0.5976
 6929SOL     OW32245   3.918   2.523   0.901  0.4698  0.3365  0.3780
 6929SOL    HW132246   3.825   2.545   0.907  0.4464 -0.0564  1.4348
 6929SOL    HW232247   3.962   2.596   0.858 -0.6744  0.7885 -0.0443
 6930SOL     OW32248   0.000   0.067   5.098  0.3748 -0.0645 -0.3694
 6930SOL    HW132249   0.042   4.711   5.075  0.2997 -0.0333 -0.6233
 6930SOL    HW232250   4.637   0.042   5.083  0.4759  1.1949 -3.0794
 6931SOL     OW32251   1.844   1.980  14.246 -0.4136 -0.1395  0.4166
 6931SOL    HW132252   1.774   2.032  14.285  0.0210  0.4269  0.4378
 6931SOL    HW232253   1.909   2.048  14.231 -1.0338  0.3395 -0.1186
 6932SOL     OW32254   4.296   0.414   6.226 -0.9788  0.1302 -0.3996
 6932SOL    HW132255   4.369   0.392   6.168 -1.5956 -2.3888 -0.1870
 6932SOL    HW232256   4.340   0.423   6.311 -0.9296 -0.3834 -0.3690
 6933SOL     OW32257   4.156   2.855   5.653  0.5658 -0.5933  0.0414
 6933SOL    HW132258   4.158   2.923   5.720 -1.5197 -0.5175  0.0227
 6933SOL    HW232259   4.065   2.830   5.669  0.4306 -0.7424 -0.9669
 6934SOL     OW32260   0.813   2.185   6.681  0.1300  1.0255  0.1281
 6934SOL    HW132261   0.729   2.139   6.673  0.9772 -0.5142 -0.0291
 6934SOL    HW232262   0.819   2.180   6.776 -2.4760  1.3311  0.3281
 6935SOL     OW32263   0.603   4.066   4.431  0.1408 -0.1163  0.4148
 6935SOL    HW132264   0.624   4.023   4.514  0.5715 -0.2981  0.2111
 6935SOL    HW232265   0.679   4.123   4.439  0.2615 -0.1543 -0.4103
 6936SOL     OW32266   3.820   2.243   7.756  0.2260  0.1382  0.1203
 6936SOL    HW132267   3.836   2.293   7.837 -0.6655  0.3516  0.1712
 6936SOL    HW232268   3.807   2.157   7.796  0.1461 -0.2598 -0.7621
 6937SOL     OW32269   4.654   4.320  12.080 -0.4247  0.2565  0.1159
 6937SOL    HW132270   4.693   4.362  12.003 -0.5652 -1.8778 -1.1297
 6937SOL    HW232271   4.594   4.258  12.039 -0.0836 -0.2712  0.4183
 6938SOL     OW32272   0.311   0.641   8.580 -0.4982  0.4003  0.4378
 6938SOL    HW132273   0.328   0.551   8.555  0.9413  1.1312 -1.2286
 6938SOL    HW232274   0.362   0.686   8.512  1.5677 -0.4481  1.4284
 6939SOL     OW32275   1.721   1.982  15.375 -0.5246  0.3858 -0.2774
 6939SOL    HW132276   1.811   1.951  15.387 -1.3153 -1.3972  1.0535
 6939SOL    HW232277   1.709   1.976  15.281  0.8428  0.2951 -0.4486
 6940SOL     OW32278   1.091   4.491   5.242  0.1397  0.1636  0.8166
 6940SOL    HW132279   1.072   4.399   5.224  0.0710  0.2995  0.1615
 6940SOL    HW232280   1.167   4.497   5.184 -0.9300  1.6407 -0.4690
 6941SOL     OW32281   2.896   0.628   8.126 -0.1976 -0.0761 -0.4163
 6941SOL    HW132282   2.805   0.617   8.098 -0.4464 -3.4524  1.7510
 6941SOL    HW232283   2.932   0.578   8.053  1.2523  0.4048 -0.0192
 6942SOL     OW32284   3.816   1.615   3.881  0.1258 -0.1919 -0.2519
 6942SOL    HW132285   3.865   1.545   3.839 -3.3824 -3.4238  1.0482
 6942SOL    HW232286   3.741   1.628   3.823  0.9654 -0.4079 -1.3660
 6943SOL     OW32287   4.448   4.056   8.565 -0.1835  0.1354  0.2828
 6943SOL    HW132288   4.406   4.141   8.554  1.0461  0.9520  1.9723
 6943SOL    HW232289   4.528   4.086   8.607  1.2472 -2.7347 -0.4258
 6944SOL     OW32290   1.968   2.453  10.064  0.1028  0.3484 -0.1737
 6944SOL    HW132291   1.955   2.543  10.034 -0.8880  0.7975  1.6383
 6944SOL    HW232292   1.941   2.465  10.155  1.3439  0.0660  0.2422
 6945SOL     OW32293   3.111   4.201   5.650  0.3854  0.4582 -0.0876
 6945SOL    HW132294   3.175   4.272   5.648 -1.0642  1.8357  2.1785
 6945SOL    HW232295   3.052   4.216   5.723 -1.2445 -0.5836 -1.1804
 6946SOL     OW32296   3.886   1.604  12.858  0.0340  0.1176  0.7659
 6946SOL    HW132297   3.951   1.552  12.906  1.3667  2.0546  1.0543
 6946SOL    HW232298   3.868   1.542  12.787  1.2749 -0.6202  1.0964
 6947SOL     OW32299   3.729   3.490   5.473 -0.4867 -0.4588 -0.7435
 6947SOL    HW132300   3.671   3.566   5.466  1.0686  1.0769  2.8554
 6947SOL    HW232301   3.698   3.431   5.404 -0.0006  1.0995 -2.3020
 6948SOL     OW32302   0.006   1.779   4.810 -0.8455 -0.2970 -0.1235
 6948SOL    HW132303   0.055   1.791   4.892  1.2169  1.1071 -1.5727
 6948SOL    HW232304   4.664   1.845   4.816  0.3900  0.7328  3.1497
 6949SOL     OW32305   1.887   3.146  13.938 -0.0028  0.4701  0.4522
 6949SOL    HW132306   1.801   3.165  13.902 -0.2941 -1.6740  0.0808
 6949SOL    HW232307   1.938   3.149  13.857  0.2949  0.8958  0.6524
 6950SOL     OW32308   0.493   2.354   2.788  0.4716  0.0277 -0.8245
 6950SOL    HW132309   0.483   2.262   2.815 -0.2135 -0.1818 -1.7717
 6950SOL    HW232310   0.550   2.347   2.712  0.0352 -1.6210 -1.0170
 6951SOL     OW32311   4.411   1.807   8.407  0.6833  0.3722 -0.3337
 6951SOL    HW132312   4.435   1.789   8.497  0.2959  1.2517 -0.0484
 6951SOL    HW232313   4.494   1.809   8.359 -0.6567 -1.1172 -2.7351
 6952SOL     OW32314   1.451   3.625   3.867 -0.4252 -0.4342 -0.1669
 6952SOL    HW132315   1.518   3.671   3.918  0.2178 -3.1263  1.4073
 6952SOL    HW232316   1.509   3.586   3.802 -1.5146 -2.6090  0.1678
 6953SOL     OW32317   3.799   1.635   9.514  0.2611  0.1864 -0.9703
 6953SOL    HW132318   3.783   1.542   9.504 -1.8286  0.6641 -2.0860
 6953SOL    HW232319   3.824   1.646   9.422  1.4498 -2.7125 -0.9944
 6954SOL     OW32320   3.765   3.553  17.072  0.0630 -0.4641  0.5083
 6954SOL    HW132321   3.807   3.499  17.138 -1.4268 -2.6208 -0.3063
 6954SOL    HW232322   3.675   3.520  17.074 -0.1782  0.1005 -0.9934
 6955SOL     OW32323   3.138   0.999   6.437  0.2417  0.1631  0.3318
 6955SOL    HW132324   3.210   0.938   6.421  0.1264  0.1866 -0.2882
 6955SOL    HW232325   3.094   0.954   6.509  0.3735  1.0420  0.9617
 6956SOL     OW32326   2.226   1.850   1.435  0.3275 -0.0474  0.3128
 6956SOL    HW132327   2.297   1.884   1.381  2.1483  0.2557  2.9114
 6956SOL    HW232328   2.266   1.763   1.446 -1.3325 -0.7828  0.4626
 6957SOL     OW32329   3.569   4.105   5.129 -0.3565  0.2167  0.3314
 6957SOL    HW132330   3.640   4.068   5.182  1.2127  0.6360 -1.4763
 6957SOL    HW232331   3.591   4.063   5.046  0.5701  3.4376 -1.0643
 6958SOL     OW32332   0.640   2.281   4.981 -0.5127  0.0953 -0.2737
 6958SOL    HW132333   0.705   2.346   5.007  0.4736 -1.2350  0.6291
 6958SOL    HW232334   0.583   2.268   5.057 -0.3032  1.0390  0.0464
 6959SOL     OW32335   0.426   0.721   6.311  0.3932 -0.2379  0.0091
 6959SOL    HW132336   0.353   0.667   6.279 -0.2951  0.8190 -0.2181
 6959SOL    HW232337   0.502   0.690   6.263 -1.0143 -0.2302 -2.2076
 6960SOL     OW32338   0.048   2.444   7.961  0.1839 -0.1624 -0.4007
 6960SOL    HW132339   0.002   2.366   7.929  0.7491 -1.3474  1.6820
 6960SOL    HW232340   0.019   2.507   7.895 -0.7505 -0.0823  0.0856
 6961SOL     OW32341   2.473   2.268   7.591 -1.1663 -0.1558 -0.4540
 6961SOL    HW132342   2.520   2.203   7.538 -0.4057  1.4850 -1.7750
 6961SOL    HW232343   2.455   2.338   7.529 -1.4263  0.7854  0.6746
 6962SOL     OW32344   3.374   4.227   4.103 -0.1854  0.1745  0.2250
 6962SOL    HW132345   3.324   4.300   4.140  0.2661 -1.4750  4.1480
 6962SOL    HW232346   3.385   4.180   4.186 -0.6359 -0.7528 -0.2432
 6963SOL     OW32347   0.422   4.397   8.207  0.4152 -0.3341  0.3550
 6963SOL    HW132348   0.460   4.334   8.145  0.8270  0.9644 -0.6929
 6963SOL    HW232349   0.430   4.337   8.281 -1.5549  1.6191  2.1269
 6964SOL     OW32350   2.453   1.080  12.273 -0.1105  1.0361  0.0866
 6964SOL    HW132351   2.394   1.029  12.219  0.4466 -1.1121  1.4885
 6964SOL    HW232352   2.495   1.139  12.210  1.0621  1.8502  1.6285
 6965SOL     OW32353   3.276   3.746   8.401  0.5768 -0.1149  0.1987
 6965SOL    HW132354   3.287   3.672   8.460 -0.1210 -0.3638  0.0210
 6965SOL    HW232355   3.359   3.792   8.413  0.6095 -0.2571  0.5293
 6966SOL     OW32356   2.138   0.378   6.533  0.3270  0.6171 -0.0964
 6966SOL    HW132357   2.087   0.457   6.550 -1.7319 -0.6026 -0.5847
 6966SOL    HW232358   2.177   0.394   6.447  1.1728  1.0561  0.3694
 6967SOL     OW32359   3.625   4.048   7.912 -0.2157 -0.0710  0.1841
 6967SOL    HW132360   3.604   3.988   7.983  1.3554  2.4438  2.7959
 6967SOL    HW232361   3.662   3.994   7.842 -0.7119 -0.3703  0.1521
 6968SOL     OW32362   4.265   0.285   5.054  0.4167 -0.3959 -0.6928
 6968SOL    HW132363   4.352   0.315   5.078  0.4019 -1.0359  0.1699
 6968SOL    HW232364   4.252   0.203   5.102 -1.1318  1.1636  1.5411
 6969SOL     OW32365   3.984   1.257  11.210  0.6187  0.4271 -0.6399
 6969SOL    HW132366   3.979   1.173  11.256  1.2746  1.0844  0.6161
 6969SOL    HW232367   3.892   1.263  11.183  0.9482  0.9822 -1.6326
 6970SOL     OW32368   3.636   2.623   1.017 -0.3470  0.2085 -0.4648
 6970SOL    HW132369   3.618   2.662   1.102 -3.0553  2.7282 -2.1766
 6970SOL    HW232370   3.600   2.686   0.954  2.4802  1.3517 -0.9290
 6971SOL     OW32371   2.828   1.581   2.367 -0.2279  0.0571 -0.1824
 6971SOL    HW132372   2.855   1.648   2.430  0.9797  1.0345 -1.7397
 6971SOL    HW232373   2.895   1.588   2.300 -0.0962  0.6184  0.0085
 6972SOL     OW32374   2.438   0.663   3.650 -0.5125  0.1425  0.0959
 6972SOL    HW132375   2.485   0.695   3.573 -2.8384  1.2369 -0.8348
 6972SOL    HW232376   2.490   0.588   3.680 -0.1976  0.0212 -0.7521
 6973SOL     OW32377   2.905   2.886   3.127 -0.2494  0.0898  0.1069
 6973SOL    HW132378   2.978   2.923   3.177 -0.5979  0.4873  0.3174
 6973SOL    HW232379   2.879   2.813   3.182  1.3060  1.8925  3.2228
 6974SOL     OW32380   1.218   2.501  17.562 -0.1924 -0.0995 -0.0646
 6974SOL    HW132381   1.300   2.512  17.514 -0.2563 -0.8227 -0.3583
 6974SOL    HW232382   1.245   2.450  17.638  2.4732  2.5644  0.7286
 6975SOL     OW32383   4.130   1.268  14.908 -0.2954 -0.2713  0.5223
 6975SOL    HW132384   4.063   1.227  14.853 -0.1735  1.4730 -0.9280
 6975SOL    HW232385   4.211   1.243  14.864 -0.4294  1.3877 -0.6526
 6976SOL     OW32386   2.675   2.241   7.204 -0.3451 -0.6141 -0.1579
 6976SOL    HW132387   2.657   2.324   7.247 -2.5156 -1.2173  0.1414
 6976SOL    HW232388   2.686   2.177   7.275 -0.8531 -1.5450 -0.9157
 6977SOL     OW32389   2.727   3.666   7.007  0.2437 -0.2261  0.5003
 6977SOL    HW132390   2.800   3.606   7.020 -0.7887 -0.6713  4.3210
 6977SOL    HW232391   2.766   3.747   7.039 -3.2560  2.1176 -1.1290
 6978SOL     OW32392   2.266   1.985  15.271  0.3167  0.4497  0.6466
 6978SOL    HW132393   2.292   1.958  15.359 -0.9112 -0.3465  0.7582
 6978SOL    HW232394   2.352   1.991  15.228  0.7457  0.4526  1.5108
 6979SOL     OW32395   2.696   2.267   6.789  0.1299  0.0785  0.0249
 6979SOL    HW132396   2.664   2.206   6.855  1.4269 -0.6373 -0.0186
 6979SOL    HW232397   2.729   2.203   6.726  0.9961 -0.3418  0.9246
 6980SOL     OW32398   3.532   0.229   4.016 -0.3794  0.7641  0.3057
 6980SOL    HW132399   3.586   0.153   4.038  0.1373  1.3051  0.9174
 6980SOL    HW232400   3.558   0.291   4.085 -0.1934  0.9408  0.0765
 6981SOL     OW32401   1.217   3.180   3.158  0.0471 -0.0811 -0.5959
 6981SOL    HW132402   1.250   3.190   3.068 -1.1899 -2.6761 -1.3318
 6981SOL    HW232403   1.173   3.263   3.178  0.5969 -0.2944  1.4430
 6982SOL     OW32404   4.213   2.764   9.191 -0.2818  0.6177 -0.0019
 6982SOL    HW132405   4.209   2.674   9.223  1.3901  0.1507 -1.0983
 6982SOL    HW232406   4.175   2.822   9.257  1.5882  2.5712 -0.6303
 6983SOL     OW32407   0.906   0.244  11.208 -0.0245  0.4525  0.1024
 6983SOL    HW132408   0.861   0.180  11.263  0.9184  0.4931  0.9105
 6983SOL    HW232409   0.993   0.205  11.213 -1.4296 -2.7829 -1.0594
 6984SOL     OW32410   2.344   4.258  14.493 -0.1558  0.1060  0.5806
 6984SOL    HW132411   2.274   4.228  14.551 -0.5289 -0.4953 -0.1751
 6984SOL    HW232412   2.311   4.344  14.469  0.0249 -0.3181 -1.1710
 6985SOL     OW32413   4.074   0.535  10.309  0.1362  0.5895  0.2603
 6985SOL    HW132414   3.989   0.550  10.351 -1.7434 -1.4980 -2.7223
 6985SOL    HW232415   4.073   0.443  10.283 -0.5791  0.4251  0.8715
 6986SOL     OW32416   0.714   3.592   0.300  0.8328 -0.3133  0.3542
 6986SOL    HW132417   0.746   3.566   0.214  0.9617  1.5935 -0.1845
 6986SOL    HW232418   0.690   3.510   0.343  2.8385 -2.5904 -2.9381
 6987SOL     OW32419   0.716   3.301   4.192  0.3890 -0.2477 -0.0229
 6987SOL    HW132420   0.801   3.259   4.203  0.5939  0.5184  1.2943
 6987SOL    HW232421   0.689   3.290   4.101  0.0175 -1.4717  0.2245
 6988SOL     OW32422   4.603   3.889   7.532 -0.1649 -0.2338  0.1040
 6988SOL    HW132423   4.631   3.961   7.475 -0.5774  0.1596  0.4039
 6988SOL    HW232424   4.696   3.868   7.541  0.1244  0.8720 -0.3416
 6989SOL     OW32425   1.162   0.855   8.202  0.0377  0.9761  0.3495
 6989SOL    HW132426   1.118   0.889   8.124 -0.3312  1.4118  0.7423
 6989SOL    HW232427   1.256   0.862   8.185  0.2313 -1.0298  0.5952
 6990SOL     OW32428   0.850   1.543   2.387 -0.2232 -0.4808 -0.0751
 6990SOL    HW132429   0.763   1.581   2.386 -0.7293 -1.6281  1.2024
 6990SOL    HW232430   0.910   1.616   2.407 -3.8515  1.8918  2.1672
 6991SOL     OW32431   4.170   2.018   6.410 -0.5953  0.0185 -0.0306
 6991SOL    HW132432   4.198   2.027   6.320 -1.0355  1.5192 -0.0268
 6991SOL    HW232433   4.096   1.958   6.414 -1.0739  0.6121  0.1042
 6992SOL     OW32434   4.055   3.967   8.577  0.2263 -0.0162  0.3140
 6992SOL    HW132435   4.037   3.944   8.486  0.0693 -0.1772  0.3884
 6992SOL    HW232436   4.048   4.063   8.574 -1.1097 -0.1847 -1.9638
 6993SOL     OW32437   0.734   2.031   8.386 -0.0339 -0.4490 -0.2968
 6993SOL    HW132438   0.713   2.073   8.469  0.7417 -1.1718  0.2633
 6993SOL    HW232439   0.829   2.045   8.382 -0.3195  1.9262  1.3766
 6994SOL     OW32440   2.547   2.652   7.992  0.2026  0.2321 -0.1044
 6994SOL    HW132441   2.512   2.581   7.939 -0.8371  1.6718 -1.3472
 6994SOL    HW232442   2.566   2.716   7.924 -0.2964 -0.8065 -1.2179
 6995SOL     OW32443   0.591   1.584  16.518  0.2366 -0.2974 -0.1524
 6995SOL    HW132444   0.618   1.518  16.582 -0.5950  0.3628  0.8841
 6995SOL    HW232445   0.496   1.572  16.516  0.0649  1.1600 -0.9009
 6996SOL     OW32446   0.280   1.323  14.489 -0.6492  0.2760 -0.2735
 6996SOL    HW132447   0.193   1.337  14.452 -1.2029 -1.6281  0.2930
 6996SOL    HW232448   0.286   1.408  14.532 -0.8287 -0.2361  0.7718
 6997SOL     OW32449   0.172   0.017   9.069  0.7388 -0.4467  0.4459
 6997SOL    HW132450   0.237   0.056   9.128  1.8606 -0.6260 -0.6708
 6997SOL    HW232451   0.230   4.684   9.022  1.0043  0.9127 -0.9651
 6998SOL     OW32452   2.765   2.413   8.418 -0.3554 -0.2436 -0.0560
 6998SOL    HW132453   2.783   2.335   8.469 -0.0065 -0.2275 -0.1518
 6998SOL    HW232454   2.753   2.470   8.494  1.7766 -1.0449  0.8910
 6999SOL     OW32455   1.203   1.937  15.217  0.2415 -0.2427 -0.0508
 6999SOL    HW132456   1.235   1.908  15.303  0.4053  2.2469  0.7341
 6999SOL    HW232457   1.110   1.916  15.229 -0.3894  1.1422 -2.5202
 7000SOL     OW32458   0.709   1.509   4.457 -0.2478 -0.0134  0.0563
 7000SOL    HW132459   0.629   1.544   4.497 -0.2347  1.5913 -1.2775
 7000SOL    HW232460   0.765   1.500   4.534 -0.1436 -2.8791 -0.3534
 7001SOL     OW32461   2.862   3.846   0.855 -0.1423 -0.4860  0.1963
 7001SOL    HW132462   2.781   3.797   0.843 -0.5858  0.8366 -2.0593
 7001SOL    HW232463   2.834   3.929   0.892  0.3060  0.3252 -1.2964
 7002SOL     OW32464   4.339   0.821  10.311 -0.1983  0.0277  0.3825
 7002SOL    HW132465   4.327   0.915  10.297  1.3221  0.0396 -0.8349
 7002SOL    HW232466   4.309   0.787  10.227 -1.9543 -0.9704  1.4014
 7003SOL     OW32467   1.993   3.567  13.937  0.1259 -0.3034  0.4177
 7003SOL    HW132468   1.920   3.586  13.878  0.1685 -2.7220 -0.4047
 7003SOL    HW232469   2.033   3.495  13.887  1.7714 -0.1572  1.5107
 7004SOL     OW32470   3.477   0.336   8.801  0.2340  0.1504  0.1232
 7004SOL    HW132471   3.492   0.405   8.866  2.9867 -1.1889  0.9030
 7004SOL    HW232472   3.446   0.262   8.855  2.3811  0.4913  1.8103
 7005SOL     OW32473   2.434   2.089   2.597 -0.3249 -0.2006  0.0722
 7005SOL    HW132474   2.418   2.036   2.519  0.4268  0.4663 -0.5258
 7005SOL    HW232475   2.427   2.026   2.669 -1.4051 -2.1776 -1.7468
 7006SOL     OW32476   3.291   4.564   3.526  0.3643 -0.3327  0.0413
 7006SOL    HW132477   3.232   4.491   3.543  1.6188 -1.7100 -1.4619
 7006SOL    HW232478   3.233   4.639   3.511 -1.1061 -1.2384  1.2095
 7007SOL     OW32479   1.331   2.634  11.680  0.6477 -0.1669 -0.4873
 7007SOL    HW132480   1.376   2.659  11.600 -1.0457 -0.0569 -1.4069
 7007SOL    HW232481   1.292   2.716  11.712  0.2926 -0.5152 -0.0285
 7008SOL     OW32482   2.053   4.120  10.512 -0.2575  0.6080 -0.9396
 7008SOL    HW132483   2.010   4.194  10.553 -1.7694 -0.6925 -0.1693
 7008SOL    HW232484   2.015   4.052  10.569  0.5307  1.8153  1.0011
 7009SOL     OW32485   0.807   2.744  12.955 -0.9025  0.1243  0.3544
 7009SOL    HW132486   0.782   2.671  12.898 -0.1895 -0.6201  0.9860
 7009SOL    HW232487   0.778   2.817  12.900  0.2448 -0.7443 -1.3955
 7010SOL     OW32488   2.054   4.410  15.393 -0.0480 -0.0468  0.2883
 7010SOL    HW132489   1.981   4.417  15.331  1.2162 -1.1152 -1.3177
 7010SOL    HW232490   2.112   4.360  15.336 -2.1947 -2.1854 -0.0080
 7011SOL     OW32491   4.276   0.168   2.680  0.2595  0.1499 -0.4334
 7011SOL    HW132492   4.353   0.134   2.634  1.1898  1.0619  0.4529
 7011SOL    HW232493   4.303   0.258   2.699  0.5186 -0.2906  1.2879
 7012SOL     OW32494   1.298   1.972  12.859  0.1564 -0.0580  0.1305
 7012SOL    HW132495   1.387   2.006  12.854 -0.0616  0.3747 -0.6548
 7012SOL    HW232496   1.303   1.878  12.838  1.5383  0.1632 -0.5142
 7013SOL     OW32497   3.344   0.889   6.152  0.1422 -1.1858 -0.0016
 7013SOL    HW132498   3.412   0.830   6.120 -1.1270 -2.2177 -0.8077
 7013SOL    HW232499   3.368   0.910   6.242 -0.3168  0.9841 -0.3830
 7014SOL     OW32500   3.125   4.318   5.200  0.6683 -0.1233 -0.5739
 7014SOL    HW132501   3.115   4.346   5.291  0.9182  0.5800 -0.7652
 7014SOL    HW232502   3.215   4.346   5.185  1.1695 -1.8907 -0.9182
 7015SOL     OW32503   0.436   3.970   2.936 -0.3390 -0.0201 -0.4886
 7015SOL    HW132504   0.383   4.000   2.862 -0.3268 -0.8873 -0.8504
 7015SOL    HW232505   0.508   3.922   2.895  1.4505  1.9309  0.4295
 7016SOL     OW32506   4.616   1.390   3.111 -0.3357 -0.1201  0.3288
 7016SOL    HW132507   4.570   1.417   3.032 -0.6972 -1.2995  0.1385
 7016SOL    HW232508   4.687   1.455   3.108 -0.1440 -0.4275 -1.9118
 7017SOL     OW32509   1.585   0.173   8.545 -0.0061 -0.1905 -0.1129
 7017SOL    HW132510   1.640   0.156   8.469 -3.3689  2.7120 -3.1347
 7017SOL    HW232511   1.589   0.269   8.547 -0.3522 -0.1924  0.9730
 7018SOL     OW32512   0.652   4.349  13.665  0.1984  0.6365  0.1091
 7018SOL    HW132513   0.636   4.365  13.758 -0.8866  2.6171 -0.4150
 7018SOL    HW232514   0.729   4.291  13.670  0.9051  1.5755  0.1921
 7019SOL     OW32515   4.360   2.263  11.458  0.5704  0.2050  0.1030
 7019SOL    HW132516   4.291   2.197  11.456  2.0062 -1.3085  0.8059
 7019SOL    HW232517   4.366   2.277  11.553 -0.0068 -1.0577  0.3203
 7020SOL     OW32518   2.598   0.083  12.902 -0.5096 -0.0830  0.5984
 7020SOL    HW132519   2.629   0.067  12.813 -0.5428  2.3917  0.1343
 7020SOL    HW232520   2.574   4.720  12.924 -1.4097  0.0832  0.2799
 7021SOL     OW32521   2.010   0.944  16.815 -1.0629  0.1740  0.2956
 7021SOL    HW132522   1.966   1.025  16.841  1.1262  1.0392  1.2718
 7021SOL    HW232523   1.957   0.890  16.755  0.2665 -1.9905  1.0749
 7022SOL     OW32524   2.708   1.073  15.892  0.0914 -0.0449 -0.4386
 7022SOL    HW132525   2.650   1.147  15.912 -2.0427 -1.6900 -0.5949
 7022SOL    HW232526   2.685   1.018  15.967  1.6503  3.0433  2.3368
 7023SOL     OW32527   0.498   0.029   8.747 -0.0589  0.1760  0.0761
 7023SOL    HW132528   0.529   4.689   8.686  0.7220  1.9092 -1.4217
 7023SOL    HW232529   0.441   4.699   8.798  0.6820  1.0143  1.8373
 7024SOL     OW32530   3.126   2.146   9.756  0.2770  0.1538  0.0674
 7024SOL    HW132531   3.048   2.133   9.701  0.9147  2.0069 -1.2772
 7024SOL    HW232532   3.176   2.200   9.695  1.1708 -0.9892 -0.2019
 7025SOL     OW32533   4.318   3.452  17.408  0.1126 -0.0897  0.3094
 7025SOL    HW132534   4.407   3.472  17.378 -0.5784  2.2456 -0.2130
 7025SOL    HW232535   4.333   3.437  17.501 -2.9650 -2.7999  0.3385
 7026SOL     OW32536   2.987   2.217   2.463 -0.1972  0.0411  0.2141
 7026SOL    HW132537   2.985   2.307   2.498  0.2427 -0.1389  0.7035
 7026SOL    HW232538   3.071   2.227   2.418  0.8825 -2.3515  1.7146
 7027SOL     OW32539   1.109   1.637   6.442  0.6721 -0.3744 -0.5201
 7027SOL    HW132540   1.115   1.728   6.473 -0.9516 -0.4969  0.1797
 7027SOL    HW232541   1.189   1.590   6.463  1.1762  0.4479 -0.5995
 7028SOL     OW32542   0.338   4.027  10.265  0.3449 -0.0522 -0.1883
 7028SOL    HW132543   0.252   4.012  10.304  0.8007 -1.5533  0.2386
 7028SOL    HW232544   0.388   3.974  10.327 -0.4226 -1.6557 -0.9560
 7029SOL     OW32545   1.479   1.199   8.650 -0.1606  0.0192 -0.0060
 7029SOL    HW132546   1.526   1.283   8.647 -0.1881 -0.0184 -1.5210
 7029SOL    HW232547   1.428   1.213   8.730 -2.3098 -1.0243 -1.1951
 7030SOL     OW32548   4.351   0.714  12.518  0.6199 -0.2928  0.2759
 7030SOL    HW132549   4.321   0.626  12.497 -0.4873  0.5942 -1.8815
 7030SOL    HW232550   4.277   0.774  12.508  1.1578  0.3520  0.1712
 7031SOL     OW32551   4.205   3.543   1.624  0.2539 -0.0109 -0.2199
 7031SOL    HW132552   4.141   3.594   1.674  0.4392 -0.6828  0.7036
 7031SOL    HW232553   4.152   3.465   1.610  0.1805  0.1581 -0.8606
 7032SOL     OW32554   3.608   3.632   8.310  0.7276  0.6121  0.5232
 7032SOL    HW132555   3.617   3.717   8.267  2.0730 -0.7438 -1.8525
 7032SOL    HW232556   3.601   3.578   8.232 -0.7376 -0.6214  1.5241
 7033SOL     OW32557   0.761   1.488   7.066  0.6951  0.1289 -0.0339
 7033SOL    HW132558   0.841   1.531   7.095  2.2950 -0.9744 -2.7675
 7033SOL    HW232559   0.699   1.560   7.067  0.6047  0.0222  1.4556
 7034SOL     OW32560   4.664   2.366   8.324  0.6452  0.3243 -0.3174
 7034SOL    HW132561   4.621   2.316   8.255  0.1703 -0.6069  0.6424
 7034SOL    HW232562   0.017   2.315   8.335  1.3197  1.2019 -1.1861
 7035SOL     OW32563   2.036   1.039   6.798  0.1996  0.4109  0.0293
 7035SOL    HW132564   1.961   1.074   6.845  0.2528 -1.2241  1.3322
 7035SOL    HW232565   2.001   1.027   6.710 -1.8591 -0.2312  0.9491
 7036SOL     OW32566   4.442   2.161   2.809 -0.1516 -0.2007  0.1883
 7036SOL    HW132567   4.401   2.090   2.759  2.3664 -0.4741 -1.5029
 7036SOL    HW232568   4.445   2.122   2.896  2.1796 -1.6911 -0.5760
 7037SOL     OW32569   1.691   0.421   9.656  0.3856 -0.1728  0.4307
 7037SOL    HW132570   1.688   0.420   9.560  1.2142  1.7289  0.3901
 7037SOL    HW232571   1.711   0.512   9.677 -1.2734  0.3506 -0.2341
 7038SOL     OW32572   4.618   4.101   3.903  0.3206 -0.2586 -0.2034
 7038SOL    HW132573   4.639   4.110   3.810 -0.2646 -0.7520 -0.3900
 7038SOL    HW232574   4.703   4.122   3.942  1.1614 -2.4123 -0.8764
 7039SOL     OW32575   3.015   2.559   7.186  0.0128  0.7305 -0.0944
 7039SOL    HW132576   2.938   2.536   7.134 -1.7891  0.6722  2.5978
 7039SOL    HW232577   3.031   2.468   7.210  1.0834  0.8459 -0.3803
 7040SOL     OW32578   4.068   0.561   7.955 -0.2353 -0.1738 -0.1314
 7040SOL    HW132579   4.099   0.563   8.045  1.0182  1.3723 -0.5990
 7040SOL    HW232580   3.988   0.612   7.967 -1.3051 -1.7006 -0.6564
 7041SOL     OW32581   0.947   2.058   8.681  0.2433 -0.2460  0.1805
 7041SOL    HW132582   0.973   2.139   8.726 -0.7572 -0.9825  2.0716
 7041SOL    HW232583   0.853   2.066   8.697  0.1051 -2.1949  0.2968
 7042SOL     OW32584   3.057   1.717   5.651  0.4535  0.2403  0.2178
 7042SOL    HW132585   3.061   1.767   5.733 -0.8110 -1.1816  1.1493
 7042SOL    HW232586   2.990   1.650   5.664 -2.5025  2.4986 -3.3813
 7043SOL     OW32587   4.164   4.000   6.625  0.2614  0.0234 -0.5102
 7043SOL    HW132588   4.171   3.908   6.648 -1.8391  0.1648  0.7001
 7043SOL    HW232589   4.140   3.988   6.533 -3.3806  1.4179  0.2431
 7044SOL     OW32590   3.930   0.208   8.006 -0.0271 -0.4035 -0.4789
 7044SOL    HW132591   3.896   0.297   8.012  0.6788 -0.1828  0.2437
 7044SOL    HW232592   4.005   0.219   7.948 -0.0772 -1.0396 -0.6690
 7045SOL     OW32593   3.433   4.151  11.433 -0.6669 -0.3943 -0.2123
 7045SOL    HW132594   3.356   4.122  11.481 -1.7962  1.8130 -0.6824
 7045SOL    HW232595   3.506   4.127  11.491  0.5771  1.2873 -1.0713
 7046SOL     OW32596   3.300   0.931  13.449  0.1885  0.4676 -0.2048
 7046SOL    HW132597   3.336   0.849  13.416  0.7411  0.7653 -0.3419
 7046SOL    HW232598   3.230   0.900  13.506  1.2100 -1.0897  0.1920
 7047SOL     OW32599   1.849   4.424  15.217 -0.2934 -0.0724 -0.2483
 7047SOL    HW132600   1.785   4.363  15.181 -1.3977  0.4480  0.8649
 7047SOL    HW232601   1.846   4.481  15.141  1.2140  0.7182  0.2791
 7048SOL     OW32602   2.835   3.988  16.946 -0.1104  0.5993 -0.0074
 7048SOL    HW132603   2.794   3.962  16.864 -2.9311  2.1800  0.9029
 7048SOL    HW232604   2.928   3.988  16.920 -0.6201 -0.5911 -1.8392
 7049SOL     OW32605   3.294   0.347   3.065 -0.3435  0.2608 -0.4030
 7049SOL    HW132606   3.230   0.405   3.107 -1.7044 -1.8046  0.3285
 7049SOL    HW232607   3.327   0.413   3.003  0.3455 -0.1314 -0.4512
 7050SOL     OW32608   2.714   2.489   2.414  0.1388 -0.3746  0.2028
 7050SOL    HW132609   2.803   2.507   2.383  0.6615 -0.6197  1.5858
 7050SOL    HW232610   2.729   2.512   2.506  0.8201  0.3353 -0.0792
 7051SOL     OW32611   0.974   1.399   3.268  0.2514 -0.0424  0.1160
 7051SOL    HW132612   1.061   1.432   3.293  1.2698 -3.6895  1.3293
 7051SOL    HW232613   0.991   1.312   3.233 -1.5707  0.0418 -0.9771
 7052SOL     OW32614   4.692   1.397   6.629 -0.4095 -0.0750 -0.1177
 7052SOL    HW132615   0.050   1.366   6.601  0.8053  1.0263  2.3633
 7052SOL    HW232616   4.679   1.477   6.579 -1.6024  0.1423  0.5329
 7053SOL     OW32617   0.408   3.377   7.717  0.6190  0.1910  0.2289
 7053SOL    HW132618   0.472   3.308   7.733 -0.8922 -0.4956  3.4158
 7053SOL    HW232619   0.341   3.329   7.669 -1.2521  3.3030 -0.3326
 7054SOL     OW32620   3.581   2.015   6.649 -0.0728 -0.3358  0.4120
 7054SOL    HW132621   3.502   2.059   6.618 -1.0636 -0.3814  2.8398
 7054SOL    HW232622   3.601   2.064   6.729  0.5274 -0.3670  0.2763
 7055SOL     OW32623   0.341   4.141   6.632  0.3681 -0.1911  0.3705
 7055SOL    HW132624   0.260   4.106   6.595  0.9638  0.1368 -1.2067
 7055SOL    HW232625   0.398   4.064   6.640 -4.5695 -4.0148 -1.3759
 7056SOL     OW32626   0.289   3.268   0.746  0.1186 -0.1267  0.1129
 7056SOL    HW132627   0.301   3.353   0.789  1.8289  0.7116 -1.9997
 7056SOL    HW232628   0.241   3.214   0.808  2.7127 -1.1562  1.2100
 7057SOL     OW32629   0.562   4.577   8.533 -0.8014 -0.0505 -0.3558
 7057SOL    HW132630   0.571   4.494   8.580 -1.4343 -0.7235 -1.4388
 7057SOL    HW232631   0.640   4.570   8.477  1.5497  0.3950  2.8715
 7058SOL     OW32632   3.316   2.724  15.039  0.7556 -0.8270  0.4030
 7058SOL    HW132633   3.291   2.636  15.013  1.7758 -0.6711 -1.1247
 7058SOL    HW232634   3.393   2.714  15.095  3.2611  2.3968 -2.4253
 7059SOL     OW32635   1.938   0.610   5.130 -0.2142 -0.6339  0.7654
 7059SOL    HW132636   1.996   0.552   5.081 -1.4732 -0.9545 -0.3539
 7059SOL    HW232637   1.853   0.595   5.087  0.7666 -2.6220 -0.4667
 7060SOL     OW32638   2.033   4.244   2.327  0.0185  0.1255 -0.2968
 7060SOL    HW132639   2.106   4.186   2.348 -0.4392  0.1106  1.2947
 7060SOL    HW232640   1.984   4.189   2.265 -1.2288  0.1037  0.6985
 7061SOL     OW32641   3.556   2.274   7.778  0.3306  0.5287  0.0198
 7061SOL    HW132642   3.531   2.343   7.717  1.4523  0.3747 -0.6102
 7061SOL    HW232643   3.650   2.266   7.759  0.3073 -0.9160  0.4961
 7062SOL     OW32644   0.492   2.330   0.113  0.2332 -0.6180  0.0996
 7062SOL    HW132645   0.578   2.301   0.143  0.5514 -0.8978 -1.0851
 7062SOL    HW232646   0.438   2.306   0.188  0.6865 -0.7989  0.3672
 7063SOL     OW32647   1.215   2.621   9.899 -0.6367 -0.1632  0.5571
 7063SOL    HW132648   1.142   2.667   9.857  0.3240  0.2955 -0.6126
 7063SOL    HW232649   1.301   2.651   9.869 -1.6472  0.9583 -1.2271
 7064SOL     OW32650   2.797   3.684   9.208  1.1769 -0.0450 -0.3121
 7064SOL    HW132651   2.717   3.733   9.230 -2.1156 -4.2716 -2.8033
 7064SOL    HW232652   2.859   3.747   9.244 -0.0248  0.6298  0.6202
 7065SOL     OW32653   1.135   2.253   4.976  0.0281  0.2670  0.5690
 7065SOL    HW132654   1.084   2.318   4.927  0.5234 -1.6412 -2.4869
 7065SOL    HW232655   1.221   2.293   4.986  0.9850 -1.6001 -0.1297
 7066SOL     OW32656   2.938   1.757   3.771 -0.3483  0.0556 -0.5384
 7066SOL    HW132657   3.002   1.809   3.820 -2.1431  0.9140  0.8846
 7066SOL    HW232658   2.965   1.666   3.781 -1.0437 -0.1165 -0.2465
 7067SOL     OW32659   2.534   3.332   7.115 -0.2803 -0.4969  0.4254
 7067SOL    HW132660   2.465   3.370   7.060  0.6280  2.3398  1.2756
 7067SOL    HW232661   2.581   3.406   7.152 -2.0597  1.0187 -0.3220
 7068SOL     OW32662   2.502   0.946  17.644 -0.2861  0.1782 -0.1038
 7068SOL    HW132663   2.564   1.017  17.666  0.2909 -0.0041 -1.1270
 7068SOL    HW232664   2.459   0.969  17.562  0.3679  1.0173 -0.2121
 7069SOL     OW32665   2.079   4.443   2.928 -0.5187  0.4457  0.2149
 7069SOL    HW132666   2.033   4.376   2.876  2.0065 -0.4667 -0.8481
 7069SOL    HW232667   2.030   4.467   3.006 -0.3036 -0.6617  0.6926
 7070SOL     OW32668   2.474   0.384   1.857 -0.3079  0.5833  0.1722
 7070SOL    HW132669   2.418   0.321   1.902  0.6449 -0.4749 -0.1287
 7070SOL    HW232670   2.476   0.340   1.773 -1.5859  0.2064  0.3440
 7071SOL     OW32671   0.734   0.055   7.699  0.3881 -0.1464 -0.0958
 7071SOL    HW132672   0.656   0.100   7.666 -0.7434 -0.9761  1.4964
 7071SOL    HW232673   0.790   0.132   7.708  0.3885 -0.0974 -0.5153
 7072SOL     OW32674   0.503   3.918   6.917 -0.3302 -0.3120  0.9663
 7072SOL    HW132675   0.487   3.977   6.990 -0.2829  0.4223  0.3808
 7072SOL    HW232676   0.419   3.872   6.906 -0.6616  0.4539  0.3111
 7073SOL     OW32677   1.875   3.826   9.262 -0.3429  0.3701 -0.7131
 7073SOL    HW132678   1.951   3.851   9.314 -0.1796  0.0775 -0.8107
 7073SOL    HW232679   1.897   3.872   9.181 -1.5488  1.3040 -0.5056
 7074SOL     OW32680   2.694   1.612  11.972 -0.2505 -0.1037  0.2585
 7074SOL    HW132681   2.712   1.678  11.905  0.1422 -1.8460 -1.3546
 7074SOL    HW232682   2.757   1.540  11.960  1.8617  1.8241 -0.2733
 7075SOL     OW32683   1.516   4.689   5.134  0.0424  0.4153 -0.0559
 7075SOL    HW132684   1.568   0.015   5.194  1.8905  0.1578 -1.4418
 7075SOL    HW232685   1.448   4.651   5.191 -0.8967  0.4404 -1.1571
 7076SOL     OW32686   2.301   4.351   2.590  0.2621 -0.6149 -0.2271
 7076SOL    HW132687   2.392   4.332   2.569  0.5287 -0.0902  0.4525
 7076SOL    HW232688   2.307   4.362   2.685 -0.1270 -3.2141  0.1028
 7077SOL     OW32689   2.752   2.695  16.622 -0.5762 -0.3994  0.2611
 7077SOL    HW132690   2.716   2.637  16.688  1.4663 -2.4617 -0.4211
 7077SOL    HW232691   2.842   2.663  16.622 -0.1114  0.8480 -2.7609
 7078SOL     OW32692   1.635   1.577   7.812 -0.3504  0.6078  0.2490
 7078SOL    HW132693   1.580   1.520   7.866  2.0836  0.1448  2.2571
 7078SOL    HW232694   1.567   1.603   7.750  2.1828  3.2554 -1.3875
 7079SOL     OW32695   1.266   1.197  11.546 -0.2547 -0.9157  0.5359
 7079SOL    HW132696   1.193   1.238  11.500  0.3575  0.9474  1.2137
 7079SOL    HW232697   1.220   1.158  11.621  0.2573  1.2231  1.9893
 7080SOL     OW32698   0.483   2.978  13.139  0.3872  0.5044 -0.3460
 7080SOL    HW132699   0.495   2.919  13.065  0.5767 -1.0467  0.9360
 7080SOL    HW232700   0.390   2.967  13.160  0.1107 -0.2821 -2.0112
 7081SOL     OW32701   2.185   2.798   2.354  0.3357 -0.4582 -0.2070
 7081SOL    HW132702   2.166   2.882   2.312  4.1491 -0.5233 -2.0097
 7081SOL    HW232703   2.195   2.827   2.445  0.3235  0.1077 -0.3897
 7082SOL     OW32704   2.382   1.563   7.776 -0.0049  0.0633  0.0242
 7082SOL    HW132705   2.475   1.545   7.767  0.1804 -0.8438  3.5890
 7082SOL    HW232706   2.376   1.573   7.871  1.1531  1.9488 -0.0962
 7083SOL     OW32707   3.943   0.876   5.373  0.2923 -0.5951  0.3281
 7083SOL    HW132708   3.981   0.964   5.382  0.7527 -0.7072 -0.4756
 7083SOL    HW232709   3.909   0.887   5.284  2.4588  1.5367 -0.2432
 7084SOL     OW32710   2.373   4.406   7.926 -0.2347 -0.2198  0.4871
 7084SOL    HW132711   2.400   4.348   7.997 -1.2413 -2.1215 -0.6875
 7084SOL    HW232712   2.389   4.485   7.979 -1.0411 -1.0006  1.9133
 7085SOL     OW32713   2.736   3.721   8.535 -0.7259 -0.2411  0.0858
 7085SOL    HW132714   2.722   3.701   8.628  3.0710  2.2924  1.2062
 7085SOL    HW232715   2.830   3.738   8.533 -0.6556 -0.5325  0.7186
 7086SOL     OW32716   2.433   1.431   9.420 -0.1934  0.1117 -0.1460
 7086SOL    HW132717   2.505   1.494   9.414  0.2134 -0.1671  1.7387
 7086SOL    HW232718   2.438   1.409   9.513  1.0979 -3.4326 -1.0463
 7087SOL     OW32719   1.788   0.579   5.800  0.2815  0.1982 -0.2241
 7087SOL    HW132720   1.850   0.599   5.870  0.2428 -1.2290  0.2091
 7087SOL    HW232721   1.800   0.662   5.753  1.9173  0.2600  0.3056
 7088SOL     OW32722   4.413   4.184  11.764  0.4779  0.1041 -0.2052
 7088SOL    HW132723   4.508   4.171  11.754  0.4821  0.4848 -0.6435
 7088SOL    HW232724   4.411   4.186  11.860 -2.1407 -1.2666 -0.2371
 7089SOL     OW32725   2.152   2.272   4.587  0.5604 -0.6187  0.3343
 7089SOL    HW132726   2.241   2.238   4.578  0.6370 -1.0943  2.7560
 7089SOL    HW232727   2.106   2.193   4.559 -0.2383 -0.5511  1.4344
 7090SOL     OW32728   3.304   2.896   6.475 -0.2040 -0.6381 -0.0655
 7090SOL    HW132729   3.374   2.915   6.412 -0.5197  1.3270  0.1670
 7090SOL    HW232730   3.250   2.845   6.415 -0.5643  0.0853 -0.3551
 7091SOL     OW32731   0.938   2.304   6.155  0.0579 -0.1583 -0.3785
 7091SOL    HW132732   0.864   2.359   6.127 -0.6751 -0.7087  0.4831
 7091SOL    HW232733   0.971   2.360   6.225 -0.7611 -0.4335  0.2131
 7092SOL     OW32734   1.256   0.292   3.603  0.0620  0.0041 -0.0392
 7092SOL    HW132735   1.265   0.388   3.609 -1.2335  0.1363 -0.2504
 7092SOL    HW232736   1.222   0.285   3.514 -0.3118 -0.6085  0.1500
 7093SOL     OW32737   3.680   1.052  16.928  0.2079 -0.2764 -0.1723
 7093SOL    HW132738   3.757   1.074  16.981 -0.6081  1.4365  0.3061
 7093SOL    HW232739   3.649   0.976  16.977  0.2924 -0.4859 -0.4496
 7094SOL     OW32740   1.555   1.987   1.742 -0.2389  0.4776  0.5677
 7094SOL    HW132741   1.627   2.049   1.751 -0.8809  1.2839  0.1220
 7094SOL    HW232742   1.525   1.977   1.832  0.0198 -2.1972  0.3607
 7095SOL     OW32743   0.391   3.290   3.588 -0.4426  0.6741  0.5035
 7095SOL    HW132744   0.338   3.297   3.509 -2.4537  0.5185  1.8585
 7095SOL    HW232745   0.462   3.351   3.566  0.7934 -0.4971  1.1941
 7096SOL     OW32746   3.009   2.345  12.097  0.3227 -0.3076  0.1014
 7096SOL    HW132747   3.087   2.350  12.041 -1.3355 -1.4394 -2.2930
 7096SOL    HW232748   3.006   2.250  12.107  0.7589 -0.5266 -1.7718
 7097SOL     OW32749   2.858   4.047   6.239 -0.0989  0.1223 -0.1394
 7097SOL    HW132750   2.795   4.087   6.179  2.6742  3.7034 -0.6527
 7097SOL    HW232751   2.919   4.001   6.181 -0.0793 -0.9643  0.7374
 7098SOL     OW32752   3.060   2.297   7.226 -0.5131  0.3162  0.0410
 7098SOL    HW132753   3.026   2.279   7.138  2.9656 -0.1825 -1.2145
 7098SOL    HW232754   3.003   2.238   7.275 -1.1236  0.7785 -0.1139
 7099SOL     OW32755   2.528   2.495  17.687 -0.3677 -0.1436 -0.4601
 7099SOL    HW132756   2.573   2.496  17.603 -0.1824 -0.0836 -0.3613
 7099SOL    HW232757   2.606   2.506   0.031  0.7361 -1.4987 -1.7886
 7100SOL     OW32758   2.940   0.206   4.222  0.0161  0.1726 -0.0023
 7100SOL    HW132759   2.967   0.198   4.314  0.9404  1.2051 -0.1896
 7100SOL    HW232760   3.023   0.214   4.175 -0.8439  0.5522 -1.4323
 7101SOL     OW32761   2.096   1.704  12.436  0.5245  0.5039 -0.1395
 7101SOL    HW132762   2.097   1.796  12.464 -2.8819  0.2030  0.9434
 7101SOL    HW232763   2.052   1.704  12.351  2.3654  0.7328 -1.0896
 7102SOL     OW32764   3.800   3.159   5.797  0.3399  0.4674 -0.4064
 7102SOL    HW132765   3.739   3.230   5.776 -0.4737 -0.0826  0.1108
 7102SOL    HW232766   3.818   3.130   5.708  2.5568  2.0016 -0.4600
 7103SOL     OW32767   2.501   2.292   4.115 -0.7010 -0.2103  0.0015
 7103SOL    HW132768   2.411   2.324   4.122 -1.1130 -0.9291 -1.9682
 7103SOL    HW232769   2.528   2.372   4.070  1.2538 -0.7585  0.2409
 7104SOL     OW32770   0.291   1.601   6.434 -0.6690 -0.2966 -0.7865
 7104SOL    HW132771   0.204   1.605   6.474  0.3330  4.3550  0.9869
 7104SOL    HW232772   0.345   1.650   6.496 -2.5671  0.7751  0.0277
 7105SOL     OW32773   4.373   2.500   4.650  0.5187  0.4882 -0.4419
 7105SOL    HW132774   4.364   2.408   4.674 -0.9668  0.6298 -0.4620
 7105SOL    HW232775   4.283   2.517   4.622  0.5495  0.5875 -0.4796
 7106SOL     OW32776   2.077   1.297   2.942  0.0556 -0.6782  0.1747
 7106SOL    HW132777   2.017   1.366   2.915 -0.2850  0.0062  2.7489
 7106SOL    HW232778   2.091   1.305   3.036  0.8946 -0.5606  0.0393
 7107SOL     OW32779   3.068   1.191  11.853  0.0868  0.0171 -0.3021
 7107SOL    HW132780   3.069   1.164  11.761 -1.1633 -0.3630 -0.2084
 7107SOL    HW232781   3.156   1.225  11.865 -0.1092  0.5529 -0.3803
 7108SOL     OW32782   3.443   0.448   5.063 -0.4363  0.5665 -0.2589
 7108SOL    HW132783   3.494   0.510   5.115  1.8914  0.1237 -2.0166
 7108SOL    HW232784   3.443   0.492   4.978 -0.9090 -0.3534 -0.7368
 7109SOL     OW32785   1.542   4.347   3.842  0.2587 -0.1643 -0.2262
 7109SOL    HW132786   1.510   4.408   3.775  0.3321  1.4875  1.2450
 7109SOL    HW232787   1.635   4.332   3.821  0.6201 -0.5741  1.7331
 7110SOL     OW32788   2.803   0.250   8.157 -0.3495  0.2274 -0.1301
 7110SOL    HW132789   2.777   0.341   8.144 -1.9387 -0.5241 -2.1894
 7110SOL    HW232790   2.788   0.232   8.064 -0.2211 -0.6113  0.0147
 7111SOL     OW32791   2.437   3.666   6.363 -0.1171  0.3920 -0.1339
 7111SOL    HW132792   2.439   3.579   6.402 -0.0913 -0.4068 -1.9015
 7111SOL    HW232793   2.427   3.646   6.270  1.8241  0.0565 -0.2671
 7112SOL     OW32794   3.545   4.124   1.725  0.1183 -0.4001  0.0582
 7112SOL    HW132795   3.531   4.197   1.664  1.5104 -0.0324  0.1764
 7112SOL    HW232796   3.462   4.076   1.719  0.2045 -0.4887 -0.3894
 7113SOL     OW32797   1.160   0.825   6.231 -0.0383 -0.1710  0.1814
 7113SOL    HW132798   1.127   0.812   6.320 -0.3357 -3.6291 -0.4715
 7113SOL    HW232799   1.135   0.743   6.189 -0.0294  0.0890 -0.3329
 7114SOL     OW32800   0.793   1.393   4.025 -0.2447 -0.0750  0.1538
 7114SOL    HW132801   0.716   1.414   3.973 -0.4525  0.4066  0.6662
 7114SOL    HW232802   0.859   1.453   3.990  0.3791  0.5141  2.3868
 7115SOL     OW32803   2.943   1.448  15.866 -0.0162  0.7756  0.2868
 7115SOL    HW132804   2.926   1.354  15.862  1.0331  0.6625 -1.3612
 7115SOL    HW232805   2.864   1.485  15.906 -0.9719  0.2708 -1.1354
 7116SOL     OW32806   4.045   1.270   4.830  0.1547  0.1454  0.4474
 7116SOL    HW132807   3.993   1.288   4.752 -0.3049 -0.0054  0.7200
 7116SOL    HW232808   4.115   1.335   4.823  0.2924 -0.0755 -0.2007
 7117SOL     OW32809   1.034   1.739   4.824  0.0366  0.1089  0.1463
 7117SOL    HW132810   1.125   1.767   4.819 -0.0920  0.4649 -0.1925
 7117SOL    HW232811   1.047   1.646   4.839  2.9005  0.4329 -0.3569
 7118SOL     OW32812   4.591   0.852   3.642  0.0728 -0.2551  0.1524
 7118SOL    HW132813   4.520   0.819   3.587  0.2987  0.2600 -0.4532
 7118SOL    HW232814   4.628   0.926   3.592 -0.7920 -0.0447 -0.1784
 7119SOL     OW32815   2.458   3.727  14.110  0.3540  0.3553 -0.6622
 7119SOL    HW132816   2.466   3.643  14.063  1.3422  0.9531 -1.5602
 7119SOL    HW232817   2.371   3.747  14.077 -0.4807  0.0702  1.3517
 7120SOL     OW32818   0.454   0.157  15.601 -0.3480  0.2464  0.3320
 7120SOL    HW132819   0.537   0.114  15.617 -0.6942  0.0589  1.6202
 7120SOL    HW232820   0.453   0.174  15.507 -0.8493 -0.8544  0.1410
 7121SOL     OW32821   4.492   3.667   3.912  0.7737  0.3394  0.3165
 7121SOL    HW132822   4.568   3.611   3.921 -0.6912 -1.7202 -0.1266
 7121SOL    HW232823   4.433   3.623   3.973 -2.0584  1.0002 -1.9113
 7122SOL     OW32824   3.008   0.119   5.745 -0.5220  0.0872 -0.1817
 7122SOL    HW132825   2.921   0.128   5.706 -1.0515 -2.2410  0.4879
 7122SOL    HW232826   3.060   0.094   5.668  0.1741  0.6862  0.0883
 7123SOL     OW32827   3.053   0.547  15.033 -0.2501 -0.2163 -0.0397
 7123SOL    HW132828   3.119   0.563  15.100 -1.6527  0.9978  1.0491
 7123SOL    HW232829   2.982   0.509  15.084 -1.0276 -0.2923 -1.1822
 7124SOL     OW32830   2.584   4.354   2.531  0.3805  0.3042  0.1151
 7124SOL    HW132831   2.668   4.321   2.500 -0.2983 -3.0339  1.7608
 7124SOL    HW232832   2.616   4.441   2.554 -3.3000  1.1271  2.1436
 7125SOL     OW32833   3.140   0.402  13.366  0.0818  0.4332  0.7533
 7125SOL    HW132834   3.103   0.490  13.359 -2.6236 -0.5750  2.5966
 7125SOL    HW232835   3.109   0.364  13.283  0.5502 -2.2944  1.8409
 7126SOL     OW32836   2.408   0.236   7.776  0.6356  0.1774  0.3847
 7126SOL    HW132837   2.394   0.172   7.707  0.0500 -1.7134  2.2683
 7126SOL    HW232838   2.332   0.293   7.765 -0.6699 -1.2729  1.8991
 7127SOL     OW32839   2.182   2.424   5.421 -0.0673  0.2989 -0.0674
 7127SOL    HW132840   2.273   2.403   5.398 -0.3242 -2.4734  1.3580
 7127SOL    HW232841   2.155   2.332   5.425 -0.4345  0.5407  3.5288
 7128SOL     OW32842   1.312   0.475  13.820  0.3000 -0.0712 -0.0995
 7128SOL    HW132843   1.354   0.543  13.872  0.3223  0.5309 -0.8983
 7128SOL    HW232844   1.221   0.469  13.848  0.8249  1.6465  1.9178
 7129SOL     OW32845   1.936   1.764  12.946  0.4452  0.2276 -0.2333
 7129SOL    HW132846   1.941   1.683  12.997  0.4799  0.0675 -0.4961
 7129SOL    HW232847   1.849   1.793  12.974  0.2965 -1.3414  0.9169
 7130SOL     OW32848   1.167   4.423   6.150  0.6297 -0.1885  0.3178
 7130SOL    HW132849   1.203   4.434   6.062 -0.1209  1.9134  0.2709
 7130SOL    HW232850   1.120   4.506   6.160  1.9534  0.3850  1.6782
 7131SOL     OW32851   0.837   0.012   2.806 -0.3471  0.3529 -0.1984
 7131SOL    HW132852   0.746   0.003   2.779 -0.0146 -0.0114 -1.1893
 7131SOL    HW232853   0.872   0.003   2.718 -0.1235  0.9819 -0.1774
 7132SOL     OW32854   4.622   2.198   5.541  0.0803  0.3174 -0.3281
 7132SOL    HW132855   4.676   2.274   5.562  0.2236  0.5231 -1.4595
 7132SOL    HW232856   4.534   2.226   5.566  0.0377  0.3382 -0.5032
 7133SOL     OW32857   2.696   1.113   3.149  0.0657 -0.1897 -0.3080
 7133SOL    HW132858   2.657   1.201   3.143 -1.8813 -1.1062 -0.9795
 7133SOL    HW232859   2.782   1.130   3.188 -0.3195 -0.9985  0.9014
 7134SOL     OW32860   1.000   0.194   6.609 -0.5021 -0.2278 -0.4830
 7134SOL    HW132861   0.923   0.249   6.625 -0.8626 -0.6594 -0.7405
 7134SOL    HW232862   1.066   0.253   6.646 -0.2021 -0.2838 -0.9436
 7135SOL     OW32863   1.637   3.312  15.774  0.4798 -0.2911 -0.7468
 7135SOL    HW132864   1.567   3.257  15.740  1.6147 -3.0079  1.3225
 7135SOL    HW232865   1.720   3.274  15.744  1.3180  1.8684 -1.2219
 7136SOL     OW32866   0.175   4.645   6.608 -0.6086  0.0948 -0.0558
 7136SOL    HW132867   0.128   4.575   6.653  3.0284 -1.0238  1.9872
 7136SOL    HW232868   0.115   4.717   6.627 -0.7749 -0.3251  1.0376
 7137SOL     OW32869   1.978   4.308   6.468 -0.3428 -0.0721 -0.0938
 7137SOL    HW132870   1.954   4.217   6.450  0.9132 -0.1837 -1.1956
 7137SOL    HW232871   2.073   4.301   6.461 -0.1602  2.6079 -0.2813
 7138SOL     OW32872   3.996   0.904   7.725  0.3844 -0.0888 -0.7730
 7138SOL    HW132873   4.029   0.824   7.685 -0.6688 -0.6978 -0.4323
 7138SOL    HW232874   4.063   0.970   7.710  0.8823 -0.3151  0.4666
 7139SOL     OW32875   0.600   1.244   5.288 -0.3533  0.0643  0.2638
 7139SOL    HW132876   0.660   1.317   5.276  0.8756 -0.8710  0.7346
 7139SOL    HW232877   0.542   1.243   5.211  0.8858  2.1688 -0.6870
 7140SOL     OW32878   4.702   1.073   2.749  0.9015  0.1392 -0.0638
 7140SOL    HW132879   0.060   1.047   2.783  1.0739  1.3722  0.4510
 7140SOL    HW232880   0.002   1.107   2.663  0.2448  2.0532  0.4843
 7141SOL     OW32881   2.340   4.549   1.904  0.2192 -0.1774 -0.1492
 7141SOL    HW132882   2.405   4.584   1.965 -0.6064  3.0472 -1.1380
 7141SOL    HW232883   2.355   4.614   1.836  0.7277  0.0032  0.1382
 7142SOL     OW32884   2.233   1.661   7.533 -0.4833 -0.2764 -0.5242
 7142SOL    HW132885   2.249   1.587   7.592  0.1725 -2.6110 -3.6660
 7142SOL    HW232886   2.138   1.674   7.524 -0.8286 -0.8719  2.0118
 7143SOL     OW32887   1.548   2.325  12.540  0.4999 -0.1395 -0.6328
 7143SOL    HW132888   1.478   2.383  12.571  0.7585 -0.0792 -0.1610
 7143SOL    HW232889   1.495   2.246  12.544 -2.5758  1.8214 -1.8732
 7144SOL     OW32890   3.475   2.371   9.113  0.4495  0.6610 -0.0713
 7144SOL    HW132891   3.493   2.420   9.193 -0.1268 -0.2066  0.5884
 7144SOL    HW232892   3.521   2.423   9.047 -0.9898  0.6130 -1.1038
 7145SOL     OW32893   0.386   3.521   0.862  0.2776  0.2980  0.5270
 7145SOL    HW132894   0.401   3.571   0.942 -0.3314 -0.4024  1.0762
 7145SOL    HW232895   0.460   3.552   0.810  0.2127 -1.6289 -0.7338
 7146SOL     OW32896   0.630   2.506   9.250  0.0200  0.3248 -0.4121
 7146SOL    HW132897   0.673   2.428   9.216  0.2925 -0.1372  0.9986
 7146SOL    HW232898   0.685   2.544   9.319 -0.7894 -2.2332  1.6204
 7147SOL     OW32899   0.177   1.203   4.195  0.4584  0.7285 -0.4137
 7147SOL    HW132900   0.271   1.215   4.201  0.5425  0.2136 -0.6630
 7147SOL    HW232901   0.177   1.123   4.142  0.4960  0.7100 -0.3861
 7148SOL     OW32902   2.813   2.762   5.143  0.4268  0.2804 -0.1076
 7148SOL    HW132903   2.742   2.825   5.151  0.4684  0.6163 -2.2155
 7148SOL    HW232904   2.813   2.723   5.230  1.1827 -0.4440 -0.4310
 7149SOL     OW32905   0.141   1.549   2.350  0.2328  0.0090  0.1330
 7149SOL    HW132906   0.071   1.484   2.359  0.8835 -0.6037  0.7503
 7149SOL    HW232907   0.209   1.511   2.405  2.4307  2.8765 -0.5749
 7150SOL     OW32908   3.497   3.326   9.352  0.3715  0.8240 -0.1722
 7150SOL    HW132909   3.442   3.255   9.385  0.1196  1.6021  1.0848
 7150SOL    HW232910   3.583   3.310   9.391  0.1089 -0.6759 -0.2050
 7151SOL     OW32911   1.778   4.555   8.672 -0.3037 -0.3134 -0.1311
 7151SOL    HW132912   1.867   4.572   8.703 -0.6569 -0.8191  1.1649
 7151SOL    HW232913   1.727   4.588   8.747 -0.5982 -0.0824 -0.4363
 7152SOL     OW32914   0.034   2.182  15.883  0.2734 -0.0832 -0.0025
 7152SOL    HW132915   0.103   2.166  15.947  0.2766 -3.3681 -0.8165
 7152SOL    HW232916   0.079   2.192  15.799  1.9561  0.7942  1.0002
 7153SOL     OW32917   2.740   3.112   0.135  0.5379  0.1762  0.4365
 7153SOL    HW132918   2.810   3.145   0.080  0.2751 -1.2333 -0.7662
 7153SOL    HW232919   2.681   3.186   0.151  0.9642 -0.6392  5.7500
 7154SOL     OW32920   2.667   1.090   5.586 -0.1396  0.0623 -0.1799
 7154SOL    HW132921   2.711   1.087   5.501  1.4346 -0.4848  0.6599
 7154SOL    HW232922   2.734   1.096   5.654 -0.4651  1.0532  0.0580
 7155SOL     OW32923   3.085   2.883  15.098 -0.6736  0.0529 -0.2356
 7155SOL    HW132924   3.083   2.862  15.192  4.0813  0.6007 -0.0116
 7155SOL    HW232925   3.164   2.843  15.061 -0.4688  1.5067 -1.3600
 7156SOL     OW32926   0.527   3.905   3.377 -0.4094 -0.6937 -0.5105
 7156SOL    HW132927   0.450   3.849   3.383  0.6821 -2.0777  0.5230
 7156SOL    HW232928   0.492   3.979   3.327 -1.4133 -2.8924 -3.0918
 7157SOL     OW32929   0.547   2.840  17.654 -0.1421  0.0649 -0.5318
 7157SOL    HW132930   0.578   2.814  17.567 -2.5715 -1.2336 -0.9954
 7157SOL    HW232931   0.562   2.756  17.698  0.8744  0.5653  0.0783
 7158SOL     OW32932   0.396   2.299   4.404  0.5026 -0.6001  0.4747
 7158SOL    HW132933   0.324   2.275   4.462 -0.2412  2.7048  0.9481
 7158SOL    HW232934   0.455   2.227   4.425 -0.1719 -0.8528  1.5166
 7159SOL     OW32935   3.520   0.765   2.611 -0.1875  0.4249  0.1572
 7159SOL    HW132936   3.572   0.697   2.569  0.2759  1.5965 -1.1773
 7159SOL    HW232937   3.462   0.793   2.540  2.3274 -0.1750 -2.1032
 7160SOL     OW32938   1.737   2.774  15.405 -0.0191  0.3454  0.2672
 7160SOL    HW132939   1.665   2.774  15.341  0.2650 -0.4882 -0.0579
 7160SOL    HW232940   1.728   2.858  15.450  0.5180  0.0833  0.8493
 7161SOL     OW32941   1.298   1.642   4.150 -0.5937  0.1756  0.1473
 7161SOL    HW132942   1.358   1.695   4.203 -0.1778 -1.1246  0.9821
 7161SOL    HW232943   1.316   1.561   4.197 -0.3426 -0.0857 -0.4058
 7162SOL     OW32944   0.012   1.191   7.337 -0.5835 -0.0293 -0.7495
 7162SOL    HW132945   0.025   1.124   7.270 -2.3749 -1.6734  0.5606
 7162SOL    HW232946   0.044   1.262   7.281  1.7584 -0.0009  0.6072
 7163SOL     OW32947   1.417   2.910   2.275 -0.2114 -0.0483 -0.0258
 7163SOL    HW132948   1.339   2.961   2.258 -0.4650 -1.2223 -2.4258
 7163SOL    HW232949   1.486   2.948   2.220 -0.6262 -0.6511 -0.9717
 7164SOL     OW32950   0.575   0.352   5.124  0.1535 -0.2862 -0.3091
 7164SOL    HW132951   0.583   0.270   5.173 -1.4481 -0.2837 -0.0440
 7164SOL    HW232952   0.604   0.343   5.033  0.2227  0.4750 -0.3584
 7165SOL     OW32953   3.451   1.662   2.508  0.7879 -0.1830  0.5202
 7165SOL    HW132954   3.374   1.674   2.563  0.6910  0.3178  0.2704
 7165SOL    HW232955   3.507   1.738   2.523  1.1153 -0.2372 -0.4488
 7166SOL     OW32956   2.142   1.204   1.209  0.1439  0.1071  0.1640
 7166SOL    HW132957   2.163   1.111   1.218  0.6981  0.2240  0.0913
 7166SOL    HW232958   2.083   1.200   1.284  2.1059 -0.0347  1.6744
 7167SOL     OW32959   2.097   2.980   6.592  0.8571 -0.2192 -0.2070
 7167SOL    HW132960   2.188   3.011   6.591 -0.1532  2.7081 -0.7095
 7167SOL    HW232961   2.076   3.007   6.682  0.0767  0.2568 -0.5343
 7168SOL     OW32962   0.493   1.433  15.936  0.2264 -0.1654  0.1680
 7168SOL    HW132963   0.582   1.463  15.920  0.4344 -0.6390  0.4417
 7168SOL    HW232964   0.483   1.360  15.874 -0.7640  0.4979 -0.4496
 7169SOL     OW32965   2.863   2.783   0.661 -0.4099 -0.0538  0.3426
 7169SOL    HW132966   2.920   2.731   0.604 -0.4910 -1.9098  1.9662
 7169SOL    HW232967   2.926   2.852   0.683  0.4004 -0.8438  0.4932
 7170SOL     OW32968   2.673   0.135  17.659  0.1139  0.1254 -0.0689
 7170SOL    HW132969   2.738   0.132   0.018 -0.6967 -2.2501  0.6018
 7170SOL    HW232970   2.627   0.217  17.676  2.4191  1.1285  1.3256
 7171SOL     OW32971   3.533   2.274   8.246  0.3186  0.7004  0.3710
 7171SOL    HW132972   3.564   2.235   8.164  1.8657  0.9003  0.8644
 7171SOL    HW232973   3.511   2.361   8.212  1.8465  1.6517  1.8336
 7172SOL     OW32974   0.484   4.370   3.113 -0.1945  0.1131 -0.3231
 7172SOL    HW132975   0.560   4.427   3.126 -0.5883  0.5075  0.2518
 7172SOL    HW232976   0.458   4.383   3.022  1.3881 -0.9899 -0.9387
 7173SOL     OW32977   3.811   0.187   2.364 -0.0647 -0.0247  0.1262
 7173SOL    HW132978   3.856   0.169   2.281 -0.4659  2.7304 -0.6760
 7173SOL    HW232979   3.863   0.132   2.423  1.1464  2.5299  1.4170
 7174SOL     OW32980   2.698   0.036   1.829  0.1621 -0.6857 -0.5252
 7174SOL    HW132981   2.765   4.718   1.881  0.0580  2.1332  2.0644
 7174SOL    HW232982   2.633   0.039   1.899  0.5043  1.0747 -0.2931
 7175SOL     OW32983   3.587   3.730   6.077  0.1578  0.5961 -0.2773
 7175SOL    HW132984   3.656   3.794   6.056 -1.0029  1.5350 -1.2706
 7175SOL    HW232985   3.534   3.750   6.000  1.2253 -0.8832 -1.4002
 7176SOL     OW32986   3.567   0.022   5.774  0.0439  0.1164 -0.2175
 7176SOL    HW132987   3.627   0.082   5.731  0.5372 -0.0769  0.1892
 7176SOL    HW232988   3.605   0.030   5.862  1.8882 -2.2855 -0.7939
 7177SOL     OW32989   0.724   1.014   5.377  0.1436 -0.1356 -0.3777
 7177SOL    HW132990   0.661   0.954   5.338 -0.7417 -0.9130  2.2236
 7177SOL    HW232991   0.683   1.094   5.345  0.4236 -0.4962 -1.6210
 7178SOL     OW32992   4.222   4.148   8.282  0.0461 -0.2558 -0.2052
 7178SOL    HW132993   4.211   4.144   8.187  0.9411  0.3661 -0.3305
 7178SOL    HW232994   4.202   4.240   8.300 -0.8775 -0.4084 -0.4514
 7179SOL     OW32995   3.529   3.970   1.944 -0.4909  0.0059 -0.4394
 7179SOL    HW132996   3.547   4.048   1.892 -1.3897 -1.3634 -2.8119
 7179SOL    HW232997   3.578   3.985   2.025 -1.5566  0.7460  0.0751
 7180SOL     OW32998   2.373   2.444   7.385 -0.7282  0.4258 -0.2154
 7180SOL    HW132999   2.332   2.502   7.450 -0.4789  1.5953 -1.0929
 7180SOL    HW233000   2.304   2.378   7.377  0.5173 -1.0297  0.9334
 7181SOL     OW33001   2.643   1.293   8.233 -0.8179 -0.0388  0.4893
 7181SOL    HW133002   2.697   1.371   8.220 -0.1794 -0.1703  2.2784
 7181SOL    HW233003   2.713   1.243   8.275 -2.4489 -1.8202  1.0968
 7182SOL     OW33004   3.191   4.218   7.650  0.0393  0.1186  0.3017
 7182SOL    HW133005   3.119   4.162   7.678  1.0528 -1.4216 -0.1362
 7182SOL    HW233006   3.140   4.297   7.631 -0.0970 -0.0006  0.1715
 7183SOL     OW33007   1.205   3.595   7.261 -0.5868 -0.0049 -0.0107
 7183SOL    HW133008   1.235   3.508   7.288 -0.5531  0.6592  2.1112
 7183SOL    HW233009   1.197   3.559   7.173 -0.3668 -0.3039  0.0926
 7184SOL     OW33010   2.292   0.646   6.109  0.1212  0.1966 -0.1710
 7184SOL    HW133011   2.231   0.677   6.042 -1.7225 -0.5451  1.1528
 7184SOL    HW233012   2.371   0.660   6.057 -0.2241  2.5111 -0.0926
 7185SOL     OW33013   0.694   1.346   8.936 -0.0724 -1.0237  0.1096
 7185SOL    HW133014   0.695   1.344   9.032  0.3950 -0.3244  0.1159
 7185SOL    HW233015   0.633   1.415   8.912  1.4345  0.8453  1.6630
 7186SOL     OW33016   2.106   3.647  13.370  0.3412  0.7793 -0.4908
 7186SOL    HW133017   2.060   3.651  13.286 -1.9838  0.2521  0.7638
 7186SOL    HW233018   2.166   3.723  13.374  2.3552 -0.7469 -1.4535
 7187SOL     OW33019   0.231   3.007   5.573  0.2928  0.5105 -0.3103
 7187SOL    HW133020   0.205   2.987   5.663  1.8934 -0.4450 -0.0560
 7187SOL    HW233021   0.239   3.103   5.570 -0.6783  0.6171  0.5588
 7188SOL     OW33022   0.321   3.013   2.188 -0.5514  0.3440  0.7177
 7188SOL    HW133023   0.241   2.961   2.174  1.6075 -2.6469 -0.5467
 7188SOL    HW233024   0.387   2.977   2.128 -0.0308  0.2613  1.3450
 7189SOL     OW33025   2.476   3.164   8.178  0.0772  0.0700  0.1970
 7189SOL    HW133026   2.439   3.193   8.262 -0.5374 -1.1990  0.3621
 7189SOL    HW233027   2.414   3.094   8.160  1.5299 -0.9150 -0.9264
 7190SOL     OW33028   3.506   1.922  16.331  0.4070 -0.0839  0.5469
 7190SOL    HW133029   3.553   1.897  16.251 -2.2899  0.1818 -1.0994
 7190SOL    HW233030   3.555   1.992  16.374  0.7828 -0.6013  0.9644
 7191SOL     OW33031   4.199   1.518   3.936  0.1597  0.3674  0.2651
 7191SOL    HW133032   4.213   1.427   3.909  2.3027  0.1208  2.2663
 7191SOL    HW233033   4.282   1.561   3.916  0.3789  0.5529  1.5758
 7192SOL     OW33034   1.371   0.230  10.501 -0.1026  0.1068 -0.6916
 7192SOL    HW133035   1.371   0.135  10.492 -2.2483 -0.0363  0.7433
 7192SOL    HW233036   1.321   0.245  10.421 -1.0263  1.1206  0.0710
 7193SOL     OW33037   0.518   2.401  13.164 -0.5255  0.1901 -0.5803
 7193SOL    HW133038   0.589   2.456  13.132 -1.2939  1.2223 -0.5333
 7193SOL    HW233039   0.537   2.311  13.140  0.9174 -0.2790  2.3382
 7194SOL     OW33040   3.788   2.447   1.257  0.1103  0.2799  0.1268
 7194SOL    HW133041   3.841   2.513   1.301  0.0236 -0.4530  1.3330
 7194SOL    HW233042   3.758   2.511   1.192 -1.0191 -2.1556 -1.7589
 7195SOL     OW33043   0.139   3.185   1.000  0.1035 -0.0702 -0.2400
 7195SOL    HW133044   0.155   3.279   0.996  0.3545  0.0497  3.6875
 7195SOL    HW233045   0.219   3.152   1.043  0.3499 -0.0662 -0.6975
 7196SOL     OW33046   1.498   3.530   2.790  0.3903  0.0419 -0.1597
 7196SOL    HW133047   1.530   3.582   2.717  0.0484 -0.2472 -0.5138
 7196SOL    HW233048   1.535   3.443   2.773 -1.4981 -1.2037  2.0905
 7197SOL     OW33049   3.945   2.448   4.224 -0.0541 -0.4808 -0.5822
 7197SOL    HW133050   3.891   2.395   4.283  0.4639  0.1619  0.4491
 7197SOL    HW233051   3.949   2.534   4.265 -1.8344  0.2411 -1.9286
 7198SOL     OW33052   0.392   2.857   2.974 -0.1817 -0.8093  0.1455
 7198SOL    HW133053   0.297   2.862   2.986 -0.3966 -0.3070 -1.7030
 7198SOL    HW233054   0.409   2.947   2.946  0.0214 -1.3009 -1.3108
 7199SOL     OW33055   0.056   3.743  15.234 -0.2341  0.2027  0.6602
 7199SOL    HW133056   0.052   3.657  15.194  2.9055 -0.4036  1.6007
 7199SOL    HW233057   0.143   3.765  15.199 -0.1779  1.9961  1.9572
 7200SOL     OW33058   0.704   4.250   9.073 -0.1878  0.4780  0.3910
 7200SOL    HW133059   0.757   4.328   9.056  0.2507  1.0192  4.1446
 7200SOL    HW233060   0.751   4.195   9.136 -1.8243  1.4622  2.4717
 7201SOL     OW33061   2.125   3.737   7.590  0.3100 -0.2430 -0.2951
 7201SOL    HW133062   2.058   3.706   7.530 -1.9794  1.4472  1.3745
 7201SOL    HW233063   2.168   3.802   7.534 -0.2252  0.8032  0.5143
 7202SOL     OW33064   4.078   3.645  17.043 -0.2018 -0.1133 -0.1350
 7202SOL    HW133065   4.048   3.584  17.110 -0.1246 -0.9939 -0.9090
 7202SOL    HW233066   4.171   3.631  17.059 -0.2814 -2.6771 -2.0619
 7203SOL     OW33067   1.357   4.275   7.717 -0.1053  0.6735  0.1805
 7203SOL    HW133068   1.442   4.272   7.762 -1.4581 -0.4888  2.6917
 7203SOL    HW233069   1.312   4.205   7.764  0.4973  0.7068  0.8130
 7204SOL     OW33070   3.078   1.999   1.670 -0.2912  0.1245  0.1687
 7204SOL    HW133071   3.061   2.033   1.582  0.6921 -0.3698 -0.2100
 7204SOL    HW233072   3.010   1.931   1.673  0.1442 -0.2983  0.5132
 7205SOL     OW33073   2.847   3.626  11.217  0.4273  0.0479  0.3557
 7205SOL    HW133074   2.801   3.608  11.136 -0.9357  2.6491  0.5585
 7205SOL    HW233075   2.885   3.538  11.225  0.8318  0.2091  0.1893
 7206SOL     OW33076   1.705   0.245  17.604  0.8546  0.2207 -0.0270
 7206SOL    HW133077   1.627   0.298  17.621 -0.3205 -0.8676 -2.0616
 7206SOL    HW233078   1.773   0.310  17.587 -0.1081  1.1456 -0.3325
 7207SOL     OW33079   3.408   0.320   4.587 -0.0840  0.0836  0.4681
 7207SOL    HW133080   3.322   0.350   4.618 -0.7809 -0.5848 -0.8222
 7207SOL    HW233081   3.393   0.227   4.604  2.1874 -0.3829 -0.1237
 7208SOL     OW33082   1.215   3.779   1.074 -0.1463 -0.1951 -0.3220
 7208SOL    HW133083   1.265   3.768   0.993  0.5800  4.1752 -0.4766
 7208SOL    HW233084   1.197   3.686   1.088 -0.1221 -0.4003 -1.6276
 7209SOL     OW33085   1.368   4.477  14.364  0.2431  0.1279 -0.5181
 7209SOL    HW133086   1.368   4.464  14.269  1.4449 -0.2154 -0.4737
 7209SOL    HW233087   1.455   4.515  14.381  1.4398 -3.6049  1.8051
 7210SOL     OW33088   3.198   1.781   5.227  0.2502 -0.7706  0.4169
 7210SOL    HW133089   3.266   1.720   5.256  3.4214  2.3237 -0.4537
 7210SOL    HW233090   3.209   1.850   5.292  1.1451 -1.6571  1.2011
 7211SOL     OW33091   2.284   2.230   0.495  0.2650  0.9128 -0.3130
 7211SOL    HW133092   2.283   2.306   0.554 -2.8267  0.1950  0.5215
 7211SOL    HW233093   2.374   2.203   0.513  1.1440  2.7338 -1.8983
 7212SOL     OW33094   3.094   1.885   3.959 -0.4045 -0.1489 -0.3929
 7212SOL    HW133095   3.176   1.852   3.996 -0.9380 -1.6823 -0.5870
 7212SOL    HW233096   3.047   1.913   4.037 -0.8100 -0.7890 -0.4142
 7213SOL     OW33097   1.377   3.748   6.559 -0.1715 -0.2725 -0.2515
 7213SOL    HW133098   1.363   3.805   6.484 -0.4513  0.3453  0.2641
 7213SOL    HW233099   1.469   3.728   6.545 -0.2855 -0.2980 -0.9694
 7214SOL     OW33100   0.581   4.180   1.241 -0.3809  0.1410  0.5865
 7214SOL    HW133101   0.646   4.115   1.211  0.0014  0.5329  0.5638
 7214SOL    HW233102   0.581   4.226   1.158  1.6016 -2.1585 -0.7063
 7215SOL     OW33103   4.556   4.517  13.218  0.0175 -0.0263 -0.1982
 7215SOL    HW133104   4.547   4.455  13.145 -0.1034  0.6210 -0.7358
 7215SOL    HW233105   4.469   4.556  13.217 -0.0676 -0.1916  0.8401
 7216SOL     OW33106   1.234   3.599   9.124 -0.0973  0.0567 -0.1161
 7216SOL    HW133107   1.216   3.586   9.217 -0.2476 -3.2621 -0.5863
 7216SOL    HW233108   1.277   3.684   9.130  0.5038 -0.2724  0.1973
 7217SOL     OW33109   1.042   4.622   7.349  0.0725 -0.3683 -0.5230
 7217SOL    HW133110   1.022   4.609   7.442  1.6078 -0.7113 -0.2376
 7217SOL    HW233111   1.118   4.564   7.346 -1.0277 -1.9062  1.0158
 7218SOL     OW33112   0.693   2.109   4.128 -0.4614  0.0135  0.2911
 7218SOL    HW133113   0.771   2.062   4.157  0.8622  1.7440 -0.4447
 7218SOL    HW233114   0.627   2.069   4.184 -0.4166  1.0350  1.0713
 7219SOL     OW33115   3.679   1.969   2.342 -0.2793 -0.0852  0.0287
 7219SOL    HW133116   3.690   1.915   2.264 -1.7614 -0.2917 -0.0249
 7219SOL    HW233117   3.738   2.042   2.323  0.0032  0.0854  1.5888
 7220SOL     OW33118   2.222   4.036   2.359 -0.4522  0.1413 -0.4726
 7220SOL    HW133119   2.281   4.098   2.402 -0.7122 -0.7639  1.1943
 7220SOL    HW233120   2.251   4.023   2.269 -2.2275  0.0616 -1.0361
 7221SOL     OW33121   2.299   3.676  14.660  0.3322  0.1893  0.3042
 7221SOL    HW133122   2.308   3.583  14.642  0.0921  0.0110  1.0826
 7221SOL    HW233123   2.208   3.687  14.686  0.9464  0.2000  2.4731
 7222SOL     OW33124   1.984   1.783   4.895  0.6993 -0.7014  0.4452
 7222SOL    HW133125   2.068   1.817   4.927  0.4298  0.9140 -0.5733
 7222SOL    HW233126   1.954   1.859   4.847  1.4003 -0.7493 -0.0737
 7223SOL     OW33127   4.306   0.493   3.820 -0.0894 -0.3072 -0.2391
 7223SOL    HW133128   4.264   0.501   3.734 -2.5137 -2.4180  0.7772
 7223SOL    HW233129   4.266   0.569   3.862 -0.7251 -0.8936  0.2043
 7224SOL     OW33130   0.608   1.412   3.075 -0.2939  0.0265 -0.0179
 7224SOL    HW133131   0.628   1.400   3.168  4.6615  1.0354 -0.9816
 7224SOL    HW233132   0.664   1.350   3.029  0.7556  0.4285  0.7190
 7225SOL     OW33133   4.295   0.037   5.254 -0.4306 -0.1274  0.0597
 7225SOL    HW133134   4.364   4.702   5.230 -0.1167  0.1569  0.2254
 7225SOL    HW233135   4.215   4.714   5.239 -2.3235  3.2139 -0.9866
 7226SOL     OW33136   3.634   0.789  17.060  0.1170  0.2892 -0.4987
 7226SOL    HW133137   3.729   0.789  17.046  0.8195 -0.9132  4.6059
 7226SOL    HW233138   3.609   0.736  16.984 -2.1939 -0.4851  0.7890
 7227SOL     OW33139   1.770   4.660   9.223  0.0077 -0.4961 -0.4841
 7227SOL    HW133140   1.793   4.648   9.131 -0.1968  1.4630 -0.7879
 7227SOL    HW233141   1.691   4.606   9.229 -0.9507  0.9911  0.3243
 7228SOL     OW33142   0.949   1.895  14.768 -0.0227  0.4143  0.1121
 7228SOL    HW133143   1.024   1.929  14.817  0.1128 -0.3122  0.4161
 7228SOL    HW233144   0.975   1.803  14.769 -1.3096  0.0431 -1.7142
 7229SOL     OW33145   3.645   1.736  15.290 -0.2120 -0.0206  0.1423
 7229SOL    HW133146   3.580   1.692  15.236  0.9320 -1.3191 -0.1881
 7229SOL    HW233147   3.642   1.828  15.264  0.6001  0.4287  1.6219
 7230SOL     OW33148   2.753   0.142  17.373  0.3053 -0.0725 -0.5529
 7230SOL    HW133149   2.813   0.068  17.380 -0.4684 -0.3941  2.7810
 7230SOL    HW233150   2.741   0.169  17.464  0.2656  1.1670 -0.9259
 7231SOL     OW33151   4.233   1.758   2.125  1.0684  0.2076  0.4575
 7231SOL    HW133152   4.143   1.727   2.109  1.4003  0.1505 -1.3111
 7231SOL    HW233153   4.211   1.848   2.103 -2.4061 -0.4511  1.1414
 7232SOL     OW33154   4.084   3.651  17.449 -0.0926 -0.5893  0.9165
 7232SOL    HW133155   4.167   3.613  17.422  0.8593  1.0147  1.6006
 7232SOL    HW233156   4.022   3.579  17.437 -1.2335  0.3218  1.2494
 7233SOL     OW33157   3.979   2.439  11.535  0.6696  0.1026 -0.6870
 7233SOL    HW133158   3.905   2.378  11.538 -0.7972  1.8807 -0.7667
 7233SOL    HW233159   3.933   2.520  11.558  0.6912 -0.1673  0.3197
 7234SOL     OW33160   0.066   0.765   8.451 -0.2762 -0.1528 -0.3285
 7234SOL    HW133161   0.123   0.699   8.410  2.6300  2.6524 -0.8432
 7234SOL    HW233162   0.143   0.802   8.495 -0.9002  1.1684 -0.3589
 7235SOL     OW33163   0.750   4.073  12.139  0.2027 -0.2475 -0.3683
 7235SOL    HW133164   0.836   4.107  12.113  0.3410 -0.9021 -0.7604
 7235SOL    HW233165   0.714   4.032  12.060  0.9585  0.5628 -1.1344
 7236SOL     OW33166   1.256   4.032   2.003  0.6629  0.1156 -0.2525
 7236SOL    HW133167   1.351   4.029   2.005  0.5713 -2.0686  0.2885
 7236SOL    HW233168   1.238   3.941   1.980 -2.4010  0.4426  0.8017
 7237SOL     OW33169   0.392   1.944   4.962 -0.2877  0.3878  0.3488
 7237SOL    HW133170   0.336   1.867   4.970  1.2717 -0.8122 -0.4631
 7237SOL    HW233171   0.333   2.000   4.912 -2.4318 -2.1277  0.0643
 7238SOL     OW33172   3.704   3.070   1.862 -0.4588  0.1912  0.8253
 7238SOL    HW133173   3.775   3.077   1.925 -0.8377  1.0193  1.1497
 7238SOL    HW233174   3.640   3.020   1.913 -1.6359 -0.0452 -0.8436
 7239SOL     OW33175   0.816   1.400   8.126 -0.3747 -0.0098  0.1142
 7239SOL    HW133176   0.830   1.427   8.036 -0.3868 -0.9555 -0.1626
 7239SOL    HW233177   0.726   1.431   8.139 -0.0187  0.7259  0.8425
 7240SOL     OW33178   2.496   4.193   4.927  0.1511 -0.3620  0.4432
 7240SOL    HW133179   2.433   4.265   4.926 -0.1874 -0.6564  0.2194
 7240SOL    HW233180   2.498   4.179   4.832 -0.1170 -0.9422  0.5223
 7241SOL     OW33181   2.961   4.083   4.276  0.3427 -0.4504  0.4092
 7241SOL    HW133182   2.876   4.053   4.243  0.1061 -1.2613  1.7597
 7241SOL    HW233183   3.015   4.009   4.250  0.5516  0.1132 -0.7297
 7242SOL     OW33184   1.919   0.614   3.430 -0.4505 -0.0569 -0.0166
 7242SOL    HW133185   1.840   0.666   3.445  0.5519  1.6798 -0.6822
 7242SOL    HW233186   1.984   0.685   3.423  0.5981 -0.8920  1.1431
 7243SOL     OW33187   3.401   3.155   3.145 -0.8585 -0.0507 -0.2768
 7243SOL    HW133188   3.480   3.205   3.166 -0.7785  0.2051 -1.2179
 7243SOL    HW233189   3.431   3.078   3.097 -0.8739  0.9553 -1.8719
 7244SOL     OW33190   3.018   2.478   3.303 -0.4862 -0.4325  0.4725
 7244SOL    HW133191   3.105   2.515   3.315 -0.2505 -0.8196 -0.0654
 7244SOL    HW233192   3.011   2.435   3.388 -1.5985  0.1093  0.6485
 7245SOL     OW33193   3.776   0.757  10.174  0.5366  0.1700 -0.0217
 7245SOL    HW133194   3.764   0.683  10.114 -0.3035 -1.6705  2.3776
 7245SOL    HW233195   3.778   0.712  10.258 -0.6666  0.2281  0.0394
 7246SOL     OW33196   1.343   2.180   6.464 -0.1190  0.2977 -0.5928
 7246SOL    HW133197   1.387   2.237   6.527 -0.8605  0.5239 -0.2772
 7246SOL    HW233198   1.398   2.187   6.386  0.5473  0.0339 -0.1498
 7247SOL     OW33199   3.540   4.407   1.532 -0.4100  0.2856  0.3286
 7247SOL    HW133200   3.447   4.427   1.542 -0.0902  1.5415  0.7839
 7247SOL    HW233201   3.579   4.494   1.527  0.8090 -0.2820  0.0561
 7248SOL     OW33202   0.431   0.186   2.095  0.2678 -0.3182 -0.3063
 7248SOL    HW133203   0.436   0.215   2.004  2.3220  1.2470  0.3239
 7248SOL    HW233204   0.342   0.151   2.090  0.4851 -0.8256 -0.5988
 7249SOL     OW33205   1.231   1.487   3.300  0.1008 -0.0722 -0.1577
 7249SOL    HW133206   1.316   1.485   3.345 -0.2574 -1.1364  0.4596
 7249SOL    HW233207   1.261   1.475   3.210 -1.7154  1.7546 -0.9933
 7250SOL     OW33208   4.103   3.131   8.215  0.2678  0.3876 -0.1994
 7250SOL    HW133209   4.083   3.203   8.275 -1.8324 -0.8626  0.5929
 7250SOL    HW233210   4.098   3.060   8.279 -2.3226  2.0019  1.3911
 7251SOL     OW33211   4.503   2.566   7.588 -0.0464 -0.2443  0.1250
 7251SOL    HW133212   4.545   2.502   7.530 -1.7987 -0.9685 -0.3400
 7251SOL    HW233213   4.417   2.527   7.603  0.4626 -2.2837 -2.0828
 7252SOL     OW33214   0.915   2.784   9.756 -0.6056 -0.1198 -0.1861
 7252SOL    HW133215   0.957   2.773   9.671  2.0896  2.2930  0.8030
 7252SOL    HW233216   0.982   2.840   9.795 -1.6468  1.8833 -1.2904
 7253SOL     OW33217   3.157   4.348   2.084  0.2816 -0.2363 -0.1209
 7253SOL    HW133218   3.091   4.294   2.041  0.0276 -1.0059  1.2582
 7253SOL    HW233219   3.172   4.419   2.021 -0.9637  0.4521  0.3454
 7254SOL     OW33220   3.823   4.476   3.939  0.4689  0.0164  0.1563
 7254SOL    HW133221   3.728   4.470   3.945  0.7907 -1.5875  3.3425
 7254SOL    HW233222   3.834   4.393   3.891 -0.6133 -1.0130  1.6789
 7255SOL     OW33223   0.967   1.382   7.535 -0.2649 -0.8283  0.8129
 7255SOL    HW133224   0.909   1.454   7.560  0.3689 -0.8123  2.2558
 7255SOL    HW233225   1.055   1.418   7.521 -0.4112 -1.2978 -1.2778
 7256SOL     OW33226   0.937   0.351   7.863  0.2410 -0.5219  0.3899
 7256SOL    HW133227   0.891   0.293   7.924 -0.2800 -0.9453 -0.4156
 7256SOL    HW233228   0.865   0.391   7.815  0.7783 -2.9220 -2.4394
 7257SOL     OW33229   4.337   2.835   5.162  0.4248  0.0211 -0.0538
 7257SOL    HW133230   4.286   2.864   5.238  2.3928  0.6272  1.0311
 7257SOL    HW233231   4.354   2.741   5.164  2.7940  0.4449 -0.2102
 7258SOL     OW33232   1.085   1.345   7.192  0.8182  0.8371 -0.1735
 7258SOL    HW133233   1.138   1.397   7.132 -1.5659  0.5801 -2.5345
 7258SOL    HW233234   1.044   1.420   7.235  2.4031  1.5732  0.0539
 7259SOL     OW33235   0.441   0.653  13.796  0.4577  0.0726 -0.4919
 7259SOL    HW133236   0.508   0.672  13.731  1.6542  1.5502  1.1723
 7259SOL    HW233237   0.460   0.559  13.794 -1.4325 -0.3198 -0.0565
 7260SOL     OW33238   1.061   2.011   5.078  0.1047  0.1899  0.2272
 7260SOL    HW133239   1.099   2.097   5.059 -0.7481  1.0154  2.3022
 7260SOL    HW233240   1.015   2.027   5.160  1.0113 -0.8088  0.9387
 7261SOL     OW33241   0.100   2.518   6.620 -0.1089 -0.5729 -0.3029
 7261SOL    HW133242   0.107   2.448   6.554  0.0457 -1.5974  0.8093
 7261SOL    HW233243   0.113   2.602   6.576  0.6053  0.2458  1.4916
 7262SOL     OW33244   3.408   4.464   0.409  0.1917  0.2312 -0.2656
 7262SOL    HW133245   3.482   4.469   0.349  0.0994  0.2279 -0.3801
 7262SOL    HW233246   3.372   4.552   0.410 -0.8603 -0.1784 -1.1856
 7263SOL     OW33247   1.611   3.250  12.206  0.1973  0.2504  0.0493
 7263SOL    HW133248   1.669   3.174  12.205 -0.5638 -0.3344  1.5074
 7263SOL    HW233249   1.646   3.302  12.133 -0.0254 -0.7211 -0.7511
 7264SOL     OW33250   1.545   0.242   9.367 -0.1839 -0.1212 -0.1782
 7264SOL    HW133251   1.497   0.305   9.420  1.2328 -0.8594  1.9801
 7264SOL    HW233252   1.507   0.163   9.406 -0.0950  0.1077  0.3685
 7265SOL     OW33253   4.618   4.561   2.353  0.1536  0.6620 -0.2693
 7265SOL    HW133254   4.531   4.538   2.323  1.5255 -2.8352 -1.5797
 7265SOL    HW233255   4.609   4.588   2.445  1.3979 -2.4979  0.7882
 7266SOL     OW33256   3.164   0.467   4.579  0.3225 -1.1143  0.2409
 7266SOL    HW133257   3.219   0.487   4.504  0.6862  0.4859  0.9352
 7266SOL    HW233258   3.109   0.545   4.568 -0.9603 -2.1639 -0.8031
 7267SOL     OW33259   0.311   0.560   0.152 -0.5681  0.3325 -0.2970
 7267SOL    HW133260   0.282   0.580   0.063 -2.7170 -2.1619 -0.1250
 7267SOL    HW233261   0.229   0.540   0.197 -0.5318 -0.0715 -0.4103
 7268SOL     OW33262   1.740   1.550   8.873  0.5842 -0.2690  0.3551
 7268SOL    HW133263   1.769   1.470   8.918 -2.0694 -1.6178 -0.3833
 7268SOL    HW233264   1.820   1.573   8.826  0.0126 -1.2294 -1.0917
 7269SOL     OW33265   1.691   4.206   2.179  0.0510 -0.1773 -0.1868
 7269SOL    HW133266   1.748   4.160   2.241  0.3676  0.0239 -0.3309
 7269SOL    HW233267   1.661   4.275   2.239 -0.2492  0.2168 -0.7901
 7270SOL     OW33268   2.865   0.562  14.259  0.1708 -0.4343 -0.7939
 7270SOL    HW133269   2.804   0.561  14.186 -0.7392  1.3195 -0.0422
 7270SOL    HW233270   2.901   0.473  14.254  1.6151  0.2120 -1.8464
 7271SOL     OW33271   1.317   3.040  11.348 -0.3543 -0.0387 -0.2745
 7271SOL    HW133272   1.352   2.953  11.332  1.6447  0.5416  1.0432
 7271SOL    HW233273   1.256   3.045  11.274  1.0169  0.8178 -1.3452
 7272SOL     OW33274   2.336   2.953   1.407  0.1893  0.4751 -0.2679
 7272SOL    HW133275   2.374   2.894   1.472 -1.1143  1.0363  0.9982
 7272SOL    HW233276   2.328   2.899   1.328  0.9501  0.8420 -0.5990
 7273SOL     OW33277   4.132   2.902   2.856  0.1085 -0.0132 -0.0585
 7273SOL    HW133278   4.100   2.946   2.777  0.6069 -0.9049 -0.7563
 7273SOL    HW233279   4.222   2.935   2.861  0.3936 -0.7706 -0.2244
 7274SOL     OW33280   2.143   2.207   9.257 -0.1273 -0.7043 -0.0523
 7274SOL    HW133281   2.236   2.218   9.279 -0.1635  1.0380 -0.8240
 7274SOL    HW233282   2.109   2.200   9.346  0.3094 -1.6163  0.0472
 7275SOL     OW33283   3.428   4.592   3.117 -0.2682  0.0016  0.3070
 7275SOL    HW133284   3.359   4.543   3.162  0.5653  0.6445  2.2568
 7275SOL    HW233285   3.507   4.552   3.154 -0.0046 -1.1261 -1.4427
 7276SOL     OW33286   3.082   1.306   2.209  0.6585  0.1668  0.1649
 7276SOL    HW133287   3.064   1.400   2.199  0.5993  0.3434  1.9113
 7276SOL    HW233288   2.993   1.271   2.213  0.9131 -0.3822  0.8738
 7277SOL     OW33289   2.291   2.060   8.074 -0.8281  0.3049 -0.0658
 7277SOL    HW133290   2.316   1.985   8.127 -2.4611 -1.1095 -1.3085
 7277SOL    HW233291   2.243   2.114   8.138 -0.7662 -1.6809  1.6608
 7278SOL     OW33292   1.445   1.795   1.567  0.1998  0.2237 -0.6595
 7278SOL    HW133293   1.367   1.832   1.526 -2.2180 -2.4647  1.5233
 7278SOL    HW233294   1.458   1.863   1.633  1.7098  0.5517 -1.2839
 7279SOL     OW33295   0.186   3.768   5.771  0.1532  0.0878 -0.3740
 7279SOL    HW133296   0.212   3.859   5.759  0.9739  0.1429  1.7823
 7279SOL    HW233297   0.168   3.734   5.683 -1.8529 -0.5186  0.2668
 7280SOL     OW33298   1.022   4.553   2.387 -0.3692 -0.3262 -0.2895
 7280SOL    HW133299   0.989   4.464   2.401 -1.6359  0.0464 -0.8389
 7280SOL    HW233300   1.112   4.532   2.364  0.0796  2.8270 -1.4106
 7281SOL     OW33301   1.287   3.904   2.297  0.5673 -0.4686 -0.1153
 7281SOL    HW133302   1.200   3.868   2.316  0.6886 -0.1085  1.1140
 7281SOL    HW233303   1.307   3.961   2.371 -1.3812  0.9559 -0.6640
 7282SOL     OW33304   3.447   0.752   9.392 -0.1903 -0.3077 -1.0729
 7282SOL    HW133305   3.539   0.775   9.403 -0.1325 -0.5128 -1.1285
 7282SOL    HW233306   3.454   0.657   9.383 -0.5948 -0.4688  0.3077
 7283SOL     OW33307   0.455   3.630   1.124 -0.0088  0.3246  0.6941
 7283SOL    HW133308   0.409   3.628   1.209 -1.0796  1.6653  0.1569
 7283SOL    HW233309   0.480   3.722   1.129  1.0657  0.1814 -2.5964
 7284SOL     OW33310   4.183   2.287   8.497  0.1765 -0.6236  0.7495
 7284SOL    HW133311   4.155   2.377   8.512  0.6097 -0.8307  2.8179
 7284SOL    HW233312   4.103   2.246   8.465  1.5386 -2.0805 -0.8369
 7285SOL     OW33313   1.317   0.157   2.933  0.3127  0.1447  0.3206
 7285SOL    HW133314   1.233   0.163   2.889  0.9676  2.1569 -0.6584
 7285SOL    HW233315   1.332   0.064   2.916  0.0565 -0.0081  0.9237
 7286SOL     OW33316   1.339   4.557   2.580 -0.2984  0.0668  0.0133
 7286SOL    HW133317   1.325   4.651   2.587 -1.0833  0.0541 -1.4157
 7286SOL    HW233318   1.327   4.538   2.487 -0.5681  0.4394 -0.0249
 7287SOL     OW33319   2.725   3.600   2.678 -0.0320  0.1492 -0.4832
 7287SOL    HW133320   2.691   3.564   2.597  1.6615  0.5582 -1.3769
 7287SOL    HW233321   2.703   3.528   2.737  2.6843 -0.8068 -0.6432
 7288SOL     OW33322   3.319   2.900  16.411 -0.3980  0.0251 -0.1149
 7288SOL    HW133323   3.323   2.805  16.415  0.5497  0.0291 -0.8831
 7288SOL    HW233324   3.230   2.919  16.440 -1.0713  0.4091 -2.3960
 7289SOL     OW33325   2.554   4.600   5.010  0.1455 -0.2334 -0.3614
 7289SOL    HW133326   2.535   4.693   5.008  0.9608 -0.0447  0.9006
 7289SOL    HW233327   2.624   4.597   4.945  1.9204  0.3785  1.5233
 7290SOL     OW33328   3.954   1.056   3.210 -0.0317  0.1626 -0.7956
 7290SOL    HW133329   3.974   1.120   3.279  1.3002 -0.4353 -0.6335
 7290SOL    HW233330   4.036   1.007   3.216 -0.0303  0.0925 -1.3271
 7291SOL     OW33331   4.037   0.881   6.938  0.0586  0.8275 -0.7336
 7291SOL    HW133332   3.986   0.960   6.918  0.1347  1.4146  1.4113
 7291SOL    HW233333   4.101   0.917   6.999 -0.1615 -1.3683  0.7788
 7292SOL     OW33334   4.579   2.077   8.457 -0.1536 -0.4117 -0.8026
 7292SOL    HW133335   4.517   2.004   8.451  1.1260 -1.4448 -1.2307
 7292SOL    HW233336   4.622   2.080   8.372 -0.1047 -1.3564 -0.8078
 7293SOL     OW33337   0.539   2.844   4.028  0.0300  0.1341  0.4382
 7293SOL    HW133338   0.525   2.872   4.118  0.1177  1.7508 -0.0611
 7293SOL    HW233339   0.505   2.919   3.979  0.6370  0.7067  0.8998
 7294SOL     OW33340   1.516   0.690   3.935 -0.1909  0.4444 -0.5279
 7294SOL    HW133341   1.465   0.758   3.978 -2.6708 -2.5299  1.3193
 7294SOL    HW233342   1.568   0.737   3.870 -1.4192  0.7947 -1.2668
 7295SOL     OW33343   4.565   2.544   1.204  0.4838  0.1106  0.1339
 7295SOL    HW133344   4.612   2.538   1.121 -0.2482 -0.2451 -0.2618
 7295SOL    HW233345   4.477   2.562   1.171  0.3120  0.5528  0.8492
 7296SOL     OW33346   0.675   3.854   2.819 -0.5110 -0.2172  0.1221
 7296SOL    HW133347   0.661   3.772   2.867 -0.7291 -1.3135 -1.8302
 7296SOL    HW233348   0.662   3.842   2.725 -1.0410  0.7391  0.0748
 7297SOL     OW33349   1.667   2.156   6.822  0.0726 -0.5975 -0.3824
 7297SOL    HW133350   1.750   2.203   6.831  0.8898 -2.1826  0.2959
 7297SOL    HW233351   1.679   2.086   6.886 -1.5218 -0.5848 -0.0654
 7298SOL     OW33352   0.036   4.329   5.894 -0.0738  0.2273 -0.3432
 7298SOL    HW133353   0.017   4.338   5.987  1.0102 -0.4725 -0.0598
 7298SOL    HW233354   0.125   4.362   5.899 -0.2090  0.4796  0.3740
 7299SOL     OW33355   4.695   1.984   9.628  0.0556  0.0323  0.6181
 7299SOL    HW133356   4.603   1.966   9.607  1.0582 -3.1527 -1.0217
 7299SOL    HW233357   0.013   1.992   9.544 -1.5643  1.0553 -0.1573
 7300SOL     OW33358   2.881   3.077   5.753 -0.1689 -0.6351  0.3071
 7300SOL    HW133359   2.897   3.011   5.685 -0.4365 -0.0199 -0.3620
 7300SOL    HW233360   2.786   3.068   5.745 -0.1465 -0.5177 -0.1195
 7301SOL     OW33361   0.730   3.319  13.022  0.3997  0.2565  0.3184
 7301SOL    HW133362   0.749   3.399  13.070  1.7025  1.0861 -1.6021
 7301SOL    HW233363   0.801   3.313  12.958  0.8813  0.3884  0.8462
 7302SOL     OW33364   3.395   4.291   1.990 -0.5299 -0.7616  0.5918
 7302SOL    HW133365   3.376   4.284   1.897 -0.7886  0.4265  0.5498
 7302SOL    HW233366   3.307   4.290   2.028 -1.2513 -0.9258 -1.0894
 7303SOL     OW33367   0.452   1.220   8.652  0.2283 -0.0258 -0.1497
 7303SOL    HW133368   0.441   1.172   8.734 -0.7649 -2.3800 -1.6750
 7303SOL    HW233369   0.544   1.214   8.624  1.2278 -1.2370  3.3598
 7304SOL     OW33370   0.472   1.155  14.394 -0.1560 -0.0940 -0.5661
 7304SOL    HW133371   0.471   1.175  14.300 -3.7597  1.4004 -0.2132
 7304SOL    HW233372   0.402   1.218  14.409 -0.2407 -0.1098 -0.8823
 7305SOL     OW33373   2.195   0.497   0.361 -0.4846  0.2949  0.1959
 7305SOL    HW133374   2.255   0.570   0.351 -2.7167  2.1023  0.0453
 7305SOL    HW233375   2.112   0.536   0.388 -1.8529 -0.3368 -3.0866
 7306SOL     OW33376   3.275   4.457   6.237  0.2383 -0.1193 -0.2216
 7306SOL    HW133377   3.319   4.476   6.154  2.1253 -0.9677  0.5921
 7306SOL    HW233378   3.188   4.452   6.198  2.1786 -0.2271 -4.4756
 7307SOL     OW33379   4.510   1.981   7.851 -0.7611 -0.1592  0.2221
 7307SOL    HW133380   4.429   1.994   7.900 -0.5769 -0.3985  0.5938
 7307SOL    HW233381   4.568   1.924   7.902 -2.3900 -0.7360  1.4202
 7308SOL     OW33382   2.703   0.206   4.010  0.3141 -0.4123  0.0006
 7308SOL    HW133383   2.746   0.266   3.949  2.1104 -0.0516  1.6503
 7308SOL    HW233384   2.782   0.184   4.060  0.6494  0.9951  0.0921
 7309SOL     OW33385   2.318   1.443  14.847  0.0518  0.1377 -0.3881
 7309SOL    HW133386   2.317   1.538  14.849  1.1435  0.1364  0.3455
 7309SOL    HW233387   2.224   1.428  14.841  0.4932 -2.5189 -0.8929
 7310SOL     OW33388   3.679   2.831   9.002 -0.0659  0.2298  0.0018
 7310SOL    HW133389   3.727   2.900   9.049 -0.4612 -0.4365  1.3790
 7310SOL    HW233390   3.658   2.877   8.921  1.3741  0.8530 -0.0184
 7311SOL     OW33391   0.908   4.310  10.218  0.1429  0.0919  0.2540
 7311SOL    HW133392   0.921   4.335  10.310  0.5752 -2.3647  0.8827
 7311SOL    HW233393   0.989   4.339  10.175  0.3731  0.4649  0.9375
 7312SOL     OW33394   1.247   4.443  10.425  0.4671 -0.0867  0.1316
 7312SOL    HW133395   1.172   4.411  10.376  1.1095 -2.1036  0.4587
 7312SOL    HW233396   1.226   4.421  10.516  1.1589 -0.6487  0.1547
 7313SOL     OW33397   3.120   1.337   2.601 -0.2694  0.0518  0.4915
 7313SOL    HW133398   3.106   1.428   2.573  2.1398  0.0272 -0.7721
 7313SOL    HW233399   3.033   1.317   2.637  0.9440  0.1888  3.4952
 7314SOL     OW33400   1.422   1.052  16.934  0.0098 -0.1002  0.2612
 7314SOL    HW133401   1.430   1.112  16.860  0.2187 -2.0412 -1.3177
 7314SOL    HW233402   1.493   1.078  16.992 -0.6353 -0.5896  1.2548
 7315SOL     OW33403   0.902   0.267   4.422  0.3329  0.0165  0.2132
 7315SOL    HW133404   0.871   0.178   4.408 -0.4698  0.3733 -0.2717
 7315SOL    HW233405   0.843   0.323   4.371 -0.1795  0.1923  1.0024
 7316SOL     OW33406   0.264   1.678   5.748  0.7668  0.0704  0.0359
 7316SOL    HW133407   0.223   1.746   5.802  0.1656  0.2660 -0.6567
 7316SOL    HW233408   0.273   1.724   5.664  0.9559 -1.1517 -0.6091
 7317SOL     OW33409   2.726   0.189   3.446  0.1414 -0.1198 -0.3447
 7317SOL    HW133410   2.681   0.124   3.499 -1.4628  0.4868 -0.9497
 7317SOL    HW233411   2.691   0.178   3.358  1.3997  0.1842 -0.8797
 7318SOL     OW33412   2.897   2.686   4.892  0.0823 -0.6861 -0.0938
 7318SOL    HW133413   2.876   2.719   4.979 -0.6465 -0.3001 -0.4132
 7318SOL    HW233414   2.992   2.685   4.887  0.0734 -0.7424 -0.2685
 7319SOL     OW33415   0.248   0.554   9.200 -0.8102  0.8377 -0.7245
 7319SOL    HW133416   0.234   0.561   9.295  0.8992  0.1541 -0.4087
 7319SOL    HW233417   0.261   0.647   9.184 -1.2857  1.1612  0.7089
 7320SOL     OW33418   0.779   0.859  11.363  0.3474 -0.3194  0.6042
 7320SOL    HW133419   0.818   0.871  11.450  1.8673 -0.7918 -0.0190
 7320SOL    HW233420   0.854   0.871  11.305 -0.8673  0.3277 -0.8269
 7321SOL     OW33421   4.639   2.238   4.341 -0.5722 -0.1901 -0.5981
 7321SOL    HW133422   4.660   2.321   4.298 -0.5913  0.6229  0.9439
 7321SOL    HW233423   4.549   2.257   4.370 -0.3406 -1.7124  1.1053
 7322SOL     OW33424   0.411   0.338   2.770  0.5897 -0.5066  0.2954
 7322SOL    HW133425   0.428   0.311   2.679  3.5943 -0.1914  0.7582
 7322SOL    HW233426   0.421   0.433   2.768  0.2414 -0.4462  1.4558
 7323SOL     OW33427   4.127   1.131   1.548  0.1847 -0.6422  0.0897
 7323SOL    HW133428   4.192   1.101   1.484  1.8195  0.5218  1.1979
 7323SOL    HW233429   4.082   1.050   1.576 -2.4275  1.1007  0.9350
 7324SOL     OW33430   0.383   2.490   1.631 -0.1599 -0.2932  0.6879
 7324SOL    HW133431   0.316   2.557   1.648  2.6341  2.8270 -0.6166
 7324SOL    HW233432   0.465   2.535   1.612 -0.8900  2.1347  3.2832
 7325SOL     OW33433   2.684   0.023  13.855  0.3866  0.8671  0.2834
 7325SOL    HW133434   2.682   0.036  13.949 -0.0985  0.3419  0.3510
 7325SOL    HW233435   2.697   0.110  13.819  0.7333  0.6226 -0.1883
 7326SOL     OW33436   2.842   3.418   9.243 -0.4715 -0.2132  0.1750
 7326SOL    HW133437   2.792   3.498   9.229 -0.7233 -0.3040  0.5711
 7326SOL    HW233438   2.913   3.451   9.298 -2.2503  0.1535  2.2636
 7327SOL     OW33439   0.994   0.665   2.580 -0.3442 -0.2278  0.1394
 7327SOL    HW133440   0.907   0.680   2.616 -1.0031 -0.1686 -1.4538
 7327SOL    HW233441   0.972   0.672   2.487 -1.0165  0.2816  0.3401
 7328SOL     OW33442   1.103   2.390   9.113 -0.1238 -0.3779  0.2444
 7328SOL    HW133443   1.182   2.361   9.158 -0.2063 -1.6188 -0.4261
 7328SOL    HW233444   1.066   2.306   9.086 -2.0311  0.0015  1.5888
 7329SOL     OW33445   1.480   1.633   8.943  0.1522 -0.3375 -0.3812
 7329SOL    HW133446   1.441   1.570   9.004  0.0831 -0.5227 -0.6186
 7329SOL    HW233447   1.563   1.590   8.925  0.6656  0.6978 -0.5015
 7330SOL     OW33448   2.083   0.947   1.570 -0.1923  0.7873  0.5933
 7330SOL    HW133449   2.002   0.908   1.605  0.5853 -0.4187  1.0330
 7330SOL    HW233450   2.043   0.991   1.495  0.3442  1.1838  0.5373
 7331SOL     OW33451   1.797   1.185   6.884  0.0028 -0.1402  0.1702
 7331SOL    HW133452   1.706   1.214   6.884  0.0859  0.1021 -1.8886
 7331SOL    HW233453   1.835   1.262   6.843  0.4496 -0.7717 -0.6092
 7332SOL     OW33454   0.212   1.381   7.595 -0.0915  0.3099 -1.0651
 7332SOL    HW133455   0.218   1.346   7.506  2.2979  2.1055 -1.6195
 7332SOL    HW233456   0.243   1.309   7.650 -2.2677  2.2373  2.6920
 7333SOL     OW33457   2.456   0.920   1.006 -0.1448 -0.2212 -0.0430
 7333SOL    HW133458   2.378   0.871   1.033 -0.8756  0.8130 -0.2860
 7333SOL    HW233459   2.527   0.862   1.034 -0.4627 -0.2594  0.7030
 7334SOL     OW33460   1.470   3.539   1.359 -0.2796  0.3065 -0.4161
 7334SOL    HW133461   1.508   3.452   1.349 -1.4798 -0.5541  2.5866
 7334SOL    HW233462   1.381   3.512   1.337 -0.9267 -0.3591  3.0026
 7335SOL     OW33463   2.109   3.290   6.418  0.4563  0.5186  0.0915
 7335SOL    HW133464   2.084   3.337   6.497 -1.9194 -0.8291  0.1431
 7335SOL    HW233465   2.191   3.245   6.442 -0.0459 -0.8629 -0.7430
 7336SOL     OW33466   2.011   2.323   8.790 -0.1937  0.2124 -0.1799
 7336SOL    HW133467   2.006   2.401   8.735  0.4403  2.0777  2.3688
 7336SOL    HW233468   2.060   2.359   8.864  0.0928 -3.2460  1.3061
 7337SOL     OW33469   3.854   3.923   6.553  0.6999 -0.6062 -0.0830
 7337SOL    HW133470   3.795   3.856   6.519  0.8261 -0.5509 -0.4156
 7337SOL    HW233471   3.794   3.998   6.549  3.0618  1.4347  3.1733
 7338SOL     OW33472   0.724   4.481   1.370 -0.4476  0.5586 -0.1103
 7338SOL    HW133473   0.803   4.428   1.382 -0.0872  0.9869 -0.6518
 7338SOL    HW233474   0.665   4.426   1.422 -2.6241  0.7956 -2.3441
 7339SOL     OW33475   4.522   1.951   2.134  0.8244  0.2166  0.9455
 7339SOL    HW133476   4.450   1.893   2.156 -0.4685  0.1504 -3.4560
 7339SOL    HW233477   4.587   1.917   2.196  0.4786 -0.0407  1.1673
 7340SOL     OW33478   2.954   2.323   1.180 -0.0809 -0.2647  0.4081
 7340SOL    HW133479   2.913   2.242   1.151 -0.6219  0.3032 -0.4164
 7340SOL    HW233480   3.048   2.311   1.168 -0.5018 -1.8463 -1.3437
 7341SOL     OW33481   2.480   0.843   1.818  0.7892 -0.5097  0.2538
 7341SOL    HW133482   2.550   0.885   1.767  0.3917 -1.5054 -1.1237
 7341SOL    HW233483   2.440   0.796   1.745  0.1809  0.3637  0.0259
 7342SOL     OW33484   2.836   4.137   3.680  0.2998  0.0839  0.2996
 7342SOL    HW133485   2.869   4.174   3.598  2.8670 -2.1765  0.3015
 7342SOL    HW233486   2.752   4.182   3.672  0.9524  1.1798 -0.3171
 7343SOL     OW33487   0.401   4.113   0.070 -0.6789 -0.2792 -0.8597
 7343SOL    HW133488   0.412   4.206   0.054  1.1721 -0.3895 -0.2374
 7343SOL    HW233489   0.308   4.093   0.062 -0.8136  0.4643 -1.0812
 7344SOL     OW33490   2.635   1.647  14.921  0.2846 -0.6645 -0.5971
 7344SOL    HW133491   2.657   1.580  14.857  1.9241 -0.4290 -0.2814
 7344SOL    HW233492   2.547   1.676  14.896  0.1709  0.5995  1.2352
 7345SOL     OW33493   3.026   0.108  10.227 -0.1491 -0.1184  0.0413
 7345SOL    HW133494   3.006   0.080  10.316  2.3153 -2.3989 -0.0941
 7345SOL    HW233495   3.100   0.050  10.206 -0.3923 -0.0596 -0.9603
 7346SOL     OW33496   4.318   0.893   0.142 -0.2988 -0.1337  0.0175
 7346SOL    HW133497   4.327   0.970   0.199 -0.9265  0.3081 -0.4806
 7346SOL    HW233498   4.397   0.888   0.088 -1.7500 -0.4264 -2.0989
 7347SOL     OW33499   3.066   3.755  10.695 -0.1187 -0.3821 -0.8489
 7347SOL    HW133500   3.126   3.712  10.756 -1.1335  1.2129  1.2768
 7347SOL    HW233501   3.005   3.783  10.764 -0.3008 -1.2468 -0.6596
 7348SOL     OW33502   1.445   3.664   8.342 -0.4364 -0.0416 -0.7486
 7348SOL    HW133503   1.409   3.735   8.395  1.9624  0.8458 -0.3169
 7348SOL    HW233504   1.503   3.624   8.407 -0.3731 -1.3479 -1.6112
 7349SOL     OW33505   3.107   1.291  12.873  0.4863  0.0747 -0.3153
 7349SOL    HW133506   3.187   1.329  12.909  0.0579  0.5694  0.1069
 7349SOL    HW233507   3.042   1.349  12.912  0.6122  0.1026 -0.1433
 7350SOL     OW33508   0.677   0.383  11.553 -0.3467  0.0503 -0.0666
 7350SOL    HW133509   0.691   0.290  11.536 -0.8661 -0.1062  0.3658
 7350SOL    HW233510   0.657   0.411  11.463  1.3031  1.0219 -0.1195
 7351SOL     OW33511   4.582   2.485   1.766  0.3741  0.2705  0.6692
 7351SOL    HW133512   4.593   2.390   1.771 -2.3590 -0.0413  0.4643
 7351SOL    HW233513   4.524   2.503   1.692  1.1344 -1.9542 -0.4737
 7352SOL     OW33514   2.838   3.344   4.924  0.1151  0.0515 -0.2824
 7352SOL    HW133515   2.855   3.398   5.001  2.2958  0.2708 -0.9346
 7352SOL    HW233516   2.788   3.274   4.967  1.4452 -0.6184  0.1522
 7353SOL     OW33517   2.640   0.329  10.853  0.3729  0.0210  0.6537
 7353SOL    HW133518   2.681   0.244  10.835  2.4349  0.9226  1.0985
 7353SOL    HW233519   2.720   0.372  10.883  1.8451 -1.0393 -1.7044
 7354SOL     OW33520   2.485   2.748   1.529 -0.0049 -0.2039 -0.0642
 7354SOL    HW133521   2.486   2.663   1.485 -1.8589  0.5901 -1.6338
 7354SOL    HW233522   2.563   2.748   1.585 -1.1194 -2.2676  1.4841
 7355SOL     OW33523   2.543   3.223   1.970 -0.0443 -0.2955 -0.5250
 7355SOL    HW133524   2.566   3.265   1.887 -0.9436 -0.0129 -0.6329
 7355SOL    HW233525   2.505   3.146   1.928 -0.2561  0.1530 -1.1545
 7356SOL     OW33526   3.527   1.993  15.917 -0.5841 -0.3198  0.0190
 7356SOL    HW133527   3.499   2.073  15.963  0.9213 -0.9494  2.0466
 7356SOL    HW233528   3.469   1.930  15.960  1.9412 -1.4343  1.8096
 7357SOL     OW33529   2.657   4.595   4.752  0.2651  0.1535 -0.0069
 7357SOL    HW133530   2.718   4.522   4.743 -0.1333 -0.1972  0.1225
 7357SOL    HW233531   2.581   4.546   4.721  2.5169 -2.7140 -0.9688
 7358SOL     OW33532   2.994   3.163   1.202  0.4621 -0.0042 -0.6959
 7358SOL    HW133533   2.939   3.098   1.245  2.1719  1.3674  3.5339
 7358SOL    HW233534   3.071   3.115   1.172  0.3879 -1.6012  1.7416
 7359SOL     OW33535   4.370   3.231   5.000 -0.2001  0.6557 -0.4850
 7359SOL    HW133536   4.421   3.168   5.052  0.6198  1.1246 -0.7385
 7359SOL    HW233537   4.285   3.190   5.016 -0.5126  0.0798 -3.6054
 7360SOL     OW33538   0.345   0.546   2.117  0.0555 -0.3455  0.4789
 7360SOL    HW133539   0.333   0.559   2.023 -1.0661 -2.7803  0.3034
 7360SOL    HW233540   0.437   0.520   2.124  0.4085  0.1464 -2.5728
 7361SOL     OW33541   1.814   0.914   3.099  0.8221  0.0885 -0.0935
 7361SOL    HW133542   1.762   0.905   3.019 -0.7571  0.4542  0.8850
 7361SOL    HW233543   1.849   0.826   3.108 -0.2900 -0.2848  0.5718
 7362SOL     OW33544   4.148   0.675   6.055  0.1545 -0.0272  0.1023
 7362SOL    HW133545   4.053   0.685   6.047  0.7875  3.5282 -3.0397
 7362SOL    HW233546   4.149   0.601   6.116  1.1739  1.6646  2.1252
 7363SOL     OW33547   4.387   1.852  15.107 -0.3199 -0.1311  0.0641
 7363SOL    HW133548   4.296   1.855  15.135 -1.3033 -0.4422 -3.0363
 7363SOL    HW233549   4.418   1.942  15.112 -0.0482 -0.2430  0.4159
 7364SOL     OW33550   3.408   2.654  16.049  0.3254 -0.2026 -0.5557
 7364SOL    HW133551   3.490   2.604  16.042  0.1331 -0.8850  2.1089
 7364SOL    HW233552   3.350   2.582  16.070  0.6133  0.1086  1.3453
 7365SOL     OW33553   0.927   2.193   2.316 -0.2675 -0.1949  0.0429
 7365SOL    HW133554   0.963   2.282   2.321  0.7947 -0.5328 -1.6068
 7365SOL    HW233555   0.971   2.152   2.390 -1.0586  0.5822  0.9372
 7366SOL     OW33556   3.594   1.193   0.516 -0.1148  0.5581  0.1911
 7366SOL    HW133557   3.671   1.205   0.572  2.1467  1.0712 -3.0338
 7366SOL    HW233558   3.634   1.208   0.430 -0.4731  0.1175 -0.0495
 7367SOL     OW33559   0.003   3.518   6.396 -0.3663  0.1143  0.2628
 7367SOL    HW133560   0.022   3.495   6.305 -0.3294  1.9161 -0.1957
 7367SOL    HW233561   0.052   3.445   6.433  3.5977  1.8892 -1.5723
 7368SOL     OW33562   4.723   3.804   5.176 -0.9273  0.2984  0.1133
 7368SOL    HW133563   0.017   3.746   5.103 -1.1462  1.3426 -0.7779
 7368SOL    HW233564   4.671   3.736   5.218 -1.5121  0.3897 -0.4479
 7369SOL     OW33565   4.718   2.419   5.640  0.1449  0.1212  0.2246
 7369SOL    HW133566   4.694   2.384   5.726  1.7002  0.8140  0.9438
 7369SOL    HW233567   0.064   2.475   5.666 -1.3137  2.4768 -0.7603
 7370SOL     OW33568   3.353   0.753  15.815 -0.3427 -0.1132 -0.2902
 7370SOL    HW133569   3.352   0.843  15.784  0.6554  0.5524  1.6654
 7370SOL    HW233570   3.274   0.758  15.870 -0.1775 -1.6044  0.0861
 7371SOL     OW33571   0.468   2.665   8.354 -0.4046  0.2974  0.5958
 7371SOL    HW133572   0.392   2.670   8.296  1.0296  0.8463 -1.2279
 7371SOL    HW233573   0.420   2.702   8.429 -0.8005  2.6255 -0.7953
 7372SOL     OW33574   1.697   3.483  14.988 -0.0482  0.1768 -0.1817
 7372SOL    HW133575   1.647   3.429  15.050 -0.5948  0.2081 -0.5903
 7372SOL    HW233576   1.751   3.421  14.939 -2.7183 -2.7191  0.4936
 7373SOL     OW33577   3.863   0.586   8.499  0.1941 -0.0791 -0.1335
 7373SOL    HW133578   3.847   0.676   8.528  0.3722  0.0514 -0.4322
 7373SOL    HW233579   3.799   0.537   8.550 -0.1863  1.3226  0.7376
 7374SOL     OW33580   0.830   4.308   4.703 -0.1243  0.0269  0.1301
 7374SOL    HW133581   0.767   4.370   4.740 -0.0491 -0.0658  0.4176
 7374SOL    HW233582   0.829   4.240   4.771  1.9872  0.3379  0.4521
 7375SOL     OW33583   3.674   2.801  12.186  0.4724  0.0886  0.2028
 7375SOL    HW133584   3.591   2.832  12.221  0.3877 -0.9020  0.8780
 7375SOL    HW233585   3.640   2.717  12.155  0.4565  0.3222 -0.4116
 7376SOL     OW33586   2.096   2.047   8.743 -0.1453 -0.3420 -0.2338
 7376SOL    HW133587   2.077   2.133   8.780 -1.0232 -1.1627  1.2432
 7376SOL    HW233588   2.124   2.057   8.652  1.0012  0.3362  0.1952
 7377SOL     OW33589   2.278   3.506   2.392 -0.3279 -0.9895  0.8512
 7377SOL    HW133590   2.359   3.552   2.369 -2.0444  0.9793 -1.3189
 7377SOL    HW233591   2.227   3.524   2.313  0.0901 -0.6034  0.6691
 7378SOL     OW33592   2.053   3.328   7.972 -0.4341 -0.5937 -0.0051
 7378SOL    HW133593   1.997   3.392   8.015 -1.1882 -0.6876 -0.8644
 7378SOL    HW233594   2.049   3.362   7.882 -1.3362  0.2919  0.3770
 7379SOL     OW33595   3.835   3.311   2.236  0.0853  0.3345 -0.7820
 7379SOL    HW133596   3.915   3.344   2.277 -2.9933  4.6380  1.8441
 7379SOL    HW233597   3.834   3.351   2.149 -0.1919  1.2261 -0.3704
 7380SOL     OW33598   1.511   1.815  13.968  0.5176 -0.4130 -0.4005
 7380SOL    HW133599   1.545   1.732  14.003 -1.5167 -0.9034  0.4175
 7380SOL    HW233600   1.574   1.871  14.014 -1.6037  2.8135 -1.4440
 7381SOL     OW33601   4.122   4.035   4.856 -0.9156  0.3044 -0.5149
 7381SOL    HW133602   4.195   3.975   4.867 -0.4503  1.0785  0.6921
 7381SOL    HW233603   4.153   4.082   4.779 -0.8785 -1.6475 -1.6802
 7382SOL     OW33604   0.479   0.098   4.473  0.3043  0.4357 -0.0291
 7382SOL    HW133605   0.405   0.038   4.462 -0.6095  1.2463  1.7790
 7382SOL    HW233606   0.441   0.180   4.504  0.0370  1.2545 -2.5252
 7383SOL     OW33607   3.647   4.470  11.908  0.2656 -0.3558 -0.2296
 7383SOL    HW133608   3.740   4.491  11.905  0.0755  0.3821 -0.8632
 7383SOL    HW233609   3.616   4.536  11.846 -3.2561  1.4977  3.5260
 7384SOL     OW33610   3.538   4.079  13.906  0.2466  0.5594 -0.7400
 7384SOL    HW133611   3.483   4.132  13.849  0.5274 -1.5802 -3.0507
 7384SOL    HW233612   3.471   4.026  13.949  0.8791 -1.1418 -1.8155
 7385SOL     OW33613   2.875   3.576   2.391 -0.3762 -0.1666 -0.8424
 7385SOL    HW133614   2.795   3.535   2.421 -0.0849  0.0904  0.2868
 7385SOL    HW233615   2.933   3.500   2.383  0.8217  0.4208  2.1627
 7386SOL     OW33616   1.575   3.173   6.084 -0.1893 -0.0406 -0.2083
 7386SOL    HW133617   1.609   3.200   5.999  1.3026  0.7900  0.6441
 7386SOL    HW233618   1.654   3.149   6.132  0.6032  2.9246  0.0044
 7387SOL     OW33619   3.588   2.445   8.024  0.0183 -0.4893  0.4410
 7387SOL    HW133620   3.530   2.520   8.039 -1.2533 -1.2883 -0.5113
 7387SOL    HW233621   3.546   2.408   7.946  0.2658  0.1690 -0.0030
 7388SOL     OW33622   2.086   3.094  11.835 -0.0393  0.4602 -0.0142
 7388SOL    HW133623   2.076   3.001  11.858  1.2162  1.0040  2.7330
 7388SOL    HW233624   2.146   3.127  11.901  0.9857  0.9807 -1.2035
 7389SOL     OW33625   2.755   3.799   7.311 -0.7696 -0.0399  0.4413
 7389SOL    HW133626   2.809   3.858   7.258  0.4974  2.7188  4.7864
 7389SOL    HW233627   2.817   3.746   7.360 -1.0476  0.6588  1.5647
 7390SOL     OW33628   1.833   4.485   9.508  0.7924  0.0665  0.1863
 7390SOL    HW133629   1.912   4.441   9.476  1.1224  0.4956  0.4186
 7390SOL    HW233630   1.780   4.407   9.492 -0.7679  0.8999  1.2694
 7391SOL     OW33631   1.113   1.259  11.792  0.2543  0.4240 -0.5003
 7391SOL    HW133632   1.068   1.175  11.794  1.6181 -0.3249 -0.7766
 7391SOL    HW233633   1.040   1.316  11.768  0.2898  0.7804  0.2332
 7392SOL     OW33634   1.936   1.068   2.924 -0.1684 -0.3988  0.2490
 7392SOL    HW133635   1.975   1.153   2.942 -3.4539  1.1183  0.2319
 7392SOL    HW233636   1.899   1.047   3.009 -0.0182  0.1784  0.4536
 7393SOL     OW33637   4.239   1.507   1.539  0.5193  0.3772 -0.3385
 7393SOL    HW133638   4.209   1.569   1.606  0.1668 -1.3312  1.1017
 7393SOL    HW233639   4.251   1.424   1.585 -1.7816  0.9543  1.2961
 7394SOL     OW33640   3.335   0.894   8.354 -0.0236 -0.2313  0.5554
 7394SOL    HW133641   3.387   0.924   8.280 -1.4361  1.2002  0.1512
 7394SOL    HW233642   3.390   0.817   8.371 -0.2814 -0.1431  1.8057
 7395SOL     OW33643   3.323   0.848   6.871  0.4018 -0.6227 -0.3983
 7395SOL    HW133644   3.235   0.882   6.855 -0.7177 -4.1467 -1.7333
 7395SOL    HW233645   3.309   0.760   6.906  3.0548 -0.2751  1.4896
 7396SOL     OW33646   3.673   1.191   3.385  0.2388  0.4748 -0.2054
 7396SOL    HW133647   3.687   1.280   3.416 -2.7639  0.8458  0.1275
 7396SOL    HW233648   3.643   1.144   3.463 -0.0389  1.0250  0.0210
 7397SOL     OW33649   1.807   0.600   3.715  0.1913  0.0572 -0.0013
 7397SOL    HW133650   1.757   0.657   3.657  1.5892 -2.5061 -3.7014
 7397SOL    HW233651   1.886   0.652   3.730  0.5204  0.0283 -1.6032
 7398SOL     OW33652   4.595   3.537   8.564 -0.1102 -0.2107 -0.1064
 7398SOL    HW133653   4.683   3.516   8.595 -0.5802  0.7668  1.8599
 7398SOL    HW233654   4.598   3.631   8.547  0.5808 -0.0296  1.0601
 7399SOL     OW33655   1.407   4.701   8.670 -0.1721 -0.1274  0.1725
 7399SOL    HW133656   1.377   0.017   8.749 -0.6718 -3.1383  1.6544
 7399SOL    HW233657   1.435   0.049   8.618  0.2932  0.0333  0.6579
 7400SOL     OW33658   0.180   2.288  15.644 -0.3248 -0.5955  0.0511
 7400SOL    HW133659   0.113   2.340  15.601  0.8809  0.5290 -0.4645
 7400SOL    HW233660   0.246   2.274  15.576 -1.3350 -2.3744 -0.5681
 7401SOL     OW33661   1.906   4.328  10.229  0.0251  0.4747  0.2292
 7401SOL    HW133662   1.850   4.400  10.259  0.7814  0.1322  2.4107
 7401SOL    HW233663   1.976   4.369  10.178 -2.8898  3.4038 -1.4313
 7402SOL     OW33664   2.601   0.416   3.694 -0.0611 -0.6481 -0.3668
 7402SOL    HW133665   2.679   0.399   3.746 -0.2214 -0.8456 -0.1902
 7402SOL    HW233666   2.607   0.346   3.629 -1.0990  1.2133 -2.4520
 7403SOL     OW33667   2.732   1.908   2.972 -0.3014 -0.5259 -0.3482
 7403SOL    HW133668   2.698   1.985   2.927  0.1441 -0.3313 -0.3457
 7403SOL    HW233669   2.771   1.860   2.899 -1.1855 -1.5877 -0.1208
 7404SOL     OW33670   4.306   0.767   3.892  0.0137  0.2284 -0.6304
 7404SOL    HW133671   4.385   0.716   3.908 -1.4850 -1.4733  1.3347
 7404SOL    HW233672   4.303   0.828   3.966 -2.6899  1.6332 -1.9113
 7405SOL     OW33673   0.022   0.086   5.375  0.5947 -0.2805  0.3800
 7405SOL    HW133674   4.654   0.084   5.384  0.3716  0.8803 -1.6824
 7405SOL    HW233675   0.029   0.067   5.281  0.3177 -2.6021  0.8395
 7406SOL     OW33676   3.477   0.098   4.326  0.1998  0.4718  0.4670
 7406SOL    HW133677   3.459   0.186   4.293  1.7226  1.3873  2.1011
 7406SOL    HW233678   3.551   0.087   4.267 -0.8457  0.7929 -0.9169
 7407SOL     OW33679   0.074   4.508   7.232  0.3285 -0.5654 -0.6217
 7407SOL    HW133680   0.127   4.551   7.165 -1.5787  3.1413  0.2467
 7407SOL    HW233681   0.136   4.507   7.305 -0.8439  1.4569  0.3923
 7408SOL     OW33682   2.502   2.855  15.448 -1.0194 -0.0732 -0.2141
 7408SOL    HW133683   2.429   2.794  15.445 -1.8047  0.9650 -2.5052
 7408SOL    HW233684   2.566   2.792  15.481  0.3002  0.5948 -1.5056
 7409SOL     OW33685   0.090   4.325  16.076 -0.0102  0.4387  0.6369
 7409SOL    HW133686   0.066   4.417  16.061  0.3490  0.0444 -2.4016
 7409SOL    HW233687   0.070   4.278  15.995 -1.0093 -2.5985  2.6714
 7410SOL     OW33688   0.234   3.558   4.744  0.5040  0.3913  0.0738
 7410SOL    HW133689   0.243   3.522   4.656 -1.1556 -1.1265  0.5258
 7410SOL    HW233690   0.298   3.512   4.799  1.9279  0.6806 -1.3696
 7411SOL     OW33691   1.902   4.004   8.410 -0.3727  0.1494  0.1393
 7411SOL    HW133692   1.924   4.095   8.430  3.0449 -0.8268  0.8394
 7411SOL    HW233693   1.879   3.960   8.492 -0.0179  1.3303  0.8746
 7412SOL     OW33694   0.970   1.310   1.657 -1.1317  0.2397  0.4010
 7412SOL    HW133695   0.905   1.370   1.621 -1.5155 -0.2922  0.2167
 7412SOL    HW233696   0.953   1.234   1.602 -0.9312 -0.1840  0.9290
 7413SOL     OW33697   0.827   0.601  17.192 -0.7632 -0.0104 -0.6694
 7413SOL    HW133698   0.904   0.551  17.220  1.5786  2.2987 -2.9774
 7413SOL    HW233699   0.763   0.584  17.262 -0.0920 -0.2658 -0.1149
 7414SOL     OW33700   0.516   3.525  17.559  0.4160 -0.3832  0.4729
 7414SOL    HW133701   0.479   3.583  17.493 -0.6750 -1.1154  0.4465
 7414SOL    HW233702   0.599   3.496  17.523  0.1136 -0.8541  0.1566
 7415SOL     OW33703   1.819   3.962   4.040  0.5017  0.4987  0.0835
 7415SOL    HW133704   1.816   3.983   4.134 -0.3961 -0.5786  0.3007
 7415SOL    HW233705   1.818   4.051   4.005 -1.4580  0.7624  0.8040
 7416SOL     OW33706   4.104   2.343   9.013  0.2452  0.4233  0.0899
 7416SOL    HW133707   4.030   2.282   9.011 -0.1900  0.9171  0.9037
 7416SOL    HW233708   4.163   2.310   8.946  0.9482  0.8599  0.4943
 7417SOL     OW33709   3.531   2.186   8.773 -0.4796  0.5693 -0.4493
 7417SOL    HW133710   3.603   2.241   8.803 -0.1451  0.3346 -0.8116
 7417SOL    HW233711   3.553   2.100   8.809 -1.9150  0.1389 -0.6146
 7418SOL     OW33712   0.227   2.378   5.007 -0.0537 -0.1596 -0.5464
 7418SOL    HW133713   0.153   2.317   5.002 -2.0747  2.2299  0.4591
 7418SOL    HW233714   0.292   2.308   4.991 -3.7571 -3.7305  0.0557
 7419SOL     OW33715   3.077   1.602   2.622 -0.1943  0.0799 -0.2227
 7419SOL    HW133716   3.119   1.655   2.689  0.2996  3.0657 -2.8721
 7419SOL    HW233717   3.064   1.682   2.572  0.6316  0.5362  0.3057
 7420SOL     OW33718   0.080   0.012  12.870  0.5085  0.1771  0.1689
 7420SOL    HW133719   0.106   4.695  12.951  1.0161  0.4994  0.1850
 7420SOL    HW233720   0.121   4.682  12.805  1.3537 -0.8544  1.6146
 7421SOL     OW33721   1.229   0.489   6.557  0.1806  0.2712 -0.1325
 7421SOL    HW133722   1.269   0.554   6.615 -0.1642 -1.4122  1.9688
 7421SOL    HW233723   1.301   0.430   6.538  1.2712  1.7932 -0.7646
 7422SOL     OW33724   4.211   1.136   5.199  0.0229  0.4143 -0.3118
 7422SOL    HW133725   4.168   1.092   5.125 -1.2014  0.2379  0.4959
 7422SOL    HW233726   4.142   1.199   5.222  1.0665  1.8696 -1.1435
 7423SOL     OW33727   3.836   2.800   9.487 -0.1339  0.4562 -0.0297
 7423SOL    HW133728   3.910   2.740   9.485 -0.8154 -0.3985  0.0551
 7423SOL    HW233729   3.771   2.759   9.544 -0.8522  1.2727 -0.2456
 7424SOL     OW33730   4.152   1.854  10.285 -0.7707 -0.4450 -0.5589
 7424SOL    HW133731   4.157   1.858  10.381  1.1689 -1.6560 -0.6248
 7424SOL    HW233732   4.082   1.917  10.266  0.3110  1.8122  2.8037
 7425SOL     OW33733   3.787   1.548   7.621 -0.3408 -0.1049  0.2272
 7425SOL    HW133734   3.853   1.555   7.552  0.2984 -0.5638  0.7916
 7425SOL    HW233735   3.718   1.509   7.568  0.0995 -0.3159 -0.1887
 7426SOL     OW33736   4.048   0.372  16.694 -0.8450  0.6175  1.6123
 7426SOL    HW133737   4.006   0.319  16.762  0.9207 -1.6307  0.9319
 7426SOL    HW233738   4.003   0.456  16.702  0.1845  1.3447 -0.1446
 7427SOL     OW33739   0.953   4.064   0.053  0.2942  0.5101  0.3206
 7427SOL    HW133740   0.876   4.121   0.052  1.4576  2.0308 -0.9894
 7427SOL    HW233741   0.907   3.981   0.064  1.5882 -0.0248  1.7325
 7428SOL     OW33742   0.644   0.983  13.871  0.1236 -0.7149 -0.2729
 7428SOL    HW133743   0.594   0.968  13.951  0.2596 -0.1468 -0.0772
 7428SOL    HW233744   0.582   1.015  13.805 -0.7582  0.1960  0.9897
 7429SOL     OW33745   0.980   3.777   5.330  0.4921  0.0969 -0.3572
 7429SOL    HW133746   0.991   3.827   5.410 -0.0388  2.3910 -1.7098
 7429SOL    HW233747   0.885   3.783   5.320  0.6665  0.8687 -1.5791
 7430SOL     OW33748   2.918   0.958   6.652  0.0569  0.8239 -0.3592
 7430SOL    HW133749   2.900   1.005   6.570  2.3706  1.8326 -0.3009
 7430SOL    HW233750   2.925   1.034   6.710  3.0570 -0.6658  1.2257
 7431SOL     OW33751   0.566   4.038  17.498  0.1738  0.2247 -0.3922
 7431SOL    HW133752   0.533   4.124  17.471 -0.5800  1.6593  5.0079
 7431SOL    HW233753   0.546   4.056  17.590 -1.6613 -1.6079 -0.4471
 7432SOL     OW33754   2.917   2.495   8.901  0.7226 -0.1923 -0.3388
 7432SOL    HW133755   2.867   2.445   8.837 -0.8253  3.1060 -1.7046
 7432SOL    HW233756   2.958   2.420   8.944  0.1953 -1.1107 -1.4300
 7433SOL     OW33757   3.011   3.751   8.542 -0.1419  0.3831 -0.3542
 7433SOL    HW133758   3.064   3.813   8.491 -0.2502  1.8131  1.2809
 7433SOL    HW233759   3.044   3.765   8.630  0.6948 -1.2273 -0.3967
 7434SOL     OW33760   0.883   2.287  12.813 -0.0744 -0.3928 -0.2257
 7434SOL    HW133761   0.929   2.204  12.803 -0.3586 -0.8286  2.0860
 7434SOL    HW233762   0.871   2.291  12.908 -0.1915 -2.9322 -0.1256
 7435SOL     OW33763   2.175   4.722   9.004 -0.8439  0.2593  0.2851
 7435SOL    HW133764   2.203   0.080   9.037 -0.2599 -0.1608  0.8667
 7435SOL    HW233765   2.218   4.727   8.919 -0.6312  2.6011  0.5386
 7436SOL     OW33766   4.326   2.557  16.533  0.3554  0.4144  0.3702
 7436SOL    HW133767   4.290   2.634  16.579  1.2296 -0.2489  2.1465
 7436SOL    HW233768   4.330   2.486  16.596  0.8950  0.2991  0.2039
 7437SOL     OW33769   0.003   0.928  12.391  0.5471  0.2440  0.0601
 7437SOL    HW133770   0.085   0.978  12.385  1.1634 -0.8333 -0.5519
 7437SOL    HW233771   4.669   0.999  12.411 -0.1675 -1.3666  3.4887
 7438SOL     OW33772   0.425   2.015   8.302 -0.4085  0.3349  0.3888
 7438SOL    HW133773   0.477   2.089   8.332 -1.9252  0.7143  2.0992
 7438SOL    HW233774   0.364   1.998   8.374 -0.2759  0.6394  0.5738
 7439SOL     OW33775   0.148   0.800  10.869  0.2520  0.3591 -0.8520
 7439SOL    HW133776   0.064   0.800  10.822 -0.5802 -0.4077  0.6513
 7439SOL    HW233777   0.159   0.895  10.871  1.4146  0.2721 -2.5616
 7440SOL     OW33778   2.967   4.533   9.442 -0.0336 -0.0788  0.1046
 7440SOL    HW133779   2.975   4.628   9.452 -1.1509 -0.0356  0.5240
 7440SOL    HW233780   2.913   4.506   9.516  1.9942  0.3195  1.7394
 7441SOL     OW33781   1.466   4.655   8.936  0.0758 -0.3285  0.3790
 7441SOL    HW133782   1.476   0.011   8.982  0.3288 -0.4788  0.5987
 7441SOL    HW233783   1.535   4.668   8.871  0.6467 -2.0284  0.6314
 7442SOL     OW33784   1.751   3.564   7.040  0.9526 -0.1917  0.2025
 7442SOL    HW133785   1.656   3.577   7.043  0.9133 -0.6999  1.0091
 7442SOL    HW233786   1.772   3.585   6.948  1.2879 -0.4021  0.2295
 7443SOL     OW33787   4.484   0.588  16.422  0.0972 -0.5906 -0.3152
 7443SOL    HW133788   4.448   0.500  16.415  2.0847 -1.1254 -4.2810
 7443SOL    HW233789   4.449   0.620  16.339  0.3270 -0.5051 -0.3812
 7444SOL     OW33790   2.226   1.811   6.977  0.2627  0.4850  0.1494
 7444SOL    HW133791   2.161   1.826   7.046 -0.8453 -0.7163 -0.6256
 7444SOL    HW233792   2.182   1.841   6.898  0.0026 -0.4778 -0.0788
 7445SOL     OW33793   1.711   3.020   7.295  0.8328  0.1997  0.5578
 7445SOL    HW133794   1.783   3.063   7.342  0.2182  0.1824  1.5213
 7445SOL    HW233795   1.714   3.071   7.214  0.1798 -0.9574 -0.1942
 7446SOL     OW33796   3.188   1.736   7.695 -0.8040  0.6539 -0.1060
 7446SOL    HW133797   3.191   1.803   7.627 -0.3604  0.9596  0.2132
 7446SOL    HW233798   3.210   1.785   7.774  0.4858 -0.1546  0.0427
 7447SOL     OW33799   3.466   2.656  17.272 -0.3647  0.0395 -0.0505
 7447SOL    HW133800   3.544   2.705  17.247 -0.4192  0.1235 -0.0557
 7447SOL    HW233801   3.404   2.697  17.212  0.9460  0.6240 -1.0096
 7448SOL     OW33802   2.025   1.383   9.395 -0.5122 -0.4299  0.0948
 7448SOL    HW133803   2.059   1.375   9.484 -1.1546  0.0788  0.3864
 7448SOL    HW233804   2.096   1.437   9.360  1.1275 -0.5995  3.2030
 7449SOL     OW33805   0.961   1.870   3.868 -0.2585  0.0583 -0.1366
 7449SOL    HW133806   0.956   1.775   3.859  1.0766 -0.0882  0.6436
 7449SOL    HW233807   0.998   1.886   3.781 -1.8833  0.8195 -0.6932
 7450SOL     OW33808   0.519   0.213   0.515  0.2774  0.3108 -0.3670
 7450SOL    HW133809   0.432   0.180   0.538  0.7733 -0.5864  0.1920
 7450SOL    HW233810   0.504   0.304   0.488  1.5108  1.1890  1.9457
 7451SOL     OW33811   0.886   0.216   4.723 -0.2278 -0.5808 -0.4895
 7451SOL    HW133812   0.885   0.120   4.716 -1.3521 -0.5634 -0.5206
 7451SOL    HW233813   0.873   0.247   4.634 -0.6846 -2.4312 -1.0642
 7452SOL     OW33814   2.263   2.351   0.096  0.0513  0.0841 -0.0277
 7452SOL    HW133815   2.311   2.406   0.033  0.6663  1.2089  1.4206
 7452SOL    HW233816   2.249   2.407   0.172  0.4927 -2.1054  1.6283
 7453SOL     OW33817   1.134   1.778   5.163  0.0618  0.2010 -0.5080
 7453SOL    HW133818   1.099   1.864   5.142  2.3942  1.6056  1.4155
 7453SOL    HW233819   1.204   1.804   5.222 -0.5248 -0.8999  0.6732
 7454SOL     OW33820   4.691   0.652   7.103 -0.1462  0.3520 -0.8107
 7454SOL    HW133821   4.635   0.683   7.033 -0.7077  1.3331  0.0725
 7454SOL    HW233822   4.639   0.577   7.131  1.8638 -1.1118 -0.9417
 7455SOL     OW33823   1.841   3.347   5.645 -0.7555  0.1154  0.5441
 7455SOL    HW133824   1.836   3.340   5.550  1.2140 -2.5151  0.6486
 7455SOL    HW233825   1.933   3.372   5.650 -0.4922 -1.0337  1.4533
 7456SOL     OW33826   3.832   2.639  11.631 -0.1982  0.9091  0.1722
 7456SOL    HW133827   3.752   2.618  11.679  0.3242  2.3050  1.6176
 7456SOL    HW233828   3.795   2.706  11.573  0.4708 -0.5531 -1.9856
 7457SOL     OW33829   4.622   2.814   8.897 -0.5928 -0.2247  0.1691
 7457SOL    HW133830   4.613   2.879   8.828  1.5485 -1.5558 -1.3617
 7457SOL    HW233831   4.529   2.792   8.903 -0.8589  0.6064 -0.9114
 7458SOL     OW33832   3.506   4.014  15.314  0.3444  0.2900 -0.0812
 7458SOL    HW133833   3.451   4.084  15.278  1.6790  0.5921 -1.5457
 7458SOL    HW233834   3.436   3.968  15.361 -0.9813  1.5973 -0.7610
 7459SOL     OW33835   4.126   1.794   5.060 -0.1579  0.3373  0.4823
 7459SOL    HW133836   4.059   1.728   5.079  0.8642 -0.1281  2.5246
 7459SOL    HW233837   4.187   1.733   5.019 -0.1223  0.8751 -0.2535
 7460SOL     OW33838   1.338   0.832   8.869 -0.0276 -0.2236  0.3314
 7460SOL    HW133839   1.263   0.884   8.840  1.6649  2.1569  0.2068
 7460SOL    HW233840   1.392   0.906   8.897 -0.2188  0.2091 -0.4542
 7461SOL     OW33841   1.908   0.862   8.568 -0.3781 -0.1974  0.1633
 7461SOL    HW133842   1.815   0.884   8.576 -0.7425 -0.7728 -2.5958
 7461SOL    HW233843   1.932   0.882   8.659  1.1024 -1.7054  0.1112
 7462SOL     OW33844   0.259   4.384   3.265 -0.8997  0.3638  0.4345
 7462SOL    HW133845   0.209   4.354   3.189 -1.5472 -0.0024  1.0069
 7462SOL    HW233846   0.344   4.389   3.221 -0.7494  0.4493  0.7342
 7463SOL     OW33847   4.153   1.909  15.820  0.1471 -0.4396 -0.2254
 7463SOL    HW133848   4.154   1.818  15.850  1.6427 -0.4086 -0.2049
 7463SOL    HW233849   4.157   1.950  15.906  1.3075 -1.9460  0.4327
 7464SOL     OW33850   1.690   3.357   6.768 -0.2582 -0.3539  0.1033
 7464SOL    HW133851   1.735   3.439   6.746 -1.0461 -0.0956 -0.5805
 7464SOL    HW233852   1.747   3.323   6.837 -0.9581 -0.3664  0.6763
 7465SOL     OW33853   4.578   0.531   5.269  0.5179  0.6209 -0.0584
 7465SOL    HW133854   4.552   0.444   5.239 -0.1852  0.3264  1.3698
 7465SOL    HW233855   4.498   0.580   5.247 -0.2057 -1.3044 -1.6777
 7466SOL     OW33856   0.954   2.771   9.043 -0.4628  0.0824  0.3667
 7466SOL    HW133857   0.966   2.865   9.035  1.3151 -0.2347 -0.7763
 7466SOL    HW233858   0.876   2.755   8.989  0.6771 -1.1893 -0.9162
 7467SOL     OW33859   2.401   1.961   4.065  0.0715  0.2069  1.2120
 7467SOL    HW133860   2.479   1.936   4.114  0.1789 -1.7312  0.0303
 7467SOL    HW233861   2.434   2.029   4.006 -0.4932 -0.1467  0.4944
 7468SOL     OW33862   2.308   1.666  16.528 -0.2943  0.2214  0.2719
 7468SOL    HW133863   2.241   1.642  16.593 -0.3715  0.2739  0.2125
 7468SOL    HW233864   2.380   1.712  16.571  0.3413 -1.3969  0.9185
 7469SOL     OW33865   2.143   3.179   6.081  0.3454  0.1793  0.0736
 7469SOL    HW133866   2.205   3.128   6.132 -1.6588 -1.4254  0.9088
 7469SOL    HW233867   2.139   3.128   6.000 -1.5916  1.6538 -0.7708
 7470SOL     OW33868   3.875   1.764   3.119  0.1883 -0.1631 -0.6169
 7470SOL    HW133869   3.918   1.683   3.092 -0.0796  0.3400 -2.5348
 7470SOL    HW233870   3.785   1.731   3.119 -0.3531  1.3456 -2.3599
 7471SOL     OW33871   2.547   2.830  13.983 -0.1861 -0.1189 -0.4050
 7471SOL    HW133872   2.454   2.829  13.960  0.7387  1.2480 -4.2002
 7471SOL    HW233873   2.533   2.819  14.078 -1.6450  1.9922 -0.3706
 7472SOL     OW33874   3.200   1.557   6.029  0.1184  0.3533  0.3483
 7472SOL    HW133875   3.213   1.462   6.022  1.4132  0.5771 -0.1865
 7472SOL    HW233876   3.154   1.583   5.949 -1.1332  1.0532  1.2987
 7473SOL     OW33877   4.670   3.550   5.262  0.2232  0.3364  0.4213
 7473SOL    HW133878   4.721   3.469   5.258 -1.6811 -0.8386  0.1801
 7473SOL    HW233879   4.589   3.512   5.227  0.4075 -1.2301  1.6891
 7474SOL     OW33880   3.396   1.552   7.660 -0.2791 -0.0142 -0.1591
 7474SOL    HW133881   3.328   1.619   7.652  0.5548  0.6450 -1.6479
 7474SOL    HW233882   3.397   1.541   7.755  1.9951 -1.5752 -0.3717
 7475SOL     OW33883   2.302   2.681   8.122  0.0004  0.6993 -0.3821
 7475SOL    HW133884   2.347   2.653   8.042 -4.4884  0.3386 -2.7792
 7475SOL    HW233885   2.228   2.619   8.120  0.8619 -0.3320 -0.5494
 7476SOL     OW33886   2.527   0.916   2.296 -0.0358 -0.3100 -0.5679
 7476SOL    HW133887   2.549   1.005   2.268 -0.7023  0.5338  1.5981
 7476SOL    HW233888   2.538   0.874   2.210 -0.3004 -2.1179  0.2867
 7477SOL     OW33889   0.985   4.710   4.029  0.2073 -0.2508 -0.0785
 7477SOL    HW133890   0.969   4.633   4.083  1.1053 -0.5505 -0.2400
 7477SOL    HW233891   1.049   0.034   4.079  1.3334  0.6629 -2.4883
 7478SOL     OW33892   0.459   4.603   7.216 -0.6079 -0.0643 -0.0930
 7478SOL    HW133893   0.544   4.585   7.256 -0.5888 -0.6617 -0.4051
 7478SOL    HW233894   0.478   4.574   7.126 -3.8036 -1.7394 -0.2477
 7479SOL     OW33895   2.975   0.977   2.160 -0.5832  0.3143 -0.1136
 7479SOL    HW133896   3.040   0.969   2.230 -1.9111 -0.3982  1.0475
 7479SOL    HW233897   3.011   0.913   2.100 -0.6674 -0.9303  1.1641
 7480SOL     OW33898   0.174   1.713  12.916  0.8331 -0.1178 -0.4075
 7480SOL    HW133899   0.079   1.727  12.919  0.9730  0.7713 -0.1260
 7480SOL    HW233900   0.191   1.749  13.004  0.1965  0.2796 -0.4392
 7481SOL     OW33901   0.119   3.577   8.371  0.0380 -0.0152 -0.2109
 7481SOL    HW133902   0.089   3.489   8.348  2.9156 -1.2205  0.5430
 7481SOL    HW233903   0.151   3.577   8.461  0.2572  3.2623 -0.3072
 7482SOL     OW33904   4.618   1.129  10.309 -0.1089 -0.4108 -0.2693
 7482SOL    HW133905   4.654   1.047  10.344 -0.3369 -0.4228 -0.0647
 7482SOL    HW233906   4.530   1.104  10.281  0.0158 -1.2220  0.0541
 7483SOL     OW33907   2.076   4.465   2.484  0.3049  0.2660  0.9539
 7483SOL    HW133908   2.165   4.450   2.515 -0.1901  1.5687  3.0518
 7483SOL    HW233909   2.056   4.392   2.425 -3.5694  0.0805  2.4929
 7484SOL     OW33910   2.115   3.235   9.481 -0.2064  0.2554  0.2770
 7484SOL    HW133911   2.181   3.304   9.488 -1.3814  1.3616  0.5274
 7484SOL    HW233912   2.087   3.254   9.391 -0.0653 -0.1101  0.1583
 7485SOL     OW33913   4.536   0.537   4.811  0.2210 -0.0409 -0.7462
 7485SOL    HW133914   4.483   0.596   4.865  0.0119 -0.6582 -0.2715
 7485SOL    HW233915   4.477   0.469   4.778  0.7016 -0.6766 -0.3104
 7486SOL     OW33916   2.638   4.131  14.413  0.3132 -0.4878 -0.2580
 7486SOL    HW133917   2.623   4.047  14.369 -3.9870 -1.2397  2.6623
 7486SOL    HW233918   2.551   4.152  14.445  0.4537 -0.0400 -0.1737
 7487SOL     OW33919   0.093   0.449   7.353  0.2583 -0.1016 -0.0908
 7487SOL    HW133920   0.062   0.437   7.263 -0.8266 -0.6507  0.3526
 7487SOL    HW233921   0.131   0.536   7.342 -1.4599  0.5375 -1.1045
 7488SOL     OW33922   3.806   4.125  11.845 -0.1667  0.3431 -0.2002
 7488SOL    HW133923   3.817   4.167  11.760 -0.6097  0.8022 -0.0306
 7488SOL    HW233924   3.883   4.069  11.846  0.6725  1.5054 -0.4627
 7489SOL     OW33925   0.238   2.982  10.262 -0.1081  0.0033 -0.5757
 7489SOL    HW133926   0.262   2.916  10.327 -0.6522  0.5506  0.1864
 7489SOL    HW233927   0.298   2.967  10.189  1.5635  0.2571  0.7568
 7490SOL     OW33928   4.267   2.780   9.910 -0.2661  0.2260 -0.0134
 7490SOL    HW133929   4.205   2.757   9.979  1.7252  1.4843  2.1852
 7490SOL    HW233930   4.285   2.871   9.933 -0.0442  0.8402 -2.6659
 7491SOL     OW33931   1.972   3.492   5.169 -0.0532 -0.2633  1.4132
 7491SOL    HW133932   1.952   3.446   5.087  1.2492  0.3502  0.7595
 7491SOL    HW233933   2.035   3.558   5.140 -2.4179  1.4959  0.2629
 7492SOL     OW33934   3.772   4.660  17.605  0.0471 -0.3286 -0.5934
 7492SOL    HW133935   3.688   4.667  17.649 -1.1695  1.5296 -3.2069
 7492SOL    HW233936   3.754   0.004  17.543 -2.3782 -0.8789 -0.5043
 7493SOL     OW33937   0.971   2.275   0.026 -0.5070  0.5970 -0.1878
 7493SOL    HW133938   0.958   2.252  17.645 -2.7678 -1.2648  0.5835
 7493SOL    HW233939   1.064   2.258   0.035 -0.5397  0.4449 -0.1317
 7494SOL     OW33940   2.031   0.803   4.035  0.0159  0.1799 -0.7076
 7494SOL    HW133941   2.093   0.872   4.058  1.0031 -0.7428 -0.5952
 7494SOL    HW233942   2.003   0.761   4.116 -0.6311  2.6282  0.3218
 7495SOL     OW33943   0.332   0.803   9.187  0.8059 -0.2888 -0.0239
 7495SOL    HW133944   0.370   0.840   9.107 -0.8110  1.2282 -0.0977
 7495SOL    HW233945   0.396   0.832   9.251 -1.5515  3.1018  0.7835
 7496SOL     OW33946   1.818   0.279   1.684 -0.1897 -0.2384 -0.1964
 7496SOL    HW133947   1.845   0.371   1.680  0.9638 -0.6840 -2.4344
 7496SOL    HW233948   1.884   0.232   1.633  0.9171 -1.0872  2.0383
 7497SOL     OW33949   1.798   3.587  11.541 -0.2599 -0.1059 -0.5731
 7497SOL    HW133950   1.862   3.538  11.489 -0.0021 -1.3456  0.9001
 7497SOL    HW233951   1.861   3.628  11.600  0.1138  0.2762 -1.2316
 7498SOL     OW33952   3.732   1.278  17.076 -1.2578  0.3177  0.1177
 7498SOL    HW133953   3.769   1.220  17.142 -2.6153 -0.6494  0.0317
 7498SOL    HW233954   3.771   1.354  17.119 -1.0837 -0.0688  0.6561
 7499SOL     OW33955   0.839   4.428   8.880 -0.4780 -0.4206 -0.7905
 7499SOL    HW133956   0.835   4.467   8.793 -0.8567  1.6867  0.1770
 7499SOL    HW233957   0.887   4.351   8.848 -0.3414  0.9053 -3.7413
 7500SOL     OW33958   0.605   1.713   6.963  0.2408 -0.2280  0.0838
 7500SOL    HW133959   0.560   1.795   6.981  0.6557 -0.6665  3.1066
 7500SOL    HW233960   0.527   1.664   6.938  2.2756 -3.5522  0.2467
 7501SOL     OW33961   0.805   0.081   5.074  0.8445 -0.0898  0.1125
 7501SOL    HW133962   0.797   0.026   5.152 -2.2132 -2.4850 -1.8966
 7501SOL    HW233963   0.719   0.058   5.039  0.5347 -0.1716  0.9306
 7502SOL     OW33964   4.487   0.037   4.380 -0.1042  1.2113  0.6452
 7502SOL    HW133965   4.528   0.023   4.466 -1.6393 -0.8971  1.0557
 7502SOL    HW233966   4.531   4.701   4.324  0.8505  2.5807 -0.1256
 7503SOL     OW33967   1.341   0.413   0.628 -0.4724  0.6828 -0.1839
 7503SOL    HW133968   1.370   0.348   0.564  1.7386  0.6316  0.8681
 7503SOL    HW233969   1.379   0.381   0.709  0.1032 -1.3408 -1.2557
 7504SOL     OW33970   1.090   2.183   9.439 -0.3972 -0.0115 -0.4216
 7504SOL    HW133971   1.094   2.108   9.498  1.2618  0.2163 -0.2214
 7504SOL    HW233972   1.072   2.138   9.357  0.6113  0.3527 -0.8514
 7505SOL     OW33973   3.380   2.952   2.923  0.1509 -0.0018  0.2308
 7505SOL    HW133974   3.433   2.921   2.996  0.2502 -3.3752 -1.2959
 7505SOL    HW233975   3.305   2.894   2.921  0.0773 -0.0009  2.4322
 7506SOL     OW33976   3.391   4.292   2.446  0.0513 -0.6724 -0.8466
 7506SOL    HW133977   3.476   4.330   2.468 -0.0211 -0.1932 -1.3921
 7506SOL    HW233978   3.357   4.372   2.406 -1.1877 -0.2320  1.1049
 7507SOL     OW33979   4.186   2.550   7.230  0.3537 -0.2618 -0.1177
 7507SOL    HW133980   4.122   2.523   7.296  0.3387  0.1206  0.0246
 7507SOL    HW233981   4.265   2.501   7.253  0.6097  0.4032  0.4104
 7508SOL     OW33982   3.543   4.151   3.288  0.3040  0.0740 -0.0277
 7508SOL    HW133983   3.632   4.151   3.324  0.4132 -0.4605 -0.2909
 7508SOL    HW233984   3.524   4.061   3.316 -0.4054  0.1141 -0.3938
 7509SOL     OW33985   2.141   3.949   5.233  0.3472  0.0404 -0.1023
 7509SOL    HW133986   2.143   3.957   5.328  0.1253 -2.0228  0.0876
 7509SOL    HW233987   2.147   3.854   5.227  0.3008 -0.0173  0.7410
 7510SOL     OW33988   4.433   2.913   4.895  0.1342  0.3857 -0.0559
 7510SOL    HW133989   4.396   2.932   4.809 -0.6265 -0.1535  0.1497
 7510SOL    HW233990   4.354   2.896   4.946  0.2966  0.3985  0.2003
 7511SOL     OW33991   1.387   4.096   9.457 -0.2858 -0.0491  0.6269
 7511SOL    HW133992   1.336   4.023   9.420  1.7270 -1.0684 -0.1020
 7511SOL    HW233993   1.474   4.097   9.418 -0.1929 -3.0897  0.7227
 7512SOL     OW33994   2.315   0.988   8.376 -0.5683 -0.8064  0.5814
 7512SOL    HW133995   2.278   0.933   8.445 -0.4121  0.3363  1.5804
 7512SOL    HW233996   2.350   1.062   8.425 -0.8323 -2.0103  2.5704
 7513SOL     OW33997   4.610   3.276   3.401  0.3000  0.2821  0.4264
 7513SOL    HW133998   4.651   3.322   3.328  0.5402 -0.1058  0.3188
 7513SOL    HW233999   4.522   3.250   3.372  0.5628  0.7353 -0.7698
 7514SOL     OW34000   1.852   3.669   6.242  0.8615  0.1443  0.7415
 7514SOL    HW134001   1.815   3.655   6.155 -1.2542  2.2539  1.2849
 7514SOL    HW234002   1.927   3.728   6.236  0.5087  0.5917  0.7114
 7515SOL     OW34003   3.945   2.741   8.241  0.1170 -0.0137 -0.2202
 7515SOL    HW134004   3.900   2.662   8.269 -1.2150  1.7145  2.4473
 7515SOL    HW234005   4.021   2.691   8.209 -0.2735  1.5950 -3.6797
 7516SOL     OW34006   3.111   4.312   4.807  0.1794  0.0111 -0.5495
 7516SOL    HW134007   3.131   4.254   4.733  0.7115 -1.0148  0.3932
 7516SOL    HW234008   3.025   4.278   4.831  0.2677 -0.3875 -0.7968
 7517SOL     OW34009   1.447   2.316   4.743  0.2826 -0.4899 -0.0898
 7517SOL    HW134010   1.530   2.362   4.727 -0.5029  0.7815 -0.5595
 7517SOL    HW234011   1.464   2.242   4.684  4.1132  0.7556 -0.5657
 7518SOL     OW34012   1.689   2.432   8.210 -0.3060 -0.4221  0.2408
 7518SOL    HW134013   1.688   2.449   8.304 -3.7449 -0.3785  0.2186
 7518SOL    HW234014   1.598   2.405   8.194 -0.3053 -1.0367  1.2795
 7519SOL     OW34015   2.667   2.969   3.597  0.0516  0.7666 -0.2241
 7519SOL    HW134016   2.758   2.975   3.568  0.8294  2.0587  2.4162
 7519SOL    HW234017   2.633   2.901   3.539  0.5258 -1.5424  2.2274
 7520SOL     OW34018   2.195   4.180   7.556 -0.2922  0.5014 -0.4424
 7520SOL    HW134019   2.270   4.128   7.527 -1.2640 -0.2799 -1.5371
 7520SOL    HW234020   2.139   4.133   7.495 -2.7984 -0.2959  2.4368
 7521SOL     OW34021   1.161   2.218   2.018 -0.0727  0.1431 -0.0120
 7521SOL    HW134022   1.168   2.309   1.989  0.5118  0.2121  0.3578
 7521SOL    HW234023   1.199   2.237   2.104 -1.7447  0.7100  0.6167
 7522SOL     OW34024   1.405   4.705   9.940  0.1937 -0.0876  0.4711
 7522SOL    HW134025   1.334   4.660   9.894 -0.3523  1.6541 -0.3932
 7522SOL    HW234026   1.474   4.701   9.874  0.9066  1.1259  1.1584
 7523SOL     OW34027   3.320   2.908   6.935  0.2959  0.2942 -0.1621
 7523SOL    HW134028   3.408   2.896   6.970  0.6144 -0.1798 -1.1326
 7523SOL    HW234029   3.313   2.992   6.891 -0.6352  0.0137 -0.5495
 7524SOL     OW34030   0.075   3.822   3.422 -0.2455  0.1195  0.0779
 7524SOL    HW134031   0.118   3.899   3.384  0.0201 -0.9594 -1.8067
 7524SOL    HW234032   0.037   3.859   3.501 -2.0399  2.7830 -2.0300
 7525SOL     OW34033   3.465   3.287   9.008 -0.0790  0.1906 -0.4953
 7525SOL    HW134034   3.395   3.352   9.011 -0.0651  0.1713  0.1162
 7525SOL    HW234035   3.445   3.240   8.926  1.3681 -0.0970 -0.6799
 7526SOL     OW34036   3.323   2.331  10.201  0.0434 -0.1357  0.5007
 7526SOL    HW134037   3.384   2.258  10.188 -1.0488 -0.8484 -0.6851
 7526SOL    HW234038   3.240   2.294  10.171 -0.8238  1.2390  1.2113
 7527SOL     OW34039   4.445   0.434   6.610  0.1817  0.4930  0.0229
 7527SOL    HW134040   4.506   0.456   6.540 -0.5006  1.3513 -0.2986
 7527SOL    HW234041   4.497   0.386   6.675  1.1483  1.5385  0.0154
 7528SOL     OW34042   0.282   2.129  13.723  0.3135 -1.1803  0.1379
 7528SOL    HW134043   0.268   2.173  13.640  0.1946 -2.5289 -0.5624
 7528SOL    HW234044   0.235   2.182  13.786 -0.2114 -2.2213  0.6265
 7529SOL     OW34045   4.354   0.754  16.789  0.1836 -0.6144  0.4509
 7529SOL    HW134046   4.447   0.764  16.811 -0.3330  0.5375  2.1309
 7529SOL    HW234047   4.348   0.664  16.756 -1.0721 -0.2164 -0.4029
 7530SOL     OW34048   0.462   2.154   5.823  0.1586 -0.0188 -0.5721
 7530SOL    HW134049   0.551   2.187   5.809  0.1161  0.2263 -0.2528
 7530SOL    HW234050   0.473   2.090   5.752  2.2040 -0.9860  0.5986
 7531SOL     OW34051   2.113   3.809   9.009 -0.3596  0.4812  0.0847
 7531SOL    HW134052   2.018   3.807   8.994  0.1086 -0.7661 -2.6952
 7531SOL    HW234053   2.128   3.734   9.067 -0.8574  1.4838  1.5330
 7532SOL     OW34054   1.678   1.052  15.454 -0.2852  0.9014  0.7713
 7532SOL    HW134055   1.653   1.133  15.410 -1.9262  0.8769  1.6704
 7532SOL    HW234056   1.756   1.084  15.499  0.2826 -0.4195  0.7408
 7533SOL     OW34057   3.791   2.670  10.627 -0.4497  0.3539 -0.2519
 7533SOL    HW134058   3.763   2.710  10.709  1.5547 -1.7431  1.4553
 7533SOL    HW234059   3.741   2.590  10.644  0.8559  0.3532  3.5672
 7534SOL     OW34060   2.129   2.839   1.052 -0.1140 -0.5411 -0.3200
 7534SOL    HW134061   2.098   2.765   1.105 -0.5516  0.6385  1.0660
 7534SOL    HW234062   2.087   2.819   0.968 -0.0462  0.3809 -0.5631
 7535SOL     OW34063   3.653   3.357  13.502 -0.4074  0.3518 -0.1987
 7535SOL    HW134064   3.599   3.355  13.581  0.0514  2.4282  0.1658
 7535SOL    HW234065   3.619   3.285  13.449  0.3213  0.4228 -0.7573
 7536SOL     OW34066   0.551   1.456   3.599 -0.5561 -0.1970  0.2233
 7536SOL    HW134067   0.587   1.394   3.536 -0.7000 -0.4784  0.4158
 7536SOL    HW234068   0.636   1.483   3.634  0.3898 -1.0298 -1.4460
 7537SOL     OW34069   4.444   0.954  16.645 -0.2538 -0.2045  0.1448
 7537SOL    HW134070   4.386   1.031  16.641 -0.5866 -0.4248  0.9384
 7537SOL    HW234071   4.395   0.885  16.689 -0.8344  0.4276  0.4933
 7538SOL     OW34072   4.595   2.616  10.888  0.2134  0.2020  0.3078
 7538SOL    HW134073   4.580   2.638  10.980  0.3682  2.5311 -0.2266
 7538SOL    HW234074   4.522   2.652  10.838 -0.9216 -0.4153  1.5099
 7539SOL     OW34075   0.923   3.899   7.866 -0.7537  0.3582  0.3091
 7539SOL    HW134076   0.856   3.910   7.798  1.8571 -1.3136 -2.5090
 7539SOL    HW234077   1.008   3.895   7.822  0.0708  0.3162  1.9085
 7540SOL     OW34078   3.068   1.462   0.998 -0.4065 -0.4749  0.1253
 7540SOL    HW134079   3.102   1.383   0.955  3.0407  1.4768 -0.7745
 7540SOL    HW234080   2.987   1.424   1.032 -0.7981 -0.0838 -0.3909
 7541SOL     OW34081   3.724   2.289  13.876  0.0814  0.1121 -0.8602
 7541SOL    HW134082   3.796   2.333  13.921  0.6595 -0.4607 -1.2386
 7541SOL    HW234083   3.697   2.227  13.944 -2.0956  0.6204 -1.2483
 7542SOL     OW34084   0.007   0.283   8.878 -0.0796  0.2406  0.3171
 7542SOL    HW134085   0.021   0.192   8.906  0.7968  0.5512  0.8905
 7542SOL    HW234086   0.085   0.325   8.913 -0.6653  0.3432  1.5037
 7543SOL     OW34087   0.500   3.119   2.867 -0.4693 -0.0982 -0.2401
 7543SOL    HW134088   0.509   3.119   2.772 -0.0799 -2.1036 -0.2073
 7543SOL    HW234089   0.405   3.119   2.851 -0.7461 -0.3848  1.3390
 7544SOL     OW34090   2.517   3.545  16.564 -0.0755 -0.1067 -0.2283
 7544SOL    HW134091   2.446   3.573  16.507  1.0309 -0.4593 -1.7912
 7544SOL    HW234092   2.514   3.616  16.628  0.0323 -0.3182  0.0079
 7545SOL     OW34093   2.538   3.823  14.693 -0.3490  0.0349  0.2006
 7545SOL    HW134094   2.578   3.763  14.756  0.0419 -0.2772 -0.3382
 7545SOL    HW234095   2.456   3.779  14.670 -0.2363 -0.6291  1.0640
 7546SOL     OW34096   3.023   3.963  12.397 -0.1977  0.8300  0.1088
 7546SOL    HW134097   2.988   3.875  12.381 -1.2587  1.2843 -0.0297
 7546SOL    HW234098   3.100   3.965  12.341 -1.5288 -0.9494 -1.7764
 7547SOL     OW34099   2.055   0.172   1.534  0.4734 -0.3341 -0.0417
 7547SOL    HW134100   2.151   0.167   1.529  0.3878 -2.8828  0.8858
 7547SOL    HW234101   2.019   0.099   1.483  1.7941 -0.6713 -0.5115
 7548SOL     OW34102   3.849   0.565  14.585 -0.4110 -0.3463 -0.0834
 7548SOL    HW134103   3.795   0.548  14.507  0.6490  0.9315 -1.0883
 7548SOL    HW234104   3.873   0.657  14.581  1.8650 -1.0071 -1.4511
 7549SOL     OW34105   1.851   0.491   4.556 -0.8412 -0.7908  0.5465
 7549SOL    HW134106   1.904   0.414   4.535  2.4247  1.3745  0.9828
 7549SOL    HW234107   1.883   0.499   4.645  0.5862 -0.0966 -0.0348
 7550SOL     OW34108   0.195   0.038   3.512 -0.7720  0.0947 -0.4616
 7550SOL    HW134109   0.274   4.721   3.481 -0.2186  0.4431  0.4634
 7550SOL    HW234110   0.144   0.043   3.431  0.2778 -0.3621 -1.1520
 7551SOL     OW34111   4.542   0.994   6.227 -0.2277 -0.0763  0.8288
 7551SOL    HW134112   4.493   0.913   6.216 -0.1756  0.3045 -2.2099
 7551SOL    HW234113   4.630   0.975   6.194 -0.4781 -2.0163  1.3008
 7552SOL     OW34114   2.643   1.620   1.876 -0.0959 -0.4177 -0.1158
 7552SOL    HW134115   2.600   1.628   1.791  2.3687  0.2596 -1.2734
 7552SOL    HW234116   2.724   1.587   1.836 -0.0931  0.4237 -0.8051
 7553SOL     OW34117   2.512   0.552   2.276 -0.6804  0.7691  0.3947
 7553SOL    HW134118   2.536   0.474   2.225 -2.8527 -0.0303  0.5617
 7553SOL    HW234119   2.535   0.626   2.220  0.0781 -0.8613 -1.4275
 7554SOL     OW34120   4.050   3.766   1.714 -0.4925 -0.0214  0.1575
 7554SOL    HW134121   4.021   3.834   1.775 -2.1979 -0.6092  0.0169
 7554SOL    HW234122   4.076   3.832   1.650 -1.5464 -1.7259 -2.0493
 7555SOL     OW34123   2.174   0.121   7.267 -0.0040 -0.2385 -0.0432
 7555SOL    HW134124   2.159   0.032   7.235 -1.2648  0.0097 -0.1463
 7555SOL    HW234125   2.269   0.133   7.278  0.2823 -2.6930  0.0454
 7556SOL     OW34126   2.684   2.137   2.820  0.5858 -0.1416 -0.8436
 7556SOL    HW134127   2.777   2.127   2.800  0.6945 -1.7178  0.3718
 7556SOL    HW234128   2.662   2.189   2.743  4.1673 -1.2254 -2.5680
 7557SOL     OW34129   2.957   3.779   7.676  0.1994 -0.6822  0.1188
 7557SOL    HW134130   2.904   3.754   7.751 -0.2064  0.4372  0.2030
 7557SOL    HW234131   2.943   3.873   7.668  0.0096 -0.5664  1.9945
 7558SOL     OW34132   4.673   3.268   5.255 -0.5940 -0.3079 -0.5586
 7558SOL    HW134133   4.661   3.181   5.218  0.4336 -0.6329 -0.1418
 7558SOL    HW234134   4.648   3.246   5.345  3.3801  0.8556  0.8440
 7559SOL     OW34135   1.232   3.249   3.878  0.1120 -0.5865 -0.4107
 7559SOL    HW134136   1.174   3.246   3.802 -0.6544 -1.7219  0.2031
 7559SOL    HW234137   1.199   3.175   3.929 -0.0442  0.2994  0.7782
 7560SOL     OW34138   3.343   4.345   5.425  0.1186 -0.3122 -0.1157
 7560SOL    HW134139   3.331   4.407   5.497 -0.8612 -1.1150  0.4285
 7560SOL    HW234140   3.425   4.374   5.386  0.7818 -1.0198  0.7331
 7561SOL     OW34141   2.665   3.116   5.912 -0.6350  0.5390 -0.2971
 7561SOL    HW134142   2.662   3.107   6.007 -1.2192  0.8432 -0.2905
 7561SOL    HW234143   2.747   3.165   5.905  0.6388 -1.8479 -2.4314
 7562SOL     OW34144   4.681   3.371  11.932 -0.2097  0.0543  0.1453
 7562SOL    HW134145   4.600   3.327  11.908 -1.1486  0.8677  1.8040
 7562SOL    HW234146   0.022   3.316  11.893 -0.1896  0.6054 -0.5994
 7563SOL     OW34147   2.828   2.284   9.296 -0.0549  0.3627  0.1633
 7563SOL    HW134148   2.768   2.304   9.225  0.7261  1.7232 -0.1294
 7563SOL    HW234149   2.906   2.322   9.255 -0.8269 -1.6332 -3.0943
 7564SOL     OW34150   2.039   0.496  10.573  0.2554 -0.0108 -0.3010
 7564SOL    HW134151   2.111   0.554  10.547  2.7297 -2.7927  0.3508
 7564SOL    HW234152   2.022   0.456  10.488 -0.3562  1.8820 -1.0504
 7565SOL     OW34153   0.548   0.920   2.486 -0.4753  0.2935  0.2326
 7565SOL    HW134154   0.546   0.936   2.391 -0.4906  0.5206  0.2715
 7565SOL    HW234155   0.484   0.851   2.498 -1.9639  1.4336 -1.1159
 7566SOL     OW34156   4.037   0.195   5.980 -0.2702 -0.0354  0.3646
 7566SOL    HW134157   3.990   0.276   5.962 -1.2697 -1.0995 -1.7684
 7566SOL    HW234158   4.128   0.227   5.983 -0.0495 -0.4665 -2.3102
 7567SOL     OW34159   3.124   0.111   6.959  0.2978  0.7503  0.1850
 7567SOL    HW134160   3.072   0.191   6.957  0.3303  0.7688  0.0684
 7567SOL    HW234161   3.103   0.066   6.877 -1.9486 -1.0070  1.7414
 7568SOL     OW34162   3.043   1.295   2.946  0.0172  0.0173  0.1903
 7568SOL    HW134163   3.031   1.208   2.906  1.2847 -0.5549  1.0566
 7568SOL    HW234164   3.053   1.268   3.037  0.7021 -2.9444 -0.7515
 7569SOL     OW34165   0.591   0.836   4.468 -0.3081  0.3722 -0.2867
 7569SOL    HW134166   0.517   0.844   4.528 -0.1311  0.0564 -0.0202
 7569SOL    HW234167   0.596   0.924   4.432 -2.9730  0.9293  0.7037
 7570SOL     OW34168   3.823   2.963   7.909 -0.1820  0.2975  0.2715
 7570SOL    HW134169   3.844   3.055   7.921  1.5782 -0.2369  1.2575
 7570SOL    HW234170   3.909   2.933   7.879  0.0251  0.2226  0.9326
 7571SOL     OW34171   4.197   2.359  13.045  0.0148 -0.0786  0.1987
 7571SOL    HW134172   4.251   2.396  13.114 -3.0874  1.4021  1.8594
 7571SOL    HW234173   4.182   2.435  12.989  1.5731  0.3801  0.4093
 7572SOL     OW34174   3.863   1.269  14.176 -0.0829 -0.3941 -0.2197
 7572SOL    HW134175   3.768   1.276  14.184 -0.0778  1.9132 -2.2185
 7572SOL    HW234176   3.884   1.194  14.232 -0.2997  0.3600  0.8694
 7573SOL     OW34177   0.280   2.648   6.916 -0.1855 -0.0096  0.0182
 7573SOL    HW134178   0.241   2.569   6.953  0.0279  0.7037  1.7410
 7573SOL    HW234179   0.367   2.663   6.953  1.4486 -4.5655 -2.0874
 7574SOL     OW34180   1.027   0.013   6.100 -0.3837 -0.1319 -0.2592
 7574SOL    HW134181   1.028   0.083   6.166  0.4611 -1.6047  1.2807
 7574SOL    HW234182   0.936   0.022   6.074 -0.5955  1.1461  0.9015
 7575SOL     OW34183   1.838   3.959   6.588 -0.1154  0.2332  0.1204
 7575SOL    HW134184   1.858   3.989   6.499 -0.7658  2.4616  0.7373
 7575SOL    HW234185   1.762   4.008   6.619  0.1160  0.0135  1.0330
 7576SOL     OW34186   1.288   0.103   1.664  0.1527  0.1202 -0.1813
 7576SOL    HW134187   1.220   0.129   1.602 -0.3244  2.2541  1.2537
 7576SOL    HW234188   1.310   0.015   1.633  2.1439  0.0795  1.3895
 7577SOL     OW34189   3.361   2.776  13.444  0.0264 -0.5889  0.2987
 7577SOL    HW134190   3.340   2.834  13.517  2.1578  0.5123  0.0250
 7577SOL    HW234191   3.347   2.688  13.478  1.7671  0.1856  3.0626
 7578SOL     OW34192   1.334   1.834   3.400 -0.2441 -0.5533  0.4148
 7578SOL    HW134193   1.319   1.801   3.311 -2.9757  1.1419  0.2551
 7578SOL    HW234194   1.367   1.923   3.393  0.5680 -0.7832  1.2211
 7579SOL     OW34195   2.287   4.422   5.453 -0.7571 -0.0688 -0.5036
 7579SOL    HW134196   2.245   4.428   5.539  0.9181 -0.4183  0.3286
 7579SOL    HW234197   2.309   4.516   5.452  0.7512 -0.4337 -0.7245
 7580SOL     OW34198   3.501   2.227  11.810  0.1568 -0.0466 -0.4968
 7580SOL    HW134199   3.595   2.225  11.826  0.1763 -0.7696 -0.6727
 7580SOL    HW234200   3.485   2.317  11.836 -0.0677  0.2678 -1.7437
 7581SOL     OW34201   3.816   1.924   8.103 -0.6749 -0.0372  0.3825
 7581SOL    HW134202   3.869   1.845   8.114 -0.0487 -0.2304 -4.1696
 7581SOL    HW234203   3.827   1.967   8.188  0.2632  0.0638  0.2095
 7582SOL     OW34204   4.348   0.065  12.531  0.0675 -0.0263  0.0201
 7582SOL    HW134205   4.295   0.144  12.545  0.4529  0.2490 -0.0452
 7582SOL    HW234206   4.292   4.719  12.554  0.3856 -0.3447 -0.2307
 7583SOL     OW34207   1.026   2.146   6.501  0.2286  0.2147  0.5513
 7583SOL    HW134208   0.944   2.161   6.548 -0.6171 -0.0377 -0.8658
 7583SOL    HW234209   1.079   2.211   6.547  1.8734  1.1251 -2.6395
 7584SOL     OW34210   0.862   2.008   9.870 -0.4787  0.1105 -0.0335
 7584SOL    HW134211   0.947   2.048   9.887 -0.5474  0.3177 -0.1732
 7584SOL    HW234212   0.839   2.064   9.795  1.6724  0.8375 -0.1487
 7585SOL     OW34213   1.357   1.511   5.233 -0.2217  0.0261  0.2598
 7585SOL    HW134214   1.421   1.542   5.297  1.7264 -0.0445 -1.6546
 7585SOL    HW234215   1.337   1.597   5.197 -0.6889 -0.2053 -0.0382
 7586SOL     OW34216   2.064   1.738   8.179 -0.3531 -0.0803 -0.3708
 7586SOL    HW134217   2.124   1.750   8.253 -2.0852 -1.3513  1.2337
 7586SOL    HW234218   2.043   1.646   8.193  1.6900 -0.7401 -1.6686
 7587SOL     OW34219   1.174   0.429  16.660 -0.3676  0.3050 -0.6214
 7587SOL    HW134220   1.260   0.391  16.642 -0.7515 -0.8500 -0.0663
 7587SOL    HW234221   1.145   0.434  16.569  0.0928  1.3463 -0.7071
 7588SOL     OW34222   0.602   0.398   8.440  0.5554  0.2062 -0.0950
 7588SOL    HW134223   0.539   0.362   8.502  0.5949  0.7988  0.2940
 7588SOL    HW234224   0.633   0.470   8.495 -0.8770 -0.1420  1.1794
 7589SOL     OW34225   0.773   1.365   6.824  0.2398 -0.1215  0.1951
 7589SOL    HW134226   0.771   1.418   6.904 -0.0410  0.4594 -0.1942
 7589SOL    HW234227   0.859   1.395   6.793 -0.4826  0.5078 -1.1942
 7590SOL     OW34228   3.312   0.987   1.659  0.4674  0.2093  0.1720
 7590SOL    HW134229   3.337   0.910   1.608  0.2745 -0.6631  1.3965
 7590SOL    HW234230   3.256   0.952   1.728 -0.2400 -0.1541 -0.5854
 7591SOL     OW34231   0.995   0.255   0.088  0.8492  0.1394 -0.7514
 7591SOL    HW134232   1.056   0.191   0.052 -0.0570 -0.9207 -0.4115
 7591SOL    HW234233   1.036   0.268   0.173 -0.8626 -2.8358  0.5242
 7592SOL     OW34234   1.122   4.398   6.616 -0.8374  0.2526 -0.1058
 7592SOL    HW134235   1.103   4.376   6.707 -1.8079  0.7438 -0.1870
 7592SOL    HW234236   1.131   4.493   6.622 -0.2791  0.1940  0.0304
 7593SOL     OW34237   2.837   2.239   8.818  0.1055  0.2969  0.6299
 7593SOL    HW134238   2.862   2.230   8.726 -0.8872  0.9368  0.2823
 7593SOL    HW234239   2.762   2.180   8.824  0.4804 -0.2379 -0.0391
 7594SOL     OW34240   2.495   0.532   5.726  0.3807 -0.1257  0.3597
 7594SOL    HW134241   2.415   0.580   5.749  1.1231  0.4172  1.8254
 7594SOL    HW234242   2.464   0.489   5.646 -1.6755  0.3979  0.8659
 7595SOL     OW34243   3.161   2.828   4.324 -0.2452  0.0003  0.2303
 7595SOL    HW134244   3.231   2.891   4.343 -0.8768  0.8984 -0.3917
 7595SOL    HW234245   3.091   2.877   4.367  0.7998 -0.9393  2.9689
 7596SOL     OW34246   1.065   2.967   4.564 -0.5284 -0.2179  0.8018
 7596SOL    HW134247   1.144   2.992   4.517 -0.3058 -0.1607  1.2022
 7596SOL    HW234248   1.043   2.884   4.522 -0.2321 -1.2024  2.5956
 7597SOL     OW34249   2.110   3.237   8.202  0.0844 -0.8186 -0.0676
 7597SOL    HW134250   2.122   3.321   8.247 -1.0978 -0.4793 -0.3710
 7597SOL    HW234251   2.103   3.273   8.114 -0.2337 -2.1456 -0.5922
 7598SOL     OW34252   0.136   3.112  15.604 -0.2021  0.5165 -0.2826
 7598SOL    HW134253   0.079   3.177  15.564 -0.1124  1.1088  0.5429
 7598SOL    HW234254   0.220   3.150  15.578  0.6677  0.0261  1.7486
 7599SOL     OW34255   1.435   0.360   2.240 -0.4342 -0.5308  0.1040
 7599SOL    HW134256   1.504   0.367   2.174 -0.9805  4.4137  0.0283
 7599SOL    HW234257   1.392   0.278   2.218 -0.7693 -0.8906  2.0757
 7600SOL     OW34258   3.669   3.161  17.543  0.2280 -0.3755 -0.4618
 7600SOL    HW134259   3.639   3.246  17.576 -0.4822 -0.0945 -1.8287
 7600SOL    HW234260   3.756   3.167  17.582 -0.3706 -0.6610  0.9250
 7601SOL     OW34261   3.707   0.029   4.168 -0.3535  0.3521 -0.2683
 7601SOL    HW134262   3.717   4.662   4.153  0.6937  0.7603 -2.1334
 7601SOL    HW234263   3.792   0.042   4.209  0.6237  2.9734 -3.1339
 7602SOL     OW34264   4.016   0.439   5.845  0.5995  0.0259 -0.2741
 7602SOL    HW134265   4.030   0.518   5.793 -1.5994  1.3622  1.1300
 7602SOL    HW234266   4.104   0.402   5.840  1.1626  1.4325 -0.7857
 7603SOL     OW34267   0.290   3.571   6.686 -0.4613  0.1478 -0.5770
 7603SOL    HW134268   0.309   3.488   6.731 -0.9692  0.4028  0.1013
 7603SOL    HW234269   0.197   3.556   6.672 -0.7069  0.9900  0.1261
 7604SOL     OW34270   0.531   2.875   5.607 -0.1229  0.1077  0.4315
 7604SOL    HW134271   0.438   2.884   5.627 -0.2810  1.0334 -0.7308
 7604SOL    HW234272   0.519   2.818   5.531  1.9935  2.0571 -1.3419
 7605SOL     OW34273   2.992   1.591   2.157 -0.1359 -0.4159  0.0294
 7605SOL    HW134274   3.041   1.673   2.162  2.4400 -1.9694  0.6061
 7605SOL    HW234275   2.983   1.579   2.062  0.0402  0.3301 -0.0843
 7606SOL     OW34276   1.039   4.165   7.999 -0.0073 -0.2971  0.1686
 7606SOL    HW134277   1.106   4.142   7.935 -0.6697  1.3415 -1.1074
 7606SOL    HW234278   1.083   4.245   8.029 -0.8937  0.8251 -1.5736
 7607SOL     OW34279   4.601   2.605   6.699 -0.6534 -0.5856  0.0101
 7607SOL    HW134280   4.680   2.558   6.672  1.0368  2.1164  0.2476
 7607SOL    HW234281   4.613   2.594   6.793 -1.9276  2.2054  0.5127
 7608SOL     OW34282   0.858   2.178   0.550  0.8420  0.1560 -0.5757
 7608SOL    HW134283   0.820   2.221   0.627  1.8552 -0.4021  0.2261
 7608SOL    HW234284   0.937   2.136   0.583 -0.4240 -1.5505  0.2632
 7609SOL     OW34285   3.887   2.513   9.884 -0.0900 -0.8201 -0.0416
 7609SOL    HW134286   3.818   2.452   9.860  0.4242 -0.7153 -1.8364
 7609SOL    HW234287   3.854   2.595   9.847 -1.5150 -0.8141  1.2784
 7610SOL     OW34288   1.304   1.240  16.722 -0.2947 -0.4825 -0.7180
 7610SOL    HW134289   1.246   1.167  16.743  1.5971 -1.1479  2.1385
 7610SOL    HW234290   1.325   1.220  16.631 -0.1658 -2.9157 -0.1424
 7611SOL     OW34291   0.751   4.080  14.837 -0.1909  0.1779 -0.4917
 7611SOL    HW134292   0.710   4.100  14.753 -0.3993  2.4746  0.1653
 7611SOL    HW234293   0.765   4.168  14.872  2.8429 -1.1084  1.5031
 7612SOL     OW34294   2.699   1.513   6.437 -0.4992 -0.1638 -0.1577
 7612SOL    HW134295   2.669   1.531   6.526  0.3605  0.1665  0.0738
 7612SOL    HW234296   2.762   1.584   6.448  0.6869 -1.2574  0.2349
 7613SOL     OW34297   2.358   0.413  15.459 -0.2002  0.5198 -0.3063
 7613SOL    HW134298   2.320   0.357  15.527  2.5855 -0.8333  0.1657
 7613SOL    HW234299   2.279   0.447  15.419 -0.5108  0.8656  0.6075
 7614SOL     OW34300   0.118   3.344   6.593 -0.8037 -0.5984  0.0407
 7614SOL    HW134301   0.031   3.329   6.631 -0.7916  0.2674  0.3983
 7614SOL    HW234302   0.174   3.301   6.658 -0.4204  0.4155  0.3723
 7615SOL     OW34303   0.829   1.758   2.026  0.0600 -0.2527 -0.1973
 7615SOL    HW134304   0.803   1.850   2.028 -1.4521 -0.6762 -1.2017
 7615SOL    HW234305   0.763   1.720   1.969 -1.4950  0.3201  1.2094
 7616SOL     OW34306   0.939   2.464  12.534  0.4771  0.0125 -0.5040
 7616SOL    HW134307   0.865   2.411  12.563 -0.8659  1.4527 -1.2734
 7616SOL    HW234308   1.018   2.435  12.580  0.5170 -2.4425 -2.1291
 7617SOL     OW34309   4.305   2.441   2.483 -0.5388  0.1962 -0.3835
 7617SOL    HW134310   4.351   2.525   2.476 -1.6641  0.6632 -2.1637
 7617SOL    HW234311   4.366   2.385   2.436 -0.6808 -2.0259  2.0975
 7618SOL     OW34312   1.811   3.249   7.064 -0.2827 -0.3492  0.0728
 7618SOL    HW134313   1.872   3.232   7.136  1.9250 -1.1366 -1.9912
 7618SOL    HW234314   1.872   3.265   6.993 -1.8662  0.8625 -1.0238
 7619SOL     OW34315   4.139   2.351  16.172 -0.5790  0.2352 -0.3556
 7619SOL    HW134316   4.193   2.323  16.098 -1.1909  0.5138 -0.9071
 7619SOL    HW234317   4.126   2.269  16.219  1.5116  0.5359  0.7366
 7620SOL     OW34318   4.273   4.467   8.383  0.0520  0.2565 -0.3858
 7620SOL    HW134319   4.225   4.518   8.449  0.4932  0.4222 -0.1894
 7620SOL    HW234320   4.320   4.416   8.448 -0.0041  2.0012  1.0461
 7621SOL     OW34321   0.589   4.300   3.682 -0.0401 -0.2033  0.2765
 7621SOL    HW134322   0.548   4.370   3.732 -2.4106 -1.1651 -0.2990
 7621SOL    HW234323   0.616   4.340   3.599 -0.0082  1.4215  1.0811
 7622SOL     OW34324   1.480   1.936  13.409 -0.4326  0.0165 -0.2904
 7622SOL    HW134325   1.479   2.026  13.376 -1.4092  0.6919  1.6067
 7622SOL    HW234326   1.497   1.940  13.503 -0.4810 -2.3024 -0.2016
 7623SOL     OW34327   0.434   0.027  16.091 -0.0980  0.2065  0.5015
 7623SOL    HW134328   0.530   0.028  16.093 -0.0764 -0.0658 -0.2550
 7623SOL    HW234329   0.412   0.088  16.021 -3.3343 -0.4792  0.9352
 7624SOL     OW34330   0.321   2.403  15.888 -0.0450 -0.7051 -0.0413
 7624SOL    HW134331   0.266   2.349  15.831  1.1201  1.7637 -3.4541
 7624SOL    HW234332   0.395   2.424  15.833 -0.6857  0.8598 -0.3015
 7625SOL     OW34333   0.201   3.985   2.713  0.2197  0.7063  0.5564
 7625SOL    HW134334   0.244   3.900   2.703 -2.0395 -0.4714  0.8751
 7625SOL    HW234335   0.184   4.002   2.620 -1.6372  0.3006  0.8221
 7626SOL     OW34336   0.000   2.207   7.556 -0.2360 -0.7222 -0.2366
 7626SOL    HW134337   4.694   2.198   7.468 -0.6992  0.5607 -0.1990
 7626SOL    HW234338   0.095   2.196   7.547  0.2189  2.4282  0.6280
 7627SOL     OW34339   2.929   4.041   7.678  0.7523 -0.5643  0.1936
 7627SOL    HW134340   2.859   4.028   7.743  0.4318 -2.4496 -0.5137
 7627SOL    HW234341   2.887   4.061   7.594  1.7654  1.7665  0.2339
 7628SOL     OW34342   1.610   3.021  16.564  0.0412 -0.1673 -0.4882
 7628SOL    HW134343   1.677   3.047  16.628 -0.0039  2.0932 -1.3390
 7628SOL    HW234344   1.597   3.100  16.511  0.1348 -1.3555 -2.2873
 7629SOL     OW34345   2.097   2.189  11.942 -0.4619  0.0289  0.4283
 7629SOL    HW134346   2.108   2.096  11.926  0.2727 -0.3702  3.1033
 7629SOL    HW234347   2.007   2.183  11.975  0.6271  0.0665  3.3994
 7630SOL     OW34348   4.373   3.316   3.652  0.4141 -0.3017  0.3934
 7630SOL    HW134349   4.394   3.381   3.586 -0.5267  0.6345  1.0238
 7630SOL    HW234350   4.461   3.288   3.680  1.4346  0.7847 -1.7369
 7631SOL     OW34351   0.812   4.542   8.390 -0.9113  0.3301 -0.5344
 7631SOL    HW134352   0.808   4.637   8.391  1.9720  0.4509 -1.3581
 7631SOL    HW234353   0.787   4.520   8.300 -0.9111  0.5214 -0.5804
 7632SOL     OW34354   1.884   0.198   0.200 -0.2126 -0.4179  0.1672
 7632SOL    HW134355   1.802   0.161   0.231 -0.3388  0.8611  1.3580
 7632SOL    HW234356   1.870   0.226   0.109  0.2144 -0.1688  0.1745
 7633SOL     OW34357   1.508   3.540  12.779 -0.3339 -0.7410 -0.4870
 7633SOL    HW134358   1.601   3.548  12.758 -0.3984  2.5335  0.5112
 7633SOL    HW234359   1.475   3.488  12.705 -3.3138  0.6710 -0.1435
 7634SOL     OW34360   0.313   0.237   8.005  0.5691 -0.0822  0.0777
 7634SOL    HW134361   0.293   0.315   8.057 -1.1290  0.3651 -1.2538
 7634SOL    HW234362   0.308   0.264   7.913  1.5942  0.2219  0.1137
 7635SOL     OW34363   0.550   1.512   8.156 -0.7781 -0.7495 -0.0102
 7635SOL    HW134364   0.517   1.596   8.188 -0.1904 -0.9368  1.0765
 7635SOL    HW234365   0.505   1.454   8.218  0.1840 -0.3209  1.1004
 7636SOL     OW34366   2.841   0.109   6.786 -0.3647  0.4748 -0.4768
 7636SOL    HW134367   2.833   0.192   6.739  0.6370 -0.3677 -2.1304
 7636SOL    HW234368   2.912   0.059   6.746 -1.5830 -1.5473 -0.1213
 7637SOL     OW34369   2.251   0.602   5.428 -0.0119  0.6070 -0.8659
 7637SOL    HW134370   2.159   0.620   5.449  0.4016  2.3759 -0.5463
 7637SOL    HW234371   2.234   0.573   5.338  1.7558 -0.5007 -0.8235
 7638SOL     OW34372   1.499   0.070   4.393 -0.7298  0.1454 -0.2622
 7638SOL    HW134373   1.432   0.108   4.336 -0.6321 -0.9669 -1.1324
 7638SOL    HW234374   1.528   0.138   4.454 -2.3882  0.6143  0.0193
 7639SOL     OW34375   2.289   3.054  11.518  0.0013 -0.2817  0.0556
 7639SOL    HW134376   2.203   3.061  11.559  1.1962 -0.4388  2.6133
 7639SOL    HW234377   2.309   2.966  11.552 -2.0392 -0.4749  0.7926
 7640SOL     OW34378   3.804   2.472   6.605  0.6868 -0.3124  0.1417
 7640SOL    HW134379   3.758   2.541   6.556 -1.0920 -0.5880  1.4051
 7640SOL    HW234380   3.756   2.463   6.688  0.5044  1.4086  0.2269
 7641SOL     OW34381   4.222   0.953   3.214  0.1473  0.1245  0.3943
 7641SOL    HW134382   4.201   0.865   3.180 -0.6523  0.1631  0.7876
 7641SOL    HW234383   4.243   0.939   3.306 -0.9597  2.5880  1.0212
 7642SOL     OW34384   3.086   1.565   8.684  0.3876  0.0693 -0.2847
 7642SOL    HW134385   3.070   1.472   8.699  0.9018 -0.0906 -0.7199
 7642SOL    HW234386   3.163   1.549   8.629  1.0944 -2.4629  1.4316
 7643SOL     OW34387   1.618   2.032   6.490  0.3507  0.0696  0.1061
 7643SOL    HW134388   1.557   2.031   6.416 -0.1990  1.0241  0.5419
 7643SOL    HW234389   1.685   2.083   6.446  1.8212 -1.8461  0.1535
 7644SOL     OW34390   2.843   3.610   3.848  0.3884  0.7010 -0.1802
 7644SOL    HW134391   2.842   3.691   3.797  2.5431  1.0499  0.3253
 7644SOL    HW234392   2.774   3.564   3.801  1.8584 -0.9291 -0.7372
 7645SOL     OW34393   3.015   4.467   2.288 -0.0250  0.6000 -0.0807
 7645SOL    HW134394   3.056   4.405   2.228  0.4414  0.7846  0.0525
 7645SOL    HW234395   3.071   4.469   2.365 -0.7539  2.1964  0.4032
 7646SOL     OW34396   3.642   1.777   5.954  0.9440  0.0646 -0.9268
 7646SOL    HW134397   3.616   1.829   5.879  0.9353 -1.2172 -1.8112
 7646SOL    HW234398   3.570   1.714   5.944  1.3697 -0.5429 -0.1459
 7647SOL     OW34399   0.338   3.025   3.758  0.4634 -0.0465  0.0970
 7647SOL    HW134400   0.386   2.944   3.739 -1.9466 -1.4559  0.0933
 7647SOL    HW234401   0.372   3.087   3.694  0.4813 -1.3600 -1.1831
 7648SOL     OW34402   1.193   2.870   3.461 -0.1194 -0.5141  0.1953
 7648SOL    HW134403   1.143   2.789   3.452 -1.0323 -0.2999  3.2366
 7648SOL    HW234404   1.247   2.845   3.536  0.7438  0.3376 -0.1328
 7649SOL     OW34405   0.544   2.236   4.747 -0.0137 -0.0838  0.3817
 7649SOL    HW134406   0.592   2.250   4.829  3.8703  0.5733 -1.9994
 7649SOL    HW234407   0.596   2.168   4.705  0.8919  0.9574 -0.1732
 7650SOL     OW34408   0.308   2.033  11.048  0.1908 -0.3260 -0.5646
 7650SOL    HW134409   0.226   1.984  11.050 -0.1847  0.2731 -1.4178
 7650SOL    HW234410   0.355   1.989  10.977 -0.0585 -0.3943 -0.6857
 7651SOL     OW34411   0.923   3.581   8.644  0.8222  0.5260 -0.5214
 7651SOL    HW134412   0.839   3.585   8.689  1.6145  0.9543  0.9202
 7651SOL    HW234413   0.986   3.604   8.712 -0.4377  0.2770  0.7416
 7652SOL     OW34414   4.621   0.482   2.741  0.2157 -0.2324  0.3876
 7652SOL    HW134415   4.532   0.480   2.775  0.7299  2.5025  1.8985
 7652SOL    HW234416   4.647   0.399   2.781 -1.3331 -0.2310  1.3618
 7653SOL     OW34417   2.693   3.876   3.487  0.1018 -0.0708 -0.1247
 7653SOL    HW134418   2.725   3.814   3.422  2.1853 -0.0115  0.8180
 7653SOL    HW234419   2.693   3.956   3.434  1.7965  0.4712  0.7014
 7654SOL     OW34420   4.595   2.372   6.324 -0.0471  0.0907 -0.2263
 7654SOL    HW134421   4.671   2.431   6.329  1.7489 -2.4981  3.2860
 7654SOL    HW234422   4.621   2.315   6.397  0.8839  0.8881  0.0810
 7655SOL     OW34423   1.166   1.640  13.060 -0.1688  0.4169 -0.3449
 7655SOL    HW134424   1.115   1.566  13.094 -0.7516  0.4650 -1.0975
 7655SOL    HW234425   1.112   1.659  12.983  1.1671 -0.9648 -1.6104
 7656SOL     OW34426   2.062   3.577   6.577 -0.3487 -0.0224 -0.0877
 7656SOL    HW134427   2.070   3.659   6.528 -0.3003 -0.4943 -0.8567
 7656SOL    HW234428   1.966   3.572   6.576 -0.4810  2.2824  0.2216
 7657SOL     OW34429   0.886   2.080  15.844 -0.1773  0.0331  0.1608
 7657SOL    HW134430   0.810   2.033  15.878 -0.0546  0.6358  1.2636
 7657SOL    HW234431   0.925   2.115  15.924 -2.0707 -0.1803  1.1713
 7658SOL     OW34432   2.310   4.266   7.246  0.4620  0.0415  0.6199
 7658SOL    HW134433   2.338   4.349   7.285  1.5333 -0.0907  0.1066
 7658SOL    HW234434   2.348   4.207   7.311  0.0044 -2.5037 -1.4290
 7659SOL     OW34435   1.302   0.560   8.880  0.0730  0.3817 -0.2720
 7659SOL    HW134436   1.308   0.653   8.901 -1.0606  0.7516 -1.5370
 7659SOL    HW234437   1.218   0.541   8.922  1.4418 -2.5094  1.1395
 7660SOL     OW34438   3.998   2.447   5.773  0.0867 -0.0643  0.1829
 7660SOL    HW134439   4.082   2.406   5.797 -0.5860 -0.8283  1.2267
 7660SOL    HW234440   3.965   2.489   5.851 -2.0624 -0.4511 -0.5156
 7661SOL     OW34441   2.995   2.116   6.283 -0.1045 -0.1612  0.6877
 7661SOL    HW134442   2.938   2.192   6.292 -0.2593 -0.1045 -0.7703
 7661SOL    HW234443   2.948   2.080   6.208  0.7325 -0.7686  0.4510
 7662SOL     OW34444   3.548   1.955  11.869  0.2284  0.3832 -0.0747
 7662SOL    HW134445   3.528   2.049  11.867  2.6026  0.8745 -1.2174
 7662SOL    HW234446   3.490   1.931  11.797  0.7237  1.6607 -0.8872
 7663SOL     OW34447   3.483   2.045   8.383 -0.4818  0.0480  0.3353
 7663SOL    HW134448   3.465   2.135   8.355  4.2834  1.6397  2.3544
 7663SOL    HW234449   3.408   2.006   8.340  0.2363 -1.8667  0.8162
 7664SOL     OW34450   1.685   1.746  13.328 -0.1845 -0.8146  0.8555
 7664SOL    HW134451   1.614   1.804  13.356  1.0239  1.0261  0.1361
 7664SOL    HW234452   1.717   1.716  13.413  0.6398  1.4704  1.3651
 7665SOL     OW34453   0.684   1.991   7.669  0.0869 -0.1568  0.1411
 7665SOL    HW134454   0.601   1.954   7.639  0.3755 -2.1157  1.7069
 7665SOL    HW234455   0.660   2.018   7.758  0.7736  0.0647  0.2576
 7666SOL     OW34456   4.420   1.401   8.085  0.0983 -0.0870  0.6213
 7666SOL    HW134457   4.515   1.390   8.082  0.2688  1.3903  0.5963
 7666SOL    HW234458   4.405   1.487   8.046  0.5079 -0.9315 -1.3658
 7667SOL     OW34459   0.366   2.796   7.954  0.4685  0.2039 -0.0319
 7667SOL    HW134460   0.361   2.857   8.027  1.9020 -0.9191  1.0094
 7667SOL    HW234461   0.272   2.795   7.936  0.5524 -2.4601 -0.3910
 7668SOL     OW34462   0.440   0.826  16.827  0.2085  0.8327 -0.2025
 7668SOL    HW134463   0.445   0.913  16.788 -1.7692 -0.4195 -3.2272
 7668SOL    HW234464   0.376   0.776  16.777  2.2346 -0.2215 -1.7893
 7669SOL     OW34465   3.673   4.433   7.333  0.8526  0.0506 -0.9790
 7669SOL    HW134466   3.702   4.517   7.297 -0.1553  0.4870 -0.7685
 7669SOL    HW234467   3.643   4.392   7.252 -1.6372  0.4384 -0.2549
 7670SOL     OW34468   1.304   3.141   9.113  0.0825 -0.2788 -0.8229
 7670SOL    HW134469   1.374   3.131   9.049  0.8721 -0.0970  0.0248
 7670SOL    HW234470   1.352   3.174   9.189  1.8869  0.7644 -2.4095
 7671SOL     OW34471   1.565   3.033  13.737  0.4680  0.4571 -0.0863
 7671SOL    HW134472   1.629   2.989  13.681  2.5548  1.5116  1.4559
 7671SOL    HW234473   1.489   3.039  13.680  0.4668 -0.7121 -0.2007
 7672SOL     OW34474   0.604   0.518   6.567 -0.2651  0.1186  1.0082
 7672SOL    HW134475   0.657   0.448   6.605 -0.9444 -1.0752 -0.2458
 7672SOL    HW234476   0.518   0.501   6.605 -0.8883  1.9021  0.3707
 7673SOL     OW34477   1.148   0.124  11.198 -0.4401 -0.3100  0.0349
 7673SOL    HW134478   1.223   0.112  11.140  0.7054 -0.5298  1.5446
 7673SOL    HW234479   1.156   0.046  11.254  0.3552  0.1224  0.5180
 7674SOL     OW34480   1.736   2.243  15.268 -0.4452 -0.0224 -0.0031
 7674SOL    HW134481   1.668   2.198  15.318  0.8980  0.1034  1.9528
 7674SOL    HW234482   1.776   2.173  15.218 -1.0001  0.3168 -0.9214
 7675SOL     OW34483   0.934   0.580   6.718  0.8572  0.2274  0.1847
 7675SOL    HW134484   0.880   0.634   6.660  0.2171 -0.3905  0.2123
 7675SOL    HW234485   0.964   0.510   6.660  0.1970 -0.1150  0.2591
 7676SOL     OW34486   1.180   4.251   9.824  0.2640  0.7256  0.2736
 7676SOL    HW134487   1.110   4.191   9.851  1.0213 -0.4087 -0.3053
 7676SOL    HW234488   1.179   4.309   9.900 -3.3596  2.1646 -0.8608
 7677SOL     OW34489   3.699   2.974   4.445  0.2578  0.6847 -0.0406
 7677SOL    HW134490   3.789   2.990   4.418  1.2390 -1.5293  1.9630
 7677SOL    HW234491   3.663   3.054   4.407 -0.4986  1.2520  1.8954
 7678SOL     OW34492   0.223   4.706   7.675 -0.6759 -0.7576  0.5970
 7678SOL    HW134493   0.176   0.009   7.753  0.4168 -2.3471  1.8741
 7678SOL    HW234494   0.154   4.663   7.625 -0.3912 -2.7141  1.9022
 7679SOL     OW34495   3.575   0.777   3.306  0.3088 -0.5008 -0.3935
 7679SOL    HW134496   3.617   0.856   3.272  1.5020 -0.1952  1.7638
 7679SOL    HW234497   3.624   0.714   3.254  0.4489 -0.7125 -0.0042
 7680SOL     OW34498   1.483   1.642   5.632  0.3613  0.1565 -0.3890
 7680SOL    HW134499   1.418   1.707   5.657  0.5820  0.2407 -0.0391
 7680SOL    HW234500   1.562   1.693   5.650 -0.4238  0.8167  1.1150
 7681SOL     OW34501   2.306   4.201   9.658 -0.1269  0.3122 -0.1556
 7681SOL    HW134502   2.331   4.276   9.605  1.6852 -0.4592 -0.3843
 7681SOL    HW234503   2.359   4.214   9.737 -1.3838 -0.7764  0.8655
 7682SOL     OW34504   3.169   1.534   3.063  0.0020  0.0081 -0.0394
 7682SOL    HW134505   3.175   1.593   2.988  0.5979  0.6566  0.5220
 7682SOL    HW234506   3.160   1.444   3.031 -0.1414 -0.3717  1.0770
 7683SOL     OW34507   2.791   3.008  12.086  0.2530 -0.0867  0.1010
 7683SOL    HW134508   2.844   2.984  12.162 -0.1847 -1.1776  0.0484
 7683SOL    HW234509   2.739   2.928  12.082  0.7529 -0.4060  0.0211
 7684SOL     OW34510   3.593   4.175  12.002 -0.0520 -0.2859 -0.0531
 7684SOL    HW134511   3.646   4.188  12.081  0.5505 -1.0197 -0.3330
 7684SOL    HW234512   3.660   4.157  11.936  0.0010  0.8580 -0.3151
 7685SOL     OW34513   4.241   1.545   2.878 -0.2959  0.3007 -0.0122
 7685SOL    HW134514   4.214   1.531   2.969  2.0029  2.3180  0.9910
 7685SOL    HW234515   4.171   1.502   2.830 -1.6104  0.4574  1.7274
 7686SOL     OW34516   1.671   2.338  14.235  0.3306  0.0435  0.4725
 7686SOL    HW134517   1.673   2.282  14.312 -2.2514  2.4007  2.2652
 7686SOL    HW234518   1.621   2.289  14.169  1.0530 -0.5213  0.3458
 7687SOL     OW34519   3.719   3.020   8.304 -0.2395 -0.3085  0.5133
 7687SOL    HW134520   3.786   3.025   8.373 -0.7580 -0.2600  1.0149
 7687SOL    HW234521   3.729   2.928   8.278 -0.5011  0.7910 -3.4664
 7688SOL     OW34522   1.240   1.088   7.279 -0.2058  0.1564 -0.7075
 7688SOL    HW134523   1.335   1.094   7.272 -0.0976  0.5469  1.0554
 7688SOL    HW234524   1.216   1.163   7.225 -0.0284  0.8899  0.2328
 7689SOL     OW34525   3.484   3.361   3.874  0.3196 -0.0077  0.0095
 7689SOL    HW134526   3.400   3.352   3.829  0.2010  1.0473  0.0019
 7689SOL    HW234527   3.537   3.349   3.796  0.5821 -1.5048  0.4249
 7690SOL     OW34528   3.528   3.307  11.512  0.1265 -0.3926  0.1103
 7690SOL    HW134529   3.543   3.244  11.442  1.3818  0.8726 -0.7395
 7690SOL    HW234530   3.432   3.305  11.514  0.1292  0.1026  0.9365
 7691SOL     OW34531   2.800   3.163   6.480 -0.7593 -0.3454  0.1118
 7691SOL    HW134532   2.736   3.229   6.510 -0.3821 -0.6398  1.5461
 7691SOL    HW234533   2.831   3.113   6.555  0.2881 -0.3981 -0.3615
 7692SOL     OW34534   2.859   0.357   3.835 -0.2129 -0.1502  0.2821
 7692SOL    HW134535   2.892   0.430   3.889 -0.1210  0.1148 -0.1317
 7692SOL    HW234536   2.927   0.291   3.824  0.0899  0.2772 -0.3597
 7693SOL     OW34537   1.294   1.641   2.910  0.4684  0.0198 -0.0069
 7693SOL    HW134538   1.207   1.625   2.873  1.1603 -1.3232 -1.0641
 7693SOL    HW234539   1.346   1.594   2.845 -0.2906 -1.5481  0.5151
 7694SOL     OW34540   3.591   2.729   5.371  0.5931 -0.2070 -0.1725
 7694SOL    HW134541   3.592   2.646   5.419  2.6454  0.2225  0.5253
 7694SOL    HW234542   3.534   2.703   5.299  1.5216 -2.4974 -0.0681
 7695SOL     OW34543   2.162   1.297   9.653 -0.0649 -0.0561 -0.2908
 7695SOL    HW134544   2.133   1.298   9.744  0.0115 -0.7210 -0.2598
 7695SOL    HW234545   2.254   1.321   9.661  0.1926 -0.6737 -1.4075
 7696SOL     OW34546   2.010   3.548   0.774  0.2449  0.1988  0.4587
 7696SOL    HW134547   2.042   3.463   0.805 -0.3634  0.6271  2.2323
 7696SOL    HW234548   2.095   3.593   0.768  0.7505 -0.8125  0.0098
 7697SOL     OW34549   3.850   0.213   0.089  0.1605  0.3643 -0.0976
 7697SOL    HW134550   3.878   0.156   0.018  1.4125 -0.6165  1.1815
 7697SOL    HW234551   3.881   0.298   0.057  1.0404 -0.1749 -0.6782
 7698SOL     OW34552   4.439   3.708   4.665  0.6126 -0.5372 -0.1013
 7698SOL    HW134553   4.506   3.646   4.696  1.0727  0.0082  0.0059
 7698SOL    HW234554   4.510   3.767   4.637 -1.1784  1.7353  0.1520
 7699SOL     OW34555   1.661   2.656  15.676  0.1439  0.0682  0.1100
 7699SOL    HW134556   1.688   2.737  15.634  0.9527 -0.5539 -0.5667
 7699SOL    HW234557   1.581   2.637  15.628 -1.1167  0.1804  2.1706
 7700SOL     OW34558   1.607   3.781   4.016  0.1096 -0.5437 -0.6406
 7700SOL    HW134559   1.529   3.833   3.999  0.0504 -0.2507  0.4825
 7700SOL    HW234560   1.658   3.855   4.048 -1.7563 -0.7642  2.9166
 7701SOL     OW34561   2.287   2.229   4.262 -0.2503 -0.3012  0.0692
 7701SOL    HW134562   2.346   2.156   4.281  1.6991  0.9313 -1.2679
 7701SOL    HW234563   2.274   2.260   4.351 -0.2614  1.9752 -0.7229
 7702SOL     OW34564   3.847   3.199  12.290 -0.1709  0.4086 -0.4336
 7702SOL    HW134565   3.769   3.232  12.336 -1.0669 -0.9401 -0.9682
 7702SOL    HW234566   3.922   3.251  12.316  1.3362 -2.0495  0.1800
 7703SOL     OW34567   3.527   4.005  15.699 -0.1304 -0.3922  0.1698
 7703SOL    HW134568   3.613   4.047  15.696 -0.0451 -0.5751  0.0407
 7703SOL    HW234569   3.469   4.081  15.694 -0.3692 -0.5902 -0.0934
 7704SOL     OW34570   0.131   3.875   8.367  0.0385 -0.4939  0.6336
 7704SOL    HW134571   0.222   3.905   8.363 -0.6396  1.4561 -0.0775
 7704SOL    HW234572   0.137   3.781   8.349  0.4374 -0.9866  3.2910
 7705SOL     OW34573   2.407   3.475   7.644 -0.5954  0.1943  0.3823
 7705SOL    HW134574   2.426   3.566   7.669 -0.3738  0.1766  0.2787
 7705SOL    HW234575   2.370   3.492   7.557  1.5161  0.3384 -0.5008
 7706SOL     OW34576   2.649   2.313   3.498 -0.0406  1.1185 -0.1362
 7706SOL    HW134577   2.732   2.360   3.499  0.3927  0.3617 -1.1600
 7706SOL    HW234578   2.592   2.363   3.557  1.0818  2.9131 -0.5735
 7707SOL     OW34579   0.599   3.965   0.591 -0.0221  0.0118  0.6626
 7707SOL    HW134580   0.615   4.024   0.518  0.8014 -0.9153  0.1130
 7707SOL    HW234581   0.664   3.897   0.574 -0.5343 -0.7242  1.6726
 7708SOL     OW34582   4.342   3.570   7.431  0.9156  0.6655  0.3568
 7708SOL    HW134583   4.330   3.479   7.457 -1.9179  0.5525 -1.3922
 7708SOL    HW234584   4.377   3.604   7.513 -0.7615 -1.9147  2.1584
 7709SOL     OW34585   2.258   4.721  15.835 -0.8230  0.3353 -0.1203
 7709SOL    HW134586   2.232   4.640  15.791 -1.3677  0.2060  0.4378
 7709SOL    HW234587   2.188   0.018  15.896 -0.7123 -0.4527  0.3126
 7710SOL     OW34588   0.088   1.571   3.107  0.3340  0.1834  0.0524
 7710SOL    HW134589   0.148   1.584   3.181 -2.4344 -0.4755  2.4055
 7710SOL    HW234590   0.149   1.570   3.033 -0.8366 -0.6197 -0.9016
 7711SOL     OW34591   1.239   3.584   2.836  0.1428  0.1210 -0.3523
 7711SOL    HW134592   1.243   3.659   2.777 -1.8949 -0.5484 -1.3485
 7711SOL    HW234593   1.323   3.541   2.820 -0.6100 -1.7725  0.6719
 7712SOL     OW34594   0.768   0.871   4.028 -0.6764 -0.2053  0.6287
 7712SOL    HW134595   0.813   0.836   3.951  0.3050  0.9146  0.6982
 7712SOL    HW234596   0.801   0.960   4.036  2.3184 -1.4745  2.5744
 7713SOL     OW34597   1.475   2.573   7.248  0.1884  0.7013  0.6227
 7713SOL    HW134598   1.532   2.567   7.325  0.4759  0.8110  0.4202
 7713SOL    HW234599   1.508   2.658   7.218 -0.5452  0.2574 -1.4152
 7714SOL     OW34600   3.802   0.938   6.708  0.4804 -0.0855  0.0481
 7714SOL    HW134601   3.717   0.938   6.751 -0.2060 -4.8388 -1.2978
 7714SOL    HW234602   3.841   1.022   6.732 -0.4147  0.7691 -1.5201
 7715SOL     OW34603   3.362   1.105   9.463 -0.1837  0.3770 -0.1870
 7715SOL    HW134604   3.351   1.075   9.553 -1.4015  1.5257  0.0543
 7715SOL    HW234605   3.299   1.062   9.405  1.2280  1.1840 -2.3526
 7716SOL     OW34606   0.731   2.442   3.811  0.1545  0.8776  0.2731
 7716SOL    HW134607   0.636   2.454   3.811 -0.0077 -0.4590 -0.2006
 7716SOL    HW234608   0.746   2.348   3.814  2.0122  1.1668  0.4009
 7717SOL     OW34609   3.236   4.614   7.870  0.0937 -0.0241  0.0934
 7717SOL    HW134610   3.147   4.612   7.907 -1.0004 -2.9348 -2.7372
 7717SOL    HW234611   3.261   4.528   7.839  2.7750  1.3206 -1.4273
 7718SOL     OW34612   1.718   2.901   4.569 -0.2661  0.5486  0.4382
 7718SOL    HW134613   1.682   2.955   4.639 -0.2735 -0.2041  1.0101
 7718SOL    HW234614   1.782   2.852   4.622 -0.2692  1.3413  1.1851
 7719SOL     OW34615   2.516   1.723  12.136  0.2826 -0.3561 -0.4893
 7719SOL    HW134616   2.592   1.693  12.086  0.2293 -0.6097 -0.4160
 7719SOL    HW234617   2.473   1.640  12.156  0.9612 -0.7248 -0.5473
 7720SOL     OW34618   1.103   3.215   6.617  0.4670 -0.1273  0.1274
 7720SOL    HW134619   1.110   3.189   6.709 -0.5547  0.3635  0.3371
 7720SOL    HW234620   1.185   3.265   6.610  1.0119 -1.1929 -1.3002
 7721SOL     OW34621   1.189   2.866   3.039  0.1620 -0.8733 -0.0933
 7721SOL    HW134622   1.140   2.933   2.992  0.1185 -1.1328 -0.4146
 7721SOL    HW234623   1.145   2.789   3.004 -1.4090  0.0259 -0.1027
 7722SOL     OW34624   2.179   2.283   2.882  0.8816 -0.0661  0.3918
 7722SOL    HW134625   2.163   2.189   2.883 -1.6188  0.3477  0.2291
 7722SOL    HW234626   2.163   2.286   2.788 -1.5195 -0.8952  0.7828
 7723SOL     OW34627   2.241   1.175   0.156 -0.0312 -0.3039  0.4154
 7723SOL    HW134628   2.190   1.115   0.210 -1.4980  0.0224 -0.6084
 7723SOL    HW234629   2.299   1.213   0.222 -0.4440  0.8857  0.1092
 7724SOL     OW34630   3.419   2.778   1.798  0.0573 -0.0298  0.1586
 7724SOL    HW134631   3.493   2.752   1.852 -0.7219  0.7583  1.5942
 7724SOL    HW234632   3.341   2.786   1.852  1.3050  1.3131  1.7853
 7725SOL     OW34633   0.069   2.537   3.784 -0.1977  0.1323 -0.2395
 7725SOL    HW134634   0.084   2.460   3.729 -0.2094 -0.2494  0.2832
 7725SOL    HW234635   0.154   2.538   3.829  0.8073 -2.7386 -2.1242
 7726SOL     OW34636   0.630   2.947   2.305  0.0023 -0.4504  0.3839
 7726SOL    HW134637   0.636   2.985   2.218  1.5846 -1.2547  0.1552
 7726SOL    HW234638   0.712   2.900   2.321  1.0092  1.5303  1.0304
 7727SOL     OW34639   4.300   0.582   6.971  0.3359 -0.3700 -0.1583
 7727SOL    HW134640   4.209   0.582   6.941 -0.0286  4.0355  0.9081
 7727SOL    HW234641   4.335   0.624   6.892  1.7403 -0.6953  0.2845
 7728SOL     OW34642   3.485   2.374   7.032 -0.0775 -0.3498 -0.4529
 7728SOL    HW134643   3.404   2.408   6.994  1.7140  3.9503 -0.4651
 7728SOL    HW234644   3.455   2.318   7.103 -1.4130  1.8327  0.7086
 7729SOL     OW34645   3.413   0.796  15.527  0.0637  0.2973  0.4502
 7729SOL    HW134646   3.358   0.743  15.585 -2.1199  2.4713  0.3649
 7729SOL    HW234647   3.346   0.856  15.495  0.4406  0.2726 -0.3924
 7730SOL     OW34648   0.832   4.299   5.231  0.0549 -0.0399  0.2464
 7730SOL    HW134649   0.850   4.278   5.323  0.8881  1.0874  0.3379
 7730SOL    HW234650   0.913   4.266   5.191  1.7106  0.2861  3.3585
 7731SOL     OW34651   1.827   3.047  15.387  0.3675 -0.2678  0.5101
 7731SOL    HW134652   1.860   3.126  15.345  0.4908 -2.0652 -2.7974
 7731SOL    HW234653   1.907   3.018  15.433 -0.0173 -3.2198 -0.6493
 7732SOL     OW34654   2.124   3.597  14.370 -0.3184  0.1272  0.3714
 7732SOL    HW134655   2.130   3.521  14.428 -0.0282  0.1767  0.4086
 7732SOL    HW234656   2.034   3.602  14.339 -0.3798  2.7735  0.9546
 7733SOL     OW34657   0.708   1.636   4.196  0.5674 -0.0177 -0.0692
 7733SOL    HW134658   0.800   1.659   4.199 -0.3300  3.4267  0.9321
 7733SOL    HW234659   0.701   1.580   4.274  0.2361 -0.2031 -0.2334
 7734SOL     OW34660   2.275   0.863   4.948  0.3693  1.3884 -0.5404
 7734SOL    HW134661   2.297   0.831   5.036 -2.5612  1.2906  0.1685
 7734SOL    HW234662   2.366   0.884   4.928  0.5063  2.2641  1.0277
 7735SOL     OW34663   2.413   3.431   4.828  0.0541 -0.5482  0.5065
 7735SOL    HW134664   2.367   3.420   4.745  0.4733  0.6234  0.1213
 7735SOL    HW234665   2.505   3.433   4.801  0.3547  2.0349  1.7122
 7736SOL     OW34666   4.690   4.159   7.683  0.4194  0.4146 -0.0758
 7736SOL    HW134667   4.689   4.072   7.724 -1.3158  0.2907 -0.3938
 7736SOL    HW234668   0.056   4.174   7.673 -0.2437  3.1181 -2.1838
 7737SOL     OW34669   2.421   3.747   3.172  0.1721  0.3265 -0.0477
 7737SOL    HW134670   2.436   3.840   3.189  1.1525  0.0522  0.6108
 7737SOL    HW234671   2.423   3.759   3.077  2.0144  2.9788  0.3159
 7738SOL     OW34672   3.415   3.594   5.840  0.1584 -0.0155  0.4882
 7738SOL    HW134673   3.446   3.679   5.808  0.0924 -1.0580 -2.3456
 7738SOL    HW234674   3.334   3.593   5.790 -0.9983  0.1954  2.3620
 7739SOL     OW34675   3.830   3.088   6.550 -0.2068 -0.9333 -0.9638
 7739SOL    HW134676   3.836   3.124   6.638  1.6885 -2.1098 -0.5963
 7739SOL    HW234677   3.789   3.164   6.509 -0.6788 -0.9865 -0.5876
 7740SOL     OW34678   2.599   4.208   5.861 -0.1046  0.1236 -0.3500
 7740SOL    HW134679   2.663   4.166   5.803  0.7920 -1.4195  1.7678
 7740SOL    HW234680   2.605   4.300   5.837 -1.5652  0.6630  1.3659
 7741SOL     OW34681   0.144   4.570   2.079  0.5769  0.6202  0.4083
 7741SOL    HW134682   0.185   4.653   2.102  0.1017  1.4865 -1.8417
 7741SOL    HW234683   0.059   4.604   2.049  0.5788  1.7444  1.6690
 7742SOL     OW34684   0.826   1.416   1.395  0.0103  0.0333  0.0222
 7742SOL    HW134685   0.897   1.480   1.394 -0.7648  0.8788  0.2947
 7742SOL    HW234686   0.866   1.361   1.327  1.5099 -0.5538  1.3768
 7743SOL     OW34687   3.841   1.460   6.915 -0.5121 -0.3201 -0.1913
 7743SOL    HW134688   3.895   1.501   6.982 -0.8630  1.6383 -1.1105
 7743SOL    HW234689   3.914   1.438   6.856 -1.2520 -3.7839  0.1531
 7744SOL     OW34690   1.986   1.252   6.265  0.7488  0.0787  0.3715
 7744SOL    HW134691   1.958   1.327   6.212  0.7779  0.1285  0.4273
 7744SOL    HW234692   1.904   1.205   6.276  2.4038 -2.2791  2.5100
 7745SOL     OW34693   2.289   2.584  10.257  0.1593 -0.0215  0.7366
 7745SOL    HW134694   2.336   2.667  10.250  0.0116 -0.1052 -1.1796
 7745SOL    HW234695   2.307   2.565  10.349 -1.1137 -0.0474  0.9816
 7746SOL     OW34696   2.021   3.056  11.576 -0.0828 -0.2781  0.4372
 7746SOL    HW134697   2.033   3.076  11.668  1.7661 -0.4822  0.2471
 7746SOL    HW234698   1.946   2.997  11.586 -1.0760  0.7271 -1.0667
 7747SOL     OW34699   1.839   1.656   5.415  0.4092 -0.0406 -0.7130
 7747SOL    HW134700   1.919   1.626   5.457 -0.5900  0.9609  1.9753
 7747SOL    HW234701   1.882   1.694   5.339  0.4088  1.4596  0.0151
 7748SOL     OW34702   1.143   0.905  16.114 -0.3650 -0.1568 -0.4761
 7748SOL    HW134703   1.137   0.850  16.036  0.4478 -0.2687 -0.4640
 7748SOL    HW234704   1.231   0.943  16.107 -0.8604  1.0034 -0.3148
 7749SOL     OW34705   0.293   3.343   0.482  0.1947 -0.1434 -0.0608
 7749SOL    HW134706   0.275   3.251   0.462 -1.0365  0.3319 -1.1427
 7749SOL    HW234707   0.290   3.340   0.577  0.5234 -0.3211 -0.0569
 7750SOL     OW34708   2.450   3.703   0.506 -0.2058 -0.3236 -0.4372
 7750SOL    HW134709   2.502   3.783   0.505  0.6603 -0.8596  1.2832
 7750SOL    HW234710   2.358   3.729   0.499  0.0636  1.2146  1.7875
 7751SOL     OW34711   2.371   1.887   8.257 -0.3594  0.3334  0.1274
 7751SOL    HW134712   2.450   1.836   8.273 -0.2861  0.5580  0.4704
 7751SOL    HW234713   2.324   1.870   8.339 -1.3063  0.5993 -0.3579
 7752SOL     OW34714   2.251   2.034  14.588  0.1636 -0.2633  0.2264
 7752SOL    HW134715   2.255   1.972  14.660  3.5331 -0.1324  0.1178
 7752SOL    HW234716   2.174   2.090  14.601  0.9296  0.7416  0.4417
 7753SOL     OW34717   3.523   3.013   7.480  0.2291  0.0818  0.4171
 7753SOL    HW134718   3.481   2.994   7.564  0.7221 -0.4580  0.5397
 7753SOL    HW234719   3.540   2.921   7.460 -3.2546 -0.5899  0.6264
 7754SOL     OW34720   2.496   4.583   3.990 -0.3874 -0.4979  0.3516
 7754SOL    HW134721   2.497   4.618   4.079  0.5833 -1.0138  0.5407
 7754SOL    HW234722   2.559   4.511   3.985 -0.1106 -0.3006  1.0403
 7755SOL     OW34723   1.823   0.245   3.864 -0.0212  0.0885 -0.2122
 7755SOL    HW134724   1.816   0.270   3.956 -0.3219  0.0562 -0.2293
 7755SOL    HW234725   1.917   0.266   3.855 -0.0686 -0.3874 -1.8119
 7756SOL     OW34726   3.485   0.520   6.241  0.1535  0.5648  0.6757
 7756SOL    HW134727   3.393   0.493   6.243 -0.8951  4.1408 -0.0561
 7756SOL    HW234728   3.489   0.568   6.159 -0.2912 -0.0199  0.3094
 7757SOL     OW34729   2.853   3.890  13.077  0.5499 -0.2220 -0.1511
 7757SOL    HW134730   2.775   3.849  13.039  0.4355 -0.9897  0.9272
 7757SOL    HW234731   2.898   3.911  12.994  1.0770  1.0094  0.4470
 7758SOL     OW34732   0.652   1.049   1.046 -0.2651 -0.5594 -0.6287
 7758SOL    HW134733   0.644   1.053   0.951 -0.0252 -3.2483 -0.7613
 7758SOL    HW234734   0.639   1.138   1.078 -2.1356 -0.3717 -1.9265
 7759SOL     OW34735   1.653   1.545   5.902 -0.2293  0.5004 -0.0807
 7759SOL    HW134736   1.600   1.574   5.827 -1.5515  0.0041  0.6730
 7759SOL    HW234737   1.590   1.492   5.951 -0.8316 -0.0641 -1.4536
 7760SOL     OW34738   1.528   3.980   5.574 -0.5452 -0.3092  0.6286
 7760SOL    HW134739   1.433   3.981   5.584 -0.1782  2.0396  3.8143
 7760SOL    HW234740   1.534   3.945   5.485 -3.4287 -2.6619  1.3672
 7761SOL     OW34741   3.276   2.657   6.672 -0.0754 -0.0640  0.0266
 7761SOL    HW134742   3.276   2.730   6.610  0.5536 -1.2314 -1.3540
 7761SOL    HW234743   3.365   2.640   6.702 -0.8320 -1.7767  1.2788
 7762SOL     OW34744   1.028   0.537   5.276 -0.2208 -0.0090 -0.0458
 7762SOL    HW134745   1.000   0.456   5.233 -0.9009  0.3090 -0.1938
 7762SOL    HW234746   0.954   0.563   5.331  0.7677 -1.6970  2.1074
 7763SOL     OW34747   0.337   2.372   8.200  0.0882 -0.0192  0.3978
 7763SOL    HW134748   0.405   2.331   8.253  0.8555  0.8781  0.1101
 7763SOL    HW234749   0.349   2.344   8.109 -2.0407 -1.1853  0.4811
 7764SOL     OW34750   0.659   1.911   2.808 -0.6206 -0.3291  0.2367
 7764SOL    HW134751   0.732   1.854   2.832 -0.6617 -1.0656 -1.3235
 7764SOL    HW234752   0.694   1.951   2.728  1.8874 -0.0230  1.5129
 7765SOL     OW34753   0.625   4.176   0.754 -0.2213 -0.1768  0.9280
 7765SOL    HW134754   0.542   4.201   0.714  1.4080  2.5938 -0.6601
 7765SOL    HW234755   0.634   4.088   0.717 -0.1766 -0.3786  1.4149
 7766SOL     OW34756   3.591   2.298   9.400 -0.2948 -0.1956  0.0103
 7766SOL    HW134757   3.535   2.224   9.424 -0.4380  0.1849  0.8456
 7766SOL    HW234758   3.636   2.276   9.319 -0.9214  0.0157 -0.3935
 7767SOL     OW34759   1.772   1.087   6.269  0.0817 -0.4253 -0.0725
 7767SOL    HW134760   1.747   1.070   6.360  1.1804  1.6079  0.6074
 7767SOL    HW234761   1.692   1.119   6.226  0.9437 -0.5288 -1.7436
 7768SOL     OW34762   2.441   3.854   5.093  0.3369  0.6475  0.1917
 7768SOL    HW134763   2.371   3.865   5.028 -0.3849  0.6505  0.9798
 7768SOL    HW234764   2.443   3.761   5.115 -2.6874  0.7321  0.8067
 7769SOL     OW34765   1.067   1.312   6.802  0.4747  0.7562  0.0414
 7769SOL    HW134766   1.157   1.345   6.814  0.7677 -0.3342  0.8367
 7769SOL    HW234767   1.070   1.288   6.709  3.0227  1.0863  0.0417
 7770SOL     OW34768   4.256   3.679   1.147 -0.5228  0.1954  0.7235
 7770SOL    HW134769   4.274   3.681   1.241  3.0815  0.1144  0.0436
 7770SOL    HW234770   4.295   3.762   1.120  1.8147 -1.3416 -0.6336
 7771SOL     OW34771   1.717   2.098  11.119 -0.0082 -0.1091  0.3498
 7771SOL    HW134772   1.719   2.161  11.047  1.2354 -1.7001 -1.0181
 7771SOL    HW234773   1.703   2.158  11.192  0.2124 -0.9600  1.0940
 7772SOL     OW34774   2.320   3.124   2.255  0.6743  0.1959  0.0056
 7772SOL    HW134775   2.291   3.078   2.176 -0.1622  1.8672 -0.6602
 7772SOL    HW234776   2.248   3.102   2.314 -0.5352  0.1227 -1.4785
 7773SOL     OW34777   0.833   0.388   2.840  0.2008 -0.4449  0.0857
 7773SOL    HW134778   0.852   0.339   2.760  0.4068  1.0122 -0.7612
 7773SOL    HW234779   0.922   0.411   2.865  0.0544 -1.9126  1.9430
 7774SOL     OW34780   4.573   4.490   5.686 -0.7973  0.0291  0.4058
 7774SOL    HW134781   4.479   4.503   5.681 -0.7456 -1.7803 -4.6529
 7774SOL    HW234782   4.578   4.396   5.707  1.3801  0.2330  0.8017
 7775SOL     OW34783   2.031   4.075   5.720 -0.3301 -0.5608  0.2743
 7775SOL    HW134784   1.962   4.134   5.691 -0.9251 -2.0528 -1.3156
 7775SOL    HW234785   2.002   4.056   5.809 -0.7400  2.4008  0.7643
 7776SOL     OW34786   3.128   2.007   4.783  0.2343  0.0401 -0.2668
 7776SOL    HW134787   3.137   1.914   4.805 -1.6003 -0.0609  0.0906
 7776SOL    HW234788   3.063   2.032   4.849 -0.5410 -1.2675 -0.5228
 7777SOL     OW34789   0.652   2.126   9.415  0.4507  0.2727  0.1102
 7777SOL    HW134790   0.651   2.054   9.352  0.4254 -0.3633  0.8383
 7777SOL    HW234791   0.689   2.196   9.361  1.8724 -0.8360 -0.3612
 7778SOL     OW34792   3.226   3.051   8.345 -0.3560  0.1657  0.0972
 7778SOL    HW134793   3.280   3.128   8.327 -0.5627  0.0928 -0.8618
 7778SOL    HW234794   3.139   3.071   8.310 -0.7210 -1.0977  0.2766
 7779SOL     OW34795   4.182   1.036   7.092  0.1196  0.1785 -0.0854
 7779SOL    HW134796   4.212   1.105   7.032  0.4348  0.2639  0.1712
 7779SOL    HW234797   4.267   1.017   7.133  0.5427  1.3783 -0.3900
 7780SOL     OW34798   3.495   2.243  16.003  0.6301  0.2881 -0.4315
 7780SOL    HW134799   3.561   2.297  16.048 -0.8746  2.2693 -0.5934
 7780SOL    HW234800   3.419   2.301  16.002  0.0538 -0.4868 -1.8860
 7781SOL     OW34801   4.105   0.662  16.974  0.5220  0.0458 -0.0749
 7781SOL    HW134802   4.195   0.690  16.988  0.1444  1.3106 -0.0844
 7781SOL    HW234803   4.097   0.568  16.988 -2.0096  0.2446 -0.1362
 7782SOL     OW34804   3.893   2.594   3.547 -0.1498  0.1260 -0.5727
 7782SOL    HW134805   3.887   2.586   3.452  0.4748 -0.7686 -0.5244
 7782SOL    HW234806   3.986   2.615   3.553 -0.6734  2.3272 -0.0312
 7783SOL     OW34807   3.149   1.379   3.883  0.0624  0.0762  0.1053
 7783SOL    HW134808   3.118   1.413   3.967  0.8104 -0.1688  0.4776
 7783SOL    HW234809   3.073   1.401   3.830  0.2730  0.0564 -0.2013
 7784SOL     OW34810   1.570   2.664   4.225 -0.9383 -0.3266 -0.4337
 7784SOL    HW134811   1.484   2.646   4.186 -0.4181 -0.1421 -1.6575
 7784SOL    HW234812   1.615   2.628   4.149 -0.1005 -0.8805  0.3260
 7785SOL     OW34813   2.081   2.020   5.125 -0.1131 -0.5054  0.2442
 7785SOL    HW134814   2.093   2.114   5.110  2.8808 -1.1111 -1.2067
 7785SOL    HW234815   2.158   2.006   5.180  1.1667  0.5904 -1.2844
 7786SOL     OW34816   0.990   1.661   4.215  0.3822  0.3788 -0.1380
 7786SOL    HW134817   1.082   1.688   4.205 -0.6095  3.0462 -2.0512
 7786SOL    HW234818   0.995   1.601   4.290  2.7665  1.5158  0.5982
 7787SOL     OW34819   2.482   1.417  14.624 -0.3693 -0.4150  0.6513
 7787SOL    HW134820   2.574   1.411  14.649  0.7148 -0.9491 -3.4325
 7787SOL    HW234821   2.448   1.414  14.713 -1.3633 -2.2656  0.2024
 7788SOL     OW34822   4.215   3.898  10.156 -0.0977 -0.0983 -0.0220
 7788SOL    HW134823   4.246   3.810  10.179 -2.3315 -0.5234  1.4121
 7788SOL    HW234824   4.273   3.943  10.217 -0.3074  3.1928 -2.2893
 7789SOL     OW34825   0.926   1.442   8.795 -0.1983  0.2368  0.1287
 7789SOL    HW134826   0.873   1.467   8.719  0.4806  1.8248  0.1909
 7789SOL    HW234827   0.863   1.394   8.848 -0.1443  1.2877  1.1440
 7790SOL     OW34828   2.093   4.190  14.624  0.4040 -0.4444  0.1897
 7790SOL    HW134829   2.074   4.123  14.558  0.5150  1.2647 -1.5815
 7790SOL    HW234830   2.028   4.156  14.685 -0.5742 -1.1835 -1.2460
 7791SOL     OW34831   1.283   0.358   8.323 -0.2313  0.5807 -0.2926
 7791SOL    HW134832   1.300   0.428   8.260  1.7733  1.1084  0.8179
 7791SOL    HW234833   1.304   0.415   8.397  1.4479 -3.3175  2.2315
 7792SOL     OW34834   3.507   1.817   3.159 -0.5981  0.1472 -0.2196
 7792SOL    HW134835   3.558   1.746   3.198 -1.6431 -2.0669 -2.8954
 7792SOL    HW234836   3.454   1.858   3.227 -2.0438 -0.0552 -1.2171
 7793SOL     OW34837   3.735   3.882   7.728  0.1625  0.1831  0.3240
 7793SOL    HW134838   3.796   3.937   7.678 -0.3777 -0.7684 -1.4076
 7793SOL    HW234839   3.778   3.796   7.731 -2.0975 -0.9194  0.8835
 7794SOL     OW34840   3.922   2.669   6.780 -0.0596  0.2180  0.6618
 7794SOL    HW134841   3.864   2.641   6.851 -0.2854  0.6491  0.6443
 7794SOL    HW234842   3.889   2.619   6.705  2.1567  2.0103 -1.5147
 7795SOL     OW34843   1.455   2.588  17.474  0.4304  0.2831  0.1029
 7795SOL    HW134844   1.538   2.598  17.427  0.3851  2.7107  0.5519
 7795SOL    HW234845   1.435   2.678  17.499  1.2925  0.6654 -0.5453
 7796SOL     OW34846   1.773   1.625   4.028 -0.1912  0.5093 -0.8921
 7796SOL    HW134847   1.740   1.607   4.116 -0.0039  0.7852 -0.7657
 7796SOL    HW234848   1.767   1.720   4.025 -0.8735  0.5112  0.3706
 7797SOL     OW34849   2.459   3.519   6.133 -0.1094  1.0418  0.5133
 7797SOL    HW134850   2.397   3.591   6.128 -0.4318  0.7982  0.9742
 7797SOL    HW234851   2.426   3.466   6.060  0.8449  0.6431  0.3737
 7798SOL     OW34852   1.887   3.689  15.287 -0.1444  0.0242  0.1453
 7798SOL    HW134853   1.957   3.744  15.253 -1.9765  2.3532  0.1491
 7798SOL    HW234854   1.831   3.700  15.210 -1.3304 -0.5359  0.9269
 7799SOL     OW34855   3.256   4.442   4.518  0.0089  0.3287 -1.1470
 7799SOL    HW134856   3.185   4.503   4.533  0.7005  0.9768 -0.4998
 7799SOL    HW234857   3.222   4.356   4.544 -0.6172  0.6199 -1.0114
 7800SOL     OW34858   3.720   2.647   9.212 -0.6264  0.2165  0.6675
 7800SOL    HW134859   3.790   2.606   9.161  0.3480  1.5957  0.8964
 7800SOL    HW234860   3.716   2.730   9.165 -2.4048 -0.1997  0.0523
 7801SOL     OW34861   3.942   3.898   1.104  0.1945  0.4972  0.4983
 7801SOL    HW134862   4.030   3.926   1.129 -1.0928  2.9407  2.3203
 7801SOL    HW234863   3.908   3.978   1.066  0.2357  0.2562 -0.0412
 7802SOL     OW34864   3.838   2.412  12.606 -0.4403 -0.6248  0.0091
 7802SOL    HW134865   3.913   2.428  12.663 -0.3629 -0.1406 -0.2288
 7802SOL    HW234866   3.782   2.482  12.640  0.0750  0.7838 -2.0656
 7803SOL     OW34867   0.236   3.286  11.795  0.8251 -0.3423 -0.0003
 7803SOL    HW134868   0.317   3.244  11.766  0.5930 -2.0101  1.7036
 7803SOL    HW234869   0.176   3.238  11.738  1.0372 -0.8513  0.1976
 7804SOL     OW34870   0.670   4.656  12.365 -0.1125 -0.4353 -0.1517
 7804SOL    HW134871   0.583   4.659  12.327 -1.4968  1.5644  3.1892
 7804SOL    HW234872   0.651   4.598  12.438  1.6363 -0.6419  0.1430
 7805SOL     OW34873   2.394   3.661   5.803  0.8955  0.2462 -0.1020
 7805SOL    HW134874   2.378   3.691   5.893  0.2777  0.0676 -0.1532
 7805SOL    HW234875   2.339   3.716   5.748  3.1413  1.2731 -1.2982
 7806SOL     OW34876   0.081   1.644   8.460 -0.6654 -0.4909  0.0862
 7806SOL    HW134877   4.725   1.678   8.428 -1.0753 -0.3793  1.2803
 7806SOL    HW234878   0.050   1.589   8.532  1.3380  0.8413  1.9796
 7807SOL     OW34879   3.051   2.552   4.190  0.2610 -0.0953  0.1620
 7807SOL    HW134880   2.962   2.560   4.157  0.6220 -1.6907 -1.1934
 7807SOL    HW234881   3.067   2.617   4.258 -2.9381 -0.6860  1.4613
 7808SOL     OW34882   3.822   4.361  16.623 -0.5324  0.3864 -0.0566
 7808SOL    HW134883   3.899   4.414  16.603  0.3747 -1.6060 -1.8591
 7808SOL    HW234884   3.863   4.306  16.689  1.4252  2.4973  0.4761
 7809SOL     OW34885   0.782   1.554  15.012 -0.3113 -0.2488 -0.4101
 7809SOL    HW134886   0.697   1.517  14.986 -1.3835  1.9212  0.0523
 7809SOL    HW234887   0.749   1.644  15.012  0.5188  0.0677 -1.6280
 7810SOL     OW34888   4.424   1.265  12.238  0.3214 -0.6171 -0.1244
 7810SOL    HW134889   4.376   1.347  12.243 -1.9897 -1.9596 -0.4566
 7810SOL    HW234890   4.427   1.241  12.145  0.5006 -0.3618 -0.1828
 7811SOL     OW34891   1.715   1.723   2.640  0.3978  0.4415 -0.1292
 7811SOL    HW134892   1.785   1.662   2.663  0.8155  1.5814  1.6973
 7811SOL    HW234893   1.706   1.720   2.545 -2.1546 -1.0559  0.1571
 7812SOL     OW34894   2.497   0.340   5.253  0.5356 -0.1150  0.2688
 7812SOL    HW134895   2.409   0.359   5.222  0.4701  0.6100  0.8891
 7812SOL    HW234896   2.549   0.366   5.178  0.1366 -1.3772 -0.4484
 7813SOL     OW34897   2.622   2.625   5.956 -0.6380  0.3424  0.0205
 7813SOL    HW134898   2.550   2.674   5.917 -1.7611 -1.6791 -0.4274
 7813SOL    HW234899   2.621   2.548   5.899 -2.4374  1.0532 -0.8977
 7814SOL     OW34900   0.736   0.266   3.830  0.2399  0.6736  0.5137
 7814SOL    HW134901   0.777   0.238   3.912 -3.6476 -0.8085  1.9175
 7814SOL    HW234902   0.787   0.206   3.776  0.9436  1.3577  0.4010
 7815SOL     OW34903   4.686   0.232   8.608 -0.0093  0.1000 -1.4756
 7815SOL    HW134904   4.716   0.270   8.690  0.4913 -0.7428 -1.2692
 7815SOL    HW234905   4.591   0.232   8.610  0.0281 -0.3693  0.3068
 7816SOL     OW34906   4.555   3.305   0.606 -0.9265  0.3994  0.7679
 7816SOL    HW134907   4.550   3.212   0.583  1.1241 -0.0562  2.1293
 7816SOL    HW234908   4.547   3.294   0.700  4.1497  1.0684  1.2596
 7817SOL     OW34909   1.682   2.607   7.497  0.5245  0.0577  0.3710
 7817SOL    HW134910   1.769   2.618   7.534  0.7459 -0.2225 -0.0697
 7817SOL    HW234911   1.628   2.616   7.575  0.2161 -0.2729  0.1970
 7818SOL     OW34912   2.024   2.045   7.649 -0.0110  0.1418  0.1187
 7818SOL    HW134913   2.019   2.095   7.567 -0.2455 -1.4305 -0.8347
 7818SOL    HW234914   1.935   2.011   7.658 -0.0713 -1.0011 -4.4391
 7819SOL     OW34915   2.343   2.698  17.611  0.0486  0.7409  0.5456
 7819SOL    HW134916   2.363   2.758  17.683 -0.3465  1.8686 -0.2867
 7819SOL    HW234917   2.371   2.616  17.650  1.2282  1.1046  0.4722
 7820SOL     OW34918   0.088   3.365   9.093  0.0816  0.0116 -0.1308
 7820SOL    HW134919   0.072   3.284   9.044  2.5891 -1.8081  2.0592
 7820SOL    HW234920   4.725   3.397   9.088 -0.3816 -1.2569 -0.0782
 7821SOL     OW34921   1.052   2.715  13.077  0.1436 -0.1346  0.3003
 7821SOL    HW134922   0.963   2.703  13.045 -0.3715  0.4185  1.5501
 7821SOL    HW234923   1.039   2.808  13.096  1.9033 -0.4786  3.2034
 7822SOL     OW34924   1.305   4.658   6.264  0.7742  0.6022 -0.1075
 7822SOL    HW134925   1.317   4.720   6.193  0.4583  0.4925 -0.2571
 7822SOL    HW234926   1.364   4.587   6.240  1.4482  1.0938  0.0961
 7823SOL     OW34927   3.341   2.973  15.271 -0.4059  0.3269 -0.4232
 7823SOL    HW134928   3.408   2.941  15.332 -0.3465  1.7205  0.2430
 7823SOL    HW234929   3.306   2.895  15.227 -0.2040 -0.6786  1.1643
 7824SOL     OW34930   3.807   3.417  10.763  0.3687 -0.1044  0.2608
 7824SOL    HW134931   3.750   3.348  10.795  0.0239 -0.5891 -1.3928
 7824SOL    HW234932   3.756   3.498  10.759  1.2927  0.5385  1.7933
 7825SOL     OW34933   0.658   1.096   0.793  0.2384  0.6785 -0.0173
 7825SOL    HW134934   0.705   1.016   0.770 -2.6382 -1.3313  1.0639
 7825SOL    HW234935   0.717   1.155   0.748  1.5963 -0.9693 -0.4012
 7826SOL     OW34936   0.992   3.360   5.050  0.2795 -0.2496 -0.0270
 7826SOL    HW134937   0.971   3.411   4.972  0.1265  1.7209  1.2865
 7826SOL    HW234938   1.054   3.295   5.019 -0.8582 -0.5844 -1.5717
 7827SOL     OW34939   4.070   2.256   6.109 -0.2140  0.0848 -0.2235
 7827SOL    HW134940   4.138   2.190   6.125  0.0308 -0.1357 -2.1687
 7827SOL    HW234941   4.113   2.308   6.041 -2.2365  1.3623 -0.5194
 7828SOL     OW34942   1.094   2.035   6.965  0.4884 -0.1145  0.1205
 7828SOL    HW134943   1.161   2.103   6.964 -1.0392  1.4258  1.5598
 7828SOL    HW234944   1.018   2.086   6.937  0.6948 -0.5006 -1.1709
 7829SOL     OW34945   3.791   4.375   5.811 -0.6875  0.6487  0.3451
 7829SOL    HW134946   3.802   4.397   5.904  0.6633  0.8444  0.1476
 7829SOL    HW234947   3.871   4.407   5.769 -1.7071 -0.1794 -2.2232
 7830SOL     OW34948   2.558   3.053  17.386  0.3987 -1.3225 -0.3132
 7830SOL    HW134949   2.471   3.029  17.354 -0.4102  3.3279 -1.5924
 7830SOL    HW234950   2.605   3.078  17.306 -1.5213 -1.7317 -1.5651
 7831SOL     OW34951   0.442   4.549   3.880  0.2065  0.1132 -0.0011
 7831SOL    HW134952   0.445   4.533   3.975  1.0967  1.1112  0.1465
 7831SOL    HW234953   0.436   4.643   3.864 -1.2324 -0.2119 -1.3165
 7832SOL     OW34954   1.154   4.508   9.068 -0.2394 -0.3234  0.1339
 7832SOL    HW134955   1.088   4.485   9.133 -0.2353 -0.4971  0.0771
 7832SOL    HW234956   1.200   4.580   9.111  0.4953  0.1435 -1.4245
 7833SOL     OW34957   3.283   1.178   8.607 -0.0155 -0.2426  0.3048
 7833SOL    HW134958   3.232   1.197   8.686  0.5246 -0.0852  0.6147
 7833SOL    HW234959   3.312   1.087   8.613  0.8000  0.0509  0.8586
 7834SOL     OW34960   3.320   1.591   1.089 -0.5976  0.3205  0.0162
 7834SOL    HW134961   3.232   1.559   1.068 -1.2000  1.4886  0.7412
 7834SOL    HW234962   3.367   1.545   1.019 -0.5097  1.8313 -0.9248
 7835SOL     OW34963   0.616   2.425  13.636 -0.0104  0.6926  0.4672
 7835SOL    HW134964   0.561   2.497  13.603  0.2219  0.2390 -0.9022
 7835SOL    HW234965   0.573   2.406  13.719 -0.0179 -2.0470 -0.1857
 7836SOL     OW34966   1.662   3.457   3.513 -0.5901 -0.8432  0.8798
 7836SOL    HW134967   1.603   3.391   3.478 -0.7104  1.1429 -2.6502
 7836SOL    HW234968   1.656   3.443   3.608  1.9618  2.4571  1.5292
 7837SOL     OW34969   2.644   1.612   9.356  0.0443  0.1717 -0.3493
 7837SOL    HW134970   2.730   1.620   9.315 -0.6304  1.4138 -1.4997
 7837SOL    HW234971   2.611   1.699   9.332  1.0452  0.6028 -0.1714
 7838SOL     OW34972   0.851   1.454   4.680  0.1151  0.0670 -0.3414
 7838SOL    HW134973   0.802   1.491   4.753 -0.0502 -0.6850 -0.0702
 7838SOL    HW234974   0.870   1.369   4.719 -1.3535 -0.0984  0.0076
 7839SOL     OW34975   3.154   1.969   8.146  0.3983  0.2499 -0.2583
 7839SOL    HW134976   3.221   1.907   8.176  0.5499 -0.3983 -1.9286
 7839SOL    HW234977   3.143   1.954   8.053 -1.6325 -2.4685  0.4430
 7840SOL     OW34978   3.298   2.929  17.245 -0.1011 -0.4582 -0.5529
 7840SOL    HW134979   3.374   2.957  17.296 -0.3265 -0.5660 -0.1650
 7840SOL    HW234980   3.285   3.015  17.206  0.4670  0.6051  1.6676
 7841SOL     OW34981   0.242   1.867   9.123  0.2930  0.9930  0.0182
 7841SOL    HW134982   0.233   1.945   9.178 -0.2417  0.2786  0.9573
 7841SOL    HW234983   0.151   1.838   9.115  0.1055  1.3059  1.0755
 7842SOL     OW34984   2.396   3.800   2.441 -0.0153  0.7310 -0.2399
 7842SOL    HW134985   2.433   3.753   2.367  0.9773  1.5678 -0.2798
 7842SOL    HW234986   2.329   3.858   2.404  0.9949  1.1067 -1.4839
 7843SOL     OW34987   3.958   2.233  17.560  0.2546 -0.0029 -0.0110
 7843SOL    HW134988   3.876   2.244  17.514 -0.2752 -2.1901  0.4163
 7843SOL    HW234989   3.952   2.152  17.610 -1.8935  0.1719  0.0147
 7844SOL     OW34990   4.098   1.641  17.496 -0.0951  0.0808 -0.2615
 7844SOL    HW134991   4.069   1.556  17.464  1.1638 -0.6935  0.6274
 7844SOL    HW234992   4.121   1.689  17.417  0.3498  1.0425  0.4475
 7845SOL     OW34993   4.684   0.282  13.522 -0.1584  0.9504  0.2733
 7845SOL    HW134994   0.005   0.259  13.443 -1.8937  1.4520 -0.9258
 7845SOL    HW234995   4.655   0.371  13.500 -1.3218  0.3380 -0.6703
 7846SOL     OW34996   1.177   3.363   5.599  0.0485 -0.3481 -0.4293
 7846SOL    HW134997   1.157   3.374   5.506  3.4786 -0.1869 -1.1589
 7846SOL    HW234998   1.090   3.350   5.637  0.2653  1.0532  0.5516
 7847SOL     OW34999   3.923   2.011   8.802 -0.2537 -0.2070  0.5632
 7847SOL    HW135000   3.963   1.982   8.883  0.4072 -2.1252 -0.4538
 7847SOL    HW235001   4.000   1.998   8.746  0.3383  0.7075  1.1702
 7848SOL     OW35002   3.072   0.195   3.702  0.5959 -0.1210  0.0937
 7848SOL    HW135003   3.155   0.159   3.733  0.1281 -0.1109  1.3462
 7848SOL    HW235004   3.094   0.219   3.612 -0.1986 -0.1624 -0.1179
 7849SOL     OW35005   2.283   3.531   4.235  0.3514 -0.1024  1.0340
 7849SOL    HW135006   2.229   3.500   4.307  0.0763 -3.9377 -0.8662
 7849SOL    HW235007   2.308   3.445   4.201 -0.6544  0.1179 -0.2442
 7850SOL     OW35008   4.720   4.114   1.282 -0.1413 -0.0612  0.5381
 7850SOL    HW135009   4.726   4.172   1.357 -1.1583 -2.8194  2.7412
 7850SOL    HW235010   4.656   4.047   1.304 -2.1750  1.7075  0.0026
 7851SOL     OW35011   2.587   4.526   9.887  0.4829  0.3747 -0.7203
 7851SOL    HW135012   2.643   4.467   9.838  0.0087  0.6151 -1.5548
 7851SOL    HW235013   2.619   4.613   9.865  2.4308 -0.2469 -0.2940
 7852SOL     OW35014   1.796   2.908   2.310  0.1232  0.7024 -0.4972
 7852SOL    HW135015   1.834   2.981   2.262 -2.0190 -1.6502 -5.7394
 7852SOL    HW235016   1.787   2.849   2.235  2.0630 -0.2535  0.0294
 7853SOL     OW35017   3.162   0.981  12.119 -0.2635  0.8076 -0.3862
 7853SOL    HW135018   3.190   0.969  12.029  1.0985 -0.1766  0.1625
 7853SOL    HW235019   3.172   1.074  12.139 -0.5612  0.2666  2.3966
 7854SOL     OW35020   1.258   0.593   3.965 -0.3988 -0.0574  0.2800
 7854SOL    HW135021   1.229   0.558   3.881  2.0890 -0.2147 -0.5209
 7854SOL    HW235022   1.350   0.616   3.951 -0.3762 -0.4499 -0.2128
 7855SOL     OW35023   0.144   1.819   5.045 -0.1704  0.0091  0.0600
 7855SOL    HW135024   0.123   1.903   5.086 -0.2519 -0.3687  0.7886
 7855SOL    HW235025   0.174   1.758   5.112 -1.1198 -0.4716  0.0446
 7856SOL     OW35026   4.106   1.336  10.888 -0.7490  0.0790 -0.3670
 7856SOL    HW135027   4.161   1.280  10.943 -0.0789  0.6007 -0.5127
 7856SOL    HW235028   4.160   1.343  10.809  0.4104  0.6110  0.4809
 7857SOL     OW35029   4.042   4.080   3.871  0.4349  0.6312 -0.6249
 7857SOL    HW135030   4.053   4.126   3.955 -1.8624 -0.0420  0.0681
 7857SOL    HW235031   3.956   4.116   3.847  0.1272 -0.3314 -0.9597
 7858SOL     OW35032   3.623   2.148   9.124 -0.2148 -0.0979 -0.4234
 7858SOL    HW135033   3.559   2.079   9.139 -0.3078  0.2067  0.6075
 7858SOL    HW235034   3.558   2.217   9.107 -0.1115  0.1668  0.2425
 7859SOL     OW35035   4.138   3.964  11.233 -0.1394  0.3734  0.1973
 7859SOL    HW135036   4.048   3.996  11.239 -0.7208 -1.4910  1.1455
 7859SOL    HW235037   4.189   4.045  11.239 -0.1039  0.3468  0.2523
 7860SOL     OW35038   3.509   1.733   4.286 -0.1180  0.0171  0.2519
 7860SOL    HW135039   3.569   1.741   4.212  0.9389 -0.1625  1.0901
 7860SOL    HW235040   3.508   1.823   4.318 -1.3016  0.1565 -0.1856
 7861SOL     OW35041   0.015   3.038   6.039 -0.2533 -0.0806 -0.5084
 7861SOL    HW135042   0.004   2.946   6.066  2.1423 -0.0256  0.6780
 7861SOL    HW235043   4.674   3.087   6.084 -1.3945 -1.5030 -0.6873
 7862SOL     OW35044   1.117   3.314   2.322  0.3592 -0.1564 -0.7183
 7862SOL    HW135045   1.212   3.308   2.321  0.3845 -0.1601  2.1545
 7862SOL    HW235046   1.101   3.262   2.243 -0.7470 -0.0188 -0.5928
 7863SOL     OW35047   1.105   2.394   0.561  0.0243 -0.5809 -0.5987
 7863SOL    HW135048   1.015   2.426   0.564 -0.9066 -3.2943  0.6220
 7863SOL    HW235049   1.089   2.313   0.610  0.4009 -0.6938 -0.6637
 7864SOL     OW35050   2.241   0.287   2.757 -0.0723 -0.9178  0.4677
 7864SOL    HW135051   2.188   0.323   2.685 -0.6876 -0.7798  0.9903
 7864SOL    HW235052   2.171   0.271   2.820  0.8705 -1.6791  1.3144
 7865SOL     OW35053   1.903   2.445   2.701  0.4067 -0.3399  0.4258
 7865SOL    HW135054   1.889   2.527   2.748 -0.2407  0.6091 -1.4058
 7865SOL    HW235055   1.973   2.481   2.646 -1.1109  1.2915 -0.4436
 7866SOL     OW35056   1.031   1.085   5.694 -0.5502  0.0764  0.3795
 7866SOL    HW135057   0.959   1.076   5.631  0.0495  0.5768 -0.3654
 7866SOL    HW235058   1.025   0.998   5.735 -0.0637  0.8291  2.0488
 7867SOL     OW35059   0.814   0.861   6.696  0.0368 -0.0046  0.0933
 7867SOL    HW135060   0.739   0.820   6.654 -0.6827  0.4812  0.9162
 7867SOL    HW235061   0.768   0.944   6.701 -1.1780 -0.7352  1.1457
 7868SOL     OW35062   1.421   1.289   6.348 -0.2068  0.0141  0.0204
 7868SOL    HW135063   1.344   1.305   6.295  0.0178 -1.9257 -0.8816
 7868SOL    HW235064   1.434   1.194   6.358  1.2484 -0.3085 -4.8481
 7869SOL     OW35065   3.636   1.786   9.066 -0.4667 -0.0981 -0.2787
 7869SOL    HW135066   3.665   1.846   8.998 -1.2627 -0.8046 -1.2523
 7869SOL    HW235067   3.568   1.842   9.104 -0.5022 -0.7600  0.6270
 7870SOL     OW35068   2.115   4.584   7.202  0.0882  0.0371  0.1862
 7870SOL    HW135069   2.087   4.504   7.245  0.1617 -0.0242  0.1202
 7870SOL    HW235070   2.047   4.597   7.136 -1.1901  1.0938  1.7468
 7871SOL     OW35071   0.942   4.594   4.470 -0.0257 -0.3458  0.2849
 7871SOL    HW135072   0.875   4.657   4.445  0.7760 -0.2179 -1.5319
 7871SOL    HW235073   0.978   4.562   4.387  0.5087 -0.0233  0.3938
 7872SOL     OW35074   2.026   0.408   5.671  0.0205 -0.7970  0.3656
 7872SOL    HW135075   1.994   0.435   5.584 -0.5826  0.3501  0.9415
 7872SOL    HW235076   2.060   0.320   5.652 -0.0370 -0.8841  0.6783
 7873SOL     OW35077   3.786   1.915   2.871  0.0157 -0.3190  0.2259
 7873SOL    HW135078   3.720   1.846   2.870 -0.5053  0.1767  0.3438
 7873SOL    HW235079   3.863   1.862   2.891 -0.9940 -0.9394  2.4857
 7874SOL     OW35080   4.609   3.233   2.922 -0.1500  0.1895  0.1298
 7874SOL    HW135081   4.675   3.276   2.868  0.9283  0.7523  1.8933
 7874SOL    HW235082   4.574   3.318   2.948  1.9059  1.0025  0.2305
 7875SOL     OW35083   2.855   0.165   5.165 -0.3163  0.1712 -0.4924
 7875SOL    HW135084   2.793   0.237   5.152  0.8597  0.9721 -1.6791
 7875SOL    HW235085   2.937   0.213   5.157 -0.0216 -0.6462 -2.3259
 7876SOL     OW35086   2.646   3.653   1.203  0.0387 -0.2741 -0.4333
 7876SOL    HW135087   2.673   3.729   1.150  3.8509 -0.4302  1.2246
 7876SOL    HW235088   2.551   3.665   1.201  0.0316  0.0940  2.0319
 7877SOL     OW35089   2.037   1.753   6.542 -0.5608  0.2733  0.3593
 7877SOL    HW135090   1.980   1.818   6.583  0.6926  1.7163 -0.1515
 7877SOL    HW235091   2.040   1.693   6.616  1.2474  0.8658  0.7644
 7878SOL     OW35092   0.656   3.076   6.060  0.2129 -0.0450 -0.4798
 7878SOL    HW135093   0.672   3.050   5.969  2.0288 -0.2177 -0.1057
 7878SOL    HW235094   0.612   3.004   6.107  1.6294 -0.6918 -0.1573
 7879SOL     OW35095   1.100   3.068  11.167  0.0152 -0.2070  0.0481
 7879SOL    HW135096   1.008   3.046  11.180  0.8557 -3.3632  0.8630
 7879SOL    HW235097   1.110   3.161  11.146 -1.4095 -0.3887 -1.4028
 7880SOL     OW35098   1.214   0.123   8.462  0.4123  0.4632 -0.4589
 7880SOL    HW135099   1.214   0.207   8.508 -0.3911  0.1069  0.1801
 7880SOL    HW235100   1.257   0.159   8.384 -2.3108 -0.1192 -2.2304
 7881SOL     OW35101   3.633   0.611  14.358  0.0963  0.4738 -0.1636
 7881SOL    HW135102   3.543   0.637  14.378 -0.0100 -0.9059  1.1747
 7881SOL    HW235103   3.630   0.600  14.263 -0.3543 -0.1970 -0.0735
 7882SOL     OW35104   3.120   1.480  12.584  0.2651 -0.3498  0.6360
 7882SOL    HW135105   3.173   1.546  12.540 -0.2861 -0.8247 -0.7383
 7882SOL    HW235106   3.119   1.507  12.676  0.6327 -0.5328  0.6943
 7883SOL     OW35107   1.023   3.865   2.663  0.1334 -0.3672 -0.6717
 7883SOL    HW135108   1.111   3.832   2.676  0.7001  1.7527  0.9287
 7883SOL    HW235109   1.006   3.903   2.749 -4.5475 -2.3695 -0.6707
 7884SOL     OW35110   2.952   3.692   6.450  0.3164  0.5059 -0.6092
 7884SOL    HW135111   2.932   3.654   6.364  1.8001 -2.3323  0.2891
 7884SOL    HW235112   3.043   3.666   6.459 -0.3148 -2.0351 -1.5096
 7885SOL     OW35113   2.785   0.705   1.643  0.7287 -0.1202  0.2022
 7885SOL    HW135114   2.798   0.795   1.673 -1.3605  0.5661 -0.8995
 7885SOL    HW235115   2.692   0.697   1.622  0.8340  1.4941 -0.9325
 7886SOL     OW35116   2.420   4.497   4.612 -0.4453 -0.8672 -0.2635
 7886SOL    HW135117   2.385   4.584   4.633  1.1158 -0.7456  1.9519
 7886SOL    HW235118   2.361   4.440   4.662  0.5844 -1.3598  0.3898
 7887SOL     OW35119   1.579   3.910   4.913  0.2073  0.2522  0.0580
 7887SOL    HW135120   1.673   3.921   4.927  0.0925  1.2572 -0.0129
 7887SOL    HW235121   1.573   3.828   4.962  0.5903  0.3089  0.1970
 7888SOL     OW35122   0.962   0.814  10.869  0.1931  0.1342  0.1764
 7888SOL    HW135123   1.028   0.848  10.929  1.3724 -0.8888 -0.5488
 7888SOL    HW235124   0.888   0.819  10.930 -0.9906  2.0371 -1.4220
 7889SOL     OW35125   4.275   2.389   2.830 -0.3900 -0.8755 -0.4587
 7889SOL    HW135126   4.349   2.330   2.843 -0.8759 -1.4425 -0.2813
 7889SOL    HW235127   4.233   2.383   2.916  2.5643  1.1553  1.1370
 7890SOL     OW35128   0.855   4.193   4.467 -0.2503 -0.2255  0.4039
 7890SOL    HW135129   0.881   4.254   4.536  1.0894 -0.6228  0.2438
 7890SOL    HW235130   0.822   4.249   4.396  0.3374 -2.0178 -1.2728
 7891SOL     OW35131   2.509   0.027   2.016  0.7503 -0.2203 -0.3235
 7891SOL    HW135132   2.540   0.027   2.107  2.3058 -2.1454 -0.8539
 7891SOL    HW235133   2.461   0.110   2.015 -1.5884 -1.5745  0.1903
 7892SOL     OW35134   3.120   0.615  15.336 -0.0451 -0.0200  0.1944
 7892SOL    HW135135   3.190   0.557  15.306 -1.2932 -1.7503  0.6323
 7892SOL    HW235136   3.146   0.650  15.421  2.1330 -1.8936  0.2910
 7893SOL     OW35137   1.644   4.404   2.402  0.0331 -0.1816 -0.2715
 7893SOL    HW135138   1.726   4.448   2.381 -0.2668  0.1552 -0.7596
 7893SOL    HW235139   1.590   4.473   2.441  0.3938 -0.0170 -0.0623
 7894SOL     OW35140   0.466   2.356   7.270 -0.9182 -0.2760 -0.0760
 7894SOL    HW135141   0.443   2.338   7.361 -0.6254 -1.5701 -0.2493
 7894SOL    HW235142   0.537   2.417   7.290  0.1921 -1.4446 -0.4205
 7895SOL     OW35143   2.116   1.344   3.923  0.2106  0.7938 -0.4143
 7895SOL    HW135144   2.053   1.410   3.893 -1.0368 -0.4465 -0.4988
 7895SOL    HW235145   2.192   1.381   3.879  1.5801 -1.5230  0.0248
 7896SOL     OW35146   3.728   2.071  10.736  0.2109 -0.1775 -0.5018
 7896SOL    HW135147   3.778   2.103  10.661 -1.2235  1.3082 -0.8447
 7896SOL    HW235148   3.661   2.014  10.696 -0.3048  0.1109 -0.0493
 7897SOL     OW35149   1.401   2.831   5.473 -0.0604  0.0973 -0.0785
 7897SOL    HW135150   1.366   2.773   5.540 -0.8655 -1.4985 -1.9228
 7897SOL    HW235151   1.467   2.783   5.423  0.9090 -0.3243  1.5826
 7898SOL     OW35152   2.181   0.623   4.312  0.0020 -0.2773 -0.6056
 7898SOL    HW135153   2.247   0.627   4.243 -0.6269  0.9031 -1.1300
 7898SOL    HW235154   2.144   0.535   4.303 -1.3563  0.0039  2.1188
 7899SOL     OW35155   1.447   0.334  16.631 -0.0210  0.0204  0.0405
 7899SOL    HW135156   1.530   0.354  16.589  0.3196 -1.1616  0.1443
 7899SOL    HW235157   1.429   0.243  16.606  0.4547  0.4694 -1.9313
 7900SOL     OW35158   1.204   4.324   7.022  0.2470  0.5395  0.0591
 7900SOL    HW135159   1.146   4.338   6.947 -0.1548  3.7842  0.9945
 7900SOL    HW235160   1.214   4.229   7.021  0.0755  0.5274 -0.5247
 7901SOL     OW35161   2.446   3.776   4.733  0.4301 -0.0365  0.2668
 7901SOL    HW135162   2.488   3.745   4.653  0.7207 -0.6874  0.6674
 7901SOL    HW235163   2.365   3.726   4.721  0.9926 -1.3905  2.1395
 7902SOL     OW35164   0.800   0.447   7.159 -0.2248 -0.6855 -0.2007
 7902SOL    HW135165   0.769   0.534   7.185  1.0363  0.1358 -1.4117
 7902SOL    HW235166   0.889   0.444   7.195  0.0380 -0.7366 -0.8424
 7903SOL     OW35167   2.843   1.112  16.204  0.0663  0.0962  0.1413
 7903SOL    HW135168   2.788   1.036  16.217  0.6261 -0.4488 -0.6891
 7903SOL    HW235169   2.807   1.173  16.268 -2.2951 -1.9484  0.7056
 7904SOL     OW35170   2.675   2.750   7.329 -0.6176 -0.0536  0.4002
 7904SOL    HW135171   2.666   2.823   7.389 -0.7341  1.9150 -2.0245
 7904SOL    HW235172   2.583   2.743   7.302 -0.7676 -1.6110  1.3169
 7905SOL     OW35173   1.430   4.270   4.281 -0.6439  0.6978  0.0939
 7905SOL    HW135174   1.427   4.195   4.222 -0.6712  0.9504 -0.2293
 7905SOL    HW235175   1.398   4.333   4.216 -1.2253  2.5332  2.1791
 7906SOL     OW35176   3.404   2.602   3.806  0.3195  0.3269 -0.0338
 7906SOL    HW135177   3.357   2.652   3.740  2.5030  1.2062 -0.9117
 7906SOL    HW235178   3.342   2.621   3.877  0.7683  1.5508  0.0259
 7907SOL     OW35179   2.639   4.247   4.202 -0.2292 -0.0337 -0.1177
 7907SOL    HW135180   2.576   4.265   4.272  1.8768  1.0058  1.4886
 7907SOL    HW235181   2.719   4.293   4.227  0.6769 -0.1960 -2.6832
 7908SOL     OW35182   1.860   1.987   1.475 -0.3544  0.4908  0.1759
 7908SOL    HW135183   1.803   2.063   1.470 -0.7937  0.0920 -0.8426
 7908SOL    HW235184   1.929   2.024   1.531  1.0766  0.1767 -1.3786
 7909SOL     OW35185   3.886   0.783   8.688  0.6326  0.5103 -0.1159
 7909SOL    HW135186   3.878   0.876   8.666 -1.0757  0.1553 -0.9954
 7909SOL    HW235187   3.956   0.788   8.753 -0.4198  0.7802  0.9915
 7910SOL     OW35188   3.748   3.951  10.105  0.4981  0.0517 -0.3356
 7910SOL    HW135189   3.725   4.043  10.091  1.2482  0.3482  0.3657
 7910SOL    HW235190   3.732   3.906  10.022  0.9389  1.0990 -0.9941
 7911SOL     OW35191   3.573   0.072   9.451  0.0478 -0.2270 -0.0463
 7911SOL    HW135192   3.501   0.047   9.509  0.4398 -0.2207  0.4426
 7911SOL    HW235193   3.542   0.162   9.436 -1.1265 -0.5194  0.5967
 7912SOL     OW35194   0.511   1.666   4.022 -0.0225  0.3800 -0.0722
 7912SOL    HW135195   0.589   1.655   4.076 -0.1281 -2.4954 -0.5420
 7912SOL    HW235196   0.541   1.739   3.968 -0.6850 -1.0673 -2.3576
 7913SOL     OW35197   1.441   2.574  12.907  0.3768 -0.2181 -0.4831
 7913SOL    HW135198   1.488   2.544  12.985 -0.1253 -2.5420 -1.0821
 7913SOL    HW235199   1.397   2.491  12.887  0.6254 -0.3500 -0.4841
 7914SOL     OW35200   0.397   2.969  11.893 -0.0240 -0.8902 -0.3398
 7914SOL    HW135201   0.460   2.898  11.891 -0.6874 -1.4949  0.4577
 7914SOL    HW235202   0.418   3.007  11.807 -0.7937  0.9789  0.2870
 7915SOL     OW35203   4.696   3.235   6.995  0.1953 -0.5647 -0.3784
 7915SOL    HW135204   0.014   3.319   6.990  1.5412 -1.2691 -0.0489
 7915SOL    HW235205   0.042   3.175   6.980 -0.1860 -0.7982 -1.3298
 7916SOL     OW35206   2.763   1.361   3.907  0.1740  0.4385 -0.5532
 7916SOL    HW135207   2.804   1.395   3.986  3.3058 -1.1203 -1.5041
 7916SOL    HW235208   2.706   1.437   3.892  0.4393  0.6267 -0.5934
 7917SOL     OW35209   3.550   2.758   4.564 -0.1285  0.4408  0.5202
 7917SOL    HW135210   3.473   2.754   4.507 -1.1440  0.6190  1.8798
 7917SOL    HW235211   3.597   2.833   4.529  2.1222 -0.3379  1.8349
 7918SOL     OW35212   3.207   2.459   7.973  0.2306  0.4126  0.7176
 7918SOL    HW135213   3.118   2.433   7.997  0.2623  0.9518  1.4177
 7918SOL    HW235214   3.250   2.478   8.056 -0.5444  0.7307  1.0507
 7919SOL     OW35215   0.827   4.564   6.451  0.0460  0.7056  0.5074
 7919SOL    HW135216   0.922   4.572   6.441 -0.1633  0.2230 -1.8837
 7919SOL    HW235217   0.805   4.490   6.395 -1.9272  1.1433  0.7064
 7920SOL     OW35218   3.893   1.864   7.525  0.0135 -0.3109  0.6218
 7920SOL    HW135219   3.834   1.879   7.451  1.3337 -2.1728 -0.7987
 7920SOL    HW235220   3.831   1.834   7.592  1.6800 -2.6515  1.1220
 7921SOL     OW35221   1.065   4.000  16.850 -0.3151  0.3246  0.4516
 7921SOL    HW135222   1.023   4.068  16.902  0.9930  1.6899 -0.2537
 7921SOL    HW235223   1.145   3.979  16.899 -0.8743 -1.4305  0.6004
 7922SOL     OW35224   4.345   3.113  11.435  0.1058  0.3645  0.4175
 7922SOL    HW135225   4.389   3.034  11.467  0.2517 -0.1309 -1.0120
 7922SOL    HW235226   4.375   3.166  11.509 -0.0145 -0.0890  0.7910
 7923SOL     OW35227   3.875   3.133   8.926 -1.0464  0.6455  0.1114
 7923SOL    HW135228   3.918   3.077   8.991 -0.6771  0.5096 -0.2579
 7923SOL    HW235229   3.825   3.189   8.986  1.9474  1.1114  2.1663
 7924SOL     OW35230   2.625   3.361  13.685 -0.3031  0.3642  0.5305
 7924SOL    HW135231   2.663   3.295  13.743 -1.8131  0.1776  1.3221
 7924SOL    HW235232   2.702   3.385  13.635 -0.3203 -1.0896 -0.1939
 7925SOL     OW35233   3.812   4.051  15.477 -0.3606  0.4258 -0.3522
 7925SOL    HW135234   3.906   4.046  15.489 -0.3382  0.6469 -0.4414
 7925SOL    HW235235   3.778   4.064  15.566  0.4890  2.3228 -0.3242
 7926SOL     OW35236   1.639   3.465  12.024  0.6052 -0.5826 -0.5858
 7926SOL    HW135237   1.559   3.516  12.011  1.1610  1.3237  3.5714
 7926SOL    HW235238   1.709   3.522  11.992  0.1055  0.9188  1.0206
 7927SOL     OW35239   0.280   0.630   8.832  0.2800 -0.3124 -0.3507
 7927SOL    HW135240   0.285   0.719   8.866  2.1123 -1.0385  1.2886
 7927SOL    HW235241   0.286   0.634   8.737 -0.5379  2.0318 -0.3002
 7928SOL     OW35242   0.293   3.951   3.849 -0.2001 -0.2352  0.0518
 7928SOL    HW135243   0.258   4.020   3.791 -1.9615  0.4277  1.8789
 7928SOL    HW235244   0.222   3.888   3.839 -0.3423 -0.2720  1.2768
 7929SOL     OW35245   2.192   3.676   5.167 -0.2580  0.0715 -0.2917
 7929SOL    HW135246   2.278   3.679   5.124  0.9464  0.3173  2.1613
 7929SOL    HW235247   2.210   3.594   5.213 -2.5725 -1.3686 -1.9515
 7930SOL     OW35248   2.118   2.740   1.940  0.4826  0.2838  0.2896
 7930SOL    HW135249   2.180   2.715   1.872 -0.1146  4.1089 -1.6462
 7930SOL    HW235250   2.065   2.661   1.956  0.3630  0.0954 -1.1102
 7931SOL     OW35251   2.929   1.502  13.289  0.4743 -0.2798 -0.2425
 7931SOL    HW135252   2.879   1.423  13.268  0.4234 -1.0068  2.6911
 7931SOL    HW235253   2.939   1.529  13.198  1.6688 -1.8394 -0.5750
 7932SOL     OW35254   0.095   3.943  12.540 -0.4317  0.4732  0.1613
 7932SOL    HW135255   0.020   3.944  12.599  2.3360 -1.1633  3.7001
 7932SOL    HW235256   0.162   3.992  12.587  0.3164 -3.1648  2.9311
 7933SOL     OW35257   0.922   3.493  11.680 -0.1173 -0.0254 -0.6909
 7933SOL    HW135258   1.006   3.464  11.645 -0.1839 -2.0968  0.9061
 7933SOL    HW235259   0.918   3.584  11.651  2.5320  0.2641 -0.0933
 7934SOL     OW35260   3.678   3.185   7.644 -0.4147 -0.0042 -0.4179
 7934SOL    HW135261   3.769   3.174   7.614 -0.2388  1.3204 -0.3551
 7934SOL    HW235262   3.636   3.125   7.581  4.2497 -2.4626 -1.2143
 7935SOL     OW35263   2.348   0.876   4.523 -0.3783 -0.1306 -0.2481
 7935SOL    HW135264   2.269   0.854   4.573 -0.8318  0.6051 -0.6473
 7935SOL    HW235265   2.319   0.884   4.432 -1.7744 -3.4685 -0.0947
 7936SOL     OW35266   3.315   1.574   4.259  0.7318  0.0915  0.1374
 7936SOL    HW135267   3.380   1.641   4.280  3.1762 -2.2785  0.1016
 7936SOL    HW235268   3.342   1.547   4.171  2.1400  1.8691  0.0231
 7937SOL     OW35269   0.892   1.655   9.358 -0.0027 -0.1761 -0.1912
 7937SOL    HW135270   0.979   1.665   9.397  0.8991 -0.8966 -1.9982
 7937SOL    HW235271   0.893   1.560   9.348  1.3589 -0.6104  3.9516
 7938SOL     OW35272   2.133   4.409   6.045 -0.5242  0.1494 -0.4967
 7938SOL    HW135273   2.070   4.388   6.115 -1.0603  1.7087 -0.5055
 7938SOL    HW235274   2.120   4.503   6.028 -1.0501 -0.3244 -2.6566
 7939SOL     OW35275   1.826   1.568   4.805 -0.3189  0.0959  0.3014
 7939SOL    HW135276   1.788   1.540   4.888  1.5521 -1.1507  0.7478
 7939SOL    HW235277   1.887   1.637   4.832 -1.2625  0.6926  0.9127
 7940SOL     OW35278   0.737   4.607   7.281  0.0397 -0.1066 -0.7236
 7940SOL    HW135279   0.755   4.687   7.330  1.7407 -1.2210  0.4834
 7940SOL    HW235280   0.818   4.599   7.229 -0.3800  1.5339 -1.6440
 7941SOL     OW35281   1.749   2.064   5.472  0.3349  0.0880  0.5275
 7941SOL    HW135282   1.767   2.100   5.385  3.5931 -0.1647  1.0868
 7941SOL    HW235283   1.655   2.063   5.460  0.0494  3.1063  2.5352
 7942SOL     OW35284   0.446   0.978   6.384  0.3792  0.2575 -0.1635
 7942SOL    HW135285   0.434   0.887   6.359 -2.4362  0.3323  0.9127
 7942SOL    HW235286   0.380   1.021   6.331 -1.3100 -1.4220  0.5842
 7943SOL     OW35287   2.240   2.469   7.806 -0.6063  0.3925  0.1154
 7943SOL    HW135288   2.227   2.375   7.796 -3.7709  0.9755 -1.3723
 7943SOL    HW235289   2.332   2.469   7.832 -0.6909  1.0320  0.4271
 7944SOL     OW35290   2.179   0.811   0.574  0.1933 -0.4731 -0.0168
 7944SOL    HW135291   2.102   0.756   0.558 -0.3556  0.1783  0.3892
 7944SOL    HW235292   2.239   0.764   0.516 -1.2189 -0.3626 -1.5494
 7945SOL     OW35293   4.701   3.521  15.090 -0.0521  0.7961 -0.3986
 7945SOL    HW135294   4.635   3.459  15.059  1.3649 -1.5090  1.1585
 7945SOL    HW235295   0.036   3.519  15.017  0.8418  1.9896  0.3364
 7946SOL     OW35296   2.197   1.597   3.730 -1.0526 -0.7000 -0.2111
 7946SOL    HW135297   2.118   1.544   3.724 -1.3235 -0.3058 -0.1108
 7946SOL    HW235298   2.215   1.630   3.641  1.3945 -1.6921 -0.0916
 7947SOL     OW35299   4.089   3.814   2.143  0.3464 -0.3700  0.2081
 7947SOL    HW135300   4.129   3.881   2.199  1.1654  0.2192 -1.0786
 7947SOL    HW235301   4.167   3.779   2.101 -0.1710 -0.8789 -0.3278
 7948SOL     OW35302   3.175   3.583   2.473 -1.0735  0.3381 -0.5451
 7948SOL    HW135303   3.261   3.556   2.506 -1.9204 -1.7472 -0.0455
 7948SOL    HW235304   3.142   3.508   2.423  1.2365  0.8156 -2.7746
 7949SOL     OW35305   1.205   1.474   3.930 -0.2599 -0.8204 -0.2884
 7949SOL    HW135306   1.268   1.437   3.868 -0.1177 -2.0331  0.5812
 7949SOL    HW235307   1.253   1.526   3.994  2.1667 -1.2519 -1.7537
 7950SOL     OW35308   3.368   4.492   3.809 -0.3613  0.1106 -0.2144
 7950SOL    HW135309   3.313   4.555   3.856 -2.6584 -0.4179 -2.1606
 7950SOL    HW235310   3.354   4.520   3.718  2.3723 -0.6513 -0.8696
 7951SOL     OW35311   4.247   3.779   8.899 -0.2788  0.3374 -0.1823
 7951SOL    HW135312   4.262   3.743   8.811  0.0031 -1.0122  0.4151
 7951SOL    HW235313   4.272   3.868   8.874 -1.2496  0.3862 -0.9721
 7952SOL     OW35314   0.246   1.600   4.051 -0.1162 -0.0902  0.7545
 7952SOL    HW135315   0.341   1.613   4.046  0.0408 -0.9244  1.4406
 7952SOL    HW235316   0.217   1.651   4.127  0.4861  1.3192  0.0381
 7953SOL     OW35317   0.334   1.855   7.556  0.3662 -0.0429 -0.5037
 7953SOL    HW135318   0.378   1.797   7.494 -0.5837 -1.1239 -0.1683
 7953SOL    HW235319   0.345   1.792   7.628  2.3286 -0.6945 -1.3728
 7954SOL     OW35320   2.346   4.417   4.991  0.0957  0.2383  0.1673
 7954SOL    HW135321   2.420   4.476   5.006  0.5914 -0.0328 -1.2063
 7954SOL    HW235322   2.286   4.458   5.053 -0.0092 -1.5167  1.2145
 7955SOL     OW35323   0.016   3.273   2.259  0.1075  0.3092 -0.3011
 7955SOL    HW135324   0.099   3.232   2.283  0.5011  1.4556  0.3181
 7955SOL    HW235325   4.689   3.207   2.215  1.9503 -1.5231  0.2041
 7956SOL     OW35326   1.714   0.320   8.138  0.4730 -0.3536 -0.4923
 7956SOL    HW135327   1.716   0.328   8.043  0.9829  0.8791 -0.3759
 7956SOL    HW235328   1.751   0.403   8.167  0.7789 -0.1737 -1.4052
 7957SOL     OW35329   0.966   3.882   3.440  0.2130 -0.2956 -0.1752
 7957SOL    HW135330   0.940   3.791   3.427 -0.3832 -0.3303  1.2696
 7957SOL    HW235331   1.045   3.885   3.386 -0.4623  0.0474 -1.1476
 7958SOL     OW35332   1.730   3.503   8.060 -0.2686  0.2774 -0.2288
 7958SOL    HW135333   1.814   3.543   8.040 -0.3750  0.0321 -1.1665
 7958SOL    HW235334   1.716   3.425   8.006 -0.4901 -0.6920  1.2099
 7959SOL     OW35335   3.564   3.975   1.264 -0.3023 -0.0657  0.4252
 7959SOL    HW135336   3.567   4.070   1.272  2.0267  0.0490 -1.8098
 7959SOL    HW235337   3.609   3.938   1.339 -1.3401  2.7887  2.4357
 7960SOL     OW35338   1.818   2.945   2.601 -0.5246 -0.1311  0.0701
 7960SOL    HW135339   1.874   3.020   2.621 -0.2627 -0.6435  1.2533
 7960SOL    HW235340   1.812   2.952   2.506  0.5990 -0.5367 -0.0291
 7961SOL     OW35341   0.300   0.002   2.821 -0.6839  0.2582  0.4692
 7961SOL    HW135342   0.259   0.082   2.853 -1.4347  0.0858 -0.0531
 7961SOL    HW235343   0.248   4.715   2.742  1.7370 -0.5299 -0.9748
 7962SOL     OW35344   4.475   4.596   4.770  0.6947 -0.2634  0.0171
 7962SOL    HW135345   4.436   4.664   4.824 -0.4646 -1.2578  0.4368
 7962SOL    HW235346   4.401   4.536   4.759 -1.1683  1.9688  0.3495
 7963SOL     OW35347   1.420   0.981   5.146 -0.0476 -0.2355 -0.2527
 7963SOL    HW135348   1.408   0.921   5.073 -1.8745  0.0712 -0.2095
 7963SOL    HW235349   1.482   0.933   5.201 -1.5619  0.0586  1.7438
 7964SOL     OW35350   3.661   4.584   8.037 -0.3436 -0.0070 -0.0897
 7964SOL    HW135351   3.669   4.489   8.043 -3.2341 -0.1668  1.5501
 7964SOL    HW235352   3.570   4.596   8.066 -0.2566  1.5460 -0.4957
 7965SOL     OW35353   2.025   0.332  17.674 -0.2109  0.1070  0.9240
 7965SOL    HW135354   2.108   0.368  17.705 -0.4592  0.2676  1.4064
 7965SOL    HW235355   1.966   0.352   0.036 -0.5167  0.1373  0.6699
 7966SOL     OW35356   2.230   3.581   3.804 -0.7377 -0.6163 -0.2221
 7966SOL    HW135357   2.143   3.548   3.782 -0.2787 -1.0655 -1.3733
 7966SOL    HW235358   2.209   3.664   3.847 -0.9669 -0.1496 -1.2372
 7967SOL     OW35359   1.749   1.415   2.468 -0.6574 -0.1648  0.0181
 7967SOL    HW135360   1.660   1.450   2.461 -1.1371 -1.1471  1.2907
 7967SOL    HW235361   1.739   1.323   2.443  1.7384 -0.3714 -0.1186
 7968SOL     OW35362   0.663   0.557   7.712 -0.6710 -0.5126  0.6456
 7968SOL    HW135363   0.716   0.602   7.779  0.2221 -1.8307  0.8295
 7968SOL    HW235364   0.578   0.595   7.734 -0.3168  0.0677  1.0485
 7969SOL     OW35365   3.133   3.026   4.973 -0.3350 -0.9266  0.0734
 7969SOL    HW135366   3.123   2.935   5.002  0.1852 -1.0175 -0.0379
 7969SOL    HW235367   3.097   3.075   5.046  1.0167 -0.3391  0.3361
 7970SOL     OW35368   2.897   2.593   9.761 -0.5665 -0.7474  0.1315
 7970SOL    HW135369   2.802   2.597   9.771 -0.7013 -0.6225 -1.2492
 7970SOL    HW235370   2.908   2.511   9.713 -0.5664 -1.6136  1.5888
 7971SOL     OW35371   1.210   0.971   3.813  0.5112  0.6347 -0.4213
 7971SOL    HW135372   1.297   0.957   3.850  0.8248  0.7121 -1.1355
 7971SOL    HW235373   1.155   0.939   3.885  1.5652 -1.5913 -0.6179
 7972SOL     OW35374   0.283   3.401   7.114 -0.0549  0.7055 -0.3523
 7972SOL    HW135375   0.212   3.441   7.063 -1.5105 -1.3394  0.0769
 7972SOL    HW235376   0.349   3.435   7.054  0.1211  0.2716 -0.4052
 7973SOL     OW35377   2.183   3.971  14.128 -0.9155  0.1947 -0.1671
 7973SOL    HW135378   2.214   4.061  14.141 -0.1603 -0.2621  1.2709
 7973SOL    HW235379   2.225   3.926  14.202  1.6578  1.2775 -0.9485
 7974SOL     OW35380   0.962   0.224  11.891 -0.0456 -0.8426  0.0774
 7974SOL    HW135381   0.881   0.249  11.935 -0.1477  1.0922 -1.1945
 7974SOL    HW235382   0.981   0.157  11.956  1.3184  0.0487  0.5970
 7975SOL     OW35383   1.705   3.490   5.003  0.2351 -0.0339 -0.0290
 7975SOL    HW135384   1.650   3.568   5.015 -1.0628 -1.1573  1.3505
 7975SOL    HW235385   1.717   3.447   5.088  2.2538 -0.6509 -0.6269
 7976SOL     OW35386   3.557   3.236  10.799 -0.1645 -0.2948  0.3934
 7976SOL    HW135387   3.482   3.179  10.818 -1.4220  1.5884  1.1229
 7976SOL    HW235388   3.519   3.323  10.806 -0.0923 -0.1771 -0.7351
 7977SOL     OW35389   3.750   0.445  14.809 -0.3511  0.0659  0.3535
 7977SOL    HW135390   3.794   0.469  14.727 -0.5425 -0.8664 -0.0194
 7977SOL    HW235391   3.660   0.433  14.781 -0.3960  1.6116 -0.1294
 7978SOL     OW35392   4.512   3.779   8.218 -0.3696 -0.1777  0.0718
 7978SOL    HW135393   4.514   3.683   8.217 -0.8162 -0.2224  3.1784
 7978SOL    HW235394   4.438   3.793   8.277 -1.1982  0.1589 -1.0504
 7979SOL     OW35395   1.550   4.509  15.434  0.0388 -0.0212 -0.3449
 7979SOL    HW135396   1.644   4.522  15.440 -0.1015  0.6300  0.4637
 7979SOL    HW235397   1.504   4.553  15.506  1.7767 -0.1166  0.8382
 7980SOL     OW35398   0.039   1.656   6.509 -1.0779  0.0685  0.2482
 7980SOL    HW135399   4.717   1.717   6.564 -3.2166 -2.3391  1.0117
 7980SOL    HW235400   0.004   1.674   6.422 -0.2139 -0.4398 -0.2114
 7981SOL     OW35401   2.687   3.664  10.623  0.3956  0.3067 -0.3357
 7981SOL    HW135402   2.626   3.726  10.662  0.9705  0.8256 -0.2534
 7981SOL    HW235403   2.672   3.583  10.672  2.9633 -0.1096 -0.2518
 7982SOL     OW35404   1.471   3.584   2.500 -0.1546  0.8921 -0.2992
 7982SOL    HW135405   1.554   3.585   2.454 -1.5690  2.9827 -2.7652
 7982SOL    HW235406   1.444   3.493   2.491  0.1529  0.6730  0.9038
 7983SOL     OW35407   3.257   2.740   4.557 -0.4055  0.1896 -0.5377
 7983SOL    HW135408   3.266   2.813   4.618 -1.0235  0.6673 -1.0301
 7983SOL    HW235409   3.186   2.775   4.504 -1.7478 -1.4509  0.1566
 7984SOL     OW35410   1.975   0.585  10.848  0.3052  0.5960 -0.0819
 7984SOL    HW135411   2.037   0.521  10.885  0.5258  1.4245  0.9711
 7984SOL    HW235412   1.983   0.568  10.754  1.8515 -1.2453  0.3724
 7985SOL     OW35413   0.588   3.776  13.911 -0.2096 -0.4851 -0.5174
 7985SOL    HW135414   0.651   3.839  13.875 -1.0337  0.9007  0.4650
 7985SOL    HW235415   0.641   3.698  13.927  1.8935  1.3550  1.5330
 7986SOL     OW35416   0.918   3.526   5.902  0.1929 -0.2537 -0.5472
 7986SOL    HW135417   0.934   3.456   5.839  0.7719  0.0455 -0.7250
 7986SOL    HW235418   0.981   3.508   5.972  0.2754  1.0935 -0.2728
 7987SOL     OW35419   0.424   1.749   6.629  0.4185  0.0725  0.4288
 7987SOL    HW135420   0.376   1.829   6.645  1.0297  0.4517  0.3871
 7987SOL    HW235421   0.516   1.777   6.634  0.1122  0.9949  0.7424
 7988SOL     OW35422   2.807   0.359  12.513 -0.4006 -0.4907  0.2974
 7988SOL    HW135423   2.882   0.310  12.543 -0.2675  1.2181  2.7228
 7988SOL    HW235424   2.841   0.449  12.521  0.5417 -0.6847 -1.5514
 7989SOL     OW35425   3.277   1.941   6.626  0.0598  0.1949 -0.4126
 7989SOL    HW135426   3.330   1.900   6.695 -1.6172  0.2512  0.8965
 7989SOL    HW235427   3.195   1.893   6.618 -0.0950  0.7326 -1.9015
 7990SOL     OW35428   4.344   1.244   9.280  0.2575 -0.5144  0.1463
 7990SOL    HW135429   4.352   1.267   9.372  1.9057  2.1755 -0.6651
 7990SOL    HW235430   4.429   1.200   9.276  0.9303  0.9379 -2.0434
 7991SOL     OW35431   3.658   3.181   9.552  0.1964 -0.1989 -0.3584
 7991SOL    HW135432   3.583   3.214   9.602 -0.5745 -0.0904 -1.5827
 7991SOL    HW235433   3.681   3.107   9.609  0.6284 -1.1975 -1.8079
 7992SOL     OW35434   3.295   1.670   3.543  0.0205 -0.2633 -0.4367
 7992SOL    HW135435   3.219   1.726   3.530 -0.0410  0.0291  1.1144
 7992SOL    HW235436   3.330   1.653   3.456  1.5466  2.9150 -0.4367
 7993SOL     OW35437   3.311   3.638   6.176 -0.0704  0.3683 -0.1405
 7993SOL    HW135438   3.342   3.700   6.241 -1.3682  1.4164 -0.5157
 7993SOL    HW235439   3.377   3.646   6.107  0.3257 -2.6461 -0.1242
 7994SOL     OW35440   3.295   0.960   5.865 -0.2041  0.4865 -0.4670
 7994SOL    HW135441   3.233   1.024   5.899  1.1666  2.7763 -2.2901
 7994SOL    HW235442   3.293   0.894   5.934  0.4919  0.0485 -0.8672
 7995SOL     OW35443   4.569   0.653  11.759  0.0605 -0.0124 -0.2457
 7995SOL    HW135444   4.546   0.741  11.788  1.4955  0.7345 -1.4334
 7995SOL    HW235445   4.613   0.669  11.676 -0.7336 -1.5561 -0.9574
 7996SOL     OW35446   3.151   3.330   6.745  0.3455  0.2539  0.3807
 7996SOL    HW135447   3.147   3.247   6.696 -0.3966  0.0453  0.7977
 7996SOL    HW235448   3.061   3.331   6.777  0.2286 -1.9473  0.1338
 7997SOL     OW35449   4.509   3.039   5.124 -0.0128  0.5854  0.2224
 7997SOL    HW135450   4.508   3.002   5.036 -1.6597 -1.0816  0.9422
 7997SOL    HW235451   4.455   2.974   5.169 -0.4003 -0.0424 -1.1311
 7998SOL     OW35452   4.352   3.101  14.665  0.5948 -0.0308 -0.2922
 7998SOL    HW135453   4.301   3.150  14.730 -0.2692 -1.3054  0.0015
 7998SOL    HW235454   4.356   3.165  14.594  3.2250  1.6801  1.4282
 7999SOL     OW35455   3.875   3.238   9.921  0.5577 -0.5564 -0.0137
 7999SOL    HW135456   3.866   3.288  10.002 -1.7355  0.9392 -1.2248
 7999SOL    HW235457   3.936   3.285   9.864  0.3952  2.0154  1.9510
 8000SOL     OW35458   3.154   0.485  12.538  0.1486 -0.2623  0.5532
 8000SOL    HW135459   3.160   0.415  12.603 -0.5624  0.7706  1.7524
 8000SOL    HW235460   3.242   0.478  12.500 -0.2709 -3.7923  0.2859
 8001SOL     OW35461   3.335   0.996   5.523  0.4120 -0.2622  0.4267
 8001SOL    HW135462   3.365   0.958   5.440 -0.9273 -1.8074  0.6499
 8001SOL    HW235463   3.407   1.053   5.552  0.1393  0.2969  0.0001
 8002SOL     OW35464   1.685   0.490   0.041 -0.3599 -0.0194  0.0907
 8002SOL    HW135465   1.643   0.541  17.683  1.1941  1.3060  0.1076
 8002SOL    HW235466   1.618   0.432   0.077  0.1721 -0.7052 -0.0198
 8003SOL     OW35467   0.719   4.302   7.022  0.1951  0.0090 -1.1030
 8003SOL    HW135468   0.770   4.224   7.000 -0.8193 -1.8691  3.1586
 8003SOL    HW235469   0.724   4.299   7.118  2.2956 -1.4268 -1.2670
 8004SOL     OW35470   4.494   0.362   6.028 -0.1546  0.1714  0.0170
 8004SOL    HW135471   4.485   0.367   5.932 -1.4156  3.7899  0.3081
 8004SOL    HW235472   4.473   0.270   6.042  2.1097 -0.4721 -0.6739
 8005SOL     OW35473   3.266   4.242   1.748  0.5520 -0.3406 -0.3070
 8005SOL    HW135474   3.230   4.211   1.665 -0.0139 -0.3960 -0.0421
 8005SOL    HW235475   3.232   4.329   1.766 -0.7733 -0.6373 -1.4323
 8006SOL     OW35476   0.631   0.848   4.843 -0.0873 -0.3285  0.1442
 8006SOL    HW135477   0.617   0.753   4.840  0.2421 -0.3388 -1.2884
 8006SOL    HW235478   0.550   0.875   4.887 -0.2004 -0.4794  0.0287
 8007SOL     OW35479   1.496   1.441  11.297 -0.2403 -0.9475 -0.5193
 8007SOL    HW135480   1.494   1.537  11.298 -1.4864 -0.9601 -1.4044
 8007SOL    HW235481   1.405   1.424  11.274 -0.8003  1.7960 -0.4239
 8008SOL     OW35482   2.648   0.454  12.135  0.0380  0.2210 -0.1174
 8008SOL    HW135483   2.625   0.427  12.225  0.6481  0.7413  0.1884
 8008SOL    HW235484   2.722   0.397  12.114  0.3432  1.4321 -2.3032
 8009SOL     OW35485   2.287   0.080   0.033 -0.1104 -0.1159  0.1036
 8009SOL    HW135486   2.262   0.163   0.074  2.4723  0.6776  0.0742
 8009SOL    HW235487   2.338   0.111  17.669  1.3723 -2.2889  0.2038
 8010SOL     OW35488   0.465   4.552   5.308  0.1508 -0.2728 -0.3566
 8010SOL    HW135489   0.490   4.471   5.351 -2.0042  0.2554  1.9080
 8010SOL    HW235490   0.370   4.557   5.310  0.2280  1.5764 -1.3247
 8011SOL     OW35491   0.236   2.335  11.831 -0.7984  0.3291 -0.4057
 8011SOL    HW135492   0.190   2.285  11.764 -2.3273 -2.2401  2.5087
 8011SOL    HW235493   0.200   2.288  11.906  1.4658 -0.4703  0.2062
 8012SOL     OW35494   0.104   1.618   7.040  0.5620  0.8270 -0.1461
 8012SOL    HW135495   0.024   1.666   7.059  0.5092  0.1019  1.5261
 8012SOL    HW235496   0.144   1.667   6.968  1.3489 -1.2544 -1.1175
 8013SOL     OW35497   3.546   1.199  12.109 -0.1531 -0.4510 -0.2174
 8013SOL    HW135498   3.535   1.158  12.023  2.2941  1.7373 -1.5775
 8013SOL    HW235499   3.457   1.202  12.143  0.1192  0.2795  0.4466
 8014SOL     OW35500   2.091   4.438   9.790 -0.6882 -0.5419  0.2593
 8014SOL    HW135501   2.181   4.468   9.776 -1.1150  0.0910 -1.0967
 8014SOL    HW235502   2.046   4.518   9.764 -2.8991 -1.6190  0.7882
 8015SOL     OW35503   2.222   0.018   2.225  0.1521 -0.1265 -0.5895
 8015SOL    HW135504   2.130   4.721   2.222  0.5944 -1.8301 -0.5784
 8015SOL    HW235505   2.267   4.670   2.265  0.2511  0.2969  0.1032
 8016SOL     OW35506   2.865   3.052   9.218  0.3909 -0.1369  0.0761
 8016SOL    HW135507   2.946   3.015   9.252  0.5743  0.1756 -0.0301
 8016SOL    HW235508   2.806   2.977   9.208 -0.0628 -0.0969  2.5680
 8017SOL     OW35509   4.442   0.613   4.116 -0.5125  0.2923  0.3466
 8017SOL    HW135510   4.533   0.621   4.087 -1.0514 -1.0389 -1.7085
 8017SOL    HW235511   4.449   0.531   4.165  2.0021  1.7596  2.4674
 8018SOL     OW35512   4.429   2.768   8.184  0.0417 -0.3784  0.2580
 8018SOL    HW135513   4.381   2.734   8.109 -1.0583  3.2600 -0.7100
 8018SOL    HW235514   4.503   2.709   8.196  1.3710  0.9438 -1.5333
 8019SOL     OW35515   0.301   3.637   1.481 -0.9307 -0.4258  0.8028
 8019SOL    HW135516   0.260   3.710   1.527 -0.0570  1.8937 -2.0644
 8019SOL    HW235517   0.261   3.637   1.394  1.9519  0.4712 -0.5071
 8020SOL     OW35518   1.947   4.102  14.004  0.2449  0.2506  0.2586
 8020SOL    HW135519   1.953   4.067  14.093  0.4869  1.3172  0.6511
 8020SOL    HW235520   1.989   4.187  14.015  1.5530 -0.2955 -0.5052
 8021SOL     OW35521   3.818   0.183  11.832  0.3659 -0.7059 -0.0296
 8021SOL    HW135522   3.754   0.112  11.842 -1.6868  1.0077 -0.9504
 8021SOL    HW235523   3.826   0.190  11.737 -0.6159 -0.1927 -0.0764
 8022SOL     OW35524   1.859   0.861  17.326 -0.6750  0.5732 -0.3562
 8022SOL    HW135525   1.891   0.771  17.321  2.6039  1.8819 -3.3057
 8022SOL    HW235526   1.859   0.899  17.238  0.9036 -0.1015 -0.6391
 8023SOL     OW35527   2.281   0.396   0.091  0.0589  0.1117 -0.2471
 8023SOL    HW135528   2.236   0.435   0.166 -2.2933 -3.2872  0.1442
 8023SOL    HW235529   2.368   0.436   0.097 -0.4975  0.9165  2.3708
 8024SOL     OW35530   4.096   4.300   5.707  0.6498  0.0527 -0.5001
 8024SOL    HW135531   4.160   4.283   5.638  1.6652  0.1241  0.4054
 8024SOL    HW235532   4.060   4.386   5.684  2.1363  1.5819  2.9064
 8025SOL     OW35533   3.649   2.172   6.864 -0.1293 -0.2543 -0.3354
 8025SOL    HW135534   3.592   2.200   6.936  0.8938  0.7096  0.0965
 8025SOL    HW235535   3.735   2.190   6.901 -0.2098 -0.3136 -0.1184
 8026SOL     OW35536   0.070   3.616   7.390 -0.3628 -0.7900 -0.5540
 8026SOL    HW135537   0.072   3.689   7.452 -1.3088 -0.2078 -1.1958
 8026SOL    HW235538   4.724   3.633   7.330 -2.7901 -1.1834  2.3204
 8027SOL     OW35539   2.750   2.446   4.422  0.7098 -0.3380 -0.4532
 8027SOL    HW135540   2.814   2.459   4.492  2.0835 -0.4200 -1.6991
 8027SOL    HW235541   2.725   2.537   4.413  0.4966 -0.2040  1.4895
 8028SOL     OW35542   0.473   1.939  12.390 -0.4963  0.2146  0.8479
 8028SOL    HW135543   0.410   1.879  12.349  0.7478 -2.3453  2.7030
 8028SOL    HW235544   0.430   1.955  12.474 -0.9083 -0.9492  0.8568
 8029SOL     OW35545   3.165   0.327  12.778  0.1322  0.0871 -0.3633
 8029SOL    HW135546   3.254   0.300  12.754 -0.1555 -1.3484  0.1372
 8029SOL    HW235547   3.175   0.395  12.844 -3.3598  1.1644 -0.9648
 8030SOL     OW35548   4.119   2.956   7.828 -0.4308  0.3694 -0.0081
 8030SOL    HW135549   4.163   2.954   7.913 -0.9100  3.4133  0.3118
 8030SOL    HW235550   4.200   2.965   7.778  0.1477  2.7236  1.3293
 8031SOL     OW35551   0.426   4.032   7.476 -0.2657 -0.0592  0.5508
 8031SOL    HW135552   0.409   3.988   7.559 -0.2830 -0.8766  0.1169
 8031SOL    HW235553   0.503   3.992   7.435 -0.2126  1.9852 -1.3631
 8032SOL     OW35554   1.355   1.973   9.605 -0.4541  0.0694 -0.2426
 8032SOL    HW135555   1.436   1.943   9.647  0.8433  1.7522 -1.5114
 8032SOL    HW235556   1.390   2.010   9.524  2.2477  0.8185  1.2458
 8033SOL     OW35557   0.661   3.482   6.675 -0.4847 -0.0586 -0.4337
 8033SOL    HW135558   0.757   3.478   6.670 -0.4971 -0.8366  0.0219
 8033SOL    HW235559   0.650   3.572   6.707  1.1742 -0.3983  1.1196
 8034SOL     OW35560   3.408   2.336  10.688 -0.0582  0.1743  0.1580
 8034SOL    HW135561   3.323   2.380  10.693 -0.4498 -0.8625  2.7677
 8034SOL    HW235562   3.397   2.284  10.608  0.6412  1.2944 -0.6567
 8035SOL     OW35563   4.197   1.406   8.222 -0.0501 -0.9144  0.0810
 8035SOL    HW135564   4.220   1.454   8.301 -1.1088 -1.8660  0.9634
 8035SOL    HW235565   4.286   1.392   8.189 -0.4954  0.4103 -1.6719
 8036SOL     OW35566   0.037   1.142   5.912 -0.0382 -0.5994 -0.1769
 8036SOL    HW135567   0.121   1.151   5.957 -0.2531 -0.3240  0.1785
 8036SOL    HW235568   4.707   1.188   5.974 -2.0192 -2.8402 -0.3787
 8037SOL     OW35569   2.856   4.656   4.380  0.1620 -0.1509  0.1560
 8037SOL    HW135570   2.901   4.613   4.453  1.7555  0.7938 -0.2728
 8037SOL    HW235571   2.916   4.638   4.308 -1.3635  2.6841 -1.7981
 8038SOL     OW35572   1.991   1.920  15.425 -0.0726  0.5098  0.8884
 8038SOL    HW135573   1.989   2.000  15.477 -0.0933  0.3370  1.1506
 8038SOL    HW235574   1.999   1.850  15.490 -0.2097 -0.9711 -0.6725
 8039SOL     OW35575   0.331   2.972   2.463  0.0859 -0.2169  0.1456
 8039SOL    HW135576   0.419   2.991   2.496 -0.3464  0.5092  0.8570
 8039SOL    HW235577   0.347   2.974   2.368 -1.7265 -1.8415 -0.1891
 8040SOL     OW35578   2.573   3.342   3.231 -0.5194 -0.3842 -0.3557
 8040SOL    HW135579   2.609   3.386   3.155  0.4420  1.5047  1.1835
 8040SOL    HW235580   2.532   3.413   3.279 -0.1932 -0.9921  0.8399
 8041SOL     OW35581   0.512   1.952  14.425 -0.0324 -0.0017  0.3257
 8041SOL    HW135582   0.527   2.045  14.408  1.4196 -0.4231 -0.7025
 8041SOL    HW235583   0.571   1.934  14.352 -1.6044  0.6633 -1.0999
 8042SOL     OW35584   3.379   0.459   3.973 -0.4762  0.2896 -0.2764
 8042SOL    HW135585   3.410   0.369   3.976 -1.7157 -0.1907 -1.4887
 8042SOL    HW235586   3.434   0.504   3.909  2.7653 -1.9703  0.9371
 8043SOL     OW35587   0.086   0.312   4.272  0.2471  0.0296  0.3524
 8043SOL    HW135588   0.070   0.255   4.348 -0.7210  0.4855  0.4874
 8043SOL    HW235589   0.120   0.247   4.211 -1.1841  0.0298 -0.4381
 8044SOL     OW35590   1.044   0.180   2.894 -0.0331 -0.0352  0.4237
 8044SOL    HW135591   1.026   0.233   2.816 -0.0653  0.8650  1.0353
 8044SOL    HW235592   0.981   0.111   2.876 -0.0957 -0.5236  2.5716
 8045SOL     OW35593   4.569   1.572  17.162 -0.3109 -0.0289 -0.6098
 8045SOL    HW135594   4.662   1.591  17.166 -0.6438  1.5782 -0.5091
 8045SOL    HW235595   4.561   1.557  17.068  1.3445  0.2699 -0.7849
 8046SOL     OW35596   1.193   4.635   8.171 -0.5252  0.4734 -0.1554
 8046SOL    HW135597   1.217   4.727   8.165 -3.4224  1.1859 -0.8519
 8046SOL    HW235598   1.217   4.613   8.262  3.1334  0.8115 -1.0394
 8047SOL     OW35599   1.847   2.833  16.652  0.0581  0.0838 -0.1443
 8047SOL    HW135600   1.789   2.758  16.664  0.7056 -0.5029 -0.6454
 8047SOL    HW235601   1.897   2.803  16.576  0.1077 -0.3262  0.0503
 8048SOL     OW35602   1.922   0.136   1.926  0.0914 -0.1774  0.6178
 8048SOL    HW135603   2.002   0.101   1.888  0.8139  3.1603 -1.0221
 8048SOL    HW235604   1.939   0.230   1.916 -0.0419 -0.3792 -1.5994
 8049SOL     OW35605   2.486   2.284   7.043 -0.1617  0.0076 -0.6902
 8049SOL    HW135606   2.443   2.198   7.045 -0.4099  0.0954 -2.0894
 8049SOL    HW235607   2.564   2.259   7.092 -0.9298  1.0632  1.0512
 8050SOL     OW35608   3.197   2.878   2.204  0.5449  0.2955 -0.2564
 8050SOL    HW135609   3.110   2.860   2.168  0.6408  1.0284 -0.8463
 8050SOL    HW235610   3.172   2.920   2.286 -0.7229 -0.4464 -0.2529
 8051SOL     OW35611   3.384   4.336   4.849  0.1522 -0.1058 -0.1734
 8051SOL    HW135612   3.290   4.348   4.838  0.0333 -1.7325 -0.9294
 8051SOL    HW235613   3.405   4.258   4.797 -0.2850 -0.8311  0.7233
 8052SOL     OW35614   2.417   1.376   2.216  0.0921  0.4255 -0.5013
 8052SOL    HW135615   2.381   1.451   2.168 -1.4393 -0.2573 -0.4234
 8052SOL    HW235616   2.478   1.420   2.275  1.3566 -1.1326 -0.6530
 8053SOL     OW35617   0.645   1.842   4.930  0.1114 -0.4215  0.6104
 8053SOL    HW135618   0.554   1.872   4.933  0.9634  2.0528  2.1324
 8053SOL    HW235619   0.676   1.888   4.851 -0.7509 -0.7512  0.0716
 8054SOL     OW35620   1.424   3.813   9.128 -0.0698  0.4313 -0.0947
 8054SOL    HW135621   1.463   3.894   9.163  2.7023 -1.0559  0.2778
 8054SOL    HW235622   1.503   3.777   9.086 -0.3076 -2.0724  1.6341
 8055SOL     OW35623   1.575   0.739   9.961 -0.2811  0.4820  0.5168
 8055SOL    HW135624   1.542   0.739   9.872 -0.3109 -0.2932  0.5282
 8055SOL    HW235625   1.665   0.767   9.942 -0.7815  1.5931 -0.2051
 8056SOL     OW35626   2.265   1.845   4.621 -0.0091 -0.0353 -0.4520
 8056SOL    HW135627   2.300   1.803   4.543  1.1338  0.4804 -0.2335
 8056SOL    HW235628   2.267   1.766   4.674  0.2775 -0.3809 -0.9791
 8057SOL     OW35629   0.065   4.194  15.186  0.2381  0.1234 -0.3312
 8057SOL    HW135630   0.129   4.260  15.212  0.8980 -0.3539 -0.7521
 8057SOL    HW235631   0.028   4.233  15.107 -1.4270  1.0701  0.9183
 8058SOL     OW35632   0.874   0.931  11.628 -0.4917 -0.5409 -0.2576
 8058SOL    HW135633   0.820   0.855  11.652  1.9375 -2.4842 -0.9271
 8058SOL    HW235634   0.942   0.932  11.695 -1.1825 -0.8561  0.4556
 8059SOL     OW35635   3.009   0.472   6.400 -0.0632 -0.6071 -0.4248
 8059SOL    HW135636   2.965   0.425   6.329  0.9457 -2.3556  0.0975
 8059SOL    HW235637   2.942   0.474   6.468  1.3737  1.8192  0.9426
 8060SOL     OW35638   3.118   1.108   5.254  0.2177  0.0981 -0.3434
 8060SOL    HW135639   3.169   1.031   5.280 -1.1513 -0.0603  1.8187
 8060SOL    HW235640   3.172   1.178   5.291  1.0200 -1.9584  2.3476
 8061SOL     OW35641   0.688   1.810   8.908 -0.0704 -0.0556  0.5418
 8061SOL    HW135642   0.762   1.766   8.867  0.6732 -0.5217  2.3824
 8061SOL    HW235643   0.701   1.789   9.001 -0.4009 -2.6213 -0.0058
 8062SOL     OW35644   1.202   2.702   8.911 -0.0375 -0.0232 -0.1281
 8062SOL    HW135645   1.147   2.720   8.988 -1.4230  0.1427 -1.1634
 8062SOL    HW235646   1.136   2.679   8.847 -0.0069  0.8376 -0.4725
 8063SOL     OW35647   0.251   4.036   5.817  0.1417  0.0412 -0.3106
 8063SOL    HW135648   0.345   4.025   5.805  0.1419  1.6640 -1.8822
 8063SOL    HW235649   0.251   4.131   5.829  0.1637  0.2647 -2.0194
 8064SOL     OW35650   4.331   3.752  11.235  0.1091 -0.3966 -0.3577
 8064SOL    HW135651   4.315   3.695  11.159 -1.5464 -1.9008  1.1343
 8064SOL    HW235652   4.280   3.832  11.222 -1.0134 -0.9014  0.8976
 8065SOL     OW35653   0.559   1.783   6.334  0.2588  0.4727 -0.3371
 8065SOL    HW135654   0.479   1.729   6.329  1.6119 -1.6419  0.8267
 8065SOL    HW235655   0.571   1.805   6.241  1.6020  2.2429  0.2655
 8066SOL     OW35656   3.229   3.910   4.481  0.1347 -0.5418  0.1985
 8066SOL    HW135657   3.278   3.828   4.492 -1.7230 -1.6495  0.2574
 8066SOL    HW235658   3.145   3.871   4.459  0.7989 -1.4415 -0.7881
 8067SOL     OW35659   3.273   0.071   4.814 -0.4845 -0.0534  0.0233
 8067SOL    HW135660   3.339   0.025   4.865  1.2651  1.4278 -0.9186
 8067SOL    HW235661   3.288   0.022   4.733  0.6562  1.4828 -0.6843
 8068SOL     OW35662   2.165   3.599  10.727 -0.4516 -0.2416  0.0959
 8068SOL    HW135663   2.221   3.576  10.801 -0.5341  1.1217  0.5862
 8068SOL    HW235664   2.196   3.541  10.658  0.5463  0.3088  0.0778
 8069SOL     OW35665   1.351   2.206   3.217 -0.1090  0.2482  0.1276
 8069SOL    HW135666   1.338   2.180   3.126  2.6567  0.8294 -0.4668
 8069SOL    HW235667   1.275   2.263   3.228 -0.5730 -0.1470 -1.1208
 8070SOL     OW35668   3.996   1.482   2.765 -1.1116  0.8533  0.1223
 8070SOL    HW135669   3.975   1.486   2.671  0.1186  0.7370 -0.1551
 8070SOL    HW235670   3.936   1.410   2.786 -0.2315  0.4538  1.2352
 8071SOL     OW35671   3.385   0.244   5.224 -0.1485  0.3609  0.3645
 8071SOL    HW135672   3.400   0.323   5.172 -2.3622 -0.1781 -1.0633
 8071SOL    HW235673   3.333   0.280   5.297 -2.2946 -1.7673 -0.1098
 8072SOL     OW35674   1.626   1.326   4.683 -0.5615  0.2636 -0.3319
 8072SOL    HW135675   1.702   1.367   4.725 -0.2239 -0.5251 -0.1690
 8072SOL    HW235676   1.644   1.236   4.711 -1.5791  0.4353  0.8497
 8073SOL     OW35677   1.505   1.690   7.351  0.9327  0.1095  0.1803
 8073SOL    HW135678   1.420   1.652   7.372 -0.3853  2.4924 -0.7869
 8073SOL    HW235679   1.472   1.774   7.320  0.6379 -0.0462  0.0798
 8074SOL     OW35680   0.943   0.769   8.674  0.3131 -0.7511  0.4435
 8074SOL    HW135681   1.008   0.777   8.604  0.2250  1.7084  0.6403
 8074SOL    HW235682   0.964   0.684   8.712 -0.5077 -0.0013  2.5582
 8075SOL     OW35683   2.497   0.312   8.952  0.2704  0.4081 -0.2360
 8075SOL    HW135684   2.501   0.231   9.004 -1.3778 -1.8129 -3.4952
 8075SOL    HW235685   2.420   0.347   8.997 -1.2809 -0.9349 -1.7983
 8076SOL     OW35686   3.107   4.476   2.551  0.0945 -0.7831  0.0106
 8076SOL    HW135687   3.037   4.511   2.607 -2.9227 -1.6197 -3.1886
 8076SOL    HW235688   3.191   4.488   2.595 -0.6779 -0.0369  1.2662
 8077SOL     OW35689   0.431   2.641   7.522  0.0061 -0.0813 -0.0292
 8077SOL    HW135690   0.512   2.592   7.537  0.3741  1.1051  1.8494
 8077SOL    HW235691   0.453   2.705   7.590  2.4271 -0.4818 -0.4189
 8078SOL     OW35692   0.315   1.786  10.643  0.6866  0.5421 -0.0303
 8078SOL    HW135693   0.263   1.711  10.675  1.3810  0.7102  1.4617
 8078SOL    HW235694   0.395   1.743  10.613 -0.6226 -2.7779  1.1193
 8079SOL     OW35695   3.422   3.209  16.365  0.1389 -0.1833  0.3534
 8079SOL    HW135696   3.496   3.149  16.376 -0.9179 -1.8755 -1.6985
 8079SOL    HW235697   3.394   3.201  16.456 -0.2179 -3.1395 -0.0047
 8080SOL     OW35698   2.594   1.675  16.363  0.6102  0.2877  0.4393
 8080SOL    HW135699   2.674   1.727  16.357  1.7678 -1.0775  4.2305
 8080SOL    HW235700   2.556   1.706  16.446  1.6846  1.3444  0.5384
 8081SOL     OW35701   3.137   1.418  16.044  0.2004  0.3532  0.6204
 8081SOL    HW135702   3.117   1.324  16.036  1.1798  0.2286 -0.4061
 8081SOL    HW235703   3.078   1.455  15.979  1.1607  0.9437  0.0780
 8082SOL     OW35704   0.202   2.483   9.089  0.4939  0.4991 -0.2736
 8082SOL    HW135705   0.234   2.569   9.118  0.7842 -0.0704  1.0920
 8082SOL    HW235706   0.262   2.422   9.131 -0.3547 -1.1702 -1.5083
 8083SOL     OW35707   3.955   4.532   3.119  0.1318 -0.3140  0.0427
 8083SOL    HW135708   3.940   4.532   3.214  0.0748  2.0469  0.0245
 8083SOL    HW235709   3.902   4.456   3.095 -1.8781  0.9899  0.2939
 8084SOL     OW35710   0.653   1.747  15.149  0.2111 -0.2992 -0.3257
 8084SOL    HW135711   0.625   1.724  15.238  1.2459  1.8067  0.5466
 8084SOL    HW235712   0.571   1.770  15.104 -0.6182 -2.1059  0.2719
 8085SOL     OW35713   2.573   4.475   8.739 -0.3286 -0.5660  0.3806
 8085SOL    HW135714   2.557   4.380   8.739  0.2059 -0.6590 -0.1682
 8085SOL    HW235715   2.541   4.501   8.653 -1.6541  0.4786  1.1939
 8086SOL     OW35716   0.132   4.010   2.450  0.1700  0.1360  0.0162
 8086SOL    HW135717   0.042   3.986   2.427  1.4283 -3.4742 -1.0877
 8086SOL    HW235718   0.136   4.091   2.399 -1.6065 -1.2665 -2.3717
 8087SOL     OW35719   1.123   2.212  11.280  0.2545  0.3357  0.1028
 8087SOL    HW135720   1.144   2.141  11.341 -2.2638  1.6052  2.4460
 8087SOL    HW235721   1.198   2.267  11.302  0.2597  0.2156  0.3827
 8088SOL     OW35722   3.152   4.462   1.087  0.0497 -0.3250 -0.5083
 8088SOL    HW135723   3.204   4.399   1.037  0.1686 -0.1774 -0.5706
 8088SOL    HW235724   3.105   4.516   1.023 -3.2722 -1.3950  1.0560
 8089SOL     OW35725   0.888   3.093   4.266 -0.3556  0.1770 -0.2076
 8089SOL    HW135726   0.858   3.090   4.176 -1.4149  2.7914  0.0456
 8089SOL    HW235727   0.878   3.002   4.292 -0.9235  0.6769  1.3723
 8090SOL     OW35728   2.796   3.657   7.890 -0.4882  0.2981 -0.3133
 8090SOL    HW135729   2.836   3.579   7.853 -2.1427  0.4035 -2.3170
 8090SOL    HW235730   2.834   3.668   7.978 -1.9696 -0.0738  0.3701
 8091SOL     OW35731   1.028   2.022  16.312 -0.0832  0.4406  0.1069
 8091SOL    HW135732   1.000   2.092  16.370 -0.1559  2.4984 -2.3710
 8091SOL    HW235733   1.106   2.057  16.268  1.3010 -1.0758  1.3574
 8092SOL     OW35734   2.844   4.661   9.073 -0.3756 -0.3419 -0.4946
 8092SOL    HW135735   2.828   4.662   8.978 -1.9185 -0.0601 -0.2296
 8092SOL    HW235736   2.809   0.017   9.106 -1.1904 -0.3536 -1.3058
 8093SOL     OW35737   0.295   2.453   3.885 -0.2102  0.3113  0.8957
 8093SOL    HW135738   0.379   2.497   3.895  0.1777  0.2931 -2.5836
 8093SOL    HW235739   0.277   2.440   3.979 -2.4234 -2.6963  0.0592
 8094SOL     OW35740   3.314   1.506   8.550 -0.4671  0.2558  0.1151
 8094SOL    HW135741   3.343   1.459   8.472 -1.0728  0.3776 -0.1851
 8094SOL    HW235742   3.376   1.580   8.550  2.1420 -1.9385  1.0538
 8095SOL     OW35743   4.571   2.019   4.028 -0.3436  0.3087  0.3069
 8095SOL    HW135744   4.505   2.087   4.044 -0.9246 -0.0279 -0.6516
 8095SOL    HW235745   4.645   2.057   4.075 -0.2637 -0.1385  0.5436
 8096SOL     OW35746   0.628   3.657   3.025  0.3698 -0.0129 -0.2711
 8096SOL    HW135747   0.564   3.604   3.071 -0.9423 -1.0809 -3.3640
 8096SOL    HW235748   0.668   3.716   3.090  0.7361 -1.6691  0.9953
 8097SOL     OW35749   2.558   2.462  15.056 -0.1572 -0.4327  0.3406
 8097SOL    HW135750   2.593   2.537  15.008  0.4912 -0.7213  0.3740
 8097SOL    HW235751   2.603   2.464  15.141 -0.5643 -0.5952  0.5631
 8098SOL     OW35752   0.746   4.568   9.092  0.1194 -0.2101  0.2796
 8098SOL    HW135753   0.767   4.658   9.071  0.5207 -0.7603 -1.6874
 8098SOL    HW235754   0.773   4.525   9.011  0.1566 -1.5362  0.9912
 8099SOL     OW35755   3.635   1.590   3.233 -0.1479  0.2032 -0.4878
 8099SOL    HW135756   3.662   1.501   3.211  0.0642  0.0631  0.3496
 8099SOL    HW235757   3.683   1.610   3.313  1.2258  0.3914 -1.3574
 8100SOL     OW35758   2.973   3.512   7.007  0.1657 -0.0384 -0.2429
 8100SOL    HW135759   2.996   3.509   7.099 -1.6738 -0.2578  0.2173
 8100SOL    HW235760   3.057   3.471   6.987  0.2583 -0.3570  0.8595
 8101SOL     OW35761   1.996   1.771   7.112 -0.1406  0.3509 -0.2898
 8101SOL    HW135762   1.949   1.700   7.068  1.4007 -3.6725  4.6226
 8101SOL    HW235763   2.021   1.729   7.194 -2.0514  0.0095  0.1070
 8102SOL     OW35764   1.318   0.590   2.851  0.1826 -0.4778  0.2724
 8102SOL    HW135765   1.278   0.676   2.859  0.3020 -0.5739  2.0149
 8102SOL    HW235766   1.278   0.554   2.772  0.4603 -1.6502  0.6582
 8103SOL     OW35767   0.276   1.883   2.883  0.0450 -0.3792 -0.2778
 8103SOL    HW135768   0.209   1.887   2.952 -1.1412 -0.9125 -1.4001
 8103SOL    HW235769   0.263   1.791   2.861  1.7990 -0.3057 -1.6444
 8104SOL     OW35770   0.617   4.231  16.950  0.6508 -0.3370  0.5428
 8104SOL    HW135771   0.578   4.211  16.865  0.3508  0.5406  0.4733
 8104SOL    HW235772   0.702   4.191  16.932  0.7005  0.0897 -0.1659
 8105SOL     OW35773   1.297   2.647   4.484  0.2054 -0.0627 -0.5629
 8105SOL    HW135774   1.254   2.564   4.464  1.5407 -1.3475  1.8681
 8105SOL    HW235775   1.216   2.696   4.498  0.1802  0.1491 -1.4363
 8106SOL     OW35776   2.537   2.658   0.267  0.5847  0.4061  0.0952
 8106SOL    HW135777   2.580   2.733   0.225  1.3905 -0.3889 -0.4906
 8106SOL    HW235778   2.590   2.628   0.342 -0.3421 -1.7185 -0.1002
 8107SOL     OW35779   3.155   3.081  12.103 -0.0918  0.5269  0.4588
 8107SOL    HW135780   3.198   3.111  12.183  1.9684 -0.4294 -0.2871
 8107SOL    HW235781   3.173   2.989  12.120  0.5193  0.6892  0.6788
 8108SOL     OW35782   1.250   1.585   1.963  0.0153 -0.1486  0.7905
 8108SOL    HW135783   1.340   1.615   1.949 -0.2511  0.1410 -0.3011
 8108SOL    HW235784   1.231   1.611   2.054  0.7696  1.0358  0.6121
 8109SOL     OW35785   2.115   2.403   7.034  0.5938  0.1766  0.4164
 8109SOL    HW135786   2.186   2.366   6.981  1.3937  0.8127  1.0549
 8109SOL    HW235787   2.075   2.470   6.978 -0.7017 -0.1319  0.9824
 8110SOL     OW35788   2.204   2.964  16.837  0.1852 -0.0757  0.2404
 8110SOL    HW135789   2.226   2.961  16.744  1.9366  0.7793  0.6136
 8110SOL    HW235790   2.172   2.876  16.851  1.3003 -0.3742  0.9095
 8111SOL     OW35791   1.980   2.059   3.100 -0.0449 -0.1344 -0.2167
 8111SOL    HW135792   1.916   2.117   3.058 -1.0959 -2.3531 -1.6886
 8111SOL    HW235793   2.038   2.048   3.025 -0.5188 -0.0591 -0.5932
 8112SOL     OW35794   1.100   0.815   4.029  0.2802 -0.1886  0.0375
 8112SOL    HW135795   1.102   0.838   4.122  0.8888 -0.0260 -0.0155
 8112SOL    HW235796   1.155   0.737   4.029 -0.4870 -0.7306 -1.0587
 8113SOL     OW35797   3.023   2.796   8.198  0.3312 -0.5961 -0.2231
 8113SOL    HW135798   2.939   2.844   8.196  0.7921  0.2957  2.3916
 8113SOL    HW235799   3.001   2.718   8.249 -0.1015  0.7204  1.6154
 8114SOL     OW35800   2.358   2.988   7.851  0.1939 -0.0382 -0.0388
 8114SOL    HW135801   2.371   3.079   7.876  0.5632  0.1626 -0.9481
 8114SOL    HW235802   2.334   2.948   7.935 -2.5495  1.0085 -0.3375
 8115SOL     OW35803   1.694   0.553   5.037  0.0038  0.4857  0.2160
 8115SOL    HW135804   1.619   0.510   5.079 -0.8107  1.1744 -0.5295
 8115SOL    HW235805   1.652   0.629   4.996  0.7607 -0.7035 -2.7497
 8116SOL     OW35806   4.171   1.996   2.050  0.1240  0.3002  0.0888
 8116SOL    HW135807   4.160   2.085   2.083 -3.9164 -0.7093  1.4667
 8116SOL    HW235808   4.228   2.007   1.974 -0.8358  1.7232 -0.4158
 8117SOL     OW35809   3.310   2.822   8.434  0.3046 -0.1706  0.1320
 8117SOL    HW135810   3.351   2.881   8.498  0.6936  0.1393 -0.4058
 8117SOL    HW235811   3.261   2.888   8.386  2.7587 -0.5189 -2.8311
 8118SOL     OW35812   3.928   1.374   8.127  0.1226  0.6375  0.6227
 8118SOL    HW135813   3.903   1.370   8.035  2.9384  1.2943 -0.1598
 8118SOL    HW235814   4.023   1.376   8.123  0.2432  0.5941  2.9685
 8119SOL     OW35815   2.563   0.020  15.896 -0.2739  0.3052  0.7322
 8119SOL    HW135816   2.561   0.075  15.818  0.3912  1.6819  1.7055
 8119SOL    HW235817   2.469   0.000  15.896  0.0204 -1.2324 -3.0144
 8120SOL     OW35818   3.952   1.080   7.280 -0.0101 -0.0315  0.4321
 8120SOL    HW135819   3.946   1.174   7.292 -3.0042  0.0912 -1.8950
 8120SOL    HW235820   4.017   1.070   7.210  0.0359  0.4708  0.4029
 8121SOL     OW35821   4.316   0.343   9.706 -0.0206 -0.2918 -0.1411
 8121SOL    HW135822   4.323   0.324   9.613  0.9535 -0.9142  0.0611
 8121SOL    HW235823   4.396   0.389   9.732 -0.9222  1.3252 -0.1640
 8122SOL     OW35824   1.336   3.814   1.334  0.4708 -0.0893 -0.0926
 8122SOL    HW135825   1.309   3.733   1.377 -1.9018  0.2203 -1.0392
 8122SOL    HW235826   1.306   3.811   1.243 -2.1524 -1.1739  0.8247
 8123SOL     OW35827   3.442   1.551   7.954  0.2301 -0.3343  0.3564
 8123SOL    HW135828   3.406   1.611   8.019 -0.3072  0.2467 -0.4898
 8123SOL    HW235829   3.517   1.513   8.001  0.4874 -2.3281 -1.6284
 8124SOL     OW35830   3.058   2.426   2.617  0.1359 -0.6158 -0.5090
 8124SOL    HW135831   3.065   2.373   2.696 -0.6245  0.0845  0.0318
 8124SOL    HW235832   3.131   2.488   2.618  1.8594 -2.6281 -2.0475
 8125SOL     OW35833   4.363   2.398   7.816 -0.5895  0.7041 -0.0426
 8125SOL    HW135834   4.286   2.384   7.761 -0.1801 -2.8320  0.2815
 8125SOL    HW235835   4.421   2.340   7.766  1.3170  1.4082  1.3264
 8126SOL     OW35836   1.402   0.109   7.651  0.4376 -0.1737 -1.1826
 8126SOL    HW135837   1.366   0.194   7.628  2.5954  0.3170 -2.7575
 8126SOL    HW235838   1.321   0.069   7.682  1.1357 -1.6318 -1.2327
 8127SOL     OW35839   0.157   4.156   4.464  0.2904 -0.0211 -0.5866
 8127SOL    HW135840   0.105   4.097   4.409  1.5497 -4.5109  2.9679
 8127SOL    HW235841   0.231   4.172   4.406 -0.8619 -0.3428 -2.1549
 8128SOL     OW35842   1.990   2.059   2.466  0.3642  0.2103  0.1588
 8128SOL    HW135843   2.034   2.124   2.521  0.8426  0.5030 -0.5759
 8128SOL    HW235844   2.027   1.980   2.505 -0.5139  0.3019  1.1935
 8129SOL     OW35845   1.809   0.128   5.636  0.4144  0.0681 -0.3018
 8129SOL    HW135846   1.715   0.149   5.638  0.4605  0.2308  0.1386
 8129SOL    HW235847   1.815   0.055   5.698  0.3773  0.6931  0.4494
 8130SOL     OW35848   4.494   1.664  15.791 -0.0795  0.1803 -0.1636
 8130SOL    HW135849   4.542   1.585  15.815  0.2200  0.2581 -0.5262
 8130SOL    HW235850   4.541   1.734  15.837  0.7822 -0.4713 -0.0755
 8131SOL     OW35851   2.504   0.499  10.684 -0.1683  1.2569  0.7070
 8131SOL    HW135852   2.530   0.589  10.705 -1.3161  1.4897  1.1091
 8131SOL    HW235853   2.548   0.446  10.751 -0.1285 -0.5128 -0.6906
 8132SOL     OW35854   3.636   0.462   7.157  0.2196  0.3460  0.3360
 8132SOL    HW135855   3.584   0.441   7.234  1.2242 -0.6320  0.7494
 8132SOL    HW235856   3.568   0.489   7.096  0.0104 -1.6273 -0.3227
 8133SOL     OW35857   0.611   3.674   0.746 -0.3491  0.2291 -0.2748
 8133SOL    HW135858   0.662   3.696   0.668 -1.6764  0.3745 -1.0975
 8133SOL    HW235859   0.679   3.640   0.804 -2.2947 -0.0574  1.8556
 8134SOL     OW35860   1.719   1.470   5.020  0.4336  0.4305  0.8880
 8134SOL    HW135861   1.665   1.445   5.095  1.1275  0.3926  1.3773
 8134SOL    HW235862   1.805   1.435   5.044  0.6689 -0.2129 -0.9006
 8135SOL     OW35863   0.076   4.131  15.847 -0.5173  0.2989  0.0100
 8135SOL    HW135864   0.162   4.135  15.890 -0.0044 -1.9079 -0.7693
 8135SOL    HW235865   0.094   4.096  15.759  0.3442 -0.6928  0.5776
 8136SOL     OW35866   1.635   4.432   9.224 -0.4761 -0.4903  0.2876
 8136SOL    HW135867   1.652   4.399   9.312 -1.6651  2.3285  1.5777
 8136SOL    HW235868   1.549   4.395   9.203 -1.1183  0.9713  0.3004
 8137SOL     OW35869   3.946   0.020   6.721 -0.1006 -0.2030  0.5961
 8137SOL    HW135870   3.946   4.654   6.702 -0.9858  0.0787 -0.8354
 8137SOL    HW235871   3.974   0.016   6.812  2.3616  1.1429 -0.0826
 8138SOL     OW35872   1.653   0.559   2.668 -0.3672 -0.3104 -0.6538
 8138SOL    HW135873   1.617   0.528   2.751 -0.2536  1.5697  0.0901
 8138SOL    HW235874   1.610   0.505   2.602 -0.5632 -1.5404  0.4955
 8139SOL     OW35875   2.097   4.707   0.490 -0.0839  0.5856  0.1490
 8139SOL    HW135876   2.070   4.677   0.403 -0.2323 -0.6982  0.6351
 8139SOL    HW235877   2.085   0.074   0.490  0.2365  0.6181  1.9261
 8140SOL     OW35878   0.044   1.519   9.581  0.9103 -0.3916  0.0715
 8140SOL    HW135879   0.135   1.534   9.606  0.3884  0.8365  1.2502
 8140SOL    HW235880   4.725   1.544   9.661  0.8979  0.9074 -0.3406
 8141SOL     OW35881   4.041   4.071  14.108 -0.0786 -0.2473 -0.9462
 8141SOL    HW135882   3.973   4.080  14.041  0.6903 -1.8693 -1.9198
 8141SOL    HW235883   4.031   3.980  14.136 -0.6650  0.1566  0.1648
 8142SOL     OW35884   0.025   1.262  13.498 -0.0674 -0.1486 -0.4083
 8142SOL    HW135885   0.114   1.266  13.464 -0.4642  1.6219 -1.2324
 8142SOL    HW235886   0.001   1.343  13.452 -1.4838 -0.0757  0.4342
 8143SOL     OW35887   0.242   1.668   4.785  0.1150  0.1717 -0.1537
 8143SOL    HW135888   0.148   1.687   4.779 -0.2528 -1.1821  1.2695
 8143SOL    HW235889   0.245   1.621   4.868 -2.2852  0.0554 -0.1245
 8144SOL     OW35890   1.823   4.244   3.926  0.3133  0.2653 -0.2295
 8144SOL    HW135891   1.865   4.211   3.847  0.4111 -1.8010  0.6805
 8144SOL    HW235892   1.897   4.269   3.981 -0.0207  2.1998 -0.6666
 8145SOL     OW35893   4.163   1.670  16.179 -0.2305  0.0154 -0.3114
 8145SOL    HW135894   4.210   1.679  16.096 -0.6216  0.1639 -0.5147
 8145SOL    HW235895   4.163   1.575  16.177 -2.3312 -0.0344  2.0257
 8146SOL     OW35896   2.663   1.233   7.472  0.7136  0.0722 -0.0693
 8146SOL    HW135897   2.708   1.292   7.533  0.0140  0.8244 -0.2724
 8146SOL    HW235898   2.733   1.227   7.407  0.0415  1.6976 -0.9536
 8147SOL     OW35899   3.217   0.006   5.244 -0.0232 -0.4365 -0.2518
 8147SOL    HW135900   3.168   0.077   5.203  1.0186  0.4388  0.0206
 8147SOL    HW235901   3.192   4.661   5.187 -0.0159 -0.1744 -0.5858
 8148SOL     OW35902   3.835   2.835   3.715 -0.2691 -0.3835  0.3058
 8148SOL    HW135903   3.847   2.747   3.678  0.6793 -0.2866  0.3887
 8148SOL    HW235904   3.826   2.814   3.808 -0.0379 -4.1531 -0.5102
 8149SOL     OW35905   1.645   3.259   5.815 -0.0831 -0.2524  0.4646
 8149SOL    HW135906   1.568   3.295   5.772 -0.8677  1.7466  3.4865
 8149SOL    HW235907   1.718   3.307   5.775 -1.0369  2.6505  2.1634
 8150SOL     OW35908   2.293   1.699   1.908  0.0518  0.5439  0.0967
 8150SOL    HW135909   2.219   1.735   1.957  0.8642  0.4602  1.3773
 8150SOL    HW235910   2.261   1.617   1.870  0.9589  0.7243 -1.0451
 8151SOL     OW35911   4.470   2.580   4.361  0.2859  0.2213  0.0350
 8151SOL    HW135912   4.459   2.599   4.454  1.3143 -0.0773  0.2246
 8151SOL    HW235913   4.440   2.489   4.355  1.1469 -0.1405  1.1720
 8152SOL     OW35914   3.590   2.617   2.881  0.5562 -0.1028  0.2776
 8152SOL    HW135915   3.667   2.674   2.889  2.3632 -2.5211  0.2158
 8152SOL    HW235916   3.634   2.532   2.876  0.2808 -0.0415 -2.8763
 8153SOL     OW35917   0.789   2.264   8.186  0.1207  0.4285 -0.4138
 8153SOL    HW135918   0.773   2.314   8.105  0.4164  0.1377 -0.6528
 8153SOL    HW235919   0.818   2.337   8.240 -1.6090  0.6592  0.2042
 8154SOL     OW35920   2.983   3.378  10.776 -0.0538  0.2459  0.3734
 8154SOL    HW135921   2.905   3.427  10.751 -0.5491 -0.5274  0.3899
 8154SOL    HW235922   3.009   3.329  10.698 -1.9145  0.5366 -0.4143
 8155SOL     OW35923   3.758   3.976   5.290 -0.5150 -0.1655 -0.3648
 8155SOL    HW135924   3.750   3.935   5.376 -0.3060  0.6373  0.0376
 8155SOL    HW235925   3.849   3.962   5.266 -0.3348  1.8984 -0.9055
 8156SOL     OW35926   3.054   2.118   5.239 -0.0525 -0.7714  0.4389
 8156SOL    HW135927   3.084   2.061   5.310 -0.1790 -0.9664  0.3353
 8156SOL    HW235928   2.959   2.126   5.249 -0.0331  1.6036 -1.3497
 8157SOL     OW35929   3.230   2.667   9.879 -0.1811 -0.2333  0.2785
 8157SOL    HW135930   3.185   2.582   9.875  0.2572 -0.3436 -2.1921
 8157SOL    HW235931   3.166   2.730   9.846 -0.1131  0.1608  0.8974
 8158SOL     OW35932   2.490   1.679   2.094  0.4776  0.3554  0.0411
 8158SOL    HW135933   2.551   1.643   2.030 -0.8977  0.9791 -1.6149
 8158SOL    HW235934   2.423   1.680   2.027  1.3142  0.2538 -0.7943
 8159SOL     OW35935   4.217   0.457   3.576  0.3693  0.0091 -0.2969
 8159SOL    HW135936   4.194   0.502   3.495 -4.4912 -2.6787 -0.4006
 8159SOL    HW235937   4.288   0.406   3.537 -0.8895 -0.3943 -2.0684
 8160SOL     OW35938   0.818   0.681   6.302  0.2405 -0.0315  0.1119
 8160SOL    HW135939   0.881   0.721   6.243  0.9250 -1.1859  0.0544
 8160SOL    HW235940   0.789   0.757   6.351  1.6884  0.2364  0.5588
 8161SOL     OW35941   1.417   1.029   4.800  0.2667 -0.1940  0.2061
 8161SOL    HW135942   1.395   0.952   4.852  0.4172 -0.3218  0.0821
 8161SOL    HW235943   1.511   1.014   4.798  0.3922  0.2012  3.0389
 8162SOL     OW35944   0.841   1.714   5.103 -0.4024  0.3049  0.0066
 8162SOL    HW135945   0.933   1.735   5.087 -0.2410  0.0870  0.6452
 8162SOL    HW235946   0.787   1.764   5.042 -0.1964  0.9037  0.3109
 8163SOL     OW35947   2.736   0.108  14.115  0.0072 -0.1105  0.2835
 8163SOL    HW135948   2.789   0.046  14.166 -1.0011 -2.4600 -1.5285
 8163SOL    HW235949   2.785   0.190  14.112 -0.5999  0.2521  0.3396
 8164SOL     OW35950   2.729   4.065  15.943  0.4293  0.8703  0.6753
 8164SOL    HW135951   2.729   4.159  15.924 -1.1594  1.3669  2.9957
 8164SOL    HW235952   2.793   4.064  16.014 -1.2481 -0.5735  2.1561
 8165SOL     OW35953   2.910   2.458   8.025 -0.0642  0.5962  0.7417
 8165SOL    HW135954   2.935   2.515   8.098  1.4673  1.3985 -0.4169
 8165SOL    HW235955   2.817   2.446   8.043  0.1141 -0.2582  1.0704
 8166SOL     OW35956   0.997   3.740   5.758 -0.2321 -0.2307 -1.4338
 8166SOL    HW135957   0.976   3.659   5.803 -1.0046  0.5002 -0.4795
 8166SOL    HW235958   1.073   3.705   5.712  1.8222  0.0399  1.7799
 8167SOL     OW35959   0.217   4.323   2.151 -0.2020 -0.1034 -0.3090
 8167SOL    HW135960   0.187   4.405   2.111 -2.1214  0.8088  3.0598
 8167SOL    HW235961   0.139   4.304   2.204  0.0353 -1.1035 -0.3193
 8168SOL     OW35962   4.042   1.489  13.091  0.0692 -0.1741  0.0486
 8168SOL    HW135963   4.094   1.511  13.169 -0.8896 -3.2358  1.5371
 8168SOL    HW235964   4.117   1.469  13.035  1.4510  0.5632  1.6465
 8169SOL     OW35965   2.539   0.922   4.874  0.1118  0.4928 -0.3417
 8169SOL    HW135966   2.560   0.940   4.782 -0.4292 -0.8501 -0.7266
 8169SOL    HW235967   2.623   0.952   4.908  0.8959 -0.4212 -1.4887
 8170SOL     OW35968   2.668   4.019   9.701 -0.0873 -0.1583  0.1202
 8170SOL    HW135969   2.583   3.988   9.732 -0.7850  0.9986 -0.6462
 8170SOL    HW235970   2.734   3.956   9.732 -2.1012 -1.6535  1.3769
 8171SOL     OW35971   3.802   1.431   2.529 -0.0259  0.4081  0.2772
 8171SOL    HW135972   3.707   1.422   2.518 -0.1925 -0.5849  2.5997
 8171SOL    HW235973   3.835   1.342   2.539  1.0897  0.6655 -1.1757
 8172SOL     OW35974   0.197   0.588  13.603 -0.6379 -0.0202 -0.8438
 8172SOL    HW135975   0.262   0.656  13.585 -0.1441 -0.4812 -0.8269
 8172SOL    HW235976   0.192   0.602  13.698 -0.6772 -1.9751 -0.5545
 8173SOL     OW35977   1.358   4.596  17.487 -0.0029  0.0591 -0.5100
 8173SOL    HW135978   1.439   4.627  17.528  0.3538 -3.2876  1.3573
 8173SOL    HW235979   1.341   4.511  17.527  0.1265  0.0188 -0.5383
 8174SOL     OW35980   3.571   3.341   3.460  0.3380  0.0335  0.6515
 8174SOL    HW135981   3.644   3.281   3.445  0.1626  0.3894 -1.6955
 8174SOL    HW235982   3.617   3.418   3.493 -2.0873  1.3200  0.9985
 8175SOL     OW35983   2.398   3.238   9.329  0.1556 -0.0909  0.2067
 8175SOL    HW135984   2.404   3.237   9.425 -0.6457 -0.5805  0.2575
 8175SOL    HW235985   2.490   3.235   9.305  0.5650  1.8509  1.5173
 8176SOL     OW35986   0.078   1.041   2.297  0.0535 -0.0711  0.4934
 8176SOL    HW135987   0.008   1.043   2.232  0.8857  2.2208 -0.3086
 8176SOL    HW235988   0.149   1.091   2.258 -0.4849 -1.3563 -2.1300
 8177SOL     OW35989   2.126   3.002   4.664 -0.1423 -0.2418  0.5666
 8177SOL    HW135990   2.160   2.923   4.622 -1.3538 -0.5856  0.2317
 8177SOL    HW235991   2.206   3.046   4.694 -1.1218  1.8196  0.2006
 8178SOL     OW35992   1.353   0.333   4.970 -0.0258  0.0883 -0.0158
 8178SOL    HW135993   1.341   0.239   4.958 -0.9239  0.2036  0.0307
 8178SOL    HW235994   1.379   0.358   4.881  1.0391  0.3187  0.3573
 8179SOL     OW35995   1.963   0.412   2.099 -0.4016  0.2355  0.2145
 8179SOL    HW135996   2.059   0.419   2.098 -0.4001  0.5174  2.5718
 8179SOL    HW235997   1.939   0.488   2.152 -0.3754  0.3571  0.0503
 8180SOL     OW35998   4.397   0.122   6.048 -0.8602  0.3131  0.5132
 8180SOL    HW135999   4.370   0.057   5.983 -0.0904  1.5029 -0.9968
 8180SOL    HW236000   4.434   0.059   6.111  1.1459  1.0294  0.0379
 8181SOL     OW36001   0.854   4.348  12.289 -0.3617 -0.3181 -0.0563
 8181SOL    HW136002   0.767   4.351  12.248  0.3789 -0.2807 -1.6566
 8181SOL    HW236003   0.897   4.414  12.234 -2.2635  0.1968 -0.9171
 8182SOL     OW36004   0.999   1.119   9.600 -0.6848 -0.5761  0.2908
 8182SOL    HW136005   1.012   1.181   9.672  1.2824 -0.6631 -0.0002
 8182SOL    HW236006   1.063   1.155   9.538 -0.1753 -1.4924  0.2928
 8183SOL     OW36007   2.880   3.245  11.710 -0.7813  0.1871 -0.0056
 8183SOL    HW136008   2.907   3.319  11.655  0.2759  0.5566  0.9976
 8183SOL    HW236009   2.849   3.174  11.654  0.7719  1.0941 -1.9837
 8184SOL     OW36010   0.972   0.441  11.392 -0.4129 -0.1639 -0.0517
 8184SOL    HW136011   1.014   0.498  11.328 -1.5256 -0.6228 -1.1846
 8184SOL    HW236012   0.937   0.373  11.335 -2.6921  0.1729  0.9347
 8185SOL     OW36013   3.457   3.275   9.692  0.1612 -0.8605  0.0702
 8185SOL    HW136014   3.519   3.341   9.724  1.0436 -1.7265  0.1549
 8185SOL    HW236015   3.441   3.215   9.766  1.4747 -1.1827  0.1071
 8186SOL     OW36016   1.902   4.610   8.972  0.2051  0.5889 -0.5910
 8186SOL    HW136017   1.978   4.654   9.010 -0.4402  0.4390  0.8848
 8186SOL    HW236018   1.937   4.560   8.898  2.8096 -0.0060  1.0341
 8187SOL     OW36019   0.642   2.352   6.325 -0.1919 -0.3683  0.0473
 8187SOL    HW136020   0.628   2.258   6.314  2.2171 -0.7840  0.5626
 8187SOL    HW236021   0.668   2.376   6.236  3.4770 -2.1453  0.6239
 8188SOL     OW36022   1.324   2.466  12.547 -0.5826  0.5134 -0.1785
 8188SOL    HW136023   1.285   2.533  12.491  0.2787  1.1098 -0.0672
 8188SOL    HW236024   1.250   2.406  12.546  0.2930 -0.6046  1.5454
 8189SOL     OW36025   3.286   2.155   1.313 -0.1382  0.1301 -0.2552
 8189SOL    HW136026   3.191   2.144   1.316 -0.0473 -0.0991  1.7366
 8189SOL    HW236027   3.307   2.225   1.373  0.8086  0.2838 -0.7755
 8190SOL     OW36028   1.044   3.921  11.891 -0.1151  1.0551  0.0096
 8190SOL    HW136029   0.978   3.868  11.845  0.3923 -1.1567  1.8238
 8190SOL    HW236030   1.127   3.898  11.848 -0.7131  1.5515 -1.4172
 8191SOL     OW36031   1.781   3.580   6.513  0.0864  0.0074  0.8550
 8191SOL    HW136032   1.773   3.609   6.422  0.2373 -1.7738  0.2801
 8191SOL    HW236033   1.777   3.486   6.497  0.5564  0.2854 -0.9271
 8192SOL     OW36034   3.207   2.882   5.742 -0.1791 -0.1850  0.0810
 8192SOL    HW136035   3.129   2.866   5.794 -0.4235  1.1259  0.1025
 8192SOL    HW236036   3.227   2.791   5.720 -2.4103 -0.6268 -0.1081
 8193SOL     OW36037   3.163   2.109   2.175  0.0961 -0.0640  0.0022
 8193SOL    HW136038   3.235   2.096   2.236  0.0079 -1.3610 -0.1585
 8193SOL    HW236039   3.125   2.022   2.167 -0.4524  0.0908  0.9731
 8194SOL     OW36040   3.775   3.154   3.394 -0.1369  0.0349 -0.1639
 8194SOL    HW136041   3.816   3.126   3.476 -1.4071  0.8941  0.7636
 8194SOL    HW236042   3.750   3.068   3.359 -1.8973 -0.4714  2.2824
 8195SOL     OW36043   3.429   2.327   7.542 -0.7115  0.0340 -0.3827
 8195SOL    HW136044   3.361   2.363   7.486  0.4321  2.0417 -0.5001
 8195SOL    HW236045   3.456   2.409   7.585 -0.9946  0.7211 -1.5185
 8196SOL     OW36046   4.636   3.721   3.079  0.9129 -0.0363  0.2375
 8196SOL    HW136047   4.629   3.771   2.997  0.2297  0.4778  0.6133
 8196SOL    HW236048   4.594   3.640   3.050  1.7075  0.2996 -1.8491
 8197SOL     OW36049   1.660   1.306   4.164 -0.7175  0.2064 -0.0067
 8197SOL    HW136050   1.681   1.387   4.211 -0.4308  1.0093 -1.5198
 8197SOL    HW236051   1.732   1.249   4.191 -1.4120 -1.0182 -0.7643
 8198SOL     OW36052   3.723   3.520   6.210  0.0087 -0.0106 -0.7688
 8198SOL    HW136053   3.658   3.466   6.165 -1.8578  3.6622 -2.4470
 8198SOL    HW236054   3.710   3.604   6.166 -0.3335 -0.1917 -1.0109
 8199SOL     OW36055   1.016   1.840  15.520 -0.1804  0.0124  0.3618
 8199SOL    HW136056   1.101   1.883  15.516 -1.1923  2.1709  2.5647
 8199SOL    HW236057   1.019   1.834  15.615 -0.4593  1.4065  0.4456
 8200SOL     OW36058   3.901   4.445   5.263 -0.2515  0.3253 -0.5032
 8200SOL    HW136059   3.899   4.353   5.290  1.7296  0.3057 -0.4688
 8200SOL    HW236060   3.907   4.435   5.168  1.5826 -1.4034 -0.2024
 8201SOL     OW36061   2.858   2.648  17.070  0.1376  0.3464 -0.1609
 8201SOL    HW136062   2.874   2.727  17.121 -1.0179 -0.5287  1.5734
 8201SOL    HW236063   2.776   2.666  17.025 -0.3152  0.2908  0.6454
 8202SOL     OW36064   2.786   1.806   0.585  0.0236  0.6317 -0.1654
 8202SOL    HW136065   2.832   1.792   0.667 -0.4898 -1.3108 -0.1965
 8202SOL    HW236066   2.698   1.826   0.618  1.1438  4.2664  0.5330
 8203SOL     OW36067   2.603   0.381  15.317  0.3765  0.0035  0.4726
 8203SOL    HW136068   2.665   0.433  15.368 -0.9883  1.2278  0.8983
 8203SOL    HW236069   2.519   0.410  15.353 -0.4769 -0.4534 -1.1746
 8204SOL     OW36070   0.789   2.228  14.658 -0.3038  0.0281 -0.1617
 8204SOL    HW136071   0.827   2.212  14.744  0.2431  0.5441 -0.3124
 8204SOL    HW236072   0.697   2.251  14.671 -0.4683 -1.0244  0.5727
 8205SOL     OW36073   2.126   3.389   5.645  0.2109  0.4011  0.3910
 8205SOL    HW136074   2.192   3.347   5.591 -1.3833 -1.0728 -0.3993
 8205SOL    HW236075   2.108   3.465   5.591 -1.3383  1.0795  1.8330
 8206SOL     OW36076   0.874   2.923  10.973  0.0338  0.2439  0.2813
 8206SOL    HW136077   0.881   3.010  11.011  0.6481  0.6453 -0.7756
 8206SOL    HW236078   0.872   2.952  10.881 -0.6602  3.5272  1.3342
 8207SOL     OW36079   0.456   4.427   4.181  0.1056 -0.3756 -0.0418
 8207SOL    HW136080   0.367   4.461   4.183  0.5035  0.5676  2.0635
 8207SOL    HW236081   0.437   4.346   4.229  3.7499 -1.9132 -1.1473
 8208SOL     OW36082   0.545   0.284   5.470  0.5436  0.1809  0.6943
 8208SOL    HW136083   0.459   0.245   5.479  0.0236  1.2528  0.3922
 8208SOL    HW236084   0.560   0.252   5.381 -1.6051 -0.3877  0.5460
 8209SOL     OW36085   4.497   3.899   5.766  0.2401 -0.5779  0.4970
 8209SOL    HW136086   4.466   3.815   5.799 -1.3022  0.5882  2.0020
 8209SOL    HW236087   4.549   3.924   5.843  1.4501  0.3886 -0.6215
 8210SOL     OW36088   2.270   3.757   8.425 -0.1014 -0.3898  0.1621
 8210SOL    HW136089   2.206   3.812   8.380 -0.2744  1.0694  2.1872
 8210SOL    HW236090   2.271   3.802   8.509  0.0964  0.5527 -0.3463
 8211SOL     OW36091   3.043   0.677  16.414 -0.5750  0.4673 -0.9321
 8211SOL    HW136092   3.079   0.606  16.466  1.0715  1.7243 -0.3333
 8211SOL    HW236093   2.970   0.645  16.361 -1.5259  0.1165  0.5865
 8212SOL     OW36094   1.090   3.170   7.153 -0.4935 -0.1035 -0.1271
 8212SOL    HW136095   1.017   3.231   7.169 -0.6694 -0.5529  0.7749
 8212SOL    HW236096   1.079   3.109   7.226 -0.9096 -1.5471 -1.4071
 8213SOL     OW36097   2.953   2.552   8.278 -0.4820 -0.5524 -0.1569
 8213SOL    HW136098   3.015   2.561   8.351 -0.7867 -0.0856  0.0443
 8213SOL    HW236099   2.880   2.514   8.327 -1.7705  0.8563 -0.9908
 8214SOL     OW36100   1.691   2.949   3.517 -0.3662  0.1370 -0.3522
 8214SOL    HW136101   1.599   2.964   3.539  0.0977  2.1538  0.1873
 8214SOL    HW236102   1.676   2.885   3.448 -1.4200 -0.6569  0.6099
 8215SOL     OW36103   0.912   0.118   9.564  0.4419  0.4011  0.0280
 8215SOL    HW136104   0.860   0.050   9.522  0.1288  0.3503  0.4952
 8215SOL    HW236105   0.839   0.180   9.570  0.2962  0.2948 -0.7570
 8216SOL     OW36106   0.429   1.442   5.710  0.0663  0.6395  0.2048
 8216SOL    HW136107   0.384   1.512   5.757 -1.7421  0.7538 -1.7169
 8216SOL    HW236108   0.360   1.410   5.652 -0.7206  0.3470  1.2830
 8217SOL     OW36109   1.092   2.600   3.553 -0.3175 -0.5550  0.5914
 8217SOL    HW136110   1.081   2.594   3.458 -1.0424  0.8859  0.5963
 8217SOL    HW236111   1.015   2.548   3.577  0.4074 -3.2807 -2.9242
 8218SOL     OW36112   3.894   2.709   5.520  0.5473 -0.4508  0.2548
 8218SOL    HW136113   3.801   2.719   5.542  0.7715 -1.0867  1.4810
 8218SOL    HW236114   3.903   2.615   5.529  1.3409 -0.2443  1.6246
 8219SOL     OW36115   2.116   0.604   7.309  0.0702  0.4366  0.6741
 8219SOL    HW136116   2.210   0.590   7.320 -0.2473 -2.7629 -0.9574
 8219SOL    HW236117   2.091   0.685   7.355  0.1294  1.7148 -1.5329
 8220SOL     OW36118   1.568   1.910   6.743  0.6248  0.0565 -0.5897
 8220SOL    HW136119   1.565   2.001   6.775 -2.6491 -0.2083 -0.1347
 8220SOL    HW236120   1.554   1.933   6.651 -2.3947  0.1821 -0.1027
 8221SOL     OW36121   0.407   3.960   8.368  0.0173  0.3998 -0.1681
 8221SOL    HW136122   0.392   4.027   8.434  2.7140  1.0113 -0.1460
 8221SOL    HW236123   0.443   4.023   8.305 -2.3767 -0.3703 -2.2849
 8222SOL     OW36124   3.695   0.242   8.337 -0.0986  0.8318 -0.6522
 8222SOL    HW136125   3.733   0.290   8.411  0.8618  0.4099 -0.8625
 8222SOL    HW236126   3.729   0.292   8.263 -1.2170  1.7814 -0.5207
 8223SOL     OW36127   0.583   4.256   1.910  0.1701 -0.4326  0.5280
 8223SOL    HW136128   0.506   4.234   1.857 -1.5539 -0.1698  2.9211
 8223SOL    HW236129   0.592   4.173   1.956  0.5632 -0.6431  0.0694
 8224SOL     OW36130   2.996   4.042  11.093  0.0285  0.0032  0.0574
 8224SOL    HW136131   2.941   4.114  11.064 -0.6906 -0.8632 -0.7627
 8224SOL    HW236132   2.990   3.972  11.027  1.3394 -0.5270  0.5020
 8225SOL     OW36133   3.860   0.947   3.668  0.4486  0.1337 -0.0560
 8225SOL    HW136134   3.913   1.011   3.619 -0.3826 -0.2516 -1.4750
 8225SOL    HW236135   3.919   0.875   3.688 -1.5462 -2.0061 -1.7744
 8226SOL     OW36136   1.899   1.344   8.536 -0.1752 -0.1451  0.0224
 8226SOL    HW136137   1.976   1.313   8.583 -0.4923  0.1868  0.7819
 8226SOL    HW236138   1.929   1.409   8.474 -1.7416  1.3802  0.8574
 8227SOL     OW36139   3.445   3.828   4.111  0.3678 -0.6211 -0.2200
 8227SOL    HW136140   3.529   3.790   4.084  0.0458 -0.3040 -1.6969
 8227SOL    HW236141   3.395   3.748   4.124  1.1205 -1.3500 -1.8213
 8228SOL     OW36142   1.155   0.393  17.582  0.3999  0.3015 -0.0250
 8228SOL    HW136143   1.163   0.483  17.614 -2.0477 -0.2761  2.2304
 8228SOL    HW236144   1.076   0.361  17.626 -0.6749  0.1926 -2.0383
 8229SOL     OW36145   1.231   3.671  11.530 -0.8285  0.2846 -0.3654
 8229SOL    HW136146   1.280   3.673  11.448  1.1818 -1.6235  0.8007
 8229SOL    HW236147   1.181   3.591  11.542 -1.0020  0.4412 -0.0462
 8230SOL     OW36148   4.442   3.896   1.100  0.6008 -0.0723  0.1541
 8230SOL    HW136149   4.364   3.938   1.137 -0.6382 -1.4355 -0.9294
 8230SOL    HW236150   4.499   3.916   1.175  0.5395 -1.5418  0.5799
 8231SOL     OW36151   2.927   2.205  10.823  0.1473 -0.8106 -0.4730
 8231SOL    HW136152   2.880   2.188  10.904 -2.0242 -0.6281 -1.6976
 8231SOL    HW236153   2.936   2.300  10.829  0.2584 -0.9432  1.4780
 8232SOL     OW36154   2.036   0.042   3.619  0.6037  0.1869  0.5607
 8232SOL    HW136155   2.053   0.117   3.677 -1.8636  1.6383 -0.5852
 8232SOL    HW236156   1.995   4.714   3.685  0.0229 -1.0673 -0.8588
 8233SOL     OW36157   4.350   3.219   3.357 -0.1268 -0.4260 -1.2868
 8233SOL    HW136158   4.272   3.176   3.321 -0.4651 -0.5481 -0.3989
 8233SOL    HW236159   4.305   3.274   3.421 -0.1183 -1.0119 -0.7833
 8234SOL     OW36160   0.043   4.504  14.159 -0.1611  0.0535 -0.0561
 8234SOL    HW136161   0.062   4.588  14.199  2.8183 -0.5163 -0.3265
 8234SOL    HW236162   0.064   4.515  14.066  1.2824  1.2638  0.4243
 8235SOL     OW36163   1.137   2.259  12.637 -0.0640 -0.7645 -0.2781
 8235SOL    HW136164   1.083   2.181  12.628 -0.9917  0.2258 -3.2013
 8235SOL    HW236165   1.187   2.240  12.717 -0.0991 -1.4186 -0.4113
 8236SOL     OW36166   3.378   0.561   5.855  0.4431  0.4714 -0.1998
 8236SOL    HW136167   3.353   0.610   5.776  0.2080  1.3482  0.4256
 8236SOL    HW236168   3.351   0.477   5.818 -0.9289  0.1178  1.6117
 8237SOL     OW36169   3.136   3.885   9.977  0.7112  0.3551 -0.6742
 8237SOL    HW136170   3.210   3.943   9.996  1.4728 -1.1702  1.0332
 8237SOL    HW236171   3.139   3.833  10.058  1.8386 -0.3272 -1.1537
 8238SOL     OW36172   3.625   3.552   1.414  0.2630  0.5035  0.1106
 8238SOL    HW136173   3.658   3.471   1.376 -0.6132 -0.2494  0.9753
 8238SOL    HW236174   3.635   3.607   1.335 -1.9054 -0.3180 -0.7133
 8239SOL     OW36175   1.707   2.370  12.323  0.4646  0.8715 -0.3704
 8239SOL    HW136176   1.656   2.358  12.403 -0.7207  1.2467 -1.0670
 8239SOL    HW236177   1.652   2.320  12.262  0.3372 -1.1842  1.4400
 8240SOL     OW36178   0.730   2.878   2.863  0.2109 -0.0792 -0.0590
 8240SOL    HW136179   0.792   2.854   2.794  1.4774  0.7111  0.8119
 8240SOL    HW236180   0.661   2.814   2.847  0.4782 -0.8343  1.6910
 8241SOL     OW36181   3.627   4.089   4.051 -0.4564  0.2526  0.0178
 8241SOL    HW136182   3.607   4.075   3.958 -1.3660 -0.4943  0.3146
 8241SOL    HW236183   3.557   4.148   4.081  1.6891  1.1362  3.2407
 8242SOL     OW36184   2.032   0.950  15.438 -0.2525 -0.0493 -0.7923
 8242SOL    HW136185   2.044   0.886  15.508  1.4989  1.1765  0.0340
 8242SOL    HW236186   2.112   0.940  15.386  1.2662 -0.6079  1.6596
 8243SOL     OW36187   2.788   3.332   1.363 -0.2317  0.0967 -0.2845
 8243SOL    HW136188   2.853   3.402   1.367 -0.3089  0.0908  1.0863
 8243SOL    HW236189   2.745   3.347   1.278 -1.0423 -1.6288 -0.1893
 8244SOL     OW36190   1.377   4.096   4.507 -0.1035  0.0348  0.0878
 8244SOL    HW136191   1.377   4.178   4.557  2.4952 -0.6302  1.2165
 8244SOL    HW236192   1.359   4.129   4.419  1.4092 -0.4880 -0.4242
 8245SOL     OW36193   2.133   0.256   3.785  0.5020  0.7029  0.0640
 8245SOL    HW136194   2.225   0.277   3.804 -0.4218  2.9024  2.0969
 8245SOL    HW236195   2.114   0.323   3.719 -1.2690 -0.8709 -1.0048
 8246SOL     OW36196   4.364   4.717   6.718 -0.2679  0.0222 -0.7755
 8246SOL    HW136197   4.335   4.627   6.705  1.6892 -0.8847  1.1466
 8246SOL    HW236198   4.372   4.711   6.813  0.1669 -1.0182 -0.8781
 8247SOL     OW36199   0.909   0.821   4.447 -0.2041  0.8220 -0.3558
 8247SOL    HW136200   0.881   0.890   4.508 -4.6957 -0.4263 -1.0039
 8247SOL    HW236201   0.822   0.785   4.431  0.5490 -1.4048  0.6095
 8248SOL     OW36202   1.174   4.125  10.205 -0.0207 -0.1213  0.1675
 8248SOL    HW136203   1.261   4.162  10.187  0.0930  0.1924  1.3222
 8248SOL    HW236204   1.141   4.089  10.123 -1.8687  1.4926  0.2021
 8249SOL     OW36205   2.080   2.172   5.492 -0.5140 -0.0817  0.2045
 8249SOL    HW136206   1.987   2.148   5.489 -0.1652 -1.5133  0.8218
 8249SOL    HW236207   2.089   2.214   5.578  1.1818  1.5352 -0.7646
 8250SOL     OW36208   1.670   3.934  17.535 -0.4731 -0.1550 -0.1553
 8250SOL    HW136209   1.714   3.862  17.490 -1.9189 -1.0850 -0.0492
 8250SOL    HW236210   1.745   3.989  17.559 -1.8170  0.7580  1.9299
 8251SOL     OW36211   1.624   0.088   5.955  0.5221 -0.1905  0.1448
 8251SOL    HW136212   1.590   0.115   6.040  0.2714  0.3179 -0.1186
 8251SOL    HW236213   1.637   0.176   5.919  1.0886 -0.5403 -0.4995
 8252SOL     OW36214   4.311   2.168   9.267  0.2640 -0.3702 -0.3681
 8252SOL    HW136215   4.259   2.120   9.202 -0.0542  0.0225 -0.4089
 8252SOL    HW236216   4.317   2.103   9.336  1.2342 -1.0994 -1.1414
 8253SOL     OW36217   2.800   4.385   4.675 -0.4930  0.4156  0.3023
 8253SOL    HW136218   2.823   4.324   4.606 -1.1275  1.0078 -0.4331
 8253SOL    HW236219   2.800   4.328   4.752  0.2042  0.6513  0.4744
 8254SOL     OW36220   0.930   2.705  16.483  0.3827  0.5911 -0.5933
 8254SOL    HW136221   0.944   2.756  16.563  0.5188 -0.7514  0.2300
 8254SOL    HW236222   0.990   2.738  16.415 -1.0853  0.7445 -1.8137
 8255SOL     OW36223   1.174   0.089  13.472 -0.0998  0.1537  0.4977
 8255SOL    HW136224   1.215   0.155  13.528 -0.1113 -0.3142  1.0677
 8255SOL    HW236225   1.088   0.127  13.461  0.8993  2.0879 -0.6293
 8256SOL     OW36226   0.243   4.559   4.772  0.4844 -0.3478 -0.5329
 8256SOL    HW136227   0.218   4.566   4.864  0.7331  1.7837 -0.6418
 8256SOL    HW236228   0.272   4.468   4.765  1.6627 -0.0488  0.5791
 8257SOL     OW36229   3.266   2.789   0.669  0.2708  0.4260  0.5482
 8257SOL    HW136230   3.248   2.730   0.742 -2.2536 -0.2772 -0.6632
 8257SOL    HW236231   3.213   2.868   0.674  1.9317  1.5449  0.6341
 8258SOL     OW36232   1.539   3.991   1.294 -0.6328  0.0383 -0.2291
 8258SOL    HW136233   1.593   4.046   1.351  0.6539 -0.5245 -0.9124
 8258SOL    HW236234   1.456   4.010   1.337 -0.1974  0.1029  0.5902
 8259SOL     OW36235   0.146   2.690  11.896 -0.2769 -0.4826 -0.1299
 8259SOL    HW136236   0.097   2.743  11.833 -1.3888 -0.8438  0.4246
 8259SOL    HW236237   0.124   2.739  11.975 -3.7007 -0.6585 -0.9875
 8260SOL     OW36238   3.414   2.591   6.258  0.5407 -0.5701  0.4248
 8260SOL    HW136239   3.320   2.607   6.263  0.2999 -2.1868  1.0912
 8260SOL    HW236240   3.437   2.638   6.178  0.3745  0.5703  1.0557
 8261SOL     OW36241   4.164   2.990   1.435  0.1845 -0.0151 -0.5334
 8261SOL    HW136242   4.094   3.051   1.413 -0.8855 -0.8014  0.6921
 8261SOL    HW236243   4.155   2.939   1.355  4.3030 -1.9879  0.2606
 8262SOL     OW36244   2.979   0.207   1.806 -0.1487 -0.1737 -0.0786
 8262SOL    HW136245   3.030   0.285   1.826  0.4308 -0.4354 -0.5239
 8262SOL    HW236246   3.011   0.154   1.879  1.3589 -2.2820 -2.2394
 8263SOL     OW36247   0.003   3.915   6.295 -0.2866  0.5044  0.0036
 8263SOL    HW136248   0.076   3.854   6.288  0.4223  1.2438  0.9649
 8263SOL    HW236249   4.656   3.867   6.258  0.2703  0.8450 -1.5253
 8264SOL     OW36250   4.287   4.093  12.294  0.5128 -0.2258 -0.2498
 8264SOL    HW136251   4.319   4.154  12.228  1.0664 -1.8020 -1.4456
 8264SOL    HW236252   4.342   4.014  12.300  0.5404 -0.1958 -0.0924
 8265SOL     OW36253   3.244   2.859   8.046 -0.4276 -0.2021  0.7073
 8265SOL    HW136254   3.185   2.858   8.122 -0.2941 -0.5479  0.8063
 8265SOL    HW236255   3.210   2.932   7.995 -0.7434 -2.0532 -1.7254
 8266SOL     OW36256   2.854   2.746   5.811 -0.4389 -0.1904  0.4193
 8266SOL    HW136257   2.874   2.811   5.878  1.7099 -1.1455  0.7024
 8266SOL    HW236258   2.762   2.730   5.833 -0.5205  0.3007  0.4270
 8267SOL     OW36259   1.097   0.599   7.908  0.1374 -0.0710  0.9558
 8267SOL    HW136260   1.052   0.515   7.914 -0.7473  0.2974 -0.5791
 8267SOL    HW236261   1.136   0.600   7.820 -0.8898 -0.6297  0.4972
 8268SOL     OW36262   2.866   0.813   5.991 -0.5801  0.0733  0.6220
 8268SOL    HW136263   2.947   0.785   6.033 -1.2021 -1.7138  0.6038
 8268SOL    HW236264   2.812   0.738   6.014 -1.3320  0.7928  1.2304
 8269SOL     OW36265   4.487   2.889  13.796  0.1169  0.3128  0.6896
 8269SOL    HW136266   4.563   2.844  13.832  0.8931  1.9959  1.1443
 8269SOL    HW236267   4.422   2.869  13.863  0.0439 -1.7310 -0.0068
 8270SOL     OW36268   2.247   4.205   6.404  0.0989 -0.1941 -0.2080
 8270SOL    HW136269   2.302   4.175   6.476  0.2618  0.4117 -0.0824
 8270SOL    HW236270   2.300   4.278   6.373  0.5601 -0.2219  0.5339
 8271SOL     OW36271   4.295   1.656   6.913 -0.2656 -0.3152 -0.2931
 8271SOL    HW136272   4.329   1.573   6.878  1.5367  0.6026 -0.7479
 8271SOL    HW236273   4.288   1.711   6.834  0.2835 -0.4236 -0.4168
 8272SOL     OW36274   1.009   1.513   9.613  0.2161  0.1867  0.1970
 8272SOL    HW136275   1.028   1.467   9.695 -1.9609 -0.1535  0.5090
 8272SOL    HW236276   0.926   1.478   9.581  0.6025 -0.3499 -0.2180
 8273SOL     OW36277   2.743   1.734   4.629  0.0161 -0.3285  0.2829
 8273SOL    HW136278   2.800   1.811   4.620 -1.3365  0.3238 -2.6939
 8273SOL    HW236279   2.787   1.677   4.567  0.3113  1.6255 -1.3127
 8274SOL     OW36280   2.058   0.287  12.038  0.0111 -0.5888  0.3765
 8274SOL    HW136281   1.998   0.311  11.967 -0.8434  0.7640  1.5510
 8274SOL    HW236282   2.138   0.319  11.998  0.8855  0.5271  3.0136
 8275SOL     OW36283   0.423   1.955   4.204 -0.0556  0.0445 -0.6892
 8275SOL    HW136284   0.419   1.964   4.109  3.1896 -1.0741 -0.9341
 8275SOL    HW236285   0.340   1.911   4.221  1.1211 -0.5824  3.4386
 8276SOL     OW36286   1.309   2.313  12.877 -0.3406  0.3109 -0.1806
 8276SOL    HW136287   1.271   2.350  12.957  0.1841 -0.3190  0.3553
 8276SOL    HW236288   1.382   2.259  12.905  0.7072  0.7582 -2.0618
 8277SOL     OW36289   0.280   0.965   9.645 -0.4752  0.1077 -0.1980
 8277SOL    HW136290   0.336   1.043   9.654 -1.9268  0.9836  1.2499
 8277SOL    HW236291   0.334   0.936   9.572 -0.0875  0.7509 -0.1671
 8278SOL     OW36292   4.598   1.116   3.447 -0.0987  0.4523 -0.1013
 8278SOL    HW136293   4.506   1.142   3.438 -1.9412 -4.8605  3.2938
 8278SOL    HW236294   4.629   1.206   3.454  2.4700 -0.5538  1.4672
 8279SOL     OW36295   1.478   1.151   7.804  0.1714  0.6812 -0.0374
 8279SOL    HW136296   1.507   1.066   7.836  2.2290  1.1968 -0.5261
 8279SOL    HW236297   1.501   1.144   7.711  1.1115 -0.7171  0.3115
 8280SOL     OW36298   0.497   1.586  10.994 -0.1229 -0.4949  0.2737
 8280SOL    HW136299   0.592   1.590  11.003 -0.0410  1.9541 -1.6432
 8280SOL    HW236300   0.469   1.643  11.065 -0.5773  1.0369 -1.1265
 8281SOL     OW36301   4.361   1.967   1.833  0.1525  0.4193  0.0511
 8281SOL    HW136302   4.351   1.874   1.809 -0.9014  0.2391  1.1888
 8281SOL    HW236303   4.435   1.968   1.893  1.6619 -0.5285 -1.7862
 8282SOL     OW36304   0.403   3.565   7.344  0.4559 -0.0352 -0.1558
 8282SOL    HW136305   0.326   3.572   7.401  1.9176  0.7217  1.7063
 8282SOL    HW236306   0.372   3.506   7.275 -1.9195 -0.0769  0.9351
 8283SOL     OW36307   3.099   3.541   0.728 -0.6003 -0.3009  0.5583
 8283SOL    HW136308   3.122   3.625   0.687 -0.3591  0.9257  3.1594
 8283SOL    HW236309   3.108   3.563   0.821  1.8898  1.7999 -0.1616
 8284SOL     OW36310   4.116   3.041   5.834 -0.0053  0.0018  0.1538
 8284SOL    HW136311   4.119   3.094   5.913  0.8438 -0.1113  0.1980
 8284SOL    HW236312   4.027   3.009   5.847 -0.0342  0.5467  1.3010
 8285SOL     OW36313   3.386   0.489   3.365  0.0850 -0.3050  0.0181
 8285SOL    HW136314   3.466   0.481   3.417  0.4274  2.0618 -0.1413
 8285SOL    HW236315   3.427   0.513   3.281 -0.7459  0.1288 -0.2627
 8286SOL     OW36316   0.475   4.273  10.299 -0.7542  0.4572 -0.5696
 8286SOL    HW136317   0.446   4.183  10.285  1.4988 -0.0657 -1.8404
 8286SOL    HW236318   0.389   4.315  10.305 -0.5986  0.9769 -2.0393
 8287SOL     OW36319   0.683   3.414  11.701  0.4595  0.3507  0.7576
 8287SOL    HW136320   0.713   3.328  11.733 -1.2711  0.7670  3.4769
 8287SOL    HW236321   0.769   3.455  11.691 -0.4947  2.1906  0.1830
 8288SOL     OW36322   4.199   2.562  14.085 -0.0851  0.2660 -0.1494
 8288SOL    HW136323   4.249   2.642  14.099 -0.1464  0.3606 -0.4815
 8288SOL    HW236324   4.201   2.543  13.992  1.4666  0.1605 -0.0816
 8289SOL     OW36325   0.960   2.322  11.488  0.6608 -0.2986  0.0704
 8289SOL    HW136326   0.981   2.301  11.397  0.2072  2.5617 -0.6968
 8289SOL    HW236327   1.046   2.326  11.530  0.0180  1.9029  1.1807
 8290SOL     OW36328   2.637   3.358   0.114  0.2132 -0.0331  0.0611
 8290SOL    HW136329   2.607   3.416   0.185  0.4968 -0.3801  0.4655
 8290SOL    HW236330   2.647   3.420   0.043  0.6023 -2.1953 -1.7562
 8291SOL     OW36331   1.054   2.278   3.174  0.4285  0.3888  0.3267
 8291SOL    HW136332   0.995   2.300   3.246  0.1475  1.2291 -0.1644
 8291SOL    HW236333   0.994   2.271   3.099  1.5808 -0.1735 -0.5361
 8292SOL     OW36334   1.454   1.236  10.997  0.3157 -0.0781  0.0015
 8292SOL    HW136335   1.471   1.258  10.906 -1.1273 -2.4067 -0.8374
 8292SOL    HW236336   1.531   1.250  11.052  0.0249  0.1736  0.3452
 8293SOL     OW36337   0.474   1.567   4.600 -0.0540 -0.1898 -0.6013
 8293SOL    HW136338   0.458   1.631   4.669 -1.5180 -1.6889  0.4639
 8293SOL    HW236339   0.435   1.604   4.521  0.1828  1.4506  0.0620
 8294SOL     OW36340   4.556   1.301   6.051 -0.5420 -0.1095  0.6515
 8294SOL    HW136341   4.485   1.237   6.060  0.0689 -1.2062 -2.2982
 8294SOL    HW236342   4.530   1.369   6.113 -1.5543 -1.5734  1.8267
 8295SOL     OW36343   1.000   2.034   0.974 -0.2187  0.3972 -0.2044
 8295SOL    HW136344   1.037   1.999   1.055  1.5794  1.3898 -0.5908
 8295SOL    HW236345   1.026   1.960   0.918  1.5527  1.2949 -0.5621
 8296SOL     OW36346   0.527   2.345  14.154 -0.1676 -0.0870 -0.7678
 8296SOL    HW136347   0.540   2.287  14.229  2.9809  1.8156  0.1389
 8296SOL    HW236348   0.610   2.386  14.129  1.3989 -1.6398  1.9645
 8297SOL     OW36349   1.471   1.499   2.751 -0.6341  0.1320  0.0803
 8297SOL    HW136350   1.457   1.422   2.697 -0.2456  0.7202 -0.8446
 8297SOL    HW236351   1.520   1.462   2.824  0.0203  1.5534  0.3603
 8298SOL     OW36352   1.759   4.274   1.680  0.3242 -0.2562  0.0445
 8298SOL    HW136353   1.854   4.276   1.691  0.2669  1.4309  0.1218
 8298SOL    HW236354   1.753   4.196   1.625  1.1682  0.2385 -0.7440
 8299SOL     OW36355   3.978   3.963  16.904 -0.1801 -0.1808 -0.4952
 8299SOL    HW136356   4.052   3.958  16.843  1.1357  1.3666  0.9947
 8299SOL    HW236357   3.936   4.045  16.877  1.5970 -0.1732 -3.2491
 8300SOL     OW36358   0.496   3.772   2.422  0.6836  0.2701 -0.2051
 8300SOL    HW136359   0.423   3.779   2.360 -0.1208  1.7360  0.9191
 8300SOL    HW236360   0.550   3.849   2.402  0.2108  0.1908 -1.8222
 8301SOL     OW36361   1.914   2.078   8.425 -0.3418  0.2648  0.0031
 8301SOL    HW136362   1.827   2.098   8.459 -1.4171 -1.6804 -1.6463
 8301SOL    HW236363   1.903   2.017   8.353 -0.8050 -0.2856  0.5384
 8302SOL     OW36364   0.271   0.398   6.017 -0.0016  0.0205  0.0226
 8302SOL    HW136365   0.269   0.389   5.922  0.2781  1.7669 -0.1484
 8302SOL    HW236366   0.334   0.334   6.048 -0.0914 -0.9069 -1.7897
 8303SOL     OW36367   0.069   1.990   5.496 -0.1659  0.1637 -0.0033
 8303SOL    HW136368   0.024   2.063   5.538  1.1162  0.5149  0.7741
 8303SOL    HW236369   0.161   2.018   5.500 -0.4313  0.7826  1.7656
 8304SOL     OW36370   3.323   3.747   4.809  0.3085 -0.1170  0.5532
 8304SOL    HW136371   3.229   3.741   4.792  0.4053  1.2198 -0.3967
 8304SOL    HW236372   3.348   3.655   4.822  0.5514 -0.0257  0.7235
 8305SOL     OW36373   3.755   0.656  12.208  0.3867  0.6697 -0.3419
 8305SOL    HW136374   3.674   0.670  12.257  0.7538  1.9417 -0.1020
 8305SOL    HW236375   3.815   0.647  12.282  0.5794 -0.7488 -0.6622
 8306SOL     OW36376   0.855   0.576  13.496 -0.1855  0.4373 -0.1447
 8306SOL    HW136377   0.936   0.627  13.493  0.2212 -0.2371 -0.9615
 8306SOL    HW236378   0.880   0.483  13.494 -0.8836  0.2135  1.4370
 8307SOL     OW36379   0.762   1.576   3.713  0.0823 -0.4248  0.2541
 8307SOL    HW136380   0.834   1.515   3.729  0.4143  0.5838  2.6130
 8307SOL    HW236381   0.764   1.627   3.794  3.3167  0.0513 -0.1150
 8308SOL     OW36382   0.361   3.271  12.687 -0.8023 -0.2031  0.1022
 8308SOL    HW136383   0.326   3.223  12.612  2.3690 -1.2203 -0.7477
 8308SOL    HW236384   0.282   3.299  12.733 -0.5747 -1.5947  1.3566
 8309SOL     OW36385   1.011   1.322   9.820 -0.2338 -0.0147  0.3084
 8309SOL    HW136386   1.011   1.303   9.914 -0.2015  1.0993  0.5378
 8309SOL    HW236387   0.916   1.336   9.813 -0.2146 -0.8878 -1.7066
 8310SOL     OW36388   1.774   1.737   1.898  0.5322 -0.3995 -0.2063
 8310SOL    HW136389   1.808   1.750   1.809  0.2730 -2.2485 -0.5875
 8310SOL    HW236390   1.712   1.668   1.871 -2.3761  2.3642 -0.6051
 8311SOL     OW36391   1.925   1.796   3.740  0.3902 -0.4801 -0.1534
 8311SOL    HW136392   1.889   1.879   3.772 -0.7591 -0.6477 -0.9976
 8311SOL    HW236393   2.000   1.827   3.688 -0.1400  1.1178  0.0362
 8312SOL     OW36394   4.390   1.359   9.830  0.4366 -0.3845 -0.2921
 8312SOL    HW136395   4.368   1.269   9.806 -0.0130  0.7346 -4.0754
 8312SOL    HW236396   4.429   1.389   9.748 -2.8026  1.9782 -1.0183
 8313SOL     OW36397   4.352   3.075   2.880 -0.3089  0.3421 -0.2613
 8313SOL    HW136398   4.416   3.134   2.920  0.0823  0.1573 -0.6139
 8313SOL    HW236399   4.403   3.020   2.821  3.1940  1.0776  2.0922
 8314SOL     OW36400   1.358   1.990   2.590  0.0902  0.2606  0.2115
 8314SOL    HW136401   1.444   2.016   2.625 -0.6016  3.0107 -0.1064
 8314SOL    HW236402   1.371   1.896   2.577  1.2772  0.0442  2.8816
 8315SOL     OW36403   0.761   0.873  15.498 -0.0304 -0.2777  0.5154
 8315SOL    HW136404   0.852   0.854  15.519  0.0053  1.2543  1.6947
 8315SOL    HW236405   0.776   0.918  15.415  1.2481  0.7799  1.3201
 8316SOL     OW36406   4.231   4.577  14.184  0.5423  0.0492 -0.3986
 8316SOL    HW136407   4.164   4.645  14.173 -0.0684 -0.3012  1.2285
 8316SOL    HW236408   4.208   4.540  14.099  1.2233  0.0597 -0.5917
 8317SOL     OW36409   3.783   0.534  15.462  0.3234 -0.0830  0.1784
 8317SOL    HW136410   3.789   0.535  15.558 -1.6140  0.5206  0.2895
 8317SOL    HW236411   3.738   0.617  15.445  1.5903  0.3629 -0.9735
 8318SOL     OW36412   4.304   1.673   7.195 -0.5093  0.2831 -0.0997
 8318SOL    HW136413   4.336   1.583   7.198  0.9245  0.7686 -0.7681
 8318SOL    HW236414   4.301   1.687   7.101  0.3415 -2.1346 -0.4839
 8319SOL     OW36415   2.604   2.094   8.834 -0.3452  0.2692  0.5159
 8319SOL    HW136416   2.520   2.072   8.794 -0.2675 -1.2573  1.1665
 8319SOL    HW236417   2.632   2.003   8.850 -1.6526  0.2975  2.9173
 8320SOL     OW36418   3.163   0.591   8.362 -0.2646 -0.2093 -0.1526
 8320SOL    HW136419   3.086   0.548   8.325 -0.7002  0.8058 -0.4261
 8320SOL    HW236420   3.233   0.562   8.303 -0.5172 -0.8206 -0.1469
 8321SOL     OW36421   2.510   3.598   8.406  1.0425 -0.6683 -0.0061
 8321SOL    HW136422   2.587   3.646   8.436  1.9392 -0.9516 -1.8353
 8321SOL    HW236423   2.435   3.646   8.439  0.5191 -1.7088  0.3313
 8322SOL     OW36424   0.836   1.974  14.500  0.1759  0.2881  0.1343
 8322SOL    HW136425   0.874   1.940  14.581 -1.5126 -1.1901  0.3094
 8322SOL    HW236426   0.857   1.913  14.429 -0.0472  0.6317 -0.2306
 8323SOL     OW36427   3.707   2.859   6.093  0.2967 -0.1196  0.0299
 8323SOL    HW136428   3.776   2.814   6.141  0.4703  1.5970  1.3701
 8323SOL    HW236429   3.737   2.949   6.083  0.0938 -0.4211 -3.5602
 8324SOL     OW36430   3.764   2.220  11.848  0.5289 -0.2602 -0.1161
 8324SOL    HW136431   3.847   2.174  11.847  1.5410  1.5486  0.6253
 8324SOL    HW236432   3.785   2.304  11.889 -1.2630  0.3858 -0.5002
 8325SOL     OW36433   0.662   3.785  17.273 -0.2082 -0.1720  0.0129
 8325SOL    HW136434   0.666   3.801  17.179  0.1314  0.7024  0.1793
 8325SOL    HW236435   0.746   3.747  17.297  1.2792  1.3794 -2.7596
 8326SOL     OW36436   0.512   2.822   7.714  0.0325  0.1414 -0.0547
 8326SOL    HW136437   0.591   2.870   7.738  0.0316  1.0736 -1.9621
 8326SOL    HW236438   0.466   2.826   7.798  1.9074 -0.7327  0.9946
 8327SOL     OW36439   3.679   2.742   8.539  0.5686  0.1329  0.0377
 8327SOL    HW136440   3.641   2.766   8.454  0.9568  0.1238 -0.1369
 8327SOL    HW236441   3.621   2.676   8.576 -0.8954  0.2375 -2.0634
 8328SOL     OW36442   4.487   1.417   5.713 -0.0878 -0.2656 -0.7667
 8328SOL    HW136443   4.419   1.435   5.778  1.2746  0.3738  0.5155
 8328SOL    HW236444   4.478   1.324   5.692 -3.3063 -0.4740  1.5176
 8329SOL     OW36445   4.173   1.043   4.688  0.0563  0.3935  0.5883
 8329SOL    HW136446   4.174   1.136   4.666 -0.2097  0.5790  1.3446
 8329SOL    HW236447   4.265   1.022   4.670 -0.4274 -0.6920 -0.6371
 8330SOL     OW36448   1.047   1.659   1.482 -0.6772  0.1480  0.5244
 8330SOL    HW136449   1.135   1.626   1.502 -0.7238  0.5902  1.4179
 8330SOL    HW236450   1.017   1.680   1.570 -1.0785 -1.3832  0.7530
 8331SOL     OW36451   3.898   4.000  11.542 -0.2986  0.0280  0.5025
 8331SOL    HW136452   3.874   4.010  11.450  0.8615  2.0202  0.4241
 8331SOL    HW236453   3.872   4.088  11.568  0.0699  0.2257  0.1926
 8332SOL     OW36454   0.408   3.321   8.812 -0.4198 -0.5282 -0.9242
 8332SOL    HW136455   0.342   3.340   8.879 -0.4839 -1.9368 -0.5766
 8332SOL    HW236456   0.439   3.232   8.829 -1.5504 -0.8422 -0.4596
 8333SOL     OW36457   3.685   2.358   9.739 -0.6803  0.2808 -0.1756
 8333SOL    HW136458   3.604   2.402   9.764 -0.5240 -0.1401  1.0591
 8333SOL    HW236459   3.666   2.343   9.646 -4.4147  1.2513  0.4215
 8334SOL     OW36460   2.438   4.163   8.142 -0.1161  0.0668 -0.1088
 8334SOL    HW136461   2.499   4.093   8.164 -0.0660  0.1997  0.1853
 8334SOL    HW236462   2.456   4.216   8.220  2.8192 -0.5506 -0.3593
 8335SOL     OW36463   1.020   1.101   4.311 -0.2987 -0.0772  0.3033
 8335SOL    HW136464   0.943   1.149   4.341 -0.7031 -1.2943  1.1568
 8335SOL    HW236465   1.075   1.116   4.388  1.8920 -0.2545 -1.2226
 8336SOL     OW36466   3.672   4.010   7.064  0.3156 -0.5320 -0.1471
 8336SOL    HW136467   3.597   3.971   7.108  0.7961  0.4655  1.5484
 8336SOL    HW236468   3.739   3.941   7.053 -0.0876 -0.8025 -0.9628
 8337SOL     OW36469   0.639   0.906   9.636  0.2838 -0.1936  0.5416
 8337SOL    HW136470   0.719   0.872   9.677  0.7138 -0.8508 -0.8203
 8337SOL    HW236471   0.604   0.957   9.709  1.2034  0.1980  0.7129
 8338SOL     OW36472   0.437   2.553   3.277 -0.2488  0.3160  0.5373
 8338SOL    HW136473   0.426   2.516   3.189 -1.6666 -0.3246  0.9855
 8338SOL    HW236474   0.349   2.573   3.308 -0.1442 -0.0926  1.0942
 8339SOL     OW36475   4.429   2.326  13.516 -0.4440  0.1650  0.1722
 8339SOL    HW136476   4.510   2.283  13.543 -1.1733 -1.5400 -0.3430
 8339SOL    HW236477   4.368   2.297  13.583 -0.9267 -0.7120 -0.6363
 8340SOL     OW36478   1.568   1.270   0.076  0.7102  0.0637  0.6079
 8340SOL    HW136479   1.648   1.220   0.058  1.2578  0.8103  1.0016
 8340SOL    HW236480   1.551   1.235   0.163 -0.8366  2.5967  1.3116
 8341SOL     OW36481   3.197   2.273   7.733 -0.1104 -0.3290 -0.4852
 8341SOL    HW136482   3.208   2.341   7.667  2.1734  1.1169  1.3645
 8341SOL    HW236483   3.215   2.316   7.817  1.2526  2.2281 -2.0708
 8342SOL     OW36484   2.432   0.166   2.965  0.0186  0.4852  0.5514
 8342SOL    HW136485   2.377   0.230   2.920  0.7675  0.9747  0.3186
 8342SOL    HW236486   2.376   0.090   2.979  0.2249  0.3398  0.5847
 8343SOL     OW36487   3.389   3.465   4.335 -0.1899  0.0325  0.9427
 8343SOL    HW136488   3.314   3.410   4.312 -0.2452  0.4477  0.1557
 8343SOL    HW236489   3.433   3.480   4.252  1.4279  0.2492  1.8355
 8344SOL     OW36490   2.309   1.124   2.957 -0.0674  0.5427 -0.5531
 8344SOL    HW136491   2.233   1.136   2.899  0.6152 -0.3155 -1.6233
 8344SOL    HW236492   2.341   1.214   2.950 -1.2261  1.0299  0.3882
 8345SOL     OW36493   2.915   2.506   4.624  0.1668  0.1856 -0.3719
 8345SOL    HW136494   2.894   2.471   4.711  0.4739 -0.4232 -0.5372
 8345SOL    HW236495   3.006   2.476   4.627 -0.3475 -1.2551  0.7662
 8346SOL     OW36496   4.032   1.985   2.277  0.5211  0.2571 -0.3412
 8346SOL    HW136497   3.949   2.014   2.237 -0.6847 -0.7105  1.4575
 8346SOL    HW236498   4.080   1.947   2.204  2.5228 -1.1307  1.7074
 8347SOL     OW36499   2.562   2.924   4.079  0.2899  0.2355 -0.2598
 8347SOL    HW136500   2.505   2.959   4.010  3.4327  0.8909 -2.5126
 8347SOL    HW236501   2.558   2.994   4.144 -0.6274  0.3700 -0.4573
 8348SOL     OW36502   4.713   0.626   4.442 -0.4222  0.5289 -0.6259
 8348SOL    HW136503   4.626   0.663   4.456 -1.0349 -0.8798 -0.7106
 8348SOL    HW236504   4.694   0.536   4.470  1.8658  0.0070 -0.7787
 8349SOL     OW36505   0.362   0.105   9.212 -0.3581  0.1840  0.1694
 8349SOL    HW136506   0.425   0.175   9.226 -1.5891  1.1913  0.6502
 8349SOL    HW236507   0.404   0.030   9.254 -0.9108  0.9710  2.1448
 8350SOL     OW36508   2.506   3.995   8.747  0.2376  0.2537  0.4101
 8350SOL    HW136509   2.529   3.973   8.657 -1.7638 -3.4781  0.8191
 8350SOL    HW236510   2.577   4.056   8.770  0.8427 -0.0099 -0.7638
 8351SOL     OW36511   3.012   0.421   5.608 -0.0496 -0.3404  0.0573
 8351SOL    HW136512   2.919   0.440   5.620  0.4767  2.3136  0.0796
 8351SOL    HW236513   3.030   0.488   5.542  0.2075  0.3327  0.8162
 8352SOL     OW36514   2.423   1.957   2.361 -0.6202 -0.1552  0.0038
 8352SOL    HW136515   2.390   1.980   2.274  0.2438  2.9982  0.4830
 8352SOL    HW236516   2.411   1.863   2.352 -0.9280 -0.2110  1.0069
 8353SOL     OW36517   0.150   2.523   2.659  0.0201  0.0864  0.3751
 8353SOL    HW136518   0.142   2.429   2.675 -1.3339  0.2866  0.9417
 8353SOL    HW236519   0.055   2.539   2.665 -0.1679 -1.1161  0.5295
 8354SOL     OW36520   2.141   2.768   7.133 -0.0148  0.1136  0.0130
 8354SOL    HW136521   2.076   2.770   7.203 -0.3225  1.6378 -0.3164
 8354SOL    HW236522   2.169   2.860   7.139  0.1148  0.0038  1.1205
 8355SOL     OW36523   2.915   1.993   8.326 -0.4581  0.0212  0.0643
 8355SOL    HW136524   2.844   1.946   8.281 -1.0774 -1.2119  2.3075
 8355SOL    HW236525   2.979   2.009   8.257 -0.5464  0.4843  0.0938
 8356SOL     OW36526   1.508   1.144   5.635  0.0775 -0.6429  0.0217
 8356SOL    HW136527   1.520   1.169   5.543 -3.0352  2.2530  0.3947
 8356SOL    HW236528   1.455   1.220   5.660  2.8565  0.5733  2.1970
 8357SOL     OW36529   0.906   1.000   2.344  0.0336 -0.4545 -0.4009
 8357SOL    HW136530   0.830   1.057   2.360 -0.1670 -1.2514  1.4847
 8357SOL    HW236531   0.874   0.923   2.296 -1.4670  0.2833 -0.6118
 8358SOL     OW36532   0.993   2.369   8.575  0.3703 -0.0645  0.2038
 8358SOL    HW136533   0.972   2.405   8.489 -1.2167 -1.0830  0.1545
 8358SOL    HW236534   0.912   2.382   8.625  1.4699 -0.8061  2.1773
 8359SOL     OW36535   1.431   3.380   9.624  0.3534 -0.5480  0.0148
 8359SOL    HW136536   1.460   3.301   9.671 -1.0573 -1.1343 -0.1062
 8359SOL    HW236537   1.510   3.392   9.572 -0.5520  1.2844 -0.9102
 8360SOL     OW36538   3.136   3.283   0.201 -0.4565 -0.4477 -0.1049
 8360SOL    HW136539   3.182   3.203   0.228  1.0384 -0.8944 -3.9533
 8360SOL    HW236540   3.046   3.258   0.223 -1.1017  1.0208 -1.0678
 8361SOL     OW36541   0.177   1.225   8.284  0.2332 -0.1341 -0.4111
 8361SOL    HW136542   0.148   1.139   8.255  1.8806 -0.9410  0.3556
 8361SOL    HW236543   0.257   1.217   8.232 -0.6542 -0.7240 -1.6736
 8362SOL     OW36544   1.760   1.404   6.459  0.4878  0.8299  0.8169
 8362SOL    HW136545   1.718   1.321   6.481  0.7091  0.9015  1.4928
 8362SOL    HW236546   1.723   1.437   6.377 -1.5204  1.3064  1.9399
 8363SOL     OW36547   1.877   0.782   8.075 -0.3713 -0.3911  0.0840
 8363SOL    HW136548   1.842   0.869   8.094  0.3904 -0.0608 -0.0124
 8363SOL    HW236549   1.945   0.802   8.010  0.0562 -3.7658 -0.4638
 8364SOL     OW36550   3.422   2.102   6.193 -0.8165  0.0128 -0.0697
 8364SOL    HW136551   3.486   2.090   6.263 -0.2161  1.1411 -0.4249
 8364SOL    HW236552   3.442   2.188   6.158 -0.1556 -0.5345 -1.0170
 8365SOL     OW36553   1.532   2.525   1.604 -0.2360  0.0283  0.2609
 8365SOL    HW136554   1.477   2.552   1.677 -0.9747 -0.8267  0.0227
 8365SOL    HW236555   1.477   2.459   1.561  2.5339 -2.6850  0.8915
 8366SOL     OW36556   3.773   0.878  15.670 -0.5295 -0.1552 -0.0076
 8366SOL    HW136557   3.776   0.820  15.745  0.2679 -1.8624 -1.3560
 8366SOL    HW236558   3.748   0.815  15.602 -1.7940 -0.8346  1.0899
 8367SOL     OW36559   4.331   2.184   1.138  0.1269 -0.1470  0.5598
 8367SOL    HW136560   4.426   2.191   1.149 -0.1171  1.1962  1.8983
 8367SOL    HW236561   4.309   2.091   1.142  3.4125 -0.9546  0.3086
 8368SOL     OW36562   3.600   3.938   4.730  0.6060  0.2054  0.1911
 8368SOL    HW136563   3.598   3.857   4.678  3.9730  1.4397 -1.8508
 8368SOL    HW236564   3.651   3.899   4.801  0.5409 -2.6907 -1.3241
 8369SOL     OW36565   1.591   1.316   6.046  0.0928  0.1250 -0.2293
 8369SOL    HW136566   1.664   1.294   5.989  0.3767  1.3856 -0.3327
 8369SOL    HW236567   1.572   1.228   6.080  1.3723 -0.7378 -1.8005
 8370SOL     OW36568   2.205   1.352   5.248 -0.0592  0.0725 -0.0708
 8370SOL    HW136569   2.259   1.300   5.187 -0.1633  0.4099 -0.4494
 8370SOL    HW236570   2.226   1.442   5.222  2.8728 -0.9358 -1.2752
 8371SOL     OW36571   0.169   1.819  10.962 -0.3295 -0.1076  0.0125
 8371SOL    HW136572   0.082   1.789  10.935 -1.2129  1.7459  0.8731
 8371SOL    HW236573   0.218   1.745  10.925 -1.1088 -2.0921  2.9821
 8372SOL     OW36574   3.532   2.980   2.047  0.3389 -0.3937  0.2002
 8372SOL    HW136575   3.445   3.017   2.033  0.3154 -0.1091  1.1095
 8372SOL    HW236576   3.505   2.888   2.058  1.1376 -0.3910  2.1364
 8373SOL     OW36577   2.142   2.226   6.719  0.2287  0.3563  0.4590
 8373SOL    HW136578   2.141   2.263   6.630 -2.0566  1.4014  0.9120
 8373SOL    HW236579   2.053   2.253   6.741 -1.1209 -3.4916 -0.2675
 8374SOL     OW36580   0.953   4.509   0.520  0.4760 -0.8274 -0.2615
 8374SOL    HW136581   0.980   4.543   0.435 -1.1970  1.1534 -0.0065
 8374SOL    HW236582   1.004   4.556   0.585  1.8636 -0.0888 -1.9094
 8375SOL     OW36583   3.928   3.192   4.147  0.0720 -0.3639  0.1025
 8375SOL    HW136584   3.938   3.145   4.230 -0.1731 -0.0128  0.3320
 8375SOL    HW236585   3.855   3.252   4.166 -0.3889 -0.5839 -0.9974
 8376SOL     OW36586   2.685   0.120   9.204  0.1428 -0.5256  0.4765
 8376SOL    HW136587   2.638   0.200   9.229 -0.6994 -1.1490  0.8937
 8376SOL    HW236588   2.727   0.103   9.288 -0.5528 -1.1295  0.6990
 8377SOL     OW36589   4.309   3.436   6.272 -0.6079 -0.3226  0.4549
 8377SOL    HW136590   4.230   3.462   6.321 -1.5488 -1.5757 -0.4001
 8377SOL    HW236591   4.360   3.390   6.339 -0.4058 -1.4267 -0.4573
 8378SOL     OW36592   1.010   4.065   3.152  0.0333  0.1725 -0.2753
 8378SOL    HW136593   1.091   4.092   3.195 -1.1823  0.6370  1.6916
 8378SOL    HW236594   1.029   4.094   3.062 -0.8091  2.0400  0.1617
 8379SOL     OW36595   1.418   0.426   9.501  0.1581  0.0930  0.0280
 8379SOL    HW136596   1.330   0.434   9.466  0.6897 -0.1998 -1.3853
 8379SOL    HW236597   1.467   0.499   9.463 -0.8788  0.5356 -0.4364
 8380SOL     OW36598   1.499   4.480   8.552  0.3626  0.3437 -0.6615
 8380SOL    HW136599   1.590   4.494   8.577 -0.9488  1.1639  3.5877
 8380SOL    HW236600   1.458   4.561   8.581 -1.5950 -0.3364 -1.4819
 8381SOL     OW36601   4.117   1.430   0.075  0.0092  0.2224 -0.2869
 8381SOL    HW136602   4.170   1.509   0.061  3.8121 -2.0939  1.0315
 8381SOL    HW236603   4.183   1.376   0.118  0.8895  2.5083  1.2365
 8382SOL     OW36604   2.392   0.107   6.341  0.2248 -0.0397 -0.7023
 8382SOL    HW136605   2.481   0.089   6.370 -0.0606 -0.1050  0.1208
 8382SOL    HW236606   2.394   0.203   6.343  0.6600 -0.0514 -0.5587
 8383SOL     OW36607   0.758   0.696  13.887  0.2825  0.7033 -0.6263
 8383SOL    HW136608   0.717   0.683  13.802 -2.3118 -0.3459  0.8044
 8383SOL    HW236609   0.780   0.789  13.884  0.4427  0.7289  1.0023
 8384SOL     OW36610   2.823   3.724   5.815  0.0843 -0.0671  0.1124
 8384SOL    HW136611   2.755   3.790   5.799  0.8101  1.0182  1.5404
 8384SOL    HW236612   2.871   3.731   5.732  0.0170 -1.5034 -0.0430
 8385SOL     OW36613   2.120   4.459   3.348  0.7587  0.2320  0.2032
 8385SOL    HW136614   2.209   4.452   3.315  0.1661 -0.8776 -1.2025
 8385SOL    HW236615   2.074   4.428   3.269 -0.5991 -2.1675  1.9510
 8386SOL     OW36616   1.929   3.515   4.401  0.3240 -0.5031  0.2441
 8386SOL    HW136617   1.996   3.447   4.399 -1.2897 -2.0992  0.6361
 8386SOL    HW236618   1.953   3.562   4.322 -1.9863 -0.5242 -0.4745
 8387SOL     OW36619   2.256   2.951   0.464  0.0626  0.9515 -0.3212
 8387SOL    HW136620   2.323   2.910   0.519 -1.5331  1.1075  1.6870
 8387SOL    HW236621   2.313   2.989   0.396  0.3044  0.2591 -0.5106
 8388SOL     OW36622   0.178   2.396  16.797  0.4176  0.4491  0.6918
 8388SOL    HW136623   0.131   2.407  16.880  0.3654 -1.6323  0.9283
 8388SOL    HW236624   0.110   2.398  16.729 -1.7957  1.4440  2.9208
 8389SOL     OW36625   1.695   0.757   5.343 -0.7183  0.4812 -0.2166
 8389SOL    HW136626   1.630   0.774   5.412 -0.9311 -0.1560 -0.2593
 8389SOL    HW236627   1.657   0.689   5.287 -2.3954  0.0023  1.5097
 8390SOL     OW36628   2.488   3.849   1.390  0.1088 -0.3946 -0.3352
 8390SOL    HW136629   2.510   3.793   1.465  1.5765 -0.1537 -0.6018
 8390SOL    HW236630   2.431   3.791   1.339 -1.3048  0.6463  0.0791
 8391SOL     OW36631   3.125   4.635  14.474 -0.2755 -0.2467 -0.2956
 8391SOL    HW136632   3.084   4.580  14.541 -1.1792  2.9239  1.7222
 8391SOL    HW236633   3.199   4.653  14.532 -1.0563  0.7741  0.3762
 8392SOL     OW36634   2.240   3.306   3.719 -0.4104 -0.0494 -0.0663
 8392SOL    HW136635   2.254   3.390   3.764 -1.9123  0.3580 -0.3576
 8392SOL    HW236636   2.209   3.336   3.634 -0.0210  0.8749  0.1125
 8393SOL     OW36637   4.103   0.751   8.403  0.4433 -0.7155 -0.1461
 8393SOL    HW136638   4.157   0.710   8.335 -0.7197 -1.7282 -0.4806
 8393SOL    HW236639   4.044   0.677   8.417  0.3597 -0.1454  2.5012
 8394SOL     OW36640   2.233   0.950   4.281 -1.3099  0.4396  0.2017
 8394SOL    HW136641   2.219   0.969   4.189  0.4708 -2.1490 -0.6021
 8394SOL    HW236642   2.147   0.966   4.321 -1.6534  0.5287 -0.5862
 8395SOL     OW36643   3.406   0.813   2.307 -0.7229  0.3664  0.1358
 8395SOL    HW136644   3.487   0.862   2.299 -1.0383  1.1052  1.3769
 8395SOL    HW236645   3.444   0.725   2.304 -3.3833 -0.7859  0.2093
 8396SOL     OW36646   0.997   2.120   5.369  0.5350 -0.5659 -0.1252
 8396SOL    HW136647   0.988   2.041   5.423 -2.0832 -0.5525 -0.5333
 8396SOL    HW236648   0.906   2.149   5.366  0.6681  0.0953  1.8862
 8397SOL     OW36649   1.365   3.533   9.846 -0.1256  0.2615  0.3606
 8397SOL    HW136650   1.382   3.486   9.765  0.8396  0.3838  0.4922
 8397SOL    HW236651   1.414   3.614   9.829  0.3974 -0.1300  0.0141
 8398SOL     OW36652   0.007   3.523   2.514 -0.2040  0.1738  0.1277
 8398SOL    HW136653   0.102   3.530   2.507 -0.2862  1.8657  0.7117
 8398SOL    HW236654   4.709   3.433   2.494 -3.8174  1.2955 -0.2862
 8399SOL     OW36655   1.260   0.411   9.286  0.4818  0.5539  0.2461
 8399SOL    HW136656   1.196   0.352   9.327 -0.5167 -0.0166 -2.0851
 8399SOL    HW236657   1.208   0.461   9.223  0.4102 -1.8374 -1.6012
 8400SOL     OW36658   0.337   3.732   6.474  0.1177 -1.0307 -0.6507
 8400SOL    HW136659   0.329   3.648   6.520 -2.8379  0.2558  1.1612
 8400SOL    HW236660   0.382   3.783   6.541  0.7451 -1.9891 -0.3469
 8401SOL     OW36661   3.107   2.521  11.303  0.2343  0.2278  0.3543
 8401SOL    HW136662   3.103   2.492  11.212 -2.3687  1.6820 -0.0082
 8401SOL    HW236663   3.195   2.556  11.305  0.0495  0.6942  0.2339
 8402SOL     OW36664   2.482   3.415  17.336 -0.4037 -0.1284  0.6231
 8402SOL    HW136665   2.430   3.334  17.342 -1.3339  0.5066  1.0628
 8402SOL    HW236666   2.475   3.445  17.246 -0.5958  1.9907  1.3555
 8403SOL     OW36667   2.858   1.472   7.188 -0.3178 -0.0637 -0.2099
 8403SOL    HW136668   2.786   1.500   7.132 -0.9437  0.7494  0.9941
 8403SOL    HW236669   2.827   1.386   7.214 -0.2132  0.4905  1.7586
 8404SOL     OW36670   0.296   1.914   5.905  0.1118  0.7507  0.2280
 8404SOL    HW136671   0.324   1.999   5.871  2.0301 -0.2230 -0.6313
 8404SOL    HW236672   0.209   1.938   5.937  0.1334 -0.0037  0.8496
 8405SOL     OW36673   0.486   2.566  10.628  0.1039 -0.1287  0.5251
 8405SOL    HW136674   0.548   2.561  10.701 -0.7124  0.8214  1.2796
 8405SOL    HW236675   0.527   2.637  10.579  0.4054 -1.1262 -0.6490
 8406SOL     OW36676   3.338   2.226  11.065 -0.0270 -0.4825  0.3463
 8406SOL    HW136677   3.402   2.213  10.995 -0.9138  0.4619 -0.6318
 8406SOL    HW236678   3.292   2.302  11.030  1.3265  0.9168  1.5834
 8407SOL     OW36679   1.371   4.697  10.413  0.4026 -0.3708  0.0724
 8407SOL    HW136680   1.398   0.008  10.330 -2.5125 -0.2386 -0.8473
 8407SOL    HW236681   1.300   4.640  10.383  2.0554 -1.0172 -2.6005
 8408SOL     OW36682   1.520   1.769   9.302  0.0040 -0.4067  0.4332
 8408SOL    HW136683   1.488   1.692   9.349 -0.1852 -0.7413 -0.2589
 8408SOL    HW236684   1.581   1.728   9.241  0.3505  2.3658 -1.0758
 8409SOL     OW36685   0.697   1.850   6.550 -0.0803 -0.0253 -0.0835
 8409SOL    HW136686   0.647   1.847   6.469 -0.4594 -1.3082  0.2003
 8409SOL    HW236687   0.693   1.761   6.585  0.2212  0.1491  0.3925
 8410SOL     OW36688   1.661   3.294   2.065 -0.2928  0.2405 -0.1234
 8410SOL    HW136689   1.617   3.289   1.980 -2.7433  0.4607  1.1110
 8410SOL    HW236690   1.666   3.386   2.093 -1.1656 -0.0987  1.1718
 8411SOL     OW36691   0.651   3.764  10.310 -0.1290 -0.8277 -1.1388
 8411SOL    HW136692   0.728   3.722  10.269  1.4048  0.5090  0.3711
 8411SOL    HW236693   0.652   3.852  10.273  1.9010 -0.8347 -1.1383
 8412SOL     OW36694   3.710   4.453  10.500  0.2590 -0.1835  0.0106
 8412SOL    HW136695   3.731   4.366  10.466  1.0778  0.5440 -1.3311
 8412SOL    HW236696   3.745   4.450  10.589 -0.3892  1.2923  0.3083
 8413SOL     OW36697   2.423   3.374  12.290  0.2192  0.3047 -0.1830
 8413SOL    HW136698   2.482   3.308  12.254  0.7515  0.6958 -0.0369
 8413SOL    HW236699   2.481   3.450  12.285 -1.4968  1.5407 -1.6123
 8414SOL     OW36700   3.216   2.664   2.519 -0.0955 -0.6229 -0.3067
 8414SOL    HW136701   3.305   2.694   2.499 -0.2320  0.5822  0.9177
 8414SOL    HW236702   3.179   2.670   2.431  0.0160  3.1054 -0.1057
 8415SOL     OW36703   0.185   3.118   3.963  0.4505  0.0123  0.6600
 8415SOL    HW136704   0.259   3.101   3.905 -1.1800 -4.7080 -0.0527
 8415SOL    HW236705   0.219   3.196   4.006  1.5441  0.4505 -1.0018
 8416SOL     OW36706   0.453   4.296  14.292  0.1965 -0.3679 -0.1093
 8416SOL    HW136707   0.483   4.207  14.272  0.2676 -0.3274 -0.1866
 8416SOL    HW236708   0.409   4.330  14.213 -2.2469  2.9648  2.6673
 8417SOL     OW36709   3.121   3.551   4.999  0.4773  0.3876 -0.5498
 8417SOL    HW136710   3.093   3.633   4.957 -0.7316  0.4646  0.4195
 8417SOL    HW236711   3.071   3.549   5.080  0.6459 -2.5071 -0.5478
 8418SOL     OW36712   2.696   4.291  10.572 -0.5605 -0.2299  0.5488
 8418SOL    HW136713   2.641   4.215  10.554  0.2166 -0.1168 -2.2564
 8418SOL    HW236714   2.754   4.271  10.499  0.7452  0.1896  1.4734
 8419SOL     OW36715   0.878   3.108   3.286 -0.5726 -0.4423  0.1230
 8419SOL    HW136716   0.833   3.109   3.201  1.9467 -1.2961 -1.2284
 8419SOL    HW236717   0.967   3.133   3.259  0.7910 -3.3848  1.8363
 8420SOL     OW36718   3.121   0.308   9.949 -0.4832  0.1797  0.0466
 8420SOL    HW136719   3.192   0.366   9.976  0.5902 -1.4878  0.8280
 8420SOL    HW236720   3.162   0.253   9.882  1.7928  0.0358  1.5875
 8421SOL     OW36721   2.917   3.245   9.007  0.2779  0.2473  0.2565
 8421SOL    HW136722   2.837   3.283   8.970 -0.6392 -0.2829  1.6787
 8421SOL    HW236723   2.913   3.279   9.097  1.0884  0.2854  0.2748
 8422SOL     OW36724   3.116   0.553   1.507 -0.2041  0.1702  0.5864
 8422SOL    HW136725   3.095   0.473   1.460  2.2365  0.0434 -0.3073
 8422SOL    HW236726   3.171   0.609   1.452 -1.1879  0.4696 -0.0890
 8423SOL     OW36727   4.357   2.683   5.707  0.0451 -0.9074 -0.0951
 8423SOL    HW136728   4.423   2.738   5.665  0.8984 -0.2558  2.0773
 8423SOL    HW236729   4.276   2.726   5.682  0.6125 -0.5921 -1.3836
 8424SOL     OW36730   2.731   0.507   0.742  0.0559  0.3467  0.3856
 8424SOL    HW136731   2.748   0.601   0.746  0.2497  0.4185 -1.7440
 8424SOL    HW236732   2.681   0.481   0.819 -0.4217  0.9033  0.2643
 8425SOL     OW36733   4.579   3.701   1.324  0.0732 -0.8140 -0.2463
 8425SOL    HW136734   4.563   3.794   1.343 -1.1293 -1.3411  1.4059
 8425SOL    HW236735   4.524   3.666   1.395 -1.7656  1.0321 -0.7687
 8426SOL     OW36736   0.773   2.412   2.869 -0.1094  0.1494  0.3877
 8426SOL    HW136737   0.681   2.440   2.867 -0.4776 -0.7974  4.7679
 8426SOL    HW236738   0.811   2.435   2.785 -0.6296  1.1342  0.4144
 8427SOL     OW36739   4.082   0.166   8.841 -0.2397 -0.1943  0.1533
 8427SOL    HW136740   4.086   0.261   8.853 -0.5927  0.0976 -2.1265
 8427SOL    HW236741   4.016   0.169   8.772 -0.4185  1.1002  0.3864
 8428SOL     OW36742   2.141   1.080  11.215 -0.4219 -0.5045  0.5651
 8428SOL    HW136743   2.046   1.068  11.216 -0.3809 -0.8565  0.3098
 8428SOL    HW236744   2.177   1.007  11.264  0.2123 -0.2395  0.4928
 8429SOL     OW36745   3.653   2.391   5.106  0.0239 -0.0979  0.1078
 8429SOL    HW136746   3.687   2.360   5.023  0.3476 -0.1586  0.2635
 8429SOL    HW236747   3.733   2.404   5.158  0.1739  0.7120 -0.3184
 8430SOL     OW36748   3.901   2.115   3.043  0.5934 -0.4554  0.5925
 8430SOL    HW136749   3.828   2.057   3.023  1.6596 -0.8407 -2.2262
 8430SOL    HW236750   3.975   2.075   2.998  0.9825  1.4414 -0.4816
 8431SOL     OW36751   0.018   3.564   4.239  0.3520 -0.5221  0.0494
 8431SOL    HW136752   0.042   3.523   4.156  0.4699  0.0712 -0.2106
 8431SOL    HW236753   0.103   3.600   4.263  0.2406 -0.8996  1.0313
 8432SOL     OW36754   1.839   2.250   7.124 -0.0530  0.7092 -0.6535
 8432SOL    HW136755   1.922   2.245   7.077  0.0051  0.3257 -0.5167
 8432SOL    HW236756   1.822   2.344   7.115 -0.7241  0.4682 -1.8511
 8433SOL     OW36757   3.900   2.325   4.617 -0.3195 -0.3348  0.0481
 8433SOL    HW136758   3.843   2.363   4.550  0.4641 -0.0927 -0.4688
 8433SOL    HW236759   3.882   2.388   4.688  4.0868  0.8090  0.1097
 8434SOL     OW36760   1.708   2.823   5.261  0.1737  0.3250 -0.2132
 8434SOL    HW136761   1.780   2.790   5.207  0.2059 -1.8134  1.1296
 8434SOL    HW236762   1.658   2.744   5.280  1.7819 -0.7297 -0.3373
 8435SOL     OW36763   1.193   0.746   9.728  0.0680  0.1549  0.5453
 8435SOL    HW136764   1.288   0.737   9.716 -0.0206  1.5985 -1.2235
 8435SOL    HW236765   1.173   0.653   9.737  0.0422  0.1562  0.5027
 8436SOL     OW36766   0.528   2.322   5.214  0.4010 -0.0484 -0.1480
 8436SOL    HW136767   0.514   2.407   5.174 -0.4362  0.1870  0.6538
 8436SOL    HW236768   0.593   2.349   5.279 -1.2615 -1.6063  2.1879
 8437SOL     OW36769   4.079   1.197   7.785  0.4615 -0.5011 -0.1539
 8437SOL    HW136770   3.994   1.238   7.800  0.0108 -1.2174 -0.8019
 8437SOL    HW236771   4.083   1.166   7.876 -2.7489  2.4725  0.9978
 8438SOL     OW36772   2.460   3.087   9.036  0.0085  0.2216 -0.0630
 8438SOL    HW136773   2.449   3.182   9.043 -0.8631 -0.0042  1.6931
 8438SOL    HW236774   2.552   3.089   9.011  0.2626  0.0220  0.8556
 8439SOL     OW36775   0.502   4.384   1.072 -0.0701 -0.6143  0.1354
 8439SOL    HW136776   0.460   4.441   1.007 -1.1395 -0.3547  1.0633
 8439SOL    HW236777   0.591   4.420   1.071 -1.2129  2.2692 -0.1865
 8440SOL     OW36778   2.863   2.602  12.974  0.1762 -0.6145  0.3187
 8440SOL    HW136779   2.789   2.660  12.954 -0.7197 -2.3116 -1.3084
 8440SOL    HW236780   2.831   2.551  13.049 -1.1028 -0.2133  0.0546
 8441SOL     OW36781   0.291   2.340   1.810  0.2462  0.1395 -0.4048
 8441SOL    HW136782   0.309   2.394   1.734 -0.5916 -1.1698 -1.5301
 8441SOL    HW236783   0.226   2.389   1.860 -1.5673 -0.4890 -2.1623
 8442SOL     OW36784   3.691   3.060   1.195  0.5933  0.0808 -0.1583
 8442SOL    HW136785   3.639   2.981   1.210 -0.7905  0.9641 -0.2455
 8442SOL    HW236786   3.619   3.110   1.157 -1.0629 -0.7138  1.9117
 8443SOL     OW36787   3.728   0.399   5.895 -0.5201 -0.7361  0.0624
 8443SOL    HW136788   3.697   0.476   5.942  0.4823 -1.1850  1.4308
 8443SOL    HW236789   3.807   0.433   5.854  1.3019 -1.3218  3.1653
 8444SOL     OW36790   2.782   1.349   9.375  0.4898  0.4555  0.4179
 8444SOL    HW136791   2.851   1.370   9.438  1.6176 -1.4081 -0.2040
 8444SOL    HW236792   2.736   1.433   9.376 -0.7621 -0.2396  1.0656
 8445SOL     OW36793   4.017   3.073  11.552  0.6643  0.0091 -0.5283
 8445SOL    HW136794   3.933   3.081  11.506 -0.1693 -1.3344  0.7555
 8445SOL    HW236795   3.985   3.045  11.638 -0.7189  0.5793 -0.8522
 8446SOL     OW36796   1.406   3.471   5.149  0.0136 -0.3990  0.0002
 8446SOL    HW136797   1.320   3.511   5.160  0.0251 -0.0135 -1.2668
 8446SOL    HW236798   1.403   3.390   5.199  0.5330  1.1684  2.5833
 8447SOL     OW36799   1.029   2.494   6.327 -0.4951  0.0260 -0.3268
 8447SOL    HW136800   1.053   2.472   6.417 -2.1681 -1.7590 -0.2973
 8447SOL    HW236801   1.025   2.589   6.339 -0.3228  0.0534 -0.5007
 8448SOL     OW36802   2.812   2.480   0.607 -0.1264  0.5599  0.2320
 8448SOL    HW136803   2.866   2.547   0.566 -0.4219 -0.2290 -1.4194
 8448SOL    HW236804   2.791   2.419   0.537 -0.6051  0.4461  0.4721
 8449SOL     OW36805   0.902   0.903   1.083  0.1260  0.1520  0.0473
 8449SOL    HW136806   0.836   0.970   1.099 -2.9595 -2.5952 -1.0220
 8449SOL    HW236807   0.981   0.957   1.074  0.0718  0.0788 -0.9607
 8450SOL     OW36808   4.486   3.286   8.795 -0.5222 -0.3096  0.3230
 8450SOL    HW136809   4.454   3.331   8.873 -1.7083  0.1135 -0.4183
 8450SOL    HW236810   4.454   3.341   8.724 -1.1871 -0.5864  0.4095
 8451SOL     OW36811   3.096   2.859   9.563 -0.3467  0.3169  0.4115
 8451SOL    HW136812   3.081   2.892   9.475  0.1327  0.4481  0.3761
 8451SOL    HW236813   3.098   2.765   9.545  4.2946  0.4060  0.2923
 8452SOL     OW36814   0.556   0.455  10.171 -0.1893  0.5852 -0.2243
 8452SOL    HW136815   0.546   0.360  10.169 -0.7757  0.6056  1.4919
 8452SOL    HW236816   0.640   0.450  10.217 -0.8071 -1.0907  0.7140
 8453SOL     OW36817   1.163   4.584   9.850  0.1670 -0.3385 -0.0008
 8453SOL    HW136818   1.133   4.552   9.765  1.5512 -0.0076 -0.6147
 8453SOL    HW236819   1.104   4.656   9.871 -0.2312 -0.7247  0.2111
 8454SOL     OW36820   1.804   1.003  17.074  0.6886 -0.1570 -0.7029
 8454SOL    HW136821   1.860   1.051  17.013 -1.3989  2.2211 -0.7617
 8454SOL    HW236822   1.760   0.954  17.004 -0.9522 -0.1791  0.3510
 8455SOL     OW36823   0.503   3.872  11.232 -0.3450 -0.1558  0.0072
 8455SOL    HW136824   0.423   3.885  11.282  1.2262 -0.6285  2.6558
 8455SOL    HW236825   0.464   3.845  11.149 -0.5862 -2.8148  0.9871
 8456SOL     OW36826   2.923   4.673   3.759  0.0228 -0.2876  0.4682
 8456SOL    HW136827   2.971   4.691   3.678  0.4825 -2.4182  0.2699
 8456SOL    HW236828   2.950   0.014   3.821  0.3459 -0.9797  1.0967
 8457SOL     OW36829   1.770   4.549   6.084  0.0984  0.2798 -0.3252
 8457SOL    HW136830   1.830   4.535   6.157 -0.2135  1.2862  0.1163
 8457SOL    HW236831   1.717   4.622   6.116  1.2834  0.0923  2.0567
 8458SOL     OW36832   3.826   1.788   9.271 -0.1894 -0.2433 -0.2888
 8458SOL    HW136833   3.797   1.850   9.338 -3.7309  0.0407 -2.0612
 8458SOL    HW236834   3.750   1.792   9.213 -0.5842 -0.2686  0.2255
 8459SOL     OW36835   1.057   4.328   7.277 -0.1674  0.2876  0.0571
 8459SOL    HW136836   1.133   4.282   7.242 -1.6693 -0.3034 -2.4555
 8459SOL    HW236837   1.047   4.410   7.227  0.9227 -1.5912 -3.2303
 8460SOL     OW36838   2.080   4.213   5.284  0.5566  0.0420 -0.2339
 8460SOL    HW136839   2.090   4.124   5.250 -3.4763 -0.7037  0.5336
 8460SOL    HW236840   2.162   4.217   5.333 -0.1446  2.3278  0.7498
 8461SOL     OW36841   3.702   4.191  15.191  0.1664 -0.0254 -0.4039
 8461SOL    HW136842   3.672   4.243  15.266  0.0631  0.7281 -0.9740
 8461SOL    HW236843   3.650   4.219  15.116 -1.0943  2.0841  1.2650
 8462SOL     OW36844   2.205   1.659  12.811  0.4128 -0.1944  0.1591
 8462SOL    HW136845   2.184   1.641  12.903  3.2154 -0.2824  0.7819
 8462SOL    HW236846   2.175   1.749  12.799  0.2870  0.1900  3.2828
 8463SOL     OW36847   2.020   1.610   6.771 -0.1146  0.5130 -0.2945
 8463SOL    HW136848   1.932   1.573   6.768 -0.2984  0.7329  2.2273
 8463SOL    HW236849   2.070   1.547   6.823 -1.0169  1.4705  1.7685
 8464SOL     OW36850   1.798   4.371   8.157 -0.3475 -0.1739 -0.4430
 8464SOL    HW136851   1.800   4.453   8.208 -0.2055  1.5254 -3.1865
 8464SOL    HW236852   1.854   4.400   8.085  1.7080 -0.9145  0.8608
 8465SOL     OW36853   0.498   0.997   5.562 -0.1746 -0.3468  0.8046
 8465SOL    HW136854   0.566   0.940   5.525 -0.6424  0.5938 -1.5327
 8465SOL    HW236855   0.546   1.078   5.581 -0.9944 -0.0123  1.4305
 8466SOL     OW36856   1.522   1.227  11.525 -0.6566  0.3804  0.1612
 8466SOL    HW136857   1.521   1.314  11.486  0.0822 -0.2989 -1.3788
 8466SOL    HW236858   1.431   1.198  11.515 -1.0791  1.4425  0.8575
 8467SOL     OW36859   0.646   3.768  11.479  0.2657  0.3587  0.3906
 8467SOL    HW136860   0.618   3.798  11.393 -1.1281 -2.3525 -0.0958
 8467SOL    HW236861   0.580   3.699  11.489  0.0148  0.6564  0.7962
 8468SOL     OW36862   2.385   1.925   2.830 -0.4919  0.3877  0.0213
 8468SOL    HW136863   2.399   1.843   2.784  0.2822 -0.2801  1.4466
 8468SOL    HW236864   2.433   1.906   2.911 -1.8069 -0.2406  0.6417
 8469SOL     OW36865   2.439   4.627   6.145 -0.1330  0.3095  1.0144
 8469SOL    HW136866   2.352   4.622   6.185 -0.8027  3.5910 -0.0138
 8469SOL    HW236867   2.448   4.720   6.167  0.0395  0.2536  1.1711
 8470SOL     OW36868   3.396   3.474   4.904  0.1891  0.4383 -0.1443
 8470SOL    HW136869   3.434   3.424   4.976 -0.8818 -0.7094 -0.3924
 8470SOL    HW236870   3.317   3.495   4.953  0.4920 -0.8057  0.8821
 8471SOL     OW36871   3.427   2.131   3.787 -0.2589 -0.0007  0.2249
 8471SOL    HW136872   3.379   2.213   3.793  1.3481  0.9661  0.0123
 8471SOL    HW236873   3.517   2.154   3.764 -0.2177  0.5046  0.9059
 8472SOL     OW36874   3.227   3.974   0.247 -0.3063  0.3599  0.0698
 8472SOL    HW136875   3.217   4.057   0.200  0.0910  0.7395  0.6550
 8472SOL    HW236876   3.166   3.984   0.320 -1.1549  1.1476 -0.7614
 8473SOL     OW36877   4.120   1.795   4.662 -0.8440  0.0284  0.4111
 8473SOL    HW136878   4.067   1.873   4.648  2.4807  2.3986  0.8655
 8473SOL    HW236879   4.196   1.831   4.707 -1.0468  0.4835  0.3818
 8474SOL     OW36880   3.705   4.714   4.863 -0.2845  0.0576  1.0179
 8474SOL    HW136881   3.613   4.716   4.839  0.3980 -1.2533 -1.6868
 8474SOL    HW236882   3.742   0.072   4.840  1.6998 -0.5291  1.9656
 8475SOL     OW36883   1.633   3.521  14.142 -0.0761  0.7211 -0.3834
 8475SOL    HW136884   1.627   3.520  14.046  0.4366 -0.9686 -0.3900
 8475SOL    HW236885   1.697   3.453  14.160 -1.3064 -0.2852  0.1419
 8476SOL     OW36886   2.842   1.324   4.424 -0.6749 -0.2358  0.5603
 8476SOL    HW136887   2.904   1.257   4.452  1.1732  0.3502 -2.2014
 8476SOL    HW236888   2.891   1.399   4.458  1.7458 -1.6762  0.2480
 8477SOL     OW36889   2.495   4.199   8.431  0.1920 -0.3444 -0.1874
 8477SOL    HW136890   2.517   4.115   8.470  1.1096  0.4230  0.9450
 8477SOL    HW236891   2.441   4.240   8.498  3.2592  2.6678  0.4407
 8478SOL     OW36892   3.939   1.573   8.686 -0.4583 -0.2890  0.3195
 8478SOL    HW136893   3.929   1.485   8.651  1.0827 -0.4311  0.2429
 8478SOL    HW236894   3.897   1.568   8.772 -1.5645 -0.4950 -0.2305
 8479SOL     OW36895   0.568   0.482  11.315  0.6784  0.1956  0.3661
 8479SOL    HW136896   0.596   0.561  11.360 -0.9090  0.3843  1.0482
 8479SOL    HW236897   0.475   0.480  11.341  1.2999 -0.2484  2.5808
 8480SOL     OW36898   2.282   2.681   1.722  0.0562  0.0946 -0.0694
 8480SOL    HW136899   2.231   2.614   1.675 -0.2074  0.2076  0.0547
 8480SOL    HW236900   2.334   2.718   1.651  1.8164 -0.6668  0.8327
 8481SOL     OW36901   2.937   4.495   0.425  0.2975 -0.1736  0.1810
 8481SOL    HW136902   2.853   4.468   0.461  0.7884  1.1653  2.3382
 8481SOL    HW236903   2.986   4.413   0.430  1.1417  0.2578 -0.9826
 8482SOL     OW36904   3.677   0.270   5.666 -0.2921  0.7818 -0.2441
 8482SOL    HW136905   3.708   0.292   5.754 -0.5864  1.8138 -0.4021
 8482SOL    HW236906   3.651   0.357   5.636  0.5041  1.6403  1.5621
 8483SOL     OW36907   2.397   0.375   3.864 -0.0442 -0.3405  0.0868
 8483SOL    HW136908   2.430   0.287   3.881 -0.9464 -0.7217 -0.1398
 8483SOL    HW236909   2.459   0.408   3.799  0.3792 -0.4952  0.4071
 8484SOL     OW36910   4.189   3.699  15.598  0.0169  0.1530 -0.3904
 8484SOL    HW136911   4.154   3.766  15.539  1.1684 -1.5012 -2.9602
 8484SOL    HW236912   4.112   3.642  15.593  2.2414 -2.7266 -1.5592
 8485SOL     OW36913   0.202   0.656   6.623 -0.5085 -0.5987 -0.3623
 8485SOL    HW136914   0.243   0.720   6.681  0.6843 -1.5670 -0.1475
 8485SOL    HW236915   0.265   0.584   6.625 -1.0605 -1.0945 -0.6290
 8486SOL     OW36916   3.378   4.123  11.143  0.2702  0.1775 -0.0445
 8486SOL    HW136917   3.311   4.190  11.127 -0.8866 -0.7047  0.9938
 8486SOL    HW236918   3.371   4.112  11.238  1.9644 -0.8806 -0.0413
 8487SOL     OW36919   2.625   1.921   4.936 -0.2387  0.5054 -0.1610
 8487SOL    HW136920   2.627   1.987   4.866 -0.7172  0.4057 -0.2675
 8487SOL    HW236921   2.677   1.850   4.899 -0.0505  1.3891 -1.5939
 8488SOL     OW36922   4.173   2.452  12.326  0.5603 -0.0531  0.6541
 8488SOL    HW136923   4.235   2.467  12.397 -1.2024  1.2117  1.9473
 8488SOL    HW236924   4.127   2.535  12.342  1.1258  0.8037 -2.0737
 8489SOL     OW36925   0.875   2.065   2.050 -0.1452  0.1882 -0.2675
 8489SOL    HW136926   0.888   2.089   2.142  0.2562  0.9621 -0.5246
 8489SOL    HW236927   0.963   2.071   2.013  0.0517  0.3324  0.2258
 8490SOL     OW36928   3.379   0.413   5.473  0.3583  0.1451 -0.0775
 8490SOL    HW136929   3.331   0.356   5.532  3.0546 -2.1441 -0.1054
 8490SOL    HW236930   3.463   0.430   5.518  0.4642  0.8821 -0.5597
 8491SOL     OW36931   3.231   1.993   9.956 -0.1391 -0.1612 -0.6375
 8491SOL    HW136932   3.197   1.916   9.910 -0.2643 -0.4256 -0.1074
 8491SOL    HW236933   3.198   2.059   9.895  0.1238  0.6812  0.1352
 8492SOL     OW36934   2.562   2.094   6.349  0.0523 -0.0861 -0.2613
 8492SOL    HW136935   2.580   2.140   6.268  0.0536 -1.4236 -1.0229
 8492SOL    HW236936   2.505   2.148   6.404 -1.2930 -0.6217 -1.1536
 8493SOL     OW36937   4.003   0.356  14.508  0.7837  0.2069  0.5457
 8493SOL    HW136938   3.984   0.285  14.569  0.6733 -0.5935 -0.4206
 8493SOL    HW236939   3.972   0.435  14.553  1.0984  1.0844 -0.7855
 8494SOL     OW36940   2.294   3.851  13.329  0.2787 -0.5405 -0.1893
 8494SOL    HW136941   2.358   3.862  13.399  0.7207  2.1638 -1.0134
 8494SOL    HW236942   2.303   3.939  13.291  2.9884  0.0053  1.7535
 8495SOL     OW36943   3.678   0.672   4.491  0.1285  0.1775  0.2095
 8495SOL    HW136944   3.663   0.578   4.498  1.4922  0.0745  1.7150
 8495SOL    HW236945   3.772   0.688   4.490  0.0566  0.6871  1.2003
 8496SOL     OW36946   1.760   0.914   3.867 -0.3137 -0.2344 -0.4513
 8496SOL    HW136947   1.833   0.975   3.856 -3.3305  3.7152  1.3826
 8496SOL    HW236948   1.692   0.943   3.807  0.9497  2.3432 -0.6390
 8497SOL     OW36949   4.560   2.582   5.437  0.5245 -0.5570  0.0258
 8497SOL    HW136950   4.651   2.610   5.422  0.3219  1.6826  3.0125
 8497SOL    HW236951   4.512   2.661   5.460  1.2669 -0.2483  0.5207
 8498SOL     OW36952   0.397   3.679   9.548  0.6071  0.0258  0.4219
 8498SOL    HW136953   0.489   3.700   9.537  0.0451  1.2829 -1.8584
 8498SOL    HW236954   0.394   3.647   9.638  1.7070 -1.3494 -0.0302
 8499SOL     OW36955   1.476   3.954   7.312  0.0645  0.3393  0.4925
 8499SOL    HW136956   1.409   3.898   7.274 -1.0828  1.6659  0.5669
 8499SOL    HW236957   1.506   3.903   7.387  0.1463  1.7068  1.4011
 8500SOL     OW36958   2.486   1.330   7.187 -1.2440  0.2931 -0.6238
 8500SOL    HW136959   2.542   1.285   7.251 -0.7860 -0.6995 -1.7012
 8500SOL    HW236960   2.496   1.282   7.104  1.4350 -0.4661  0.1303
 8501SOL     OW36961   0.437   0.690  13.299 -0.2143 -0.0936 -0.0200
 8501SOL    HW136962   0.418   0.715  13.209  0.9545  2.0506  0.3236
 8501SOL    HW236963   0.361   0.633  13.312 -0.6736  0.4386 -0.3744
 8502SOL     OW36964   4.505   3.641   4.291 -0.0564 -0.2801 -0.2305
 8502SOL    HW136965   4.598   3.623   4.276 -0.1690 -0.0529 -1.2140
 8502SOL    HW236966   4.513   3.735   4.305 -1.4229 -0.1244 -0.4979
 8503SOL     OW36967   3.637   0.834  13.208 -0.3466 -0.0202  0.2096
 8503SOL    HW136968   3.638   0.919  13.253  1.8506  0.3321 -0.5240
 8503SOL    HW236969   3.655   0.778  13.283  0.5853  0.8890  0.6629
 8504SOL     OW36970   2.309   2.868   0.112 -0.2694  0.0966  0.0549
 8504SOL    HW136971   2.335   2.931   0.179 -2.2737  1.2886 -0.2952
 8504SOL    HW236972   2.224   2.906   0.090 -1.6383 -2.7325  0.4912
 8505SOL     OW36973   0.572   3.208  14.513 -0.8713 -0.0290 -0.1535
 8505SOL    HW136974   0.623   3.286  14.492  1.4212 -2.0574 -2.0669
 8505SOL    HW236975   0.543   3.222  14.603  0.8817  2.9670 -0.0503
 8506SOL     OW36976   2.107   0.251   9.926  0.0213  0.1445 -0.0427
 8506SOL    HW136977   2.095   0.346   9.927 -1.7964 -0.0611 -2.1588
 8506SOL    HW236978   2.055   0.236  10.005 -0.0916  1.8459  0.2106
 8507SOL     OW36979   1.486   2.177  11.433  0.3966 -0.1522  0.3390
 8507SOL    HW136980   1.442   2.261  11.419  1.2173  0.3474  0.7443
 8507SOL    HW236981   1.570   2.203  11.395  0.1707  1.8857  1.2426
 8508SOL     OW36982   0.782   0.081   8.865 -0.2134 -0.4033  0.2888
 8508SOL    HW136983   0.796   0.018   8.794  1.3190  0.0764  0.1652
 8508SOL    HW236984   0.704   0.053   8.913  0.0821  1.1311  1.6510
 8509SOL     OW36985   2.749   0.778  17.368  0.1378 -0.5387 -0.1353
 8509SOL    HW136986   2.809   0.710  17.340  0.3918 -0.8435  1.1478
 8509SOL    HW236987   2.717   0.812  17.284 -0.1496 -2.4096 -0.7696
 8510SOL     OW36988   1.168   3.443   3.260  0.0552 -0.1254  0.3582
 8510SOL    HW136989   1.085   3.421   3.302 -0.3601  2.1289  0.7314
 8510SOL    HW236990   1.210   3.502   3.323 -0.9425  0.1257  0.7848
 8511SOL     OW36991   1.019   1.865   3.606  0.0545 -0.4303  0.7594
 8511SOL    HW136992   1.078   1.791   3.621  1.2438 -0.1114 -2.3481
 8511SOL    HW236993   0.982   1.831   3.525 -0.3023 -1.0913  1.1946
 8512SOL     OW36994   1.979   2.713  16.403 -0.5570 -0.2812  0.0453
 8512SOL    HW136995   1.993   2.655  16.329  0.5036  0.5907 -0.4423
 8512SOL    HW236996   2.039   2.786  16.386  0.6730 -1.3662 -0.2446
 8513SOL     OW36997   2.585   1.636  13.290 -0.7731 -0.1880  0.7003
 8513SOL    HW136998   2.642   1.671  13.222 -0.4415  0.9961  1.5942
 8513SOL    HW236999   2.536   1.716  13.309  1.3649  1.1194  0.6380
 8514SOL     OW37000   3.274   2.618   9.069  0.2765  0.5952  0.1561
 8514SOL    HW137001   3.190   2.617   9.115 -0.4568  1.1328 -1.1519
 8514SOL    HW237002   3.247   2.695   9.020  0.5185  0.1684 -0.6606
 8515SOL     OW37003   0.939   3.587   6.317  1.0554  0.1336 -0.1634
 8515SOL    HW137004   0.862   3.645   6.322  0.2936 -0.7027 -2.1291
 8515SOL    HW237005   0.894   3.503   6.325  2.6317 -0.6199  0.8192
 8516SOL     OW37006   1.134   1.065   8.878 -0.1107 -0.3286  0.3840
 8516SOL    HW137007   1.051   1.078   8.922 -1.6208 -1.6016 -2.0631
 8516SOL    HW237008   1.199   1.098   8.940  1.3935  0.6048 -1.6850
 8517SOL     OW37009   3.498   0.658   8.407  0.6027 -0.2262  0.0094
 8517SOL    HW137010   3.579   0.704   8.386  1.0015  0.5916  3.4314
 8517SOL    HW237011   3.509   0.586   8.345  0.5994 -1.4340  1.4139
 8518SOL     OW37012   4.718   4.175   6.972 -0.1600  0.5921 -0.6101
 8518SOL    HW137013   4.716   4.097   6.917  1.6925  0.9750 -1.2144
 8518SOL    HW237014   0.078   4.165   7.010  0.3194  0.6442 -1.6953
 8519SOL     OW37015   0.696   4.464   8.134 -0.3742 -0.3319 -0.0991
 8519SOL    HW137016   0.604   4.447   8.116 -0.5722  3.0132 -2.4457
 8519SOL    HW237017   0.724   4.511   8.055  0.4623 -1.5471 -0.5140
 8520SOL     OW37018   1.088   2.188   0.728  0.1830 -0.2320  0.4330
 8520SOL    HW137019   1.074   2.136   0.807 -0.1174 -0.7449  0.0453
 8520SOL    HW237020   1.183   2.201   0.727  0.0625  0.7490  1.3864
 8521SOL     OW37021   2.747   0.560   8.568 -0.3508  0.1582 -0.5223
 8521SOL    HW137022   2.680   0.619   8.532  0.1896  1.1491  0.1106
 8521SOL    HW237023   2.704   0.526   8.647  0.8339  0.3905  0.2154
 8522SOL     OW37024   0.782   2.089   5.994  0.3331  0.0977  0.4376
 8522SOL    HW137025   0.818   2.001   6.001 -3.2706 -1.1006  3.5546
 8522SOL    HW237026   0.846   2.141   6.043 -1.6846  1.9154  1.1818
 8523SOL     OW37027   2.724   3.407  14.292 -0.1872 -0.0899  0.3058
 8523SOL    HW137028   2.801   3.385  14.239  1.4720  1.8208  1.9363
 8523SOL    HW237029   2.656   3.363  14.241 -0.6845  0.2946  0.6462
 8524SOL     OW37030   0.687   3.996   4.139 -0.0696  0.2800 -0.0912
 8524SOL    HW137031   0.637   4.053   4.081 -1.7153 -0.3048  0.7529
 8524SOL    HW237032   0.652   4.017   4.226  1.3019 -4.8057  1.6676
 8525SOL     OW37033   0.570   3.539   5.488  0.8282  0.0328 -0.4700
 8525SOL    HW137034   0.515   3.479   5.538  3.5943 -1.2754  0.9827
 8525SOL    HW237035   0.505   3.609   5.485  0.2890 -0.4880 -1.0430
 8526SOL     OW37036   3.246   1.125   8.131  0.0037  0.3954 -0.3360
 8526SOL    HW137037   3.340   1.110   8.143 -0.1508  0.8128  1.4558
 8526SOL    HW237038   3.239   1.220   8.141 -0.3532  0.0063  3.2501
 8527SOL     OW37039   1.479   2.079   6.215  0.4229  0.1459  0.1891
 8527SOL    HW137040   1.499   2.024   6.140 -1.0655  1.4751 -1.1726
 8527SOL    HW237041   1.391   2.045   6.233  1.4935 -2.0144  1.2566
 8528SOL     OW37042   0.487   3.213  11.723  0.2906  0.3733  0.3380
 8528SOL    HW137043   0.537   3.293  11.707 -2.4658  2.3385  1.5165
 8528SOL    HW237044   0.513   3.156  11.650 -0.9021 -0.8563  0.8831
 8529SOL     OW37045   1.670   2.306   1.704 -0.1916 -0.2647  0.7285
 8529SOL    HW137046   1.652   2.397   1.684  1.2685 -0.0075  0.6070
 8529SOL    HW237047   1.598   2.275   1.649  0.7651 -1.4688  0.1274
 8530SOL     OW37048   0.790   0.423   8.237 -0.2238  0.5225  0.0896
 8530SOL    HW137049   0.706   0.417   8.284 -0.6623  0.7429 -0.6589
 8530SOL    HW237050   0.819   0.512   8.258  0.0814 -0.1603  2.5512
 8531SOL     OW37051   2.201   3.037   7.126 -0.0190 -0.2413 -0.7942
 8531SOL    HW137052   2.201   3.096   7.201 -0.4420 -1.1076 -0.1010
 8531SOL    HW237053   2.269   3.072   7.069 -0.9338 -0.1705 -1.8580
 8532SOL     OW37054   0.953   3.578  10.200 -0.4150 -0.2700 -0.4263
 8532SOL    HW137055   0.948   3.651  10.261  1.0391 -1.6482  1.3571
 8532SOL    HW237056   0.866   3.538  10.197 -0.3576 -0.1233 -3.5198
 8533SOL     OW37057   0.771   3.648   8.021  0.1195 -0.1308  0.3878
 8533SOL    HW137058   0.712   3.666   8.095 -0.2720  2.0762 -0.4557
 8533SOL    HW237059   0.729   3.695   7.949 -1.0164 -0.4634  0.8279
 8534SOL     OW37060   0.153   2.543   3.289 -0.4778 -0.0011 -0.3595
 8534SOL    HW137061   0.112   2.629   3.287 -1.8442 -0.6530 -0.8346
 8534SOL    HW237062   0.082   2.490   3.325 -1.2891  0.4367 -1.3144
 8535SOL     OW37063   2.950   4.459   5.776 -0.1847  0.9222  0.1250
 8535SOL    HW137064   2.869   4.453   5.725 -1.4745  0.6586  2.1829
 8535SOL    HW237065   3.011   4.505   5.718  2.6905  0.6383  2.9328
 8536SOL     OW37066   2.187   0.947   3.150  0.4117 -0.7725  0.4941
 8536SOL    HW137067   2.229   0.861   3.159 -0.0687 -0.6562  3.6401
 8536SOL    HW237068   2.228   0.983   3.071  1.7388  2.3178  2.6018
 8537SOL     OW37069   1.750   3.997  14.963  0.2926  0.3717 -0.1552
 8537SOL    HW137070   1.809   3.942  15.014 -2.5566 -1.5911  1.0534
 8537SOL    HW237071   1.690   3.937  14.919 -1.4476  2.9492 -1.2659
 8538SOL     OW37072   4.071   0.038  15.853  1.1191 -0.2880  0.7681
 8538SOL    HW137073   4.067   0.127  15.820 -0.6420 -0.2333  1.1816
 8538SOL    HW237074   4.161   0.045  15.885  1.5131  0.9991 -0.6631
 8539SOL     OW37075   1.926   3.653  16.001 -0.2908 -0.0944  0.6527
 8539SOL    HW137076   1.978   3.689  16.072 -0.3507  1.7776 -0.2608
 8539SOL    HW237077   1.852   3.713  16.000 -0.8551 -0.7893  0.8524
 8540SOL     OW37078   4.134   4.623   7.723 -0.2359 -0.2275  0.0028
 8540SOL    HW137079   4.155   4.548   7.668  1.4934  0.3824 -0.2008
 8540SOL    HW237080   4.192   4.586   7.790  1.3257  0.7210 -0.7997
 8541SOL     OW37081   3.885   3.664   9.906 -0.0865 -0.7877  0.3451
 8541SOL    HW137082   3.846   3.726   9.844  1.3553 -0.6399 -0.4157
 8541SOL    HW237083   3.921   3.725   9.970 -0.7283  0.6089 -0.6370
 8542SOL     OW37084   0.544   1.323   2.319 -0.2559 -0.1681  0.1206
 8542SOL    HW137085   0.552   1.276   2.402 -0.5421  2.6741  1.7669
 8542SOL    HW237086   0.529   1.413   2.349  0.0592 -0.6186  1.6259
 8543SOL     OW37087   1.530   0.689   9.458 -0.1707  0.3125 -0.0254
 8543SOL    HW137088   1.612   0.739   9.460 -0.1768  0.4144 -2.1858
 8543SOL    HW237089   1.492   0.702   9.371  0.2598 -1.3383 -0.4572
 8544SOL     OW37090   2.397   2.947   5.835  0.3694  0.2438 -0.0881
 8544SOL    HW137091   2.481   2.991   5.850  0.7147  1.0260 -4.3217
 8544SOL    HW237092   2.368   2.972   5.747 -0.0944 -0.0964 -0.0294
 8545SOL     OW37093   4.379   1.009   5.355 -0.0797 -0.0588  0.4056
 8545SOL    HW137094   4.322   1.053   5.291 -0.0393  0.8939  1.0265
 8545SOL    HW237095   4.318   0.967   5.415  1.5906 -3.8423 -0.5524
 8546SOL     OW37096   3.363   0.121   7.779 -0.1085  0.0016 -0.1542
 8546SOL    HW137097   3.437   0.083   7.731  0.6798 -0.3167  1.3312
 8546SOL    HW237098   3.310   0.045   7.802 -1.2170  1.2235  1.3404
 8547SOL     OW37099   2.886   2.982   1.465  0.6971 -0.6222  0.1521
 8547SOL    HW137100   2.906   3.034   1.542 -0.8882  0.3251 -0.0682
 8547SOL    HW237101   2.964   2.927   1.464  1.2165  0.0847  2.9075
 8548SOL     OW37102   2.595   1.466   2.403  0.4621 -0.4478  0.4058
 8548SOL    HW137103   2.678   1.513   2.393  0.4242 -0.0558  1.8917
 8548SOL    HW237104   2.590   1.474   2.498 -0.0426  0.1285  0.3304
 8549SOL     OW37105   1.242   1.243   5.562  0.6935 -0.4809 -0.8169
 8549SOL    HW137106   1.186   1.219   5.488  1.0986  3.3931 -2.3649
 8549SOL    HW237107   1.216   1.181   5.630  1.6642  1.8776  1.6995
 8550SOL     OW37108   4.195   0.236  17.225  0.0266 -0.1825 -0.3676
 8550SOL    HW137109   4.174   0.231  17.319 -1.1317 -1.9856 -0.7236
 8550SOL    HW237110   4.255   0.161  17.227  0.9077  0.4822 -2.3530
 8551SOL     OW37111   0.574   3.986  11.659 -0.4673  0.3407  0.1711
 8551SOL    HW137112   0.575   4.057  11.595  0.6914 -0.7740 -1.0537
 8551SOL    HW237113   0.636   3.940  11.603 -1.2320 -1.6244  0.9381
 8552SOL     OW37114   4.428   4.640   7.636  0.6088  0.0973 -0.1702
 8552SOL    HW137115   4.514   4.658   7.598  0.8797 -1.1594 -0.1529
 8552SOL    HW237116   4.448   4.612   7.726  1.3974 -0.2316 -0.4450
 8553SOL     OW37117   0.824   0.733   7.252  0.4276  0.1635 -0.0470
 8553SOL    HW137118   0.915   0.746   7.281  0.0101 -0.0151  1.3502
 8553SOL    HW237119   0.808   0.798   7.183  1.0880  0.4091  0.0311
 8554SOL     OW37120   4.427   1.884  12.482 -0.2408 -0.0365  0.6469
 8554SOL    HW137121   4.405   1.792  12.471  0.5622 -0.1777  0.2543
 8554SOL    HW237122   4.508   1.879  12.431 -0.7029 -1.7643  0.0910
 8555SOL     OW37123   0.048   1.144  11.113 -0.1613 -0.2883 -0.0377
 8555SOL    HW137124   0.034   1.127  11.206  0.8906  1.5074  0.4487
 8555SOL    HW237125   0.040   1.239  11.105  2.4923 -0.2755 -2.6109
 8556SOL     OW37126   0.120   3.626   5.003 -0.5138 -0.2009  0.3401
 8556SOL    HW137127   0.197   3.648   4.950 -0.4396  0.4607  0.7330
 8556SOL    HW237128   0.129   3.530   5.005 -0.1354 -0.1753 -0.1515
 8557SOL     OW37129   1.217   1.190   8.289 -0.5652 -0.0363  0.1991
 8557SOL    HW137130   1.124   1.198   8.309 -0.7073  0.9030 -0.8710
 8557SOL    HW237131   1.218   1.205   8.195  1.1387 -2.1508 -0.1394
 8558SOL     OW37132   1.416   3.554   8.833 -0.1658 -0.5348  0.5098
 8558SOL    HW137133   1.343   3.582   8.888  2.1821  1.3656  2.6658
 8558SOL    HW237134   1.492   3.574   8.887  0.3778  0.0859 -0.4708
 8559SOL     OW37135   0.228   3.210   4.294 -0.8004  0.1513 -0.3593
 8559SOL    HW137136   0.252   3.237   4.206 -0.8200  2.0853  0.2276
 8559SOL    HW237137   0.135   3.191   4.285 -0.2758 -3.3647  1.4153
 8560SOL     OW37138   0.972   0.721   9.314 -0.1610  0.4379  0.1501
 8560SOL    HW137139   1.004   0.750   9.399 -0.0184  1.1522 -0.1431
 8560SOL    HW237140   0.878   0.740   9.318 -0.3111 -0.4738  0.8449
 8561SOL     OW37141   2.885   2.015   2.325 -0.2788 -0.2589  0.4439
 8561SOL    HW137142   2.813   1.978   2.377 -1.0222 -0.3090 -0.6126
 8561SOL    HW237143   2.920   2.090   2.373  2.0678 -1.8423  1.1799
 8562SOL     OW37144   2.088   0.459   2.585 -0.1763  0.4822  0.3350
 8562SOL    HW137145   2.017   0.464   2.649  0.1310 -1.8258  0.8491
 8562SOL    HW237146   2.119   0.550   2.580  5.0427 -1.2307  1.8910
 8563SOL     OW37147   3.291   1.846  10.511 -0.5447 -0.0107 -0.3576
 8563SOL    HW137148   3.255   1.821  10.426 -2.8201  0.6994  0.3996
 8563SOL    HW237149   3.208   1.860  10.557  0.5268  0.7004  1.3495
 8564SOL     OW37150   0.117   2.849   2.749  0.2166  0.3738  0.7698
 8564SOL    HW137151   0.117   2.754   2.747  1.0139  0.4092 -0.8579
 8564SOL    HW237152   0.082   2.879   2.665  3.5671 -0.4842 -0.9274
 8565SOL     OW37153   4.310   4.515   9.356  0.0067 -0.1565 -0.7486
 8565SOL    HW137154   4.300   4.543   9.447  2.1654  1.7107 -1.0637
 8565SOL    HW237155   4.289   4.422   9.366 -1.4159  0.5387  2.5496
 8566SOL     OW37156   4.357   2.411   1.926  0.7653  0.2446 -0.1609
 8566SOL    HW137157   4.415   2.460   1.867  1.7838  0.4103  1.0065
 8566SOL    HW237158   4.417   2.346   1.961 -0.1884 -0.8688 -0.6070
 8567SOL     OW37159   3.159   0.924   0.507 -0.1693 -0.4346  0.1207
 8567SOL    HW137160   3.104   1.002   0.499  0.7299  0.1490 -0.3992
 8567SOL    HW237161   3.102   0.866   0.456 -0.8052  0.2312  0.0736
 8568SOL     OW37162   3.493   3.085   4.904 -0.4525 -0.5298 -0.5455
 8568SOL    HW137163   3.513   3.098   4.811  1.5541 -0.0858 -0.0363
 8568SOL    HW237164   3.399   3.065   4.905 -0.6133  0.1283 -1.9777
 8569SOL     OW37165   2.296   3.265   2.987 -0.1175  0.7858  0.2225
 8569SOL    HW137166   2.337   3.350   2.998 -2.7301  2.4211 -2.7761
 8569SOL    HW237167   2.363   3.205   3.019  0.9383  1.4564 -0.7523
 8570SOL     OW37168   2.779   1.377   5.163 -0.5884 -0.0146  0.3583
 8570SOL    HW137169   2.858   1.377   5.109 -0.8406  4.7600 -0.0020
 8570SOL    HW237170   2.706   1.390   5.103 -0.1015 -1.4484 -0.5521
 8571SOL     OW37171   1.256   0.946   4.524  0.0601  0.5095  0.3864
 8571SOL    HW137172   1.227   1.032   4.553 -0.4218  0.4920 -0.0469
 8571SOL    HW237173   1.336   0.936   4.576 -0.5242 -1.5400  0.8717
 8572SOL     OW37174   3.863   2.712   7.159 -0.0108  0.0685  0.4389
 8572SOL    HW137175   3.792   2.704   7.096  0.5929  0.6729 -0.3115
 8572SOL    HW237176   3.892   2.621   7.161 -0.4823 -0.0609  2.0573
 8573SOL     OW37177   3.895   2.240   7.494  0.3791  0.0326  0.1778
 8573SOL    HW137178   3.802   2.227   7.476  0.1076  1.2967  0.6195
 8573SOL    HW237179   3.888   2.223   7.588 -0.6248  0.7366  0.2440
 8574SOL     OW37180   1.892   3.069   3.325  0.2891 -0.1921  0.0663
 8574SOL    HW137181   1.895   3.164   3.335 -0.1169 -0.3359  1.6315
 8574SOL    HW237182   1.802   3.053   3.355  0.3658  0.6119  0.7358
 8575SOL     OW37183   2.361   1.622   3.436  0.4895 -1.2225  0.0773
 8575SOL    HW137184   2.449   1.585   3.432  1.2305  0.6218 -1.0099
 8575SOL    HW237185   2.327   1.568   3.364 -0.1399  2.0056 -2.0878
 8576SOL     OW37186   3.612   4.161   1.016 -0.6181  0.2292  0.3524
 8576SOL    HW137187   3.701   4.132   0.996 -0.9890 -0.7318  0.0994
 8576SOL    HW237188   3.634   4.253   1.032 -0.1487 -0.0305  1.1605
 8577SOL     OW37189   1.059   2.016   3.280  0.3849  0.1756 -0.1030
 8577SOL    HW137190   1.044   2.025   3.374 -0.4633 -0.8604 -0.1387
 8577SOL    HW237191   1.081   2.103   3.245 -1.4704  0.0999 -1.4556
 8578SOL     OW37192   0.840   2.295   8.885 -0.3853 -0.7295  0.0732
 8578SOL    HW137193   0.779   2.246   8.941 -1.6811  2.1270  1.1521
 8578SOL    HW237194   0.848   2.378   8.932  0.5904 -1.1578  0.6627
 8579SOL     OW37195   3.947   2.279   8.703 -0.2937 -0.0575  0.1582
 8579SOL    HW137196   3.943   2.200   8.649 -2.1448  0.3172 -0.2352
 8579SOL    HW237197   3.868   2.282   8.757 -1.1271  0.3664 -1.0865
 8580SOL     OW37198   3.445   2.420   1.825  0.0458  0.2939  0.3263
 8580SOL    HW137199   3.410   2.422   1.736 -1.4717 -0.5826  0.8959
 8580SOL    HW237200   3.379   2.375   1.878 -0.5560  1.1898  0.3277
 8581SOL     OW37201   0.363   1.388  10.694  0.1661  0.1686 -0.3401
 8581SOL    HW137202   0.376   1.308  10.643  3.0959  0.1548  0.4424
 8581SOL    HW237203   0.452   1.417  10.713  0.1794 -2.0373  2.9543
 8582SOL     OW37204   1.069   3.005   2.823  0.1595 -0.3976  0.3624
 8582SOL    HW137205   1.122   3.007   2.744 -0.1808 -1.4312  0.1079
 8582SOL    HW237206   1.014   2.929   2.803 -0.6796 -0.3716  2.5313
 8583SOL     OW37207   3.921   1.352   7.234 -0.1194 -0.0998  0.2351
 8583SOL    HW137208   3.930   1.415   7.306  1.2460  0.0102 -0.0385
 8583SOL    HW237209   3.978   1.401   7.176  0.2827  0.5043  1.1490
 8584SOL     OW37210   0.449   4.469   9.132 -0.7915  0.0187 -0.3063
 8584SOL    HW137211   0.532   4.424   9.112 -0.4588  0.4004  0.1980
 8584SOL    HW237212   0.479   4.522   9.206 -1.4788 -1.7135  1.1904
 8585SOL     OW37213   4.111   3.762  11.437 -0.0231 -0.0250  0.3584
 8585SOL    HW137214   4.133   3.818  11.362 -2.1847  0.9050  0.4098
 8585SOL    HW237215   4.125   3.673  11.404  0.5830  0.8393 -1.7571
 8586SOL     OW37216   3.726   3.877   4.972  0.6854  0.6237 -0.4561
 8586SOL    HW137217   3.707   3.843   5.059 -2.6909  1.0945 -1.0057
 8586SOL    HW237218   3.797   3.818   4.947  1.1753  1.1807 -0.3817
 8587SOL     OW37219   1.523   2.911   1.171 -0.3795  0.3821 -0.0677
 8587SOL    HW137220   1.517   2.972   1.097  1.7955  0.6993  0.0168
 8587SOL    HW237221   1.444   2.930   1.222 -0.4254  1.6152 -0.5847
 8588SOL     OW37222   4.523   0.849   7.386  0.3116  0.3323 -0.0767
 8588SOL    HW137223   4.454   0.783   7.379 -1.2261  1.7351  1.7230
 8588SOL    HW237224   4.494   0.899   7.462 -2.6551 -0.8239 -0.4471
 8589SOL     OW37225   0.162   2.760   0.776  0.2876 -0.4297 -0.4873
 8589SOL    HW137226   0.232   2.821   0.753  0.7193 -0.9781 -0.5977
 8589SOL    HW237227   0.092   2.816   0.810  2.7439  1.3704  1.6021
 8590SOL     OW37228   2.787   3.633   2.113  0.5480 -0.0832  0.1436
 8590SOL    HW137229   2.847   3.565   2.082 -1.4334 -1.2357 -1.1772
 8590SOL    HW237230   2.781   3.639   2.209 -1.8707  1.1713 -0.0909
 8591SOL     OW37231   0.455   3.914   1.167 -0.1677  0.8651  0.4586
 8591SOL    HW137232   0.454   3.969   1.089  2.2665 -2.3913 -1.8616
 8591SOL    HW237233   0.443   3.968   1.245 -1.4469  1.4572 -0.1526
 8592SOL     OW37234   4.493   4.063   4.489  0.1146  0.5616  0.1642
 8592SOL    HW137235   4.532   3.979   4.514 -1.3096 -0.2640 -0.3926
 8592SOL    HW237236   4.437   4.035   4.417 -0.5664  1.8079  0.2139
 8593SOL     OW37237   0.957   0.404  17.363  0.2992  0.0767  0.2316
 8593SOL    HW137238   0.902   0.326  17.355 -1.1328  0.9452  1.6000
 8593SOL    HW237239   1.047   0.371  17.373  1.1529  1.9396 -1.2625
 8594SOL     OW37240   3.891   3.860   1.947  0.3130  0.5835 -0.4458
 8594SOL    HW137241   3.830   3.881   2.018 -0.5149  2.5367 -1.7293
 8594SOL    HW237242   3.965   3.877   2.005  0.6011  1.1488 -0.9780
 8595SOL     OW37243   4.455   0.733   4.484  0.3696  0.7349  0.0619
 8595SOL    HW137244   4.387   0.752   4.548 -1.4151  1.2129 -1.9487
 8595SOL    HW237245   4.407   0.759   4.405  0.2956  0.5579  0.0481
 8596SOL     OW37246   2.534   0.645   4.524  0.2704 -0.6285 -1.4889
 8596SOL    HW137247   2.483   0.568   4.498 -2.0800  0.3503  0.1892
 8596SOL    HW237248   2.471   0.717   4.523  0.8008 -0.1859 -2.7536
 8597SOL     OW37249   0.170   3.425  14.883 -0.2093 -0.1247 -0.1011
 8597SOL    HW137250   0.199   3.516  14.883  1.1522 -0.5619 -0.5909
 8597SOL    HW237251   0.157   3.414  14.789  0.5076 -0.2532 -0.1828
 8598SOL     OW37252   4.262   0.144   2.948 -0.0356 -0.9362 -0.0962
 8598SOL    HW137253   4.269   0.149   2.852  1.6434  1.2273  0.1287
 8598SOL    HW237254   4.189   0.205   2.965  1.6862  0.9208  0.5967
 8599SOL     OW37255   1.066   2.711   8.313 -0.4938 -0.6436  0.6614
 8599SOL    HW137256   1.147   2.698   8.263 -0.1720 -1.5028  1.3952
 8599SOL    HW237257   1.095   2.686   8.401  1.8212  1.7239  0.5703
 8600SOL     OW37258   1.356   2.725   3.257  0.3888  0.1466  0.1779
 8600SOL    HW137259   1.407   2.656   3.300  0.6881  0.3048  0.0753
 8600SOL    HW237260   1.269   2.723   3.295  0.7915 -1.8552  1.0087
 8601SOL     OW37261   0.697   0.623   8.575  0.3809 -0.0205 -0.6219
 8601SOL    HW137262   0.755   0.699   8.562  0.4209  0.4896  2.5700
 8601SOL    HW237263   0.742   0.598   8.655  0.4570 -1.6651 -1.1891
 8602SOL     OW37264   3.585   0.074  15.943  0.6365 -0.2832  0.5654
 8602SOL    HW137265   3.544   0.034  16.020 -1.2823  1.2132  0.3242
 8602SOL    HW237266   3.562   0.166  15.946  2.1953  0.1346 -0.4178
 8603SOL     OW37267   2.393   3.366   0.692  0.2395 -0.2983 -0.0180
 8603SOL    HW137268   2.317   3.343   0.745  0.2857 -2.8530 -1.0448
 8603SOL    HW237269   2.342   3.376   0.611  1.0016 -2.7049 -0.7782
 8604SOL     OW37270   3.209   3.871  17.665  0.3374  0.3461 -0.4131
 8604SOL    HW137271   3.268   3.934  17.706 -0.5503  0.4722  0.6452
 8604SOL    HW237272   3.159   3.933  17.613  0.2321  0.9803  0.4521
 8605SOL     OW37273   2.384   1.727  14.891 -0.2643 -0.1480  0.2554
 8605SOL    HW137274   2.348   1.807  14.852  2.1159  0.6006 -0.4293
 8605SOL    HW237275   2.384   1.737  14.986 -2.1143 -0.9268  0.3371
 8606SOL     OW37276   4.430   0.266   8.746  0.1257  0.5432 -0.5575
 8606SOL    HW137277   4.360   0.243   8.685  2.3895 -0.2854 -2.8231
 8606SOL    HW237278   4.425   0.197   8.813  1.7426 -0.7027 -1.7095
 8607SOL     OW37279   0.399   1.892  15.420 -0.2981 -0.3408 -0.4538
 8607SOL    HW137280   0.343   1.932  15.486  0.4880 -0.8637  0.5331
 8607SOL    HW237281   0.343   1.830  15.373  0.6434 -0.5111 -1.3423
 8608SOL     OW37282   0.121   0.095   7.173 -0.3030  0.0636 -0.1766
 8608SOL    HW137283   0.144   0.102   7.266 -0.0150  1.4634 -0.3541
 8608SOL    HW237284   0.050   0.158   7.163 -1.6090 -1.6776 -1.6561
 8609SOL     OW37285   4.482   1.341  14.557  0.1980  0.4225 -0.0981
 8609SOL    HW137286   4.507   1.297  14.476  0.1399  1.8967 -0.9019
 8609SOL    HW237287   4.568   1.348  14.600 -0.5298 -0.8191  1.5615
 8610SOL     OW37288   2.844   0.323  10.627  0.0295  0.1586  0.7545
 8610SOL    HW137289   2.753   0.300  10.605 -0.0012  0.8447  0.1735
 8610SOL    HW237290   2.858   0.393  10.564 -0.7135 -0.7011 -0.3651
 8611SOL     OW37291   0.844   2.185   3.916 -0.0593  0.2378 -0.6344
 8611SOL    HW137292   0.932   2.149   3.929  0.6859  2.4384  0.5379
 8611SOL    HW237293   0.804   2.173   4.002  0.3600 -0.6755 -0.5647
 8612SOL     OW37294   2.446   4.520  17.063 -0.1457  0.0877  0.4626
 8612SOL    HW137295   2.444   4.469  17.144 -1.5670 -1.3311 -0.4636
 8612SOL    HW237296   2.383   4.586  17.092 -2.2711 -1.7579  0.0509
 8613SOL     OW37297   1.510   2.782   2.499  0.0491  0.0369  0.0791
 8613SOL    HW137298   1.592   2.743   2.470 -0.7291  0.5463 -2.8341
 8613SOL    HW237299   1.481   2.831   2.422  2.7334 -0.3073 -1.1535
 8614SOL     OW37300   0.560   4.405   2.698 -0.0998  0.2574  0.4988
 8614SOL    HW137301   0.477   4.384   2.741  0.2831 -2.4810 -0.1201
 8614SOL    HW237302   0.557   4.499   2.717  0.2437  1.0062 -3.0825
 8615SOL     OW37303   4.081   2.791  10.202  0.0066  0.1070  0.3778
 8615SOL    HW137304   4.085   2.883  10.177 -0.5758  0.1426  0.4122
 8615SOL    HW237305   4.011   2.785  10.268  0.1847 -1.3996  0.4233
 8616SOL     OW37306   1.331   0.203   8.822 -0.0699  0.2233 -0.7073
 8616SOL    HW137307   1.268   0.237   8.886  0.4858  0.7337 -0.4309
 8616SOL    HW237308   1.411   0.188   8.872 -1.1837 -2.1753  0.3395
 8617SOL     OW37309   0.644   1.565  13.074  0.0318 -0.2464 -0.2348
 8617SOL    HW137310   0.668   1.596  13.161 -1.6748  2.1209 -0.5986
 8617SOL    HW237311   0.555   1.598  13.076  0.0582 -0.0502 -1.8307
 8618SOL     OW37312   1.070   0.405   4.184 -0.1664  0.4635  0.1850
 8618SOL    HW137313   1.020   0.485   4.167  0.3155  0.3994 -1.5537
 8618SOL    HW237314   1.150   0.443   4.220 -0.6880  0.1596  1.6389
 8619SOL     OW37315   3.840   0.135   4.503  0.1629  0.0878  0.1907
 8619SOL    HW137316   3.913   0.075   4.490  0.6604  0.7185  0.0911
 8619SOL    HW237317   3.771   0.069   4.489  1.0671 -1.4132  2.7248
 8620SOL     OW37318   1.700   2.870  10.589  0.3048 -0.2141  0.1615
 8620SOL    HW137319   1.732   2.889  10.677  0.7208  2.1921 -0.5104
 8620SOL    HW237320   1.695   2.951  10.538 -0.3298  0.7631  1.7860
 8621SOL     OW37321   3.284   2.413  16.079 -0.0732  0.1944  0.2359
 8621SOL    HW137322   3.209   2.411  16.020  1.0464 -0.1974 -1.1714
 8621SOL    HW237323   3.238   2.409  16.163  0.1497  1.7324  0.4382
 8622SOL     OW37324   0.264   2.737   9.117 -0.5879  0.1121 -0.4686
 8622SOL    HW137325   0.231   2.808   9.173  0.7216  0.8491 -0.6293
 8622SOL    HW237326   0.257   2.787   9.035 -0.9625 -1.0684 -1.1494
 8623SOL     OW37327   0.089   3.336   7.312  1.5149  0.1111 -0.3696
 8623SOL    HW137328   0.099   3.401   7.381  2.3587  0.0452 -0.4329
 8623SOL    HW237329   0.149   3.366   7.243  2.3967 -1.1964 -0.1704
 8624SOL     OW37330   4.489   4.284   5.136  0.4004 -0.0172  0.0706
 8624SOL    HW137331   4.519   4.196   5.111  0.0264 -0.5288  1.4386
 8624SOL    HW237332   4.547   4.291   5.212 -1.0291  0.4114  1.1219
 8625SOL     OW37333   2.105   3.382  13.778  0.4201  0.5440  0.2285
 8625SOL    HW137334   2.200   3.374  13.780  0.1713 -2.3810 -0.5020
 8625SOL    HW237335   2.086   3.301  13.732 -1.9605  0.0404  2.1299
 8626SOL     OW37336   3.378   2.063   7.747 -0.3970  0.1241 -0.3660
 8626SOL    HW137337   3.310   2.130   7.737  1.4237  2.3632  2.3895
 8626SOL    HW237338   3.452   2.122   7.759 -0.1927  0.1019 -1.4945
 8627SOL     OW37339   3.836   1.110  17.260  0.1724  0.2891 -0.7020
 8627SOL    HW137340   3.772   1.050  17.300  0.9139 -0.8041 -1.1444
 8627SOL    HW237341   3.901   1.130  17.327  0.4791  0.9307 -1.1922
 8628SOL     OW37342   3.744   3.672   0.791  0.0974 -0.2890  0.7536
 8628SOL    HW137343   3.719   3.728   0.717 -1.0099 -1.3829  0.3038
 8628SOL    HW237344   3.816   3.632   0.742 -0.8384 -0.3579 -0.5544
 8629SOL     OW37345   3.662   2.106   9.852  0.1886  0.1194  0.0624
 8629SOL    HW137346   3.731   2.072   9.797 -0.6799 -1.0158 -0.3257
 8629SOL    HW237347   3.657   2.191   9.808 -1.6586  0.5339  1.0510
 8630SOL     OW37348   0.758   4.294  15.005  0.4041 -0.0857 -0.2850
 8630SOL    HW137349   0.702   4.239  15.060 -0.9842  0.9485 -0.6736
 8630SOL    HW237350   0.843   4.273  15.043  0.1897 -1.5193 -0.6207
 8631SOL     OW37351   4.460   1.649   2.201  0.2263  0.0275  0.0664
 8631SOL    HW137352   4.435   1.568   2.155 -1.0688 -0.6821  2.0553
 8631SOL    HW237353   4.379   1.692   2.175  0.4944  0.4417 -0.0750
 8632SOL     OW37354   4.060   2.928   3.532 -0.4954  0.1611 -0.1747
 8632SOL    HW137355   4.145   2.940   3.576 -1.2542 -0.1827  1.3723
 8632SOL    HW237356   4.013   2.882   3.602  1.5792 -2.1723 -0.2954
 8633SOL     OW37357   0.306   3.002   9.280 -0.3087  0.1177 -0.2194
 8633SOL    HW137358   0.388   3.040   9.312  0.0020 -1.4211  0.8251
 8633SOL    HW237359   0.241   3.024   9.346 -0.7952  0.2005 -0.7217
 8634SOL     OW37360   0.795   3.413   3.193  0.4808  0.1696 -0.1264
 8634SOL    HW137361   0.811   3.328   3.232  3.1688  1.2457  1.1452
 8634SOL    HW237362   0.711   3.408   3.148 -0.9533 -1.1534  2.7455
 8635SOL     OW37363   2.048   2.483   6.241 -0.0462 -0.1904 -0.1487
 8635SOL    HW137364   1.993   2.405   6.247  1.9547 -1.3074  3.5699
 8635SOL    HW237365   2.095   2.463   6.160  0.6261 -0.9592  0.4291
 8636SOL     OW37366   2.824   0.778   6.384  0.7375  0.0993  0.0214
 8636SOL    HW137367   2.797   0.870   6.381 -0.6836 -0.3407 -0.5696
 8636SOL    HW237368   2.896   0.786   6.321  1.6195 -1.9556  0.7932
 8637SOL     OW37369   1.375   2.614   2.747 -0.0421  0.2417 -0.1285
 8637SOL    HW137370   1.423   2.695   2.766  1.0531 -0.4834  0.1918
 8637SOL    HW237371   1.404   2.559   2.820 -2.3499  0.0532  0.6535
 8638SOL     OW37372   2.442   4.197   2.339  0.6593 -0.2694  0.0871
 8638SOL    HW137373   2.504   4.247   2.393  0.9420 -0.8410  0.2930
 8638SOL    HW237374   2.484   4.197   2.253 -1.0357  3.4710 -0.7527
 8639SOL     OW37375   3.133   2.649  13.084  0.2540 -0.6444 -0.0549
 8639SOL    HW137376   3.045   2.629  13.050  0.5623  0.1432 -1.3202
 8639SOL    HW237377   3.126   2.610  13.171 -0.8717  2.1696  1.1035
 8640SOL     OW37378   1.786   2.860   4.302 -0.0270 -0.1778  0.4172
 8640SOL    HW137379   1.796   2.766   4.311  0.0026 -0.4145 -2.0428
 8640SOL    HW237380   1.741   2.874   4.385 -0.2269 -0.7436  0.3992
 8641SOL     OW37381   0.746   0.748   2.681  0.3086 -0.3264  0.3741
 8641SOL    HW137382   0.731   0.830   2.634  0.6821 -1.2073 -1.2945
 8641SOL    HW237383   0.664   0.703   2.659 -1.0248  2.3117 -0.0660
 8642SOL     OW37384   4.214   2.806  15.723 -0.2275  0.0336  0.0703
 8642SOL    HW137385   4.125   2.803  15.756 -0.7116 -1.8266 -1.4019
 8642SOL    HW237386   4.212   2.881  15.665 -1.9566  0.3528  0.5554
 8643SOL     OW37387   4.385   2.675   8.926  0.0441 -0.4080  0.2955
 8643SOL    HW137388   4.422   2.590   8.902 -4.8175 -2.8943  1.5892
 8643SOL    HW237389   4.333   2.691   8.847 -0.7551  0.0799  0.9225
 8644SOL     OW37390   3.450   3.236   6.775 -0.0918  0.2092 -0.2258
 8644SOL    HW137391   3.380   3.252   6.711  0.1305  0.2215 -0.4661
 8644SOL    HW237392   3.485   3.151   6.749 -2.4923 -0.3345 -1.7673
 8645SOL     OW37393   3.945   0.453   4.486 -0.7982  0.1446 -0.0551
 8645SOL    HW137394   3.858   0.412   4.493 -1.6886  2.3388  1.4085
 8645SOL    HW237395   3.921   0.529   4.433 -1.1326  1.6461  2.2692
 8646SOL     OW37396   1.769   0.293  12.580  0.5467  0.3673  0.0884
 8646SOL    HW137397   1.676   0.280  12.561  1.0844  0.7311 -2.7947
 8646SOL    HW237398   1.773   0.383  12.615  2.3592  0.4514 -0.3763
 8647SOL     OW37399   2.612   1.621   7.496  0.3814  0.5660 -0.0256
 8647SOL    HW137400   2.649   1.601   7.411 -4.3453 -0.7696 -1.8038
 8647SOL    HW237401   2.687   1.629   7.555 -0.7086 -0.4118  1.5158
 8648SOL     OW37402   0.097   0.448   4.722  0.3302 -0.1696  0.0639
 8648SOL    HW137403   0.035   0.512   4.757  0.9267 -0.0576  0.9095
 8648SOL    HW237404   0.173   0.506   4.722 -0.3115  0.6687  1.6619
 8649SOL     OW37405   1.346   2.830  14.964 -0.0335  0.1626 -0.3671
 8649SOL    HW137406   1.348   2.823  14.869 -1.2963  1.3556 -0.4825
 8649SOL    HW237407   1.272   2.890  14.971 -0.1399 -0.1611  1.3450
 8650SOL     OW37408   1.598   2.642   3.905  0.4098 -0.6237  0.6454
 8650SOL    HW137409   1.612   2.547   3.911 -2.2555 -0.9703  1.2732
 8650SOL    HW237410   1.678   2.661   3.856 -0.6020 -0.4295 -0.8925
 8651SOL     OW37411   0.242   3.768   6.889  0.6061 -0.5675 -0.0831
 8651SOL    HW137412   0.149   3.762   6.870  0.5094 -2.7716  1.0122
 8651SOL    HW237413   0.283   3.717   6.819  0.8486 -0.5919  0.0740
 8652SOL     OW37414   1.328   2.009   8.655 -0.5886 -0.0578 -0.6804
 8652SOL    HW137415   1.349   1.975   8.742 -3.0484  1.2794  0.4103
 8652SOL    HW237416   1.323   2.104   8.653  1.2467  0.0707  0.2156
 8653SOL     OW37417   0.798   3.352   6.365  0.2465 -0.4249  0.0106
 8653SOL    HW137418   0.707   3.371   6.387 -0.3608 -0.4299 -2.5071
 8653SOL    HW237419   0.823   3.296   6.439  0.1067  0.9289  1.0958
 8654SOL     OW37420   3.649   3.167   8.516  0.3055 -0.5553  0.2828
 8654SOL    HW137421   3.644   3.259   8.491 -1.0685 -0.5472  0.5947
 8654SOL    HW237422   3.636   3.112   8.438  0.8683 -1.7981  1.0717
 8655SOL     OW37423   0.368   0.395   6.626 -0.4124 -0.2500  0.3799
 8655SOL    HW137424   0.387   0.308   6.660 -0.3250  0.5738  2.4053
 8655SOL    HW237425   0.295   0.381   6.566  0.3006 -1.2149 -0.2528
 8656SOL     OW37426   1.214   1.056   7.766  0.1778  0.2587  0.0351
 8656SOL    HW137427   1.243   0.967   7.749  0.6722  0.4810 -0.3013
 8656SOL    HW237428   1.294   1.109   7.771  0.7523 -0.6048 -0.0678
 8657SOL     OW37429   1.357   3.791   9.438  0.6570 -0.5927  0.4219
 8657SOL    HW137430   1.413   3.830   9.505 -0.8310  0.3952  1.0668
 8657SOL    HW237431   1.424   3.764   9.375  1.7207  2.5013  0.2260
 8658SOL     OW37432   2.005   2.852   5.478 -0.4719  0.0718 -0.2358
 8658SOL    HW137433   1.924   2.860   5.528 -1.1491  1.6794 -1.5618
 8658SOL    HW237434   2.052   2.778   5.517 -1.8309 -1.0875 -0.8242
 8659SOL     OW37435   1.269   0.573   5.075 -0.2616  0.1422  0.3131
 8659SOL    HW137436   1.176   0.561   5.059  0.1276  3.3089 -4.1244
 8659SOL    HW237437   1.303   0.492   5.038 -1.6668  0.8235 -2.4088
 8660SOL     OW37438   1.855   0.918   9.614 -0.4671  0.4014 -0.3130
 8660SOL    HW137439   1.790   0.977   9.652 -1.9204 -0.1108 -1.9970
 8660SOL    HW237440   1.914   0.983   9.575  1.2338 -0.2940  1.1021
 8661SOL     OW37441   1.312   4.008   6.378  0.3460  0.0105  0.2264
 8661SOL    HW137442   1.331   4.056   6.298  3.0781 -0.2229  0.7274
 8661SOL    HW237443   1.222   3.977   6.362  0.4547 -0.2080  0.0350
 8662SOL     OW37444   4.410   0.762   6.203 -0.0747  0.0394  0.6346
 8662SOL    HW137445   4.369   0.720   6.278  1.8136 -3.3665 -0.2398
 8662SOL    HW237446   4.337   0.754   6.141 -0.2633 -2.4054  1.1968
 8663SOL     OW37447   1.206   0.614   7.681  0.2664  0.1787  0.7300
 8663SOL    HW137448   1.257   0.558   7.622 -1.5984 -0.2914 -0.4273
 8663SOL    HW237449   1.193   0.699   7.639 -0.8284 -0.5101 -0.3111
 8664SOL     OW37450   0.938   3.434   6.685  0.1393  0.2918  0.2624
 8664SOL    HW137451   0.989   3.368   6.638  0.4171  0.1333  0.7904
 8664SOL    HW237452   0.983   3.512   6.649  0.8152  0.1581  0.8145
 8665SOL     OW37453   2.705   4.283   6.134 -0.7799 -0.4834  0.4773
 8665SOL    HW137454   2.667   4.261   6.049 -1.2723  0.8731  0.3457
 8665SOL    HW237455   2.782   4.332   6.106 -1.6431 -0.1251 -1.2990
 8666SOL     OW37456   2.205   1.533   2.439 -0.0661  0.2744  0.1262
 8666SOL    HW137457   2.127   1.552   2.387 -1.3333  0.4691  2.1231
 8666SOL    HW237458   2.189   1.439   2.435 -0.9985  0.5181 -2.2865
 8667SOL     OW37459   2.819   2.768   5.408 -0.2520  0.2234  0.2406
 8667SOL    HW137460   2.893   2.827   5.415 -0.4669  0.5536 -0.2941
 8667SOL    HW237461   2.827   2.707   5.482  0.0499 -1.8180 -1.4570
 8668SOL     OW37462   4.638   2.220   1.785  0.1003 -0.3353  0.0740
 8668SOL    HW137463   4.587   2.189   1.859  0.9100 -0.4037  0.6075
 8668SOL    HW237464   4.727   2.184   1.794  0.2807 -0.1386 -0.9302
 8669SOL     OW37465   2.869   1.552   8.272 -0.3480 -0.2372 -0.0963
 8669SOL    HW137466   2.896   1.626   8.326  0.9392 -1.0304  0.3684
 8669SOL    HW237467   2.935   1.491   8.307  0.9875  0.7551 -0.8802
 8670SOL     OW37468   3.441   2.912   3.950  0.4082 -0.2516 -0.3143
 8670SOL    HW137469   3.391   2.835   3.980  0.4904  0.3505  1.3925
 8670SOL    HW237470   3.528   2.912   3.990  1.3658 -1.3094 -2.3864
 8671SOL     OW37471   0.024   0.108   5.898  0.6637 -0.1542 -0.5303
 8671SOL    HW137472   4.715   0.196   5.884 -0.9620 -0.9814 -1.4841
 8671SOL    HW237473   0.100   0.132   5.951  1.6553 -0.8286 -1.6754
 8672SOL     OW37474   2.197   2.324  10.164 -0.3429 -0.3219  0.3753
 8672SOL    HW137475   2.126   2.369  10.118 -0.3444  0.2913  0.9817
 8672SOL    HW237476   2.228   2.402  10.209  1.0535 -0.8028  0.2465
 8673SOL     OW37477   2.502   0.645   5.411 -0.0525 -0.1748  0.3232
 8673SOL    HW137478   2.412   0.636   5.441  0.4325  0.3363  1.9440
 8673SOL    HW237479   2.507   0.740   5.418 -0.2777 -0.0806 -0.7022
 8674SOL     OW37480   3.469   1.467  17.003 -0.1298  0.0714 -0.1655
 8674SOL    HW137481   3.490   1.540  17.060 -0.9647 -1.0206  1.5405
 8674SOL    HW237482   3.374   1.471  16.999 -0.3352 -2.6754  1.8841
 8675SOL     OW37483   2.368   3.354  13.757  0.2433 -0.4218 -0.3978
 8675SOL    HW137484   2.348   3.444  13.731  1.3648  0.2194  1.0188
 8675SOL    HW237485   2.458   3.347  13.727 -0.1143  0.3842 -1.6620
 8676SOL     OW37486   3.691   3.406   6.721  0.3512 -0.5241  0.3186
 8676SOL    HW137487   3.720   3.322   6.756 -0.2741 -0.5746  0.7293
 8676SOL    HW237488   3.598   3.383   6.716  0.1242  1.4076 -3.8786
 8677SOL     OW37489   1.898   1.506   2.717  0.4299 -0.0751 -0.2822
 8677SOL    HW137490   1.830   1.463   2.666  1.6970 -1.3032 -0.9289
 8677SOL    HW237491   1.976   1.474   2.671  0.1851  0.8422 -1.3275
 8678SOL     OW37492   1.233   1.512   2.435 -0.5276  0.4293 -0.4441
 8678SOL    HW137493   1.222   1.583   2.372 -0.5040 -0.4177 -1.4115
 8678SOL    HW237494   1.164   1.448   2.415  1.2196 -1.3552 -0.6895
 8679SOL     OW37495   0.314   2.242  15.364 -0.1189 -0.2952  0.2833
 8679SOL    HW137496   0.381   2.181  15.395 -1.9693 -2.2784  0.4757
 8679SOL    HW237497   0.368   2.265  15.288  0.2667 -1.0463  0.3304
 8680SOL     OW37498   1.023   3.552   8.000 -0.0682 -0.7247  0.4426
 8680SOL    HW137499   0.932   3.575   8.018  0.1037 -0.8966  1.5310
 8680SOL    HW237500   1.073   3.596   8.069 -0.4367  0.8075 -0.2602
 8681SOL     OW37501   1.510   3.785   9.799  0.3130 -0.0093 -0.7800
 8681SOL    HW137502   1.539   3.835   9.875  0.1199 -0.0861 -0.6551
 8681SOL    HW237503   1.559   3.811   9.721 -1.8221  0.8678 -1.8379
 8682SOL     OW37504   2.023   2.961  15.545  0.2257 -0.6167  0.9243
 8682SOL    HW137505   2.007   2.868  15.530  1.9202 -1.0244  1.6796
 8682SOL    HW237506   2.105   2.942  15.590 -0.5223 -0.3004  2.4429
 8683SOL     OW37507   3.669   4.620   4.493  0.4133 -0.4857  0.4805
 8683SOL    HW137508   3.603   4.567   4.538 -1.0166  1.8312  1.1489
 8683SOL    HW237509   3.714   4.552   4.443  0.8965  0.9632 -1.0617
 8684SOL     OW37510   2.249   4.293   6.732  0.2606  0.1135  0.2333
 8684SOL    HW137511   2.275   4.208   6.697 -3.0424 -1.4962  1.7811
 8684SOL    HW237512   2.291   4.285   6.818 -1.2984  0.9130  1.0625
 8685SOL     OW37513   3.005   1.601   5.114  0.3463 -0.5690 -0.1630
 8685SOL    HW137514   3.051   1.684   5.132 -0.6775 -0.1910  0.6957
 8685SOL    HW237515   3.004   1.562   5.202  0.7635 -0.2088  0.0035
 8686SOL     OW37516   3.617   1.656   3.673  0.1700  0.1875 -0.0121
 8686SOL    HW137517   3.566   1.737   3.667  1.1150  0.6270 -1.9532
 8686SOL    HW237518   3.547   1.590   3.680  1.4269 -0.9687  1.7591
 8687SOL     OW37519   1.206   1.771   8.390 -0.4147  0.0456 -0.3452
 8687SOL    HW137520   1.184   1.703   8.326  0.6039  2.1658 -2.9449
 8687SOL    HW237521   1.201   1.850   8.336  2.9152 -0.3580 -1.2592
 8688SOL     OW37522   1.746   3.122   5.389 -0.0752 -0.1540 -0.8969
 8688SOL    HW137523   1.736   3.050   5.325 -1.6458 -0.9391  0.2357
 8688SOL    HW237524   1.748   3.071   5.470  1.5267 -2.0385 -2.1104
 8689SOL     OW37525   1.153   1.252   9.414  0.9688  0.0073  0.3050
 8689SOL    HW137526   1.143   1.283   9.324  1.1868 -0.7379  0.0233
 8689SOL    HW237527   1.244   1.276   9.434 -0.4967  4.7273  1.1629
 8690SOL     OW37528   4.634   2.017   3.341  0.2244  0.0402  0.2452
 8690SOL    HW137529   4.713   2.066   3.366  1.5899 -1.1962 -1.6332
 8690SOL    HW237530   4.604   2.006   3.431 -2.0139 -0.2477 -0.5545
 8691SOL     OW37531   4.384   3.064   6.830 -0.4155 -0.1802  0.0371
 8691SOL    HW137532   4.305   3.067   6.884  0.7072 -0.7381  1.7053
 8691SOL    HW237533   4.367   3.139   6.772  2.4401  0.2508 -0.2460
 8692SOL     OW37534   0.549   2.241  17.535 -0.2603 -0.2613  0.2949
 8692SOL    HW137535   0.511   2.247  17.623  0.3833 -2.2526  0.7059
 8692SOL    HW237536   0.559   2.332  17.506 -1.2350 -0.3818 -0.4477
 8693SOL     OW37537   1.247   2.821   1.823  0.3477  0.3937  0.4304
 8693SOL    HW137538   1.213   2.817   1.912  0.2917 -1.0140  0.3492
 8693SOL    HW237539   1.222   2.909   1.794 -1.2172  0.0287  0.6569
 8694SOL     OW37540   3.168   2.454  11.031 -0.3199  0.5256 -0.3115
 8694SOL    HW137541   3.100   2.443  10.965 -0.4202  1.8353 -0.4241
 8694SOL    HW237542   3.228   2.517  10.991  0.1344  0.5301  0.3730
 8695SOL     OW37543   4.410   4.587   3.639  0.3182  0.3040  0.0015
 8695SOL    HW137544   4.387   4.669   3.684 -0.7820  1.6351 -3.0224
 8695SOL    HW237545   4.506   4.578   3.636  0.2274 -1.2258  1.9190
 8696SOL     OW37546   4.108   1.670  17.190 -0.0192 -0.7245  0.2304
 8696SOL    HW137547   4.067   1.591  17.154  0.2040 -0.7261 -0.0171
 8696SOL    HW237548   4.198   1.639  17.202  0.3111  0.1553  0.0230
 8697SOL     OW37549   3.389   4.031   2.367 -0.2802  0.0317  0.0650
 8697SOL    HW137550   3.443   3.983   2.430  1.5250 -1.3325 -2.4944
 8697SOL    HW237551   3.367   4.117   2.402 -0.5137  0.0195 -0.0536
 8698SOL     OW37552   3.245   0.376   6.661  0.1446  0.8046 -0.9996
 8698SOL    HW137553   3.313   0.366   6.594  0.6795  1.5993 -0.5785
 8698SOL    HW237554   3.280   0.308   6.718 -1.9269  0.2955 -0.3356
 8699SOL     OW37555   3.548   1.177   4.508 -0.0056  0.0764 -0.3218
 8699SOL    HW137556   3.638   1.161   4.481 -0.2013  1.9298 -2.0516
 8699SOL    HW237557   3.552   1.272   4.510 -0.6452  0.1193 -1.1624
 8700SOL     OW37558   1.719   1.258   3.615  0.1038  0.2401  0.6356
 8700SOL    HW137559   1.790   1.221   3.563  0.7620 -0.6722  2.1651
 8700SOL    HW237560   1.757   1.272   3.701  0.1909 -2.7211  1.1028
 8701SOL     OW37561   0.876   0.900   5.063 -0.4696 -0.1672 -0.5536
 8701SOL    HW137562   0.831   0.983   5.047  0.2265  0.3681  0.3013
 8701SOL    HW237563   0.935   0.896   4.988  0.8224 -0.5403  0.5063
 8702SOL     OW37564   1.645   3.917   9.595 -0.1599 -0.2239 -0.2600
 8702SOL    HW137565   1.722   3.953   9.551 -0.4765 -0.4354 -1.0044
 8702SOL    HW237566   1.627   3.988   9.656 -0.9789 -1.2013  0.6284
 8703SOL     OW37567   1.192   3.773   7.503 -0.3856 -0.2891 -0.0661
 8703SOL    HW137568   1.172   3.718   7.579  2.7316 -0.0650  0.9047
 8703SOL    HW237569   1.189   3.709   7.432 -0.7835  2.7412 -2.8231
 8704SOL     OW37570   3.482   1.273   5.786 -0.2348  0.4287  0.5539
 8704SOL    HW137571   3.563   1.321   5.771 -0.0466  0.4820  1.7458
 8704SOL    HW237572   3.505   1.195   5.735  1.1777  1.0470  0.2488
 8705SOL     OW37573   4.007   2.864   2.289 -0.6625  0.2916  0.5288
 8705SOL    HW137574   3.921   2.837   2.256 -0.8091  1.6439 -0.2423
 8705SOL    HW237575   4.025   2.938   2.230 -1.4097  0.4400  0.4921
 8706SOL     OW37576   1.617   0.114   5.337 -0.0316 -0.3212 -0.3763
 8706SOL    HW137577   1.648   0.202   5.360  0.1396 -0.7341  0.9862
 8706SOL    HW237578   1.546   0.118   5.401 -0.0776 -3.9393 -0.2328
 8707SOL     OW37579   0.831   0.096  12.618 -0.8009  0.2321  0.2722
 8707SOL    HW137580   0.847   0.159  12.548  0.9902 -0.0675  0.3993
 8707SOL    HW237581   0.762   0.135  12.671  1.3159  0.5826  2.7497
 8708SOL     OW37582   3.059   0.424  10.282  0.1524 -0.0502  0.1013
 8708SOL    HW137583   3.136   0.477  10.303 -0.0955  0.8488 -1.2717
 8708SOL    HW237584   3.002   0.450  10.355 -0.4499 -2.4088  0.4583
 8709SOL     OW37585   1.306   3.770  10.393 -0.1684  0.4937  0.3441
 8709SOL    HW137586   1.337   3.712  10.462  2.4193  1.1720 -0.2438
 8709SOL    HW237587   1.244   3.834  10.427 -0.4291  0.6389 -0.4044
 8710SOL     OW37588   3.279   2.032   5.797  0.1599  0.4506  0.0445
 8710SOL    HW137589   3.349   2.079   5.752  0.6162  2.8286  3.2616
 8710SOL    HW237590   3.325   1.948   5.806 -2.4738 -1.0698 -0.8129
 8711SOL     OW37591   4.104   3.044   2.090  0.6602 -0.5964 -0.5271
 8711SOL    HW137592   4.069   3.107   2.027  4.0027 -0.4113 -2.2022
 8711SOL    HW237593   4.151   2.986   2.030 -0.2730 -0.3090 -1.5401
 8712SOL     OW37594   2.960   0.577   3.979  0.2120  0.2558 -0.6189
 8712SOL    HW137595   3.015   0.655   3.972 -0.3426  0.8394  1.5561
 8712SOL    HW237596   2.919   0.589   4.065 -0.9082  1.8300 -1.3609
 8713SOL     OW37597   0.284   0.878   8.899  0.1822 -0.1050 -0.1545
 8713SOL    HW137598   0.239   0.944   8.846 -0.4179 -0.4310 -0.0526
 8713SOL    HW237599   0.344   0.939   8.941  1.4340 -0.7537 -0.9970
 8714SOL     OW37600   1.610   0.514   5.592  0.3045 -0.2987  0.5655
 8714SOL    HW137601   1.531   0.564   5.607  0.8824  0.7385  0.1714
 8714SOL    HW237602   1.673   0.556   5.650  1.1050  0.3191 -0.7490
 8715SOL     OW37603   2.975   4.259   6.389 -0.2810 -0.3884 -1.0072
 8715SOL    HW137604   3.038   4.230   6.324  1.4897  1.7838 -0.2732
 8715SOL    HW237605   2.899   4.205   6.369 -0.4538  0.2910 -2.1778
 8716SOL     OW37606   0.798   1.835  17.167  0.0519  0.2634 -0.5575
 8716SOL    HW137607   0.779   1.759  17.222  0.0926  0.1971 -0.6355
 8716SOL    HW237608   0.809   1.792  17.082 -1.0667 -1.4599  0.1814
 8717SOL     OW37609   2.014   2.588   2.313  0.5117  0.4157 -0.5578
 8717SOL    HW137610   2.036   2.592   2.220 -1.1775  1.3046 -0.9132
 8717SOL    HW237611   2.046   2.675   2.338  0.5033 -0.0212  0.9686
 8718SOL     OW37612   4.277   1.243   6.942  0.1746 -0.3656  0.0352
 8718SOL    HW137613   4.343   1.280   7.001  0.1872  1.8442 -1.3722
 8718SOL    HW237614   4.333   1.232   6.865  1.6071 -1.5020  1.2436
 8719SOL     OW37615   1.363   3.227   5.278 -0.7593 -0.1676  0.3941
 8719SOL    HW137616   1.364   3.165   5.205  0.8307 -0.4913  0.6832
 8719SOL    HW237617   1.275   3.214   5.314 -0.8383 -3.0758 -0.7967
 8720SOL     OW37618   3.431   3.870   6.292 -0.1812 -0.4347  0.0927
 8720SOL    HW137619   3.502   3.873   6.357  0.7704 -1.2750 -0.8989
 8720SOL    HW237620   3.492   3.896   6.223 -2.6418  3.8834 -0.4234
 8721SOL     OW37621   3.235   2.264   3.242 -0.3877  0.2934  0.4325
 8721SOL    HW137622   3.243   2.231   3.332 -1.7728  0.8008  0.7342
 8721SOL    HW237623   3.158   2.217   3.211  0.1343  0.5819 -1.2596
 8722SOL     OW37624   3.298   2.504   0.177 -0.5197 -0.6698  0.2405
 8722SOL    HW137625   3.247   2.493   0.256  0.7800  0.5007  1.2477
 8722SOL    HW237626   3.241   2.562   0.126 -0.5158 -0.9755 -0.1098
 8723SOL     OW37627   0.932   2.672  14.298 -0.5507  0.2189 -0.5096
 8723SOL    HW137628   0.856   2.730  14.308 -1.2679 -0.9402  0.7183
 8723SOL    HW237629   0.924   2.644  14.207 -1.1415 -0.6420 -0.1917
 8724SOL     OW37630   2.607   3.966   8.491  0.1968  0.7018  0.6790
 8724SOL    HW137631   2.676   4.002   8.435 -0.1960 -0.2824 -0.4311
 8724SOL    HW237632   2.638   3.875   8.499  2.8891  1.5076 -0.5633
 8725SOL     OW37633   2.594   3.642   4.111  0.2577  0.3130 -0.5851
 8725SOL    HW137634   2.547   3.677   4.035  1.8845  1.0496 -1.2396
 8725SOL    HW237635   2.539   3.683   4.178  0.7211 -0.5810  0.3519
 8726SOL     OW37636   4.436   0.338   3.504 -0.6610  0.2322 -0.3646
 8726SOL    HW137637   4.512   0.395   3.517 -0.0018 -1.0045  1.2246
 8726SOL    HW237638   4.450   0.317   3.412 -0.0060 -3.0668  0.4734
 8727SOL     OW37639   0.430   2.253   3.105  0.2939 -0.2411 -0.4228
 8727SOL    HW137640   0.426   2.198   3.026 -0.3286 -2.0725  0.8746
 8727SOL    HW237641   0.426   2.338   3.062  0.5081 -0.8455 -1.6461
 8728SOL     OW37642   1.431   4.726  10.853  0.0590  0.0806 -0.3534
 8728SOL    HW137643   1.430   0.094  10.864  2.3738  0.2914 -1.9675
 8728SOL    HW237644   1.524   4.705  10.851  0.6348  2.5573  0.1238
 8729SOL     OW37645   2.127   2.711   9.198 -0.0906 -0.1695  0.1590
 8729SOL    HW137646   2.047   2.662   9.179 -0.5025  1.1100 -1.3596
 8729SOL    HW237647   2.195   2.649   9.226 -0.3207  0.7462  2.7320
 8730SOL     OW37648   0.047   2.019   7.159  0.0481 -0.0463 -0.2985
 8730SOL    HW137649   0.115   1.953   7.158 -0.2877 -0.4187  1.7454
 8730SOL    HW237650   0.080   2.075   7.089  0.2697 -0.9344 -0.8888
 8731SOL     OW37651   4.324   2.267  11.726  0.7612  0.3573  0.2551
 8731SOL    HW137652   4.384   2.217  11.781  1.6531  1.4198  0.2483
 8731SOL    HW237653   4.243   2.279  11.775  1.2211  1.7553  0.6944
 8732SOL     OW37654   1.698   1.154   2.423 -0.4062 -0.0766  0.4593
 8732SOL    HW137655   1.676   1.082   2.365 -0.4086 -0.8089  1.3589
 8732SOL    HW237656   1.740   1.107   2.495 -0.6900  0.0632  0.7210
 8733SOL     OW37657   2.191   0.474  15.824 -0.1536  0.3255  0.0943
 8733SOL    HW137658   2.204   0.558  15.779  1.3170 -1.3369 -2.5223
 8733SOL    HW237659   2.213   0.412  15.755 -0.0832 -0.9313  1.2457
 8734SOL     OW37660   2.204   1.482   1.698 -0.3712 -0.1216 -0.7312
 8734SOL    HW137661   2.283   1.436   1.728  0.0750  3.3115  3.2650
 8734SOL    HW237662   2.159   1.415   1.646 -0.6206  0.8104 -1.7136
 8735SOL     OW37663   2.621   1.605   3.808 -0.1393 -0.0577  0.7575
 8735SOL    HW137664   2.681   1.631   3.738 -1.2371 -1.3154 -0.6451
 8735SOL    HW237665   2.557   1.676   3.805  1.3303  1.2482  0.1300
 8736SOL     OW37666   1.852   1.047   0.660  0.3114 -0.0842  0.1755
 8736SOL    HW137667   1.932   1.005   0.692  1.1416 -0.2763 -2.1278
 8736SOL    HW237668   1.819   0.987   0.593  1.9753 -0.0524 -0.6698
 8737SOL     OW37669   0.711   1.568   4.878 -0.2792 -1.3649 -0.4784
 8737SOL    HW137670   0.777   1.569   4.948 -0.5962 -1.1936 -0.1809
 8737SOL    HW237671   0.661   1.648   4.894 -0.0735 -0.7373 -2.9284
 8738SOL     OW37672   3.438   2.682  15.299  0.1746 -0.2064 -0.5387
 8738SOL    HW137673   3.506   2.659  15.363  2.8374  0.7451 -3.0568
 8738SOL    HW237674   3.364   2.635  15.338 -0.7359 -0.0599 -2.0909
 8739SOL     OW37675   1.167   4.248   2.907  0.7370  0.0280 -0.3286
 8739SOL    HW137676   1.182   4.281   2.995 -1.9543  1.6766 -0.5098
 8739SOL    HW237677   1.191   4.321   2.849 -0.0264  0.3572 -0.2221
 8740SOL     OW37678   0.649   3.737   7.165  0.6970 -0.1094  0.2071
 8740SOL    HW137679   0.709   3.695   7.227 -0.4489 -1.5729  0.3176
 8740SOL    HW237680   0.607   3.799   7.225  1.9093 -0.5856  1.5333
 8741SOL     OW37681   3.104   3.986   5.184 -0.1839 -0.5034  0.3501
 8741SOL    HW137682   3.156   4.066   5.187 -0.0570 -0.6403  1.7789
 8741SOL    HW237683   3.082   3.974   5.091 -0.3471 -1.7660  0.5513
 8742SOL     OW37684   1.570   3.104   9.029 -0.2756 -0.0824  0.6780
 8742SOL    HW137685   1.562   3.011   9.049  0.4618 -0.2377  0.2758
 8742SOL    HW237686   1.634   3.103   8.958 -1.2168  0.8739 -0.1831
 8743SOL     OW37687   2.125   3.618   2.771  0.5221  0.2598  0.2042
 8743SOL    HW137688   2.161   3.598   2.858  1.8111 -2.5652 -0.9807
 8743SOL    HW237689   2.207   3.595   2.727 -0.2309 -0.5784 -0.7733
 8744SOL     OW37690   2.469   2.698   9.153 -0.0443 -0.8365 -0.7835
 8744SOL    HW137691   2.429   2.619   9.188  1.2995 -0.9505  0.4817
 8744SOL    HW237692   2.407   2.702   9.080 -2.1048 -1.3262  0.9409
 8745SOL     OW37693   4.146   0.569   5.632 -0.1782  0.0711 -0.0755
 8745SOL    HW137694   4.208   0.630   5.592  1.9726 -1.1036  1.4331
 8745SOL    HW237695   4.167   0.486   5.589 -0.0891  0.7002 -1.2535
 8746SOL     OW37696   2.527   4.174   4.657 -0.3251 -0.2822  0.4205
 8746SOL    HW137697   2.442   4.150   4.621 -0.4868 -1.0998  1.3265
 8746SOL    HW237698   2.571   4.214   4.582  2.3139 -1.3669  1.3768
 8747SOL     OW37699   2.865   1.517   2.822 -0.3082  0.1399 -0.1688
 8747SOL    HW137700   2.932   1.450   2.835  1.0748  1.8361  1.4849
 8747SOL    HW237701   2.916   1.583   2.774 -2.0574  1.3161 -0.4070
 8748SOL     OW37702   4.122   2.597   2.256  0.4060  0.0378 -0.5143
 8748SOL    HW137703   4.102   2.684   2.290  2.8713  1.5041 -2.7499
 8748SOL    HW237704   4.157   2.552   2.333  1.2922  3.3741  1.0334
 8749SOL     OW37705   2.330   2.776   8.395  0.6860 -0.1977  0.3813
 8749SOL    HW137706   2.314   2.710   8.327  0.3693 -0.6946  0.9377
 8749SOL    HW237707   2.399   2.828   8.354  1.4394 -2.0370 -0.6979
 8750SOL     OW37708   4.419   4.234  17.587 -0.3542 -0.0281  0.4188
 8750SOL    HW137709   4.352   4.182  17.542 -0.6664 -1.0246  2.0278
 8750SOL    HW237710   4.429   4.315  17.537  0.4746 -0.3976 -0.0149
 8751SOL     OW37711   2.720   2.205   4.281  0.1024 -0.0114  0.1999
 8751SOL    HW137712   2.712   2.287   4.329 -1.1923  1.0718 -1.8741
 8751SOL    HW237713   2.642   2.210   4.226  0.6186  2.2552 -0.3228
 8752SOL     OW37714   3.570   2.411   4.739 -0.1721 -0.0134  0.2136
 8752SOL    HW137715   3.548   2.455   4.657  1.4817  1.6747  0.6648
 8752SOL    HW237716   3.592   2.485   4.796  0.5677 -0.0188 -0.0710
 8753SOL     OW37717   4.197   2.043  11.409  0.1320 -0.9777 -0.2932
 8753SOL    HW137718   4.189   1.954  11.443 -1.1248  0.3889  2.9481
 8753SOL    HW237719   4.194   2.034  11.313 -0.1224  1.9649 -0.5510
 8754SOL     OW37720   0.064   0.461   7.915 -0.0847  0.0087  0.6397
 8754SOL    HW137721   0.065   0.548   7.956  1.0063 -0.0311  0.7011
 8754SOL    HW237722   0.091   0.485   7.826  0.1629  2.1951  1.2884
 8755SOL     OW37723   1.847   1.459   1.206 -0.1116  0.5414  0.1738
 8755SOL    HW137724   1.840   1.408   1.126  0.1317  0.4922  0.1856
 8755SOL    HW237725   1.859   1.384   1.265  0.6638  1.4252  1.1346
 8756SOL     OW37726   3.941   2.806  17.089 -0.0559  0.0174 -0.3241
 8756SOL    HW137727   4.019   2.790  17.143 -0.7583  1.0778  0.9932
 8756SOL    HW237728   3.978   2.781  17.004  2.4505  1.6812  0.2695
 8757SOL     OW37729   1.838   3.694  14.640  0.2932  0.2128 -0.0031
 8757SOL    HW137730   1.801   3.643  14.569  0.4741  0.1193 -0.0312
 8757SOL    HW237731   1.897   3.636  14.689 -0.0901  0.5015  0.7963
 8758SOL     OW37732   3.810   3.694   3.321 -0.5120  0.6308  0.0476
 8758SOL    HW137733   3.778   3.673   3.233 -2.3588  0.2771  0.8100
 8758SOL    HW237734   3.865   3.618   3.341  0.9876  1.5797 -0.4901
 8759SOL     OW37735   3.269   1.454   7.148  0.5284  0.2200  0.0596
 8759SOL    HW137736   3.279   1.395   7.073 -0.6902 -2.0244  1.6985
 8759SOL    HW237737   3.268   1.396   7.224 -0.4254 -0.9389 -0.8468
 8760SOL     OW37738   1.656   1.900   9.005  1.1062 -0.6234  0.0984
 8760SOL    HW137739   1.737   1.902   8.953  0.8217 -0.6239 -0.3450
 8760SOL    HW237740   1.623   1.811   8.997  2.2740 -0.8899 -1.7455
 8761SOL     OW37741   0.474   4.041  13.999  0.0138 -0.4020  0.1217
 8761SOL    HW137742   0.525   3.961  13.989  0.8191  0.0930  0.2576
 8761SOL    HW237743   0.394   4.018  13.952 -0.7520  0.4589  0.9886
 8762SOL     OW37744   2.000   4.399   7.549 -0.5062 -0.0718 -0.0685
 8762SOL    HW137745   1.948   4.337   7.600 -3.3665  0.7894 -1.9715
 8762SOL    HW237746   2.088   4.362   7.549  1.4737  4.6481  1.7567
 8763SOL     OW37747   1.403   1.682  12.879 -0.4027  0.0503  0.7842
 8763SOL    HW137748   1.497   1.697  12.885 -0.2946  0.5992 -1.9229
 8763SOL    HW237749   1.393   1.616  12.810  1.1031 -0.9416  1.5100
 8764SOL     OW37750   3.882   2.217  14.239  0.6837 -0.8913 -0.2591
 8764SOL    HW137751   3.891   2.299  14.191 -0.4394 -0.1608  0.7766
 8764SOL    HW237752   3.808   2.179  14.192  0.2917  0.6519 -0.8741
 8765SOL     OW37753   1.517   2.455   2.156  0.1999  0.4876  0.2708
 8765SOL    HW137754   1.526   2.531   2.098  1.4553  0.9142  1.0256
 8765SOL    HW237755   1.606   2.445   2.191 -0.1159  1.0999  1.2551
 8766SOL     OW37756   3.900   4.435   9.645 -0.6294  0.0460  0.0099
 8766SOL    HW137757   3.882   4.441   9.551  1.8363  2.0388 -0.3625
 8766SOL    HW237758   3.842   4.365   9.675 -0.8989  0.6906  0.9931
 8767SOL     OW37759   0.713   2.946   5.822 -0.1570 -0.2860 -0.5119
 8767SOL    HW137760   0.774   2.879   5.792  3.3861  2.5566  0.3697
 8767SOL    HW237761   0.640   2.923   5.765  0.2374  0.4398 -1.3076
 8768SOL     OW37762   2.780   3.113   2.087  0.1532  0.0724 -0.2906
 8768SOL    HW137763   2.690   3.085   2.104 -0.6299  1.0533 -2.9124
 8768SOL    HW237764   2.768   3.185   2.026 -0.1373  1.5940  1.5827
 8769SOL     OW37765   2.660   2.482   7.369 -0.1164 -0.1141 -0.5963
 8769SOL    HW137766   2.668   2.563   7.420 -0.6584  0.0864 -0.8252
 8769SOL    HW237767   2.576   2.444   7.396  0.0250 -1.3827 -1.9515
 8770SOL     OW37768   0.124   3.388   3.066 -0.4383  0.1669  0.4934
 8770SOL    HW137769   0.129   3.444   2.989  0.3519  1.1070  1.2230
 8770SOL    HW237770   0.090   3.442   3.138  0.6987 -0.3196  1.4033
 8771SOL     OW37771   4.468   2.533   1.502 -0.7690  0.6115  0.3282
 8771SOL    HW137772   4.445   2.617   1.542  0.8171 -0.1614  2.8288
 8771SOL    HW237773   4.506   2.561   1.418  0.9365 -2.0866  0.2109
 8772SOL     OW37774   3.908   1.922   1.434 -0.1071 -0.0291  0.0754
 8772SOL    HW137775   3.826   1.954   1.471  1.3905  1.8760  1.7239
 8772SOL    HW237776   3.948   1.871   1.505 -0.7699  2.6008  2.3621
 8773SOL     OW37777   1.709   4.668   4.287 -0.0594 -0.1376 -0.5585
 8773SOL    HW137778   1.661   4.688   4.366  2.7936  2.2800  0.5626
 8773SOL    HW237779   1.641   4.704   4.230 -1.5700 -1.3602  0.4763
 8774SOL     OW37780   0.556   1.620   2.165 -0.3456  0.3344  0.4048
 8774SOL    HW137781   0.572   1.657   2.252 -1.2636 -0.5388  0.9446
 8774SOL    HW237782   0.589   1.697   2.118 -1.1593 -0.0594 -0.7845
 8775SOL     OW37783   0.145   3.325   7.623 -0.3212 -0.2047  0.3851
 8775SOL    HW137784   0.060   3.359   7.594  0.2593 -0.2976 -1.3840
 8775SOL    HW237785   0.152   3.383   7.699 -1.0370 -0.6882  0.8149
 8776SOL     OW37786   3.015   4.264   1.286  0.3232  0.5671 -0.1546
 8776SOL    HW137787   3.034   4.171   1.269 -1.6371  0.5500 -2.2793
 8776SOL    HW237788   3.062   4.299   1.211 -0.0641  1.4536  0.0256
 8777SOL     OW37789   1.817   2.213   1.312  0.1096 -0.2096 -0.0674
 8777SOL    HW137790   1.724   2.224   1.292  0.2827  1.0851 -0.1751
 8777SOL    HW237791   1.846   2.304   1.300  0.2800 -0.0202  1.7143
 8778SOL     OW37792   4.232   4.708   7.413  0.3379  0.5344 -1.0346
 8778SOL    HW137793   4.276   4.689   7.496 -1.6310  1.4997  0.2476
 8778SOL    HW237794   4.142   4.706   7.445  1.3039  1.3104  1.7110
 8779SOL     OW37795   4.135   1.407  15.880  0.1079  0.4715  0.2842
 8779SOL    HW137796   4.126   1.395  15.786 -1.1028  2.6848  0.1177
 8779SOL    HW237797   4.086   1.331  15.914  1.0697 -0.6586 -0.8400
 8780SOL     OW37798   1.601   3.243  13.908 -0.3206  0.5535 -0.3609
 8780SOL    HW137799   1.573   3.172  13.850 -0.5808 -0.4299  0.9956
 8780SOL    HW237800   1.537   3.312  13.891 -1.7100 -0.9033 -1.0757
 8781SOL     OW37801   4.200   1.931   3.876 -0.1373  0.6111  0.5863
 8781SOL    HW137802   4.140   1.992   3.833  1.8678  0.6963 -2.1230
 8781SOL    HW237803   4.137   1.871   3.916  0.0686 -0.7289 -1.1237
 8782SOL     OW37804   4.399   2.808   8.652 -0.2679  0.7088 -0.3047
 8782SOL    HW137805   4.455   2.885   8.661 -0.7014  0.7273  2.1737
 8782SOL    HW237806   4.450   2.739   8.608 -0.4142  2.1811 -2.8104
 8783SOL     OW37807   3.205   2.178   0.821  0.8494 -0.1498  0.3124
 8783SOL    HW137808   3.214   2.093   0.864  2.3208  0.5205  1.3136
 8783SOL    HW237809   3.210   2.222   0.906  2.6102  0.3019 -0.0353
 8784SOL     OW37810   3.129   1.966   5.467 -0.0868 -0.1461  0.3547
 8784SOL    HW137811   3.039   1.965   5.498 -0.5106 -0.1556 -0.8761
 8784SOL    HW237812   3.157   1.889   5.516  0.2806  0.3654  0.9380
 8785SOL     OW37813   0.027   4.577  13.390  0.2348 -0.3915  0.2842
 8785SOL    HW137814   4.690   4.560  13.322 -0.0030  0.8459  0.1934
 8785SOL    HW237815   0.105   4.540  13.349  1.4962  1.8192  0.6604
 8786SOL     OW37816   4.687   1.518   0.330  0.5818  0.6401  0.1025
 8786SOL    HW137817   4.700   1.506   0.424  1.1614  0.5350  0.0067
 8786SOL    HW237818   4.686   1.432   0.289  1.2356 -1.1907  3.9635
 8787SOL     OW37819   0.506   2.926  11.586  0.1566  0.5593 -0.2621
 8787SOL    HW137820   0.578   2.926  11.523 -1.5786 -3.9025 -2.2962
 8787SOL    HW237821   0.476   2.838  11.563  3.3776 -0.6145  0.0059
 8788SOL     OW37822   0.121   1.228  12.955 -0.1509  0.2417 -0.4325
 8788SOL    HW137823   0.136   1.322  12.941 -0.5535  0.6077  1.6003
 8788SOL    HW237824   0.101   1.196  12.867  0.9471  0.4896 -0.7739
 8789SOL     OW37825   1.544   4.189   7.882 -0.1313 -0.4456 -0.0143
 8789SOL    HW137826   1.562   4.230   7.967  1.8281  0.2619 -0.7653
 8789SOL    HW237827   1.575   4.101   7.905  3.5341  0.4664 -1.4081
 8790SOL     OW37828   2.613   3.373   4.182 -0.2295 -0.3176 -0.3945
 8790SOL    HW137829   2.617   3.461   4.144  1.2692 -0.0131  0.4573
 8790SOL    HW237830   2.681   3.336   4.127 -0.2881 -1.1177  0.0801
 8791SOL     OW37831   2.577   3.832   1.871  0.2198 -0.1194  0.4027
 8791SOL    HW137832   2.548   3.897   1.935 -1.4538 -2.4437  2.0198
 8791SOL    HW237833   2.672   3.838   1.884  0.0696 -0.3695  1.5850
 8792SOL     OW37834   1.941   0.355   6.815  0.1171  0.5769 -0.5748
 8792SOL    HW137835   1.846   0.358   6.828  0.2588  0.3387  0.5324
 8792SOL    HW237836   1.971   0.308   6.893 -0.8757  0.7457 -0.0893
 8793SOL     OW37837   3.942   2.679   4.395  0.4148  0.2162 -0.4902
 8793SOL    HW137838   3.870   2.649   4.450 -0.1279 -0.0677 -1.3536
 8793SOL    HW237839   3.900   2.738   4.332  0.7041  2.9426  1.8966
 8794SOL     OW37840   3.552   0.945  16.441  0.4216  0.4157  0.2274
 8794SOL    HW137841   3.504   1.018  16.403  0.5508 -0.7067 -2.0447
 8794SOL    HW237842   3.488   0.875  16.426 -0.3245  0.7408  1.9062
 8795SOL     OW37843   3.907   4.468   2.362  0.4738  0.3267  0.2889
 8795SOL    HW137844   3.862   4.387   2.386 -0.0476  0.2759 -0.8520
 8795SOL    HW237845   3.838   4.505   2.308 -0.3216 -0.7631  0.5547
 8796SOL     OW37846   3.622   0.854   1.479  0.5437 -0.0509 -0.4480
 8796SOL    HW137847   3.685   0.832   1.410 -0.7035  1.0735 -1.9381
 8796SOL    HW237848   3.669   0.822   1.556 -1.7686 -1.6629  0.3078
 8797SOL     OW37849   2.546   0.223   6.564 -0.4291 -0.2609 -0.0755
 8797SOL    HW137850   2.507   0.215   6.651 -0.5234 -1.8777 -0.2658
 8797SOL    HW237851   2.571   0.134   6.541 -1.4037 -0.9846  1.6574
 8798SOL     OW37852   4.587   3.815   8.547 -0.0672 -0.1502 -0.5972
 8798SOL    HW137853   4.554   3.903   8.567 -0.0905 -0.6486  1.5255
 8798SOL    HW237854   4.618   3.817   8.457  0.4641 -1.5612 -0.4476
 8799SOL     OW37855   2.387   1.905   3.451 -0.5347  0.2355 -0.2323
 8799SOL    HW137856   2.462   1.881   3.506  0.8001  1.7290 -1.4240
 8799SOL    HW237857   2.358   1.818   3.424 -1.6068  0.2138  0.9982
 8800SOL     OW37858   1.710   4.447   0.294 -0.3338  0.2035  0.0318
 8800SOL    HW137859   1.644   4.482   0.353 -0.2686 -0.3262  0.4095
 8800SOL    HW237860   1.665   4.382   0.239 -0.4636  1.5440 -1.4552
 8801SOL     OW37861   0.062   2.317   3.616 -0.1964  0.4692 -0.2726
 8801SOL    HW137862   0.043   2.261   3.692 -0.8813 -3.1018 -3.0963
 8801SOL    HW237863   0.112   2.262   3.556  0.3349  1.0401 -0.3558
 8802SOL     OW37864   2.358   1.293   7.811 -0.1332 -0.1031  0.1857
 8802SOL    HW137865   2.320   1.374   7.777  1.3893  0.7638  0.5777
 8802SOL    HW237866   2.296   1.258   7.875  1.1698 -1.1068  0.9037
 8803SOL     OW37867   0.283   0.247   9.483 -0.0613  0.1178  0.4316
 8803SOL    HW137868   0.250   0.160   9.460  3.2713 -1.4226  1.4075
 8803SOL    HW237869   0.323   0.279   9.403 -0.4785 -1.6074 -0.4744
 8804SOL     OW37870   4.516   1.304  15.987  0.8199  0.7298  0.5275
 8804SOL    HW137871   4.572   1.364  15.937  0.2337  1.4313  0.7101
 8804SOL    HW237872   4.489   1.249  15.913 -0.0905  0.2911  1.1986
 8805SOL     OW37873   2.684   2.148  15.241 -0.2682 -0.0331  0.0218
 8805SOL    HW137874   2.639   2.227  15.269 -0.2619 -0.1263  0.2992
 8805SOL    HW237875   2.737   2.129  15.319  0.3422  1.6347  0.0206
 8806SOL     OW37876   4.490   4.232   5.841  0.0999 -0.6440 -0.1368
 8806SOL    HW137877   4.450   4.214   5.926 -0.9483  1.8814 -0.0909
 8806SOL    HW237878   4.579   4.256   5.868  0.5504 -1.4904 -0.8416
 8807SOL     OW37879   3.097   4.429   6.787  0.0933  0.1274  0.5750
 8807SOL    HW137880   3.033   4.491   6.751  0.3390  0.4889  0.7623
 8807SOL    HW237881   3.038   4.367   6.830 -0.1929 -1.3493 -1.9466
 8808SOL     OW37882   2.190   0.086   1.786 -0.2749 -0.4225 -0.1542
 8808SOL    HW137883   2.182   0.000   1.745  2.1323 -1.5569  1.7431
 8808SOL    HW237884   2.210   0.139   1.708  0.1090 -0.4942 -0.1063
 8809SOL     OW37885   4.027   3.114  14.526 -0.6449 -0.1109 -0.1458
 8809SOL    HW137886   4.067   3.125  14.439  0.1251  0.4371  0.2726
 8809SOL    HW237887   3.935   3.095  14.508 -1.0902  1.1758  0.7657
 8810SOL     OW37888   2.771   0.200   8.448 -0.4907 -0.2055 -0.0616
 8810SOL    HW137889   2.835   0.271   8.456  1.3263 -1.9303  0.5866
 8810SOL    HW237890   2.761   0.183   8.354 -1.4564 -1.1461  0.2020
 8811SOL     OW37891   4.490   1.507  10.037 -0.6235  0.2816 -0.3858
 8811SOL    HW137892   4.572   1.464  10.015 -0.0414  2.0515 -1.6145
 8811SOL    HW237893   4.442   1.475   9.961  0.1714 -1.1851 -0.2625
 8812SOL     OW37894   1.622   0.366   4.781 -0.8864  0.2540 -0.2352
 8812SOL    HW137895   1.558   0.333   4.718 -0.4248 -0.1268 -0.5113
 8812SOL    HW237896   1.623   0.291   4.842 -2.8319  0.0446 -0.4725
 8813SOL     OW37897   2.375   0.038   9.563 -0.3385 -0.7094 -0.5072
 8813SOL    HW137898   2.445   4.704   9.542  0.2208 -0.8834  1.8312
 8813SOL    HW237899   2.325   0.030   9.482 -0.5873 -2.3563 -0.1991
 8814SOL     OW37900   2.678   3.317   7.903  0.3587  0.2668  0.1435
 8814SOL    HW137901   2.764   3.345   7.872  0.4071  0.6426  0.6166
 8814SOL    HW237902   2.706   3.300   7.993  1.0408 -2.8248 -0.6536
 8815SOL     OW37903   0.379   1.790   8.912 -0.5490  0.0251  0.1370
 8815SOL    HW137904   0.344   1.831   8.991  0.5067 -1.5132  1.3982
 8815SOL    HW237905   0.375   1.695   8.921  0.0554 -0.0564 -0.4447
 8816SOL     OW37906   1.570   1.545   5.408 -0.6332  0.4829  0.2169
 8816SOL    HW137907   1.524   1.578   5.485 -0.9092  0.2683  0.1407
 8816SOL    HW237908   1.657   1.584   5.413 -0.1384 -0.8994  2.1998
 8817SOL     OW37909   3.496   2.888   1.589  0.1293 -0.1502 -0.1314
 8817SOL    HW137910   3.566   2.837   1.549  0.2652  1.0722 -1.4439
 8817SOL    HW237911   3.468   2.845   1.670 -1.5299  2.6633  0.7848
 8818SOL     OW37912   2.713   1.636   9.705  0.3818 -0.4119 -0.2542
 8818SOL    HW137913   2.619   1.630   9.687 -0.1908  1.6929  2.0279
 8818SOL    HW237914   2.715   1.715   9.759 -0.3005  0.3920 -1.3993
 8819SOL     OW37915   4.345   2.924   7.680  0.3743 -0.3048 -0.1981
 8819SOL    HW137916   4.308   2.965   7.603  1.6451  0.5383 -0.3578
 8819SOL    HW237917   4.431   2.895   7.651  1.1751  0.2996  1.5317
 8820SOL     OW37918   4.317   3.610   6.895 -0.0107 -0.2684 -0.3771
 8820SOL    HW137919   4.345   3.562   6.972  1.3709 -1.4269 -1.5932
 8820SOL    HW237920   4.249   3.668   6.930  0.9472  1.2987 -1.0675
 8821SOL     OW37921   1.662   1.518   6.225 -1.0700 -0.3614 -0.1257
 8821SOL    HW137922   1.685   1.597   6.177  2.2096 -2.4575 -2.0567
 8821SOL    HW237923   1.600   1.468   6.171 -0.6354  1.7008 -2.5237
 8822SOL     OW37924   1.549   1.816   2.831  0.3045  0.2487 -0.5730
 8822SOL    HW137925   1.518   1.753   2.896  2.4947 -3.1331 -2.7468
 8822SOL    HW237926   1.604   1.751   2.785 -0.7210  0.1046 -1.5931
 8823SOL     OW37927   3.282   4.513   1.523  0.5930 -0.1959 -0.4614
 8823SOL    HW137928   3.224   4.560   1.463 -0.0720 -1.2417 -0.6416
 8823SOL    HW237929   3.213   4.458   1.559  0.2325  1.6508  1.5845
 8824SOL     OW37930   1.086   3.392   2.640  0.1837 -0.1598  0.0729
 8824SOL    HW137931   1.083   3.466   2.579 -1.0132 -1.1701 -1.0589
 8824SOL    HW237932   1.047   3.331   2.578 -3.1392 -0.7126  2.7129
 8825SOL     OW37933   0.927   1.210  10.079  0.0363 -0.2585  0.1854
 8825SOL    HW137934   0.907   1.255  10.161 -0.2058 -1.1370  0.6094
 8825SOL    HW237935   0.995   1.147  10.101 -1.6871 -2.1067  0.1354
 8826SOL     OW37936   2.974   3.199  12.296 -0.0661  0.1827  0.0686
 8826SOL    HW137937   3.067   3.179  12.311 -0.3236 -1.7791 -1.0411
 8826SOL    HW237938   2.960   3.142  12.221 -1.0513 -1.7974  1.7540
 8827SOL     OW37939   2.519   3.950   6.352  0.0646  0.0042 -0.3118
 8827SOL    HW137940   2.468   3.880   6.392  0.8423 -0.3830  0.0021
 8827SOL    HW237941   2.577   3.891   6.305 -1.6428 -0.4355 -1.8596
 8828SOL     OW37942   3.013   0.108   3.966  0.4318 -0.0302 -0.0874
 8828SOL    HW137943   3.104   0.080   3.960  0.3996 -0.9278  3.5252
 8828SOL    HW237944   3.030   0.201   3.980 -0.1470 -0.4063  3.1123
 8829SOL     OW37945   1.640   3.165   2.415  0.3959 -0.1848  0.1524
 8829SOL    HW137946   1.648   3.078   2.376 -0.0287  0.4488 -1.3513
 8829SOL    HW237947   1.722   3.195   2.375  0.8634 -1.1935  0.3635
 8830SOL     OW37948   1.281   1.478   7.048  0.6417 -0.6018  0.2053
 8830SOL    HW137949   1.373   1.456   7.062  0.4594 -2.5440 -1.5855
 8830SOL    HW237950   1.268   1.485   6.953  0.0780  0.6934  0.3824
 8831SOL     OW37951   3.788   2.735  10.892  0.0311 -0.0285  0.5139
 8831SOL    HW137952   3.742   2.665  10.938 -1.3285  0.3318 -0.2912
 8831SOL    HW237953   3.753   2.813  10.935 -2.8749 -0.7156 -0.6294
 8832SOL     OW37954   0.509   3.222  10.686 -0.0055  0.3436  0.1202
 8832SOL    HW137955   0.461   3.140  10.697  1.4975 -0.8475 -2.3037
 8832SOL    HW237956   0.481   3.247  10.598  1.1076 -0.0342 -0.3267
 8833SOL     OW37957   0.910   0.572   3.149 -0.5864  0.1996 -0.1025
 8833SOL    HW137958   0.834   0.535   3.192 -1.5328  1.0144 -1.0771
 8833SOL    HW237959   0.865   0.628   3.086  1.9579  1.7501 -0.5628
 8834SOL     OW37960   1.073   2.770   7.599  0.7051  0.1031  0.2445
 8834SOL    HW137961   1.150   2.819   7.569  0.1782 -0.2630 -1.7053
 8834SOL    HW237962   1.012   2.774   7.525 -0.6509 -0.8588  1.3244
 8835SOL     OW37963   0.232   0.407   8.962  0.0086  0.1747 -0.0812
 8835SOL    HW137964   0.252   0.481   8.904  2.7477 -0.2051  0.3799
 8835SOL    HW237965   0.257   0.451   9.044 -1.2432  0.8349 -0.0597
 8836SOL     OW37966   1.639   1.052   6.523 -0.1813  0.4206 -0.4640
 8836SOL    HW137967   1.609   1.035   6.612  0.0179 -1.2374 -0.7072
 8836SOL    HW237968   1.556   1.065   6.476  1.0220  0.5879 -2.5367
 8837SOL     OW37969   3.206   3.224  12.917 -0.2520 -0.4071 -0.1681
 8837SOL    HW137970   3.177   3.138  12.947  0.5652 -0.1276  1.4077
 8837SOL    HW237971   3.242   3.268  12.994 -2.1410  1.8602 -0.5842
 8838SOL     OW37972   3.994   0.053   8.403  0.1868 -0.0411 -0.3376
 8838SOL    HW137973   3.984   0.079   8.311 -0.5100  0.8885 -0.0006
 8838SOL    HW237974   4.038   4.696   8.395 -0.5608 -0.2582 -2.1381
 8839SOL     OW37975   4.278   0.681   6.455  0.2878  0.1549 -0.3594
 8839SOL    HW137976   4.204   0.647   6.505 -0.8204  1.0655 -1.3799
 8839SOL    HW237977   4.334   0.608   6.483 -0.8585 -0.7036 -0.3325
 8840SOL     OW37978   0.683   1.730  17.478 -0.1684  0.2894 -0.1349
 8840SOL    HW137979   0.712   1.669  17.547 -1.6041 -0.2854 -0.0442
 8840SOL    HW237980   0.603   1.759  17.520 -0.0675 -0.2724  0.4474
 8841SOL     OW37981   2.255   3.437   4.584 -0.5282  0.0771  0.8434
 8841SOL    HW137982   2.213   3.517   4.551 -1.4885 -0.5840  0.4733
 8841SOL    HW237983   2.214   3.373   4.527  1.3226 -1.1384  0.8916
 8842SOL     OW37984   0.054   3.060  12.573  0.4730 -0.2037 -0.4668
 8842SOL    HW137985   0.100   3.117  12.512 -1.0910  0.5303 -0.9625
 8842SOL    HW237986   0.063   2.972  12.535  0.7530 -0.1037 -0.6297
 8843SOL     OW37987   4.720   1.551  16.883 -0.3407 -0.4052  0.1931
 8843SOL    HW137988   4.629   1.532  16.863 -0.7089  2.4954 -0.9239
 8843SOL    HW237989   0.008   1.622  16.821  1.2422 -1.9559 -1.1800
 8844SOL     OW37990   3.016   3.391   7.552 -0.0097 -0.1922  0.1551
 8844SOL    HW137991   2.949   3.331   7.518  1.3643 -2.0336  0.7087
 8844SOL    HW237992   3.090   3.362   7.498  1.3951 -1.5286  2.8068
 8845SOL     OW37993   3.317   3.008  16.147  0.2836  0.2005  0.3877
 8845SOL    HW137994   3.334   2.959  16.228 -0.7585  0.2397  0.6370
 8845SOL    HW237995   3.342   3.093  16.183 -0.2022  0.4632  0.1053
 8846SOL     OW37996   1.752   0.161   8.346  0.1296  0.8260 -0.1260
 8846SOL    HW137997   1.839   0.192   8.370 -1.1927  4.6350 -0.2596
 8846SOL    HW237998   1.733   0.212   8.267  1.9170 -1.3549 -1.9780
 8847SOL     OW37999   0.439   1.358   4.169  0.5801  0.3856  0.8652
 8847SOL    HW138000   0.470   1.297   4.235  4.3018 -0.4530 -1.6685
 8847SOL    HW238001   0.498   1.323   4.102 -1.3908  3.3630 -2.4157
 8848SOL     OW38002   4.268   1.659   2.541 -0.5991 -0.1249 -0.8191
 8848SOL    HW138003   4.220   1.579   2.564 -0.4503  0.2590  0.7581
 8848SOL    HW238004   4.213   1.693   2.471  0.0237 -0.6529 -1.5717
 8849SOL     OW38005   3.072   0.272   8.277 -0.1246 -0.6301  0.0428
 8849SOL    HW138006   2.996   0.259   8.221 -0.4491  0.8063  0.1516
 8849SOL    HW238007   3.026   0.314   8.349 -1.4026  0.9278 -1.6718
 8850SOL     OW38008   1.449   0.889   3.115  0.0252  0.1807  0.2579
 8850SOL    HW138009   1.368   0.891   3.064 -0.2243  0.7403  0.6577
 8850SOL    HW238010   1.515   0.878   3.047 -1.8779  0.0365 -1.5719
 8851SOL     OW38011   3.685   1.022   9.079 -0.1422  0.7944 -0.1036
 8851SOL    HW138012   3.622   1.041   9.010  0.2723  1.4431 -0.3020
 8851SOL    HW238013   3.757   1.080   9.054  0.1047  0.5054 -0.0726
 8852SOL     OW38014   4.387   3.158  13.913  0.2322 -0.4676 -0.1694
 8852SOL    HW138015   4.389   3.073  13.956  0.4483 -0.1992  0.3518
 8852SOL    HW238016   4.423   3.137  13.826  2.5409  4.0906 -0.3195
 8853SOL     OW38017   4.635   1.674  14.766  0.4028  0.0335 -0.1151
 8853SOL    HW138018   4.594   1.701  14.848  0.0298  0.3065 -0.3893
 8853SOL    HW238019   4.670   1.593  14.803 -0.4675 -0.3781 -0.1932
 8854SOL     OW38020   3.316   2.951   9.960  0.2971 -0.1058  0.3590
 8854SOL    HW138021   3.315   2.856   9.975 -0.5832 -0.0449  0.6749
 8854SOL    HW238022   3.335   2.956   9.866  3.6342 -0.1744  1.0196
 8855SOL     OW38023   1.605   0.125   2.606 -0.0624 -0.9225  0.4813
 8855SOL    HW138024   1.583   0.049   2.659  1.9202 -2.3715 -0.7797
 8855SOL    HW238025   1.699   0.123   2.624  0.4671 -0.0519 -2.1813
 8856SOL     OW38026   4.332   0.766   5.878  0.0698  0.1011  0.3553
 8856SOL    HW138027   4.297   0.854   5.863 -0.0239  0.2081  1.2098
 8856SOL    HW238028   4.260   0.714   5.912  0.1326  1.0476  1.9487
 8857SOL     OW38029   4.381   3.487  15.170  0.1885  0.1774 -0.6224
 8857SOL    HW138030   4.340   3.420  15.116  1.9777 -1.1641 -0.3169
 8857SOL    HW238031   4.305   3.535  15.204  1.0832 -1.1570  3.2703
 8858SOL     OW38032   1.404   4.142   1.501  0.1548  0.2344 -0.5727
 8858SOL    HW138033   1.427   4.132   1.594  1.1092  0.5015 -0.7803
 8858SOL    HW238034   1.398   4.236   1.483 -2.6090  0.1582 -0.0390
 8859SOL     OW38035   2.169   4.450   9.041 -0.5737 -0.4528 -0.8066
 8859SOL    HW138036   2.264   4.445   9.055 -0.8566  1.2225  1.6982
 8859SOL    HW238037   2.165   4.542   9.015 -0.0292 -0.6500 -1.6220
 8860SOL     OW38038   0.398   0.339   8.600  0.1015 -0.1987 -0.1330
 8860SOL    HW138039   0.426   0.272   8.661 -0.0703  0.3306  0.5333
 8860SOL    HW238040   0.328   0.297   8.550  1.6694 -0.3950 -2.1451
 8861SOL     OW38041   4.653   1.761   5.552 -0.2500  0.0730 -0.2200
 8861SOL    HW138042   4.726   1.698   5.552  0.1992  0.5908  0.9348
 8861SOL    HW238043   4.697   1.837   5.514 -0.7758 -0.3638 -1.7055
 8862SOL     OW38044   3.058   1.833   2.506  0.5561  0.0172 -0.1930
 8862SOL    HW138045   3.143   1.873   2.485  0.7301  0.2101  0.8986
 8862SOL    HW238046   2.995   1.895   2.469  1.4035  0.1978 -1.3448
 8863SOL     OW38047   3.443   0.960   7.740  0.2809 -0.3589 -0.1460
 8863SOL    HW138048   3.367   1.013   7.765  0.8402 -0.0110  0.8264
 8863SOL    HW238049   3.471   1.001   7.658  2.3741 -0.1100  0.7065
 8864SOL     OW38050   2.893   1.618   7.500 -0.0515  0.3976 -0.1764
 8864SOL    HW138051   2.951   1.655   7.568 -0.9288  1.4841 -0.0264
 8864SOL    HW238052   2.908   1.524   7.501  0.4801  0.4677 -1.0915
 8865SOL     OW38053   3.438   2.735  15.716  0.3368 -0.3685 -0.0059
 8865SOL    HW138054   3.416   2.811  15.768  0.3018 -0.0009 -0.5571
 8865SOL    HW238055   3.514   2.758  15.663  0.3440  1.0144  0.6299
 8866SOL     OW38056   1.671   0.589   4.390 -0.0782  0.0621  0.3051
 8866SOL    HW138057   1.730   0.656   4.355 -1.2278  1.3825  0.8874
 8866SOL    HW238058   1.734   0.577   4.461  0.4275 -0.6160 -0.2474
 8867SOL     OW38059   2.821   1.277   7.800  0.1418 -0.2336 -0.0677
 8867SOL    HW138060   2.879   1.252   7.872 -0.3272 -2.5866 -0.4847
 8867SOL    HW238061   2.741   1.243   7.840 -0.6983  3.3144  1.1960
 8868SOL     OW38062   2.915   2.259  12.992 -0.5083  0.4352  0.3916
 8868SOL    HW138063   2.855   2.299  13.055 -0.3603  0.7426  0.3353
 8868SOL    HW238064   2.882   2.272  12.903 -0.9987  1.9530  0.8018
 8869SOL     OW38065   1.314   1.914   4.031  0.3967 -0.0776  0.9791
 8869SOL    HW138066   1.387   1.959   3.990  1.9177 -1.8980  1.7080
 8869SOL    HW238067   1.315   1.825   3.995 -1.6848  0.8432 -1.3119
 8870SOL     OW38068   4.185   3.726   6.702  0.0100  0.5626  0.5377
 8870SOL    HW138069   4.177   3.659   6.635  2.9730 -2.1649  2.9574
 8870SOL    HW238070   4.250   3.697   6.765 -0.3376 -0.5187  0.4003
 8871SOL     OW38071   2.991   2.148   1.406  0.3099  0.0625  0.0589
 8871SOL    HW138072   2.963   2.234   1.376 -1.9644 -0.2428  1.3361
 8871SOL    HW238073   2.913   2.099   1.381  0.3678 -0.3801  0.7367
 8872SOL     OW38074   3.114   0.749   8.772 -0.5297  0.2120 -0.4558
 8872SOL    HW138075   3.202   0.783   8.754 -0.2500 -1.0392 -1.5082
 8872SOL    HW238076   3.124   0.655   8.757  2.6344  0.1900  1.8667
 8873SOL     OW38077   1.336   0.758   8.516 -0.5840 -1.0278 -0.4857
 8873SOL    HW138078   1.420   0.725   8.549  1.5701  0.7436 -4.2177
 8873SOL    HW238079   1.345   0.851   8.536  1.2470 -1.5862  1.3435
 8874SOL     OW38080   2.436   0.003   7.086  0.2894  0.0331 -0.2526
 8874SOL    HW138081   2.524   4.695   7.073 -0.5947 -1.8216 -1.2448
 8874SOL    HW238082   2.442   0.082   7.140 -0.0725  0.6496 -1.1326
 8875SOL     OW38083   2.444   0.091   6.806  0.1362 -0.5470 -0.9066
 8875SOL    HW138084   2.405   0.014   6.846 -0.0477 -0.0485 -0.1324
 8875SOL    HW238085   2.410   0.163   6.859 -1.6372 -1.0511 -1.3694
 8876SOL     OW38086   1.823   4.412   7.328  0.4538  0.1782 -0.1077
 8876SOL    HW138087   1.768   4.357   7.384  0.4838  0.4807  0.2179
 8876SOL    HW238088   1.902   4.414   7.382 -0.3200 -1.8840  1.1048
 8877SOL     OW38089   1.461   0.089   1.106 -0.2960  0.2147 -0.2179
 8877SOL    HW138090   1.513   0.032   1.049 -2.5673 -0.9016 -1.1616
 8877SOL    HW238091   1.475   0.176   1.066  1.5890 -0.1118 -0.2553
 8878SOL     OW38092   3.650   0.943  17.378 -0.3260  0.1794 -0.4482
 8878SOL    HW138093   3.637   0.880  17.449  1.2440 -0.0037 -0.3181
 8878SOL    HW238094   3.624   1.020  17.429 -1.2496 -0.5957  0.2507
 8879SOL     OW38095   2.007   2.686  13.307  0.1135 -0.1632 -0.1791
 8879SOL    HW138096   2.099   2.699  13.327  0.1737  1.2639 -1.3337
 8879SOL    HW238097   1.979   2.764  13.258  0.8626  1.0940  1.4166
 8880SOL     OW38098   2.515   2.658   6.484  0.2903  0.1563  0.3163
 8880SOL    HW138099   2.553   2.582   6.530  0.4936 -0.0166 -0.1372
 8880SOL    HW238100   2.452   2.622   6.422  0.0643 -1.9229  1.7367
 8881SOL     OW38101   4.042   1.897  17.607 -0.1508  0.1950  0.3190
 8881SOL    HW138102   4.109   1.957  17.575  1.7215 -2.8269 -1.5417
 8881SOL    HW238103   4.079   1.811  17.586 -1.5591 -0.2120 -0.5361
 8882SOL     OW38104   3.170   1.652  10.727  0.0061  0.0255 -0.2189
 8882SOL    HW138105   3.089   1.681  10.685 -0.9517 -1.2521  0.7467
 8882SOL    HW238106   3.150   1.656  10.821  0.6277  0.5370 -0.1080
 8883SOL     OW38107   2.956   4.690   1.104 -0.7565 -0.0100 -0.1428
 8883SOL    HW138108   2.964   4.700   1.009 -1.7109 -1.5593 -0.3819
 8883SOL    HW238109   2.889   4.623   1.112 -0.6403 -0.2568 -1.2813
 8884SOL     OW38110   1.250   0.712  15.916 -0.3205 -0.3954 -0.6442
 8884SOL    HW138111   1.172   0.687  15.867 -1.7288 -1.3531  2.1156
 8884SOL    HW238112   1.246   0.648  15.986  0.4505 -2.3150 -2.3633
 8885SOL     OW38113   4.176   4.230   6.847 -0.0082 -0.5249  0.1405
 8885SOL    HW138114   4.090   4.245   6.885  0.5704  2.9908  0.0870
 8885SOL    HW238115   4.149   4.168   6.779 -0.5704 -1.4791  1.2430
 8886SOL     OW38116   4.621   2.300   5.880  0.2505 -0.3236 -0.3775
 8886SOL    HW138117   4.571   2.377   5.907  0.6402 -0.0989 -0.3071
 8886SOL    HW238118   4.555   2.230   5.879  2.0845 -2.0280 -1.1001
 8887SOL     OW38119   3.047   1.081   3.709  0.4159  0.1117 -0.0681
 8887SOL    HW138120   2.952   1.090   3.723  0.3915  0.7825 -0.6838
 8887SOL    HW238121   3.061   1.041   3.623 -2.6546 -1.4332  0.1397
 8888SOL     OW38122   3.789   0.212  17.172  0.9119 -0.5794 -0.1508
 8888SOL    HW138123   3.791   0.182  17.263  4.0253  1.0154  0.3210
 8888SOL    HW238124   3.816   0.303  17.179 -0.6041 -0.2878  1.7345
 8889SOL     OW38125   3.387   1.480  13.443 -0.2343  0.2982  0.5611
 8889SOL    HW138126   3.408   1.386  13.447 -2.8143 -0.5200 -4.4670
 8889SOL    HW238127   3.404   1.492  13.349  0.7318 -0.8517  0.5743
 8890SOL     OW38128   3.011   0.618   7.748 -0.1032  0.1245 -0.2296
 8890SOL    HW138129   3.072   0.572   7.689  1.0372  0.2638  0.8422
 8890SOL    HW238130   3.052   0.704   7.735 -2.4381  0.7922 -3.2251
 8891SOL     OW38131   3.970   1.900   3.481  0.6857  0.0582 -0.2951
 8891SOL    HW138132   4.020   1.948   3.547  0.3477 -1.5538  1.1500
 8891SOL    HW238133   3.881   1.928   3.500 -0.5316 -2.5512 -2.1823
 8892SOL     OW38134   1.648   0.303   6.163  0.0908 -0.2798  0.7265
 8892SOL    HW138135   1.730   0.342   6.192  1.1879 -1.4141 -0.8632
 8892SOL    HW238136   1.656   0.209   6.179  1.2480 -0.0585  1.3759
 8893SOL     OW38137   4.366   2.757   4.159  0.6553  0.4127  0.1383
 8893SOL    HW138138   4.328   2.676   4.125  1.4582  0.0447  0.1143
 8893SOL    HW238139   4.391   2.711   4.240 -2.0430 -1.3121 -0.0111
 8894SOL     OW38140   2.379   1.807   5.981 -0.1698 -0.2661 -0.2064
 8894SOL    HW138141   2.323   1.737   5.947  1.6578 -1.1649 -1.3882
 8894SOL    HW238142   2.394   1.758   6.062  1.2128  0.3504 -0.0861
 8895SOL     OW38143   1.952   3.456  11.350 -0.1322 -0.2038  0.1159
 8895SOL    HW138144   1.971   3.363  11.357 -1.2228 -0.2519  2.4159
 8895SOL    HW238145   1.971   3.466  11.256  0.6604 -2.3025  0.0536
 8896SOL     OW38146   2.366   4.385   3.246 -0.9265  0.4002  0.6426
 8896SOL    HW138147   2.443   4.384   3.302  0.3091 -0.5267 -1.0747
 8896SOL    HW238148   2.404   4.377   3.158 -0.9280 -0.1261  0.6874
 8897SOL     OW38149   0.267   0.748  16.169 -0.4144  0.3131  0.0931
 8897SOL    HW138150   0.178   0.737  16.135  0.1653  0.2605 -1.4219
 8897SOL    HW238151   0.249   0.809  16.240 -0.6832  0.9673 -0.5465
 8898SOL     OW38152   0.386   3.629   9.268 -0.1354  0.5775  0.1487
 8898SOL    HW138153   0.330   3.552   9.278  1.6854 -0.7431  0.2729
 8898SOL    HW238154   0.407   3.640   9.361  0.4559 -0.7781  0.1786
 8899SOL     OW38155   1.592   2.681   7.770 -0.5522  0.2203  0.5712
 8899SOL    HW138156   1.561   2.766   7.738  1.4728  1.3916  1.7089
 8899SOL    HW238157   1.631   2.718   7.850  0.8371  0.0072 -0.0166
 8900SOL     OW38158   1.255   0.634   2.025 -0.3010  0.3941 -0.1810
 8900SOL    HW138159   1.176   0.669   1.983 -2.2340 -4.7413 -0.8131
 8900SOL    HW238160   1.263   0.702   2.092  0.2209  1.4495 -1.3096
 8901SOL     OW38161   0.544   2.077   4.425  0.3996 -0.6662  1.0720
 8901SOL    HW138162   0.497   2.024   4.361 -0.9903 -0.7584  2.1766
 8901SOL    HW238163   0.575   2.010   4.485  1.1993 -0.5280  0.8196
 8902SOL     OW38164   4.101   3.630   3.985  0.2406 -0.0514 -0.2031
 8902SOL    HW138165   4.189   3.600   4.008  0.2660  1.6458  1.8637
 8902SOL    HW238166   4.098   3.724   4.000  0.6005 -0.3359  1.6532
 8903SOL     OW38167   1.612   1.317   1.704  0.3589 -0.3893 -0.3381
 8903SOL    HW138168   1.559   1.388   1.667 -0.3774 -0.3898  0.7201
 8903SOL    HW238169   1.662   1.293   1.626  0.2241  1.9342 -1.1318
 8904SOL     OW38170   2.940   0.358   3.399  0.3516 -0.3148  0.0547
 8904SOL    HW138171   2.936   0.324   3.309  1.6923  0.1766 -0.1916
 8904SOL    HW238172   2.870   0.297   3.424  0.2864 -0.4803 -0.5334
 8905SOL     OW38173   0.488   0.386   3.767  0.0206 -0.0426  0.3190
 8905SOL    HW138174   0.573   0.429   3.764 -0.0988  0.2033  0.4455
 8905SOL    HW238175   0.505   0.292   3.780 -0.2752 -0.0383  0.7389
 8906SOL     OW38176   1.442   4.317  12.696  0.3523 -0.3426  0.0562
 8906SOL    HW138177   1.366   4.264  12.716 -1.1000  0.8218 -2.4132
 8906SOL    HW238178   1.491   4.307  12.778 -1.4801  0.4870  1.2461
 8907SOL     OW38179   0.639   4.121  14.595  0.7306 -0.8059  0.5765
 8907SOL    HW138180   0.612   4.129  14.504 -1.6355  1.9472  1.5525
 8907SOL    HW238181   0.563   4.069  14.621 -0.4527  0.0006 -1.3395
 8908SOL     OW38182   0.652   3.925   8.595 -0.0424 -0.5502  0.1115
 8908SOL    HW138183   0.663   3.897   8.504  0.8988 -3.1748  1.0399
 8908SOL    HW238184   0.738   3.929   8.637 -0.6947  3.2056  1.0846
 8909SOL     OW38185   2.128   3.545  11.137  0.4009 -0.4237  0.3156
 8909SOL    HW138186   2.182   3.624  11.149  0.4534 -0.5291  0.7803
 8909SOL    HW238187   2.178   3.499  11.070  2.2278 -1.1050  2.1578
 8910SOL     OW38188   2.944   2.171   7.810  0.1234  0.3181 -0.5453
 8910SOL    HW138189   2.939   2.098   7.748  0.7911 -0.0890 -0.1220
 8910SOL    HW238190   3.011   2.223   7.766  1.1261  0.5989  1.2944
 8911SOL     OW38191   3.868   1.242   6.486  0.3568 -0.4472  0.4787
 8911SOL    HW138192   3.920   1.238   6.567  1.9437  0.5986 -0.4927
 8911SOL    HW238193   3.885   1.331   6.455 -1.4809 -0.3531 -0.2742
 8912SOL     OW38194   0.559   1.030  16.997  0.6978 -0.8023 -0.1405
 8912SOL    HW138195   0.542   1.124  17.005  5.7720  0.0207  0.6241
 8912SOL    HW238196   0.594   1.007  17.083  0.5977 -0.8386 -0.1093
 8913SOL     OW38197   0.775   3.875  11.184  0.3713  0.7246  0.1067
 8913SOL    HW138198   0.687   3.911  11.197 -1.2870 -2.0240 -3.3755
 8913SOL    HW238199   0.790   3.839  11.271  0.2771  1.1291  0.2874
 8914SOL     OW38200   2.872   4.492  12.642 -0.0519  0.6379  0.0963
 8914SOL    HW138201   2.894   4.512  12.733  1.0136  1.9479 -0.4504
 8914SOL    HW238202   2.933   4.422  12.616  0.0731  0.3650  1.1292
 8915SOL     OW38203   4.719   0.590  10.610 -0.6438  0.4689  0.4181
 8915SOL    HW138204   4.694   0.682  10.601  0.8294  0.9161  0.9905
 8915SOL    HW238205   0.082   0.587  10.577 -0.6127 -0.4757  0.5772
 8916SOL     OW38206   2.960   1.589   6.198 -0.2435 -0.1946 -0.5473
 8916SOL    HW138207   3.046   1.625   6.175 -0.9826  2.7895  1.3781
 8916SOL    HW238208   2.903   1.640   6.140 -1.2765 -0.1245  0.5210
 8917SOL     OW38209   4.348   1.605  17.297 -0.4655  0.3524  0.5046
 8917SOL    HW138210   4.437   1.594  17.262 -0.2421  1.5389  0.7336
 8917SOL    HW238211   4.346   1.518  17.336 -3.1037  0.1065 -0.1407
 8918SOL     OW38212   4.638   2.548  14.701 -0.5207  0.1139  0.2685
 8918SOL    HW138213   4.544   2.546  14.683 -0.0375 -0.6517 -2.1957
 8918SOL    HW238214   4.668   2.602  14.627  1.2463  1.1547  1.7461
 8919SOL     OW38215   4.583   4.513   5.391 -1.0795  0.0189  0.0720
 8919SOL    HW138216   4.600   4.419   5.404 -1.7471 -0.0200  0.6476
 8919SOL    HW238217   4.542   4.540   5.472 -1.1603  0.3548 -0.0826
 8920SOL     OW38218   0.169   2.494   7.648 -0.4569 -0.3024 -0.4573
 8920SOL    HW138219   0.108   2.516   7.578 -0.3502  0.4128 -0.3315
 8920SOL    HW238220   0.218   2.576   7.660 -1.1331  0.0687 -0.2305
 8921SOL     OW38221   1.201   2.437   7.239 -0.6290 -0.1015 -0.1022
 8921SOL    HW138222   1.260   2.504   7.271  1.7906 -1.9406 -0.7123
 8921SOL    HW238223   1.182   2.403   7.326 -2.6108 -0.3844 -0.6319
 8922SOL     OW38224   2.144   1.179   0.764 -0.3996  0.2279  0.1879
 8922SOL    HW138225   2.239   1.166   0.770 -0.3302  0.7399  0.2013
 8922SOL    HW238226   2.112   1.098   0.804  0.7265 -0.9989 -1.4047
 8923SOL     OW38227   2.129   3.944   3.131 -0.1472 -0.4232  0.0899
 8923SOL    HW138228   2.080   4.000   3.072 -0.4494 -0.2470  0.5059
 8923SOL    HW238229   2.059   3.911   3.188  0.1344 -0.7773  0.2352
 8924SOL     OW38230   0.524   2.509   4.688 -0.2394 -0.0170  0.4652
 8924SOL    HW138231   0.430   2.529   4.683 -0.1918 -0.0937 -0.7690
 8924SOL    HW238232   0.534   2.423   4.727 -1.4888 -1.0390 -1.4498
 8925SOL     OW38233   1.717   2.425   8.935  0.0481 -0.0463  0.0070
 8925SOL    HW138234   1.774   2.361   8.978 -0.2078 -0.0010  0.4071
 8925SOL    HW238235   1.647   2.377   8.890  0.2929 -0.4179  0.0210
 8926SOL     OW38236   3.623   2.672   6.484 -0.1098 -0.1311  0.0553
 8926SOL    HW138237   3.612   2.622   6.403 -1.4984 -1.6604  1.1933
 8926SOL    HW238238   3.645   2.758   6.448  0.1920 -0.5420 -0.7242
 8927SOL     OW38239   2.728   0.578   7.210  0.1940 -0.4662 -0.4428
 8927SOL    HW138240   2.697   0.622   7.289 -1.7601 -2.1275 -0.2929
 8927SOL    HW238241   2.712   0.638   7.137  1.2467 -0.5946 -0.7793
 8928SOL     OW38242   4.043   0.044   1.641 -0.4106 -0.1015 -0.0143
 8928SOL    HW138243   4.127   0.057   1.687 -0.3379 -0.7458  0.0365
 8928SOL    HW238244   4.077   0.044   1.551 -1.0560  0.6259 -0.2541
 8929SOL     OW38245   2.789   0.981   4.379 -0.3697  0.2584  0.0826
 8929SOL    HW138246   2.876   1.020   4.388 -0.9994  1.7216 -0.1763
 8929SOL    HW238247   2.779   0.957   4.287  0.0862 -0.3237  0.1814
 8930SOL     OW38248   4.698   2.864  17.510 -0.1679  0.3624 -0.6344
 8930SOL    HW138249   4.709   2.787  17.454 -0.8767 -0.2956  0.1505
 8930SOL    HW238250   0.060   2.871  17.544 -0.3501  0.1804 -0.1344
 8931SOL     OW38251   0.548   3.126   1.606  0.8216  0.1424  0.5093
 8931SOL    HW138252   0.536   3.050   1.662 -2.4618 -0.8130 -1.4757
 8931SOL    HW238253   0.457   3.156   1.598  0.5072 -1.0608 -0.5579
 8932SOL     OW38254   3.644   0.557   7.748 -0.2416  0.4483 -0.1921
 8932SOL    HW138255   3.582   0.622   7.715 -1.1608 -1.2596 -1.8860
 8932SOL    HW238256   3.593   0.476   7.749  0.5729 -0.0955 -3.1105
 8933SOL     OW38257   3.352   0.435   8.573 -0.9303 -0.1611  0.4942
 8933SOL    HW138258   3.396   0.510   8.533 -1.1314 -0.6317 -0.5992
 8933SOL    HW238259   3.416   0.394   8.632  1.0150  1.4996 -0.4518
 8934SOL     OW38260   3.052   4.591   1.383  0.0918  0.8570  0.2254
 8934SOL    HW138261   3.038   4.579   1.289 -1.3078 -0.5474  0.5966
 8934SOL    HW238262   3.035   4.503   1.419 -1.7502  1.4988  0.9366
 8935SOL     OW38263   0.625   2.660   2.723 -0.4854 -0.0937 -0.4685
 8935SOL    HW138264   0.691   2.650   2.655 -1.7039 -0.3262 -1.6245
 8935SOL    HW238265   0.543   2.668   2.673 -0.2521 -1.0638 -1.0051
 8936SOL     OW38266   1.270   1.529   6.774 -0.2724  0.0453 -0.0574
 8936SOL    HW138267   1.222   1.612   6.772  2.4674  1.6730 -0.0516
 8936SOL    HW238268   1.276   1.514   6.680  1.2025  1.7443 -0.2344
 8937SOL     OW38269   0.174   4.032   6.084  0.1631  0.9223  0.1517
 8937SOL    HW138270   0.117   3.958   6.103  0.6008  0.0197 -2.0796
 8937SOL    HW238271   0.169   4.033   5.988 -0.3886 -1.5893  0.1609
 8938SOL     OW38272   0.058   0.235  12.546 -0.2432  0.3653 -0.3632
 8938SOL    HW138273   0.080   0.280  12.465  0.4001 -1.2701 -1.0963
 8938SOL    HW238274   0.004   0.164  12.512  0.6015  0.3918 -1.7530
 8939SOL     OW38275   2.122   1.687   8.959 -0.1195 -0.1372  0.0328
 8939SOL    HW138276   2.148   1.603   8.995 -1.1512 -0.5438 -0.1835
 8939SOL    HW238277   2.131   1.746   9.035 -2.6003 -1.7125  1.5261
 8940SOL     OW38278   0.762   3.605  13.251  0.1716  0.1174 -0.0802
 8940SOL    HW138279   0.803   3.643  13.173 -0.5977  0.0174 -0.5337
 8940SOL    HW238280   0.679   3.654  13.251 -1.2485 -2.2764  0.8965
 8941SOL     OW38281   0.140   4.568   6.942  0.4044  0.1659 -0.2210
 8941SOL    HW138282   0.194   4.639   6.977 -1.7791  1.8818 -0.3312
 8941SOL    HW238283   0.201   4.510   6.895  0.3794 -1.6827  2.0151
 8942SOL     OW38284   4.164   3.372   2.311 -0.5006  0.5617  0.2526
 8942SOL    HW138285   4.174   3.459   2.350  2.6623  1.3042 -2.1339
 8942SOL    HW238286   4.257   3.362   2.289 -0.2461 -1.4439  2.2482
 8943SOL     OW38287   1.999   1.691   7.705 -0.1880 -0.1499 -0.3693
 8943SOL    HW138288   2.051   1.769   7.723 -1.8123  0.6819  0.7293
 8943SOL    HW238289   2.011   1.642   7.787  1.9134 -0.3719 -0.7962
 8944SOL     OW38290   3.022   4.370  14.365 -0.1738  0.6266  0.2381
 8944SOL    HW138291   3.103   4.409  14.333  0.9553 -1.0489  1.0728
 8944SOL    HW238292   3.001   4.433  14.434 -0.3333  1.7548 -0.8377
 8945SOL     OW38293   2.106   1.369   5.999 -0.3378  0.3919 -0.1391
 8945SOL    HW138294   2.029   1.420   6.025 -0.2173  0.9967 -0.9752
 8945SOL    HW238295   2.179   1.410   6.046 -0.1403 -0.0759 -0.0349
 8946SOL     OW38296   4.188   1.609   3.154  0.4828  0.2517 -0.0404
 8946SOL    HW138297   4.141   1.580   3.233 -1.2358 -0.4480 -1.3380
 8946SOL    HW238298   4.198   1.703   3.162  0.0769  0.3592 -0.8483
 8947SOL     OW38299   3.019   1.030   8.751 -0.9786 -0.2195  0.0349
 8947SOL    HW138300   3.054   0.945   8.775 -2.8252 -0.6255  1.3392
 8947SOL    HW238301   2.928   1.009   8.728 -0.9292  1.6774 -1.8945
 8948SOL     OW38302   0.223   2.203  16.064  0.1695  0.4696 -0.0281
 8948SOL    HW138303   0.265   2.271  16.011 -2.5995  2.8296  0.7745
 8948SOL    HW238304   0.263   2.212  16.151 -0.2755 -0.1131  0.2380
 8949SOL     OW38305   2.081   4.251   7.887  0.0411 -0.1685  0.0790
 8949SOL    HW138306   2.139   4.327   7.881  0.7970 -0.6830  0.8452
 8949SOL    HW238307   2.094   4.242   7.981  0.6851 -0.6072 -0.0522
 8950SOL     OW38308   1.905   2.626   3.286 -0.3722 -0.1895 -0.0643
 8950SOL    HW138309   1.937   2.625   3.196 -1.2286  0.3697 -0.3752
 8950SOL    HW238310   1.949   2.704   3.320  0.1703 -0.6510  0.2984
 8951SOL     OW38311   3.271   0.416   8.139  0.2463 -0.7985 -0.0988
 8951SOL    HW138312   3.214   0.357   8.187 -2.1295  1.3832 -0.2084
 8951SOL    HW238313   3.290   0.353   8.070  2.3717 -0.2891  0.0404
 8952SOL     OW38314   0.642   2.960  15.117 -0.0842 -0.1923 -0.9053
 8952SOL    HW138315   0.711   2.896  15.107 -0.6430 -1.1832  1.6333
 8952SOL    HW238316   0.595   2.951  15.034 -0.8182 -1.0635 -0.3934
 8953SOL     OW38317   1.904   1.493   9.816 -0.2638 -0.4386  0.3559
 8953SOL    HW138318   1.962   1.418   9.830  0.6968  0.0490 -1.0215
 8953SOL    HW238319   1.921   1.530   9.729  1.8949 -2.0811  0.0714
 8954SOL     OW38320   3.331   1.839   1.658  0.1266  0.2644  0.4538
 8954SOL    HW138321   3.341   1.872   1.569 -1.0047 -0.7533 -0.0538
 8954SOL    HW238322   3.246   1.870   1.689 -0.7781 -1.1760 -0.6188
 8955SOL     OW38323   2.622   3.109   4.273 -0.0095 -0.8032  0.1078
 8955SOL    HW138324   2.591   3.108   4.363 -2.1714  2.4605 -0.5996
 8955SOL    HW238325   2.633   3.204   4.273 -0.3648 -0.7579 -0.6585
 8956SOL     OW38326   1.393   1.953   5.689  0.0449  0.2346  0.0398
 8956SOL    HW138327   1.462   1.954   5.622 -0.1313 -2.0277 -0.1908
 8956SOL    HW238328   1.326   1.995   5.635 -0.8589  1.8136  2.4230
 8957SOL     OW38329   4.076   3.337  10.702 -0.3393 -0.1015 -0.4638
 8957SOL    HW138330   4.003   3.392  10.732 -1.4652 -0.7901 -1.9046
 8957SOL    HW238331   4.052   3.246  10.719  0.3714  0.4778  3.6615
 8958SOL     OW38332   2.679   3.390  10.658  0.3636 -0.1638 -0.6882
 8958SOL    HW138333   2.661   3.374  10.565  2.2227  1.3967 -1.3235
 8958SOL    HW238334   2.640   3.318  10.708 -1.0913  1.7735  0.9564
 8959SOL     OW38335   4.069   2.406  11.241 -0.3313  0.4953 -0.1941
 8959SOL    HW138336   4.077   2.500  11.223 -0.1022  0.4704 -0.2181
 8959SOL    HW238337   4.074   2.409  11.337 -1.0663  1.7107 -0.1914
 8960SOL     OW38338   1.063   0.945   4.843 -0.1941 -1.3206  0.2301
 8960SOL    HW138339   1.028   0.950   4.753 -1.2490 -0.2382  0.6891
 8960SOL    HW238340   1.150   0.913   4.822 -0.4377 -1.4951 -0.5468
 8961SOL     OW38341   1.635   1.050  13.302  0.2547  0.0548 -0.2391
 8961SOL    HW138342   1.585   0.969  13.288  1.5846 -0.2356 -3.5041
 8961SOL    HW238343   1.710   1.013  13.350 -0.3087  0.4683  0.9336
 8962SOL     OW38344   2.890   4.375   4.226  0.2280  0.4160  0.4330
 8962SOL    HW138345   2.912   4.410   4.140  2.4143  0.2581  0.9258
 8962SOL    HW238346   2.952   4.302   4.228 -0.1640  0.0771  0.1454
 8963SOL     OW38347   0.319   2.157   5.355  0.2162 -0.1257  0.0660
 8963SOL    HW138348   0.373   2.211   5.297 -0.4009  0.0931 -0.3054
 8963SOL    HW238349   0.330   2.205   5.437 -2.6602  0.3426  0.1700
 8964SOL     OW38350   2.593   0.715   6.018  0.2140 -0.2033 -0.3259
 8964SOL    HW138351   2.592   0.723   6.114 -0.0919  2.4592 -0.5624
 8964SOL    HW238352   2.643   0.633   6.011  1.7492  0.7908 -0.8220
 8965SOL     OW38353   3.111   0.481   8.688 -0.3554  0.6098 -0.3449
 8965SOL    HW138354   3.195   0.453   8.651 -1.2320 -2.0540 -0.3791
 8965SOL    HW238355   3.120   0.495   8.782 -0.0770 -1.6304 -0.0394
 8966SOL     OW38356   2.991   1.807   9.676 -0.8280  0.6212  0.1681
 8966SOL    HW138357   3.011   1.763   9.759 -0.9748  2.8502  1.3776
 8966SOL    HW238358   3.005   1.736   9.613 -0.1659  0.3382  0.6312
 8967SOL     OW38359   0.930   0.713   8.255 -0.0666  0.0949  0.1385
 8967SOL    HW138360   0.964   0.778   8.195 -1.6094  0.0559 -0.7727
 8967SOL    HW238361   0.989   0.713   8.331  1.1605 -1.3107 -0.8280
 8968SOL     OW38362   3.646   1.738   5.459 -0.0362 -0.1884 -0.5499
 8968SOL    HW138363   3.722   1.789   5.430  1.1508 -0.4543  2.0755
 8968SOL    HW238364   3.688   1.653   5.468 -1.1729 -0.6218  0.4910
 8969SOL     OW38365   3.427   4.631   4.984 -1.1853 -0.1821  0.2569
 8969SOL    HW138366   3.354   4.569   4.984 -0.7076 -0.7291  2.3594
 8969SOL    HW238367   3.498   4.577   5.018  0.6417  3.0046  1.5110
 8970SOL     OW38368   0.507   2.806  14.931 -0.0399 -0.0242  0.2467
 8970SOL    HW138369   0.556   2.724  14.928  0.9563  0.6882 -2.6569
 8970SOL    HW238370   0.432   2.795  14.872 -0.3546 -1.8126  0.9725
 8971SOL     OW38371   1.150   0.777  14.571 -0.6721  0.4928  0.1724
 8971SOL    HW138372   1.060   0.808  14.574 -0.1314  2.1273 -0.5154
 8971SOL    HW238373   1.185   0.844  14.512  0.2932 -0.5552 -0.4407
 8972SOL     OW38374   3.825   4.234   3.808  0.0084  0.0702  0.4116
 8972SOL    HW138375   3.744   4.182   3.804 -0.8145  1.4146 -0.1241
 8972SOL    HW238376   3.830   4.271   3.720 -1.4857  0.3076  0.4254
 8973SOL     OW38377   2.545   2.413   6.570 -0.1867  0.2102  0.3692
 8973SOL    HW138378   2.627   2.366   6.583 -0.9037 -0.8561  1.0000
 8973SOL    HW238379   2.503   2.425   6.656 -0.8584 -1.1331  0.2284
 8974SOL     OW38380   1.555   3.899   2.268  0.3183  0.6025 -0.2835
 8974SOL    HW138381   1.460   3.905   2.273  0.4522  1.5808  1.1919
 8974SOL    HW238382   1.565   3.805   2.282  2.5029  1.0740  1.3292
 8975SOL     OW38383   0.410   2.122  13.963  0.7199  0.1684  0.6533
 8975SOL    HW138384   0.383   2.119  13.872 -1.0803 -1.0520  1.2473
 8975SOL    HW238385   0.436   2.215  13.960  1.0621  0.1404  2.5069
 8976SOL     OW38386   3.549   1.677   6.369  0.2919  0.2312  0.0697
 8976SOL    HW138387   3.582   1.752   6.321 -2.7097  0.9740 -0.8309
 8976SOL    HW238388   3.578   1.707   6.455  2.7955 -1.2020 -0.2879
 8977SOL     OW38389   2.203   0.855   8.589  0.3277 -0.7925 -0.4888
 8977SOL    HW138390   2.152   0.858   8.670  0.0904 -0.3160 -0.6566
 8977SOL    HW238391   2.149   0.790   8.543 -2.5839  0.2424  1.4596
 8978SOL     OW38392   2.949   2.109   0.441 -0.1417 -0.2413 -0.1373
 8978SOL    HW138393   2.965   2.029   0.392 -1.4169  0.9001 -2.3962
 8978SOL    HW238394   3.032   2.131   0.483  0.3610 -1.1184 -0.6816
 8979SOL     OW38395   2.669   3.869  11.026 -0.3622  0.1315  0.2203
 8979SOL    HW138396   2.647   3.960  11.043 -0.5813  0.3473 -1.1646
 8979SOL    HW238397   2.608   3.826  11.086 -1.4011  1.7546  0.3150
 8980SOL     OW38398   1.012   0.047   7.011 -0.1138  0.6838 -0.0956
 8980SOL    HW138399   1.084   0.100   7.043 -0.1000  0.3750  0.3755
 8980SOL    HW238400   1.000   4.712   7.082 -2.3909  1.5790  0.2795
 8981SOL     OW38401   0.072   2.065   2.342  0.2529 -0.1433 -0.1778
 8981SOL    HW138402   0.036   1.976   2.339 -0.4667  0.1461 -0.1540
 8981SOL    HW238403   0.153   2.067   2.393  0.2584  0.4304 -0.2051
 8982SOL     OW38404   2.354   2.190   1.407 -0.5190  0.1945 -0.4058
 8982SOL    HW138405   2.411   2.188   1.331  1.0943 -1.0979  0.8291
 8982SOL    HW238406   2.281   2.135   1.377  0.5431 -1.3736 -0.1447
 8983SOL     OW38407   1.972   0.278   7.074 -0.1624 -0.8557  0.4877
 8983SOL    HW138408   1.907   0.209   7.083  0.9224 -2.0296 -0.6793
 8983SOL    HW238409   2.037   0.229   7.124  1.0607 -1.0560 -1.3050
 8984SOL     OW38410   2.310   2.594  15.077  0.1599  1.1491  0.7068
 8984SOL    HW138411   2.277   2.568  14.991 -0.5923  0.7200  1.1293
 8984SOL    HW238412   2.385   2.534  15.075 -1.7869 -1.3987  2.9216
 8985SOL     OW38413   3.873   3.162   2.976  0.7816 -0.0745 -0.3816
 8985SOL    HW138414   3.936   3.196   2.913  0.5788  0.8367 -0.0925
 8985SOL    HW238415   3.918   3.088   3.015  0.3316 -0.5881 -0.8444
 8986SOL     OW38416   1.449   1.277   2.577 -0.1770  0.7025  0.2439
 8986SOL    HW138417   1.459   1.190   2.538  1.6675  0.7556  0.5768
 8986SOL    HW238418   1.423   1.327   2.500  0.4724 -0.7690 -0.9319
 8987SOL     OW38419   3.582   1.110   5.587  0.6461 -0.1060  0.3067
 8987SOL    HW138420   3.646   1.067   5.644  2.0365  2.2129  0.5029
 8987SOL    HW238421   3.622   1.081   5.505 -1.1870 -5.3934  1.2656
 8988SOL     OW38422   0.957   3.239   2.925  0.0814 -0.5755 -0.5516
 8988SOL    HW138423   1.009   3.164   2.898 -0.4480 -0.9271 -0.6056
 8988SOL    HW238424   0.879   3.197   2.962  1.4449  1.0796  4.2456
 8989SOL     OW38425   0.155   2.231   6.000  0.3577  0.1880 -0.0894
 8989SOL    HW138426   0.203   2.304   5.960  1.7287 -0.6948 -0.0655
 8989SOL    HW238427   0.072   2.247   5.955  1.8708  0.3363 -2.8134
 8990SOL     OW38428   0.748   0.916  16.843  0.0360 -0.2098  0.3539
 8990SOL    HW138429   0.714   0.847  16.786  0.4527  0.3493 -0.5702
 8990SOL    HW238430   0.666   0.930  16.890 -1.2126 -0.0314 -1.9321
 8991SOL     OW38431   3.653   1.090  13.303  0.0080 -0.2805  0.2147
 8991SOL    HW138432   3.729   1.135  13.340  0.7977 -2.5195  1.3339
 8991SOL    HW238433   3.647   1.138  13.220  0.4590 -0.0991  0.2864
 8992SOL     OW38434   1.846   3.860   7.261  0.3887  0.1732 -0.2552
 8992SOL    HW138435   1.773   3.909   7.224 -0.4374 -0.4784  0.5116
 8992SOL    HW238436   1.802   3.775   7.268  1.2734 -0.3782 -1.4284
 8993SOL     OW38437   0.286   3.311  15.099 -0.2939 -0.0520  0.3371
 8993SOL    HW138438   0.238   3.334  15.019  0.3350  1.2736  0.3460
 8993SOL    HW238439   0.265   3.218  15.098 -0.7685  0.0838 -1.7624
 8994SOL     OW38440   3.120   3.736  11.160  0.0015  0.1230 -1.0910
 8994SOL    HW138441   3.141   3.798  11.230  0.9813 -0.8753 -0.4889
 8994SOL    HW238442   3.033   3.702  11.179 -1.2845  4.6021  1.0331
 8995SOL     OW38443   2.815   4.221   2.427  0.2858 -0.0222 -0.1451
 8995SOL    HW138444   2.787   4.141   2.381 -0.9255 -0.7124  1.7840
 8995SOL    HW238445   2.901   4.240   2.390  0.6491 -1.2835  0.0537
 8996SOL     OW38446   0.156   3.037  12.029 -0.5668  0.3939 -0.2374
 8996SOL    HW138447   0.089   3.074  11.972 -0.8584  0.4438  0.1421
 8996SOL    HW238448   0.226   3.003  11.973 -0.6131  2.8969 -1.8301
 8997SOL     OW38449   2.870   1.809   2.723 -0.1785 -0.2709  0.1513
 8997SOL    HW138450   2.940   1.755   2.687  1.3846  0.5182  1.9864
 8997SOL    HW238451   2.907   1.896   2.709  1.2347 -1.0647 -1.0178
 8998SOL     OW38452   3.957   3.638   5.142 -0.1544 -0.3206 -0.3458
 8998SOL    HW138453   3.909   3.558   5.122 -0.2214 -0.8669  2.1076
 8998SOL    HW238454   3.966   3.668   5.051 -1.1079 -2.0882 -1.0102
 8999SOL     OW38455   3.213   1.316   5.831  0.3190 -0.0380 -0.6126
 8999SOL    HW138456   3.307   1.303   5.816  0.4325  0.7467 -0.5691
 8999SOL    HW238457   3.177   1.284   5.748 -0.8335 -2.5113  0.8238
 9000SOL     OW38458   3.194   0.631   3.123  0.2123 -0.8836  0.6840
 9000SOL    HW138459   3.216   0.624   3.031 -0.6338 -1.4980  0.5251
 9000SOL    HW238460   3.106   0.668   3.113  0.7085 -0.0441 -0.5636
 9001SOL     OW38461   2.573   4.379   3.439 -0.4021 -0.8211  0.2522
 9001SOL    HW138462   2.624   4.444   3.488  0.3715 -1.2455  0.0257
 9001SOL    HW238463   2.498   4.368   3.496 -0.5520 -1.4920 -0.0770
 9002SOL     OW38464   0.056   2.188   3.092  0.9981  0.3511  0.3921
 9002SOL    HW138465   0.113   2.214   3.165  0.7248  0.3478  0.6085
 9002SOL    HW238466   0.041   2.265   3.036  0.1268  0.1737  0.3781
 9003SOL     OW38467   1.993   1.049  15.818  0.0655 -0.4346  0.0019
 9003SOL    HW138468   1.976   1.114  15.750  1.7192  0.2522  0.2496
 9003SOL    HW238469   1.921   0.987  15.808 -0.3346  0.0093  0.0992
 9004SOL     OW38470   1.801   1.456   2.089  0.3486  0.1707 -0.5366
 9004SOL    HW138471   1.782   1.369   2.056  1.0712  0.3126 -1.3441
 9004SOL    HW238472   1.858   1.490   2.019  2.0503 -0.5957  0.4819
 9005SOL     OW38473   2.965   1.504   4.838 -0.7051  0.3871 -0.1547
 9005SOL    HW138474   2.904   1.431   4.828  0.0195 -0.3258  0.5884
 9005SOL    HW238475   3.010   1.479   4.919 -1.5324  0.4669  0.3317
 9006SOL     OW38476   2.859   3.825   1.910  0.2957  0.0140  0.1802
 9006SOL    HW138477   2.946   3.861   1.927  1.1692 -0.9425 -2.3399
 9006SOL    HW238478   2.847   3.771   1.989 -0.8901 -2.8417 -1.9645
 9007SOL     OW38479   2.449   3.813   2.898  0.1832 -0.5078 -0.7159
 9007SOL    HW138480   2.543   3.794   2.896  0.3062  0.2930 -2.1473
 9007SOL    HW238481   2.447   3.901   2.861  1.5903 -0.6612 -1.1759
 9008SOL     OW38482   3.318   3.112   1.113 -0.1664  0.5510 -0.1773
 9008SOL    HW138483   3.299   3.147   1.200 -2.6266  0.4165 -0.6589
 9008SOL    HW238484   3.388   3.168   1.081  0.8605  0.3306  1.7208
 9009SOL     OW38485   0.406   1.064  16.721  0.1852 -0.2412 -0.4714
 9009SOL    HW138486   0.433   1.092  16.808 -2.3288 -0.5953  0.4074
 9009SOL    HW238487   0.332   1.121  16.699 -0.5746 -0.0456  2.7045
 9010SOL     OW38488   1.121   2.086   5.682  0.5260 -0.0105  0.4050
 9010SOL    HW138489   1.043   2.038   5.655 -0.9694  2.4419  0.3894
 9010SOL    HW238490   1.132   2.072   5.776 -0.1220 -0.1883  0.4516
 9011SOL     OW38491   3.975   3.572   6.246 -0.1517 -0.3269 -0.1339
 9011SOL    HW138492   3.880   3.568   6.261 -0.0142  0.1225  0.9013
 9011SOL    HW238493   3.995   3.487   6.286 -1.1078 -0.4715  0.0295
 9012SOL     OW38494   1.158   0.523   3.224  0.5174 -0.6658  0.0144
 9012SOL    HW138495   1.182   0.607   3.265 -1.3903  0.3324 -0.8908
 9012SOL    HW238496   1.064   0.525   3.203  0.2178 -0.1795  1.3563
 9013SOL     OW38497   1.043   0.747   0.595 -0.2939 -0.5143 -0.4085
 9013SOL    HW138498   1.087   0.770   0.513 -0.0827  0.9558  0.1061
 9013SOL    HW238499   1.062   0.654   0.600 -2.1787 -0.9669 -1.6009
 9014SOL     OW38500   1.327   1.411  15.019 -0.1645  0.5504 -0.1036
 9014SOL    HW138501   1.367   1.326  15.041 -0.1925  0.1509 -1.5547
 9014SOL    HW238502   1.400   1.460  14.982  0.5009  0.3496  0.9377
 9015SOL     OW38503   3.646   1.766   6.603 -0.1645  0.4157 -0.2771
 9015SOL    HW138504   3.626   1.727   6.689  1.0468  1.5167  0.5011
 9015SOL    HW238505   3.623   1.858   6.610 -0.8866  0.1558  0.7791
 9016SOL     OW38506   3.524   2.712   3.375  0.2429  0.0112 -0.2488
 9016SOL    HW138507   3.502   2.640   3.315  4.0242 -0.3506 -1.2165
 9016SOL    HW238508   3.510   2.668   3.459  1.9280  1.0629  0.5854
 9017SOL     OW38509   2.748   0.640   4.906  0.1347  0.3111 -0.0262
 9017SOL    HW138510   2.767   0.556   4.864  0.3864  0.3914 -0.0746
 9017SOL    HW238511   2.659   0.660   4.876  0.1055 -0.3774 -0.4099
 9018SOL     OW38512   1.222   2.960   3.945 -0.3247 -0.2409  0.2642
 9018SOL    HW138513   1.302   2.935   3.898  0.4431  0.5613  1.1489
 9018SOL    HW238514   1.167   2.904   3.891  0.2846  0.6735 -1.2894
 9019SOL     OW38515   3.005   4.318   8.159 -0.4838  0.1822 -0.3591
 9019SOL    HW138516   3.072   4.252   8.178 -1.4520 -1.3442 -2.2090
 9019SOL    HW238517   3.003   4.362   8.244 -0.2652 -0.4438 -0.0296
 9020SOL     OW38518   3.177   0.801   8.166 -0.2879  0.6442  0.0281
 9020SOL    HW138519   3.216   0.852   8.236 -0.0630 -0.0779  0.4293
 9020SOL    HW238520   3.107   0.749   8.205 -0.1565  0.4385 -0.0093
 9021SOL     OW38521   0.604   2.689   8.071 -0.4894  0.0654 -0.1378
 9021SOL    HW138522   0.585   2.668   8.163  1.8171  0.3740  0.4109
 9021SOL    HW238523   0.515   2.709   8.043 -1.0240 -0.2014  1.3481
 9022SOL     OW38524   2.072   3.362   2.505  0.4440  0.5970 -0.6143
 9022SOL    HW138525   2.159   3.400   2.490 -0.0104  1.7116 -0.4673
 9022SOL    HW238526   2.017   3.433   2.470  0.3394  0.4967 -0.6536
 9023SOL     OW38527   2.166   1.498   1.219 -0.1955 -0.6626 -0.5203
 9023SOL    HW138528   2.169   1.408   1.189  1.1804 -0.8898  0.3273
 9023SOL    HW238529   2.077   1.511   1.252  0.1179  0.5552 -0.1294
 9024SOL     OW38530   0.935   2.167   4.619 -0.6298 -0.0107 -0.0103
 9024SOL    HW138531   0.978   2.179   4.704 -1.0730  1.2308  0.0420
 9024SOL    HW238532   0.972   2.088   4.580 -0.7248  0.3179 -0.7573
 9025SOL     OW38533   1.951   3.389   3.276 -0.2265 -0.8642  0.1517
 9025SOL    HW138534   1.960   3.462   3.337 -1.7881 -0.4232 -0.1373
 9025SOL    HW238535   1.883   3.436   3.228  0.5069 -1.0822 -1.0924
 9026SOL     OW38536   3.773   2.067  14.883 -0.9131  0.2488 -0.1460
 9026SOL    HW138537   3.842   2.010  14.852 -0.8217 -0.2065  0.8790
 9026SOL    HW238538   3.811   2.154  14.871 -0.3844  0.1263  0.6592
 9027SOL     OW38539   2.664   2.859   4.474 -0.4576  0.0261  0.1705
 9027SOL    HW138540   2.604   2.914   4.524  0.0475  0.9626 -0.2533
 9027SOL    HW238541   2.713   2.819   4.546 -0.9594  1.3875  1.2635
 9028SOL     OW38542   0.647   2.995  10.475  0.2858  0.5762 -0.0189
 9028SOL    HW138543   0.572   3.046  10.444  1.8777  2.3524 -0.9076
 9028SOL    HW238544   0.621   2.906  10.450  4.1743 -0.2799 -1.0645
 9029SOL     OW38545   1.320   4.047  16.742  0.2678  0.2305 -0.9886
 9029SOL    HW138546   1.306   4.042  16.836  4.4358  1.5007 -0.3089
 9029SOL    HW238547   1.319   3.952  16.727  0.6146  0.0598  0.1061
 9030SOL     OW38548   0.285   0.952   4.084  0.1448 -0.2828 -0.0140
 9030SOL    HW138549   0.299   0.867   4.042 -2.6588 -0.2127 -1.1053
 9030SOL    HW238550   0.294   0.934   4.178 -2.2435  1.0130  0.4789
 9031SOL     OW38551   3.410   0.891   4.035  0.7752 -0.4287  0.0526
 9031SOL    HW138552   3.481   0.901   3.972  0.1056  3.6902 -0.0517
 9031SOL    HW238553   3.455   0.878   4.119 -0.2540 -1.2201  0.4683
 9032SOL     OW38554   3.565   2.212  10.892  0.0221  0.2990 -0.7940
 9032SOL    HW138555   3.638   2.162  10.855  0.9915  0.9663  0.2229
 9032SOL    HW238556   3.525   2.247  10.812 -0.0329  1.7916 -0.1317
 9033SOL     OW38557   3.767   4.143   8.219  0.2583  0.4126  0.2406
 9033SOL    HW138558   3.827   4.203   8.265 -1.1002  1.3423  0.8002
 9033SOL    HW238559   3.802   4.057   8.240 -0.4606  0.0397 -0.1231
 9034SOL     OW38560   4.292   0.769   4.263  0.0094 -0.2602  0.4049
 9034SOL    HW138561   4.336   0.711   4.201 -0.3246  0.3219 -0.3726
 9034SOL    HW238562   4.247   0.833   4.208 -0.4676 -0.2597  0.7913
 9035SOL     OW38563   0.029   0.893   7.231  0.3401 -0.3439  0.0938
 9035SOL    HW138564   4.681   0.895   7.291 -0.5579 -0.4606 -1.0295
 9035SOL    HW238565   0.005   0.816   7.179 -2.5567 -0.5539  1.6975
 9036SOL     OW38566   1.642   4.675   4.892 -0.1414 -0.1436  0.2036
 9036SOL    HW138567   1.589   4.685   4.971 -0.1137 -0.4733  0.2626
 9036SOL    HW238568   1.731   4.678   4.927 -0.5726  1.7322  1.1374
 9037SOL     OW38569   2.793   4.159   4.498 -0.5385 -0.0241 -0.5609
 9037SOL    HW138570   2.852   4.151   4.423  0.0220 -0.5170 -0.0690
 9037SOL    HW238571   2.788   4.064   4.511  1.2693 -0.5270 -3.4372
 9038SOL     OW38572   4.348   1.416   1.844  0.3630  0.5723 -0.1933
 9038SOL    HW138573   4.272   1.458   1.886 -0.5704 -2.1768  0.9048
 9038SOL    HW238574   4.403   1.494   1.836 -0.9835  1.5011 -0.4175
 9039SOL     OW38575   3.003   3.035  17.010 -0.4331  0.1328 -0.8381
 9039SOL    HW138576   3.077   3.067  17.062  0.3213  1.5724 -2.8004
 9039SOL    HW238577   2.998   3.094  16.935  1.0848  1.0182 -0.2447
 9040SOL     OW38578   2.706   2.038   7.876 -0.3106  0.5245 -0.0997
 9040SOL    HW138579   2.656   2.104   7.924  1.6461 -0.1847  2.8928
 9040SOL    HW238580   2.790   2.082   7.867  1.2378 -2.4407 -0.2917
 9041SOL     OW38581   0.684   0.563   9.950  0.0878 -0.3148 -0.0113
 9041SOL    HW138582   0.629   0.539  10.025  0.6919 -2.0880 -0.1160
 9041SOL    HW238583   0.631   0.634   9.916  0.6994 -0.1794 -0.6839
 9042SOL     OW38584   2.266   1.993  14.880  1.3907 -0.2071  0.5201
 9042SOL    HW138585   2.311   2.076  14.867  1.1637 -0.0783  0.5528
 9042SOL    HW238586   2.182   2.023  14.915  0.1882 -1.6833 -1.0970
 9043SOL     OW38587   2.419   4.507   7.284  0.4145 -0.0438  0.2557
 9043SOL    HW138588   2.436   4.552   7.367  1.1657  1.6236 -0.7838
 9043SOL    HW238589   2.414   4.588   7.233  2.1232  0.1586  0.3874
 9044SOL     OW38590   2.168   1.640   4.305 -0.8323 -0.0538  0.3357
 9044SOL    HW138591   2.197   1.552   4.325  1.3681  0.1892 -1.7950
 9044SOL    HW238592   2.254   1.682   4.310 -0.0072 -1.9623  1.8892
 9045SOL     OW38593   2.671   0.364   4.276 -0.1360  0.0858  0.2117
 9045SOL    HW138594   2.679   0.298   4.345  0.9627 -0.8601 -0.8136
 9045SOL    HW238595   2.700   0.314   4.199 -1.6032  2.3057 -1.7746
 9046SOL     OW38596   3.704   4.712   7.194 -0.0108  0.0789 -0.0787
 9046SOL    HW138597   3.742   0.037   7.264 -0.4769  0.2933  0.0164
 9046SOL    HW238598   3.628   0.042   7.181  1.9955  2.8682  0.5455
 9047SOL     OW38599   2.123   0.011  13.246 -0.2571  0.7889 -0.2701
 9047SOL    HW138600   2.087   0.069  13.314  0.4172  3.5162 -2.2203
 9047SOL    HW238601   2.218   0.025  13.250  0.0021 -0.9200 -0.4492
 9048SOL     OW38602   3.703   3.420   5.740  0.7434  0.1854  0.3220
 9048SOL    HW138603   3.797   3.433   5.756  1.3681 -2.9530 -0.8526
 9048SOL    HW238604   3.700   3.436   5.645 -0.7010 -1.4143  0.1041
 9049SOL     OW38605   4.318   2.104   4.573 -0.4138 -0.0838 -0.1594
 9049SOL    HW138606   4.325   2.042   4.501  2.2770  1.0930 -0.9062
 9049SOL    HW238607   4.326   2.039   4.642 -1.0619 -2.2103 -2.0871
 9050SOL     OW38608   3.969   3.026   4.403  0.3763 -0.7498  0.1330
 9050SOL    HW138609   3.987   2.992   4.491 -0.5448 -2.3984 -0.3100
 9050SOL    HW238610   4.054   3.001   4.365  1.1499  0.9980  0.7293
 9051SOL     OW38611   4.349   4.118  13.995  0.1012  0.3367 -0.1248
 9051SOL    HW138612   4.325   4.159  13.912 -1.5431  1.2926  0.8297
 9051SOL    HW238613   4.264   4.127  14.038  0.1195 -1.2660  0.2656
 9052SOL     OW38614   0.863   1.826   9.624  0.1549  0.2895 -0.7096
 9052SOL    HW138615   0.871   1.796   9.533  0.9639 -0.6532 -0.3411
 9052SOL    HW238616   0.894   1.915   9.610  0.4265  0.7186  2.6278
 9053SOL     OW38617   0.133   2.040   3.517  0.6672 -0.0557  0.0323
 9053SOL    HW138618   0.206   2.091   3.483  0.2421  1.3080  1.1816
 9053SOL    HW238619   0.177   1.959   3.543  2.0572  1.3053  1.9345
 9054SOL     OW38620   1.960   4.620   2.192 -0.2107 -0.0425 -0.0302
 9054SOL    HW138621   1.906   4.694   2.165 -3.2279 -2.0775  0.3584
 9054SOL    HW238622   1.914   4.583   2.268 -0.0522  1.7239  0.9134
 9055SOL     OW38623   0.750   3.358   2.622  0.4681  0.3027  0.2792
 9055SOL    HW138624   0.806   3.436   2.628  1.8415 -0.6441 -0.2805
 9055SOL    HW238625   0.796   3.294   2.568  0.5895 -1.0902  2.0287
 9056SOL     OW38626   2.318   2.469   6.742 -0.2365 -0.1995 -0.1441
 9056SOL    HW138627   2.269   2.550   6.757 -0.4004 -0.2435 -0.4335
 9056SOL    HW238628   2.246   2.407   6.735 -2.2072  2.2094 -1.2392
 9057SOL     OW38629   2.168   2.967   9.174 -0.2296 -0.0751  0.1295
 9057SOL    HW138630   2.256   2.992   9.144 -0.4671  2.0831  1.2430
 9057SOL    HW238631   2.168   2.872   9.181 -0.2306 -0.2204 -1.7694
 9058SOL     OW38632   1.422   1.029   6.390 -0.2765  0.5112  0.1594
 9058SOL    HW138633   1.363   1.041   6.465  0.1193  2.5110  0.1342
 9058SOL    HW238634   1.435   0.935   6.406 -0.0120  0.5730  0.3073
 9059SOL     OW38635   2.075   3.467   7.480 -0.8106  0.0831  0.9640
 9059SOL    HW138636   2.156   3.488   7.434 -0.9370 -1.2740  0.1079
 9059SOL    HW238637   2.028   3.408   7.421 -1.0823  0.1491  1.1173
 9060SOL     OW38638   0.258   2.658   1.930 -0.1432  0.0321 -0.2889
 9060SOL    HW138639   0.228   2.653   1.839 -0.9222  0.5409 -0.0545
 9060SOL    HW238640   0.192   2.605   1.974 -0.3683 -1.1790 -2.1164
 9061SOL     OW38641   3.280   2.928  13.223 -0.1568  0.2242 -0.0186
 9061SOL    HW138642   3.243   3.015  13.234 -1.9964 -0.9355  2.8588
 9061SOL    HW238643   3.314   2.908  13.310 -1.6331 -0.2529  0.4380
 9062SOL     OW38644   3.211   0.543   8.919  0.0424 -0.3280 -0.4079
 9062SOL    HW138645   3.202   0.520   9.011 -0.9578  0.3644 -0.3348
 9062SOL    HW238646   3.306   0.550   8.911 -0.0163 -0.1494 -0.9745
 9063SOL     OW38647   1.628   2.703   5.742 -0.2760 -0.3231 -0.3210
 9063SOL    HW138648   1.701   2.684   5.683  0.2657  0.2355  0.1623
 9063SOL    HW238649   1.668   2.669   5.822 -2.5246 -0.7826  0.6087
 9064SOL     OW38650   4.256   2.250  15.934  0.1051  0.0352 -0.8595
 9064SOL    HW138651   4.345   2.256  15.901  0.5973  0.9176  0.6209
 9064SOL    HW238652   4.228   2.337  15.903  2.1650  0.5781 -1.2323
 9065SOL     OW38653   4.629   0.229   7.064  0.3021 -0.4270 -0.4139
 9065SOL    HW138654   4.562   0.297   7.057  1.3195  0.5332 -0.7006
 9065SOL    HW238655   4.585   0.173   7.129  0.4975 -0.7285 -0.5450
 9066SOL     OW38656   2.892   0.436  10.902 -0.2856  1.0122 -0.3722
 9066SOL    HW138657   2.912   0.387  10.823  0.5285  0.4748  0.1646
 9066SOL    HW238658   2.962   0.501  10.906  1.0499 -0.4700  0.3583
 9067SOL     OW38659   0.909   2.527   0.207 -0.6155 -0.2067  0.0338
 9067SOL    HW138660   0.917   2.494   0.118  0.5981 -0.9529  0.4115
 9067SOL    HW238661   0.868   2.458   0.259 -1.1687 -0.5604 -0.8925
 9068SOL     OW38662   2.679   4.491   5.310  0.1180  1.1325 -0.9166
 9068SOL    HW138663   2.642   4.562   5.256 -1.7543  0.6948 -0.2118
 9068SOL    HW238664   2.731   4.442   5.246  0.4062  0.3487 -0.0825
 9069SOL     OW38665   2.712   0.889  11.201  0.7117 -0.0758 -0.1851
 9069SOL    HW138666   2.722   0.907  11.294 -0.3746 -0.6676  0.0440
 9069SOL    HW238667   2.749   0.801  11.204 -0.5403 -0.6069 -0.2203
 9070SOL     OW38668   0.277   0.183   5.462  0.7008 -0.5111  0.4419
 9070SOL    HW138669   0.258   0.274   5.439 -0.4611 -0.7630  0.4139
 9070SOL    HW238670   0.203   0.137   5.423 -0.2811  0.1182  1.5733
 9071SOL     OW38671   4.015   3.426   7.651  0.1862  0.1902 -0.2395
 9071SOL    HW138672   3.962   3.498   7.617 -0.7917 -1.0902 -1.4163
 9071SOL    HW238673   4.092   3.480   7.668 -0.2690  0.5143  0.8303
 9072SOL     OW38674   3.979   1.931   4.179  0.0301 -0.2083  0.2654
 9072SOL    HW138675   3.933   1.972   4.106  1.0499  3.3083  1.6340
 9072SOL    HW238676   4.018   1.859   4.128  0.1562  1.0949 -1.4848
 9073SOL     OW38677   3.910   3.954   7.530  0.1984 -0.0232  0.0661
 9073SOL    HW138678   4.004   3.972   7.536  0.0646  0.9219 -0.6011
 9073SOL    HW238679   3.878   4.012   7.461  0.7055 -0.0661 -0.2033
 9074SOL     OW38680   0.320   2.259   0.994  0.0655  0.6275  0.4013
 9074SOL    HW138681   0.382   2.223   1.057 -2.4515 -2.2667  1.2332
 9074SOL    HW238682   0.313   2.180   0.940  3.0290  0.2720  0.5554
 9075SOL     OW38683   4.635   0.851  14.842 -0.2534 -0.2411  0.3619
 9075SOL    HW138684   4.614   0.781  14.904  0.9268 -0.0515  0.9713
 9075SOL    HW238685   4.674   0.802  14.770 -0.5441 -0.0779  0.0928
 9076SOL     OW38686   2.949   4.275   6.976 -0.4338  0.7960  0.4011
 9076SOL    HW138687   2.985   4.221   7.046  0.5696  0.2892 -0.5037
 9076SOL    HW238688   2.863   4.237   6.958  0.8326 -0.6945 -2.6409
 9077SOL     OW38689   0.463   2.398  13.881 -0.1675 -0.0065 -0.2709
 9077SOL    HW138690   0.370   2.413  13.898 -0.1324  0.2913 -0.3443
 9077SOL    HW238691   0.495   2.474  13.930 -1.6548  1.1819 -1.1674
 9078SOL     OW38692   0.483   2.126  11.551  0.2555  0.3810  0.3377
 9078SOL    HW138693   0.475   2.197  11.487 -1.6069  1.5593  1.8705
 9078SOL    HW238694   0.510   2.171  11.631  0.6772 -0.6804  0.7784
 9079SOL     OW38695   2.224   4.050   4.933  0.2300  0.5503  0.4589
 9079SOL    HW138696   2.314   4.081   4.945  1.5436 -2.3133 -2.1607
 9079SOL    HW238697   2.204   4.012   5.019  0.1686 -2.1034 -0.7288
 9080SOL     OW38698   2.577   3.514  13.928 -0.2215  0.3330  0.2411
 9080SOL    HW138699   2.641   3.573  13.968 -0.9585  1.0416  0.3739
 9080SOL    HW238700   2.606   3.532  13.839  0.0550 -3.3806 -0.4064
 9081SOL     OW38701   0.230   0.192   8.411  0.2239  0.0522 -0.5155
 9081SOL    HW138702   0.213   0.258   8.344 -1.5450 -0.1782 -0.3031
 9081SOL    HW238703   0.146   0.147   8.399  0.1013  0.5924 -1.6226
 9082SOL     OW38704   0.808   1.145   1.815  0.1840 -0.3076  0.5399
 9082SOL    HW138705   0.861   1.205   1.763  0.4774  0.9130  2.2163
 9082SOL    HW238706   0.727   1.127   1.768  0.5392 -0.0501 -0.1678
 9083SOL     OW38707   4.071   1.059  15.277  0.6306 -0.7793  0.7581
 9083SOL    HW138708   4.070   1.154  15.266 -0.6062 -0.5462  2.9747
 9083SOL    HW238709   4.016   1.036  15.202  2.9955  0.4165 -1.3633
 9084SOL     OW38710   4.460   3.730   5.049  0.2080 -0.1500 -0.1481
 9084SOL    HW138711   4.538   3.774   5.016  2.0824 -2.0406  1.7311
 9084SOL    HW238712   4.425   3.794   5.112 -1.2072 -0.9230 -0.1480
 9085SOL     OW38713   4.338   2.182   1.650 -0.3982  0.3944  0.0943
 9085SOL    HW138714   4.423   2.226   1.641  0.8348 -1.6826  1.7048
 9085SOL    HW238715   4.367   2.097   1.620  0.8286  0.7392  0.2895
 9086SOL     OW38716   2.605   4.109   1.314  0.7003  0.1220 -0.1352
 9086SOL    HW138717   2.601   4.015   1.327 -0.4562  0.4792  2.1461
 9086SOL    HW238718   2.547   4.107   1.238 -2.1044 -2.7953  2.1232
 9087SOL     OW38719   4.085   2.329   3.035 -0.4686  0.2351  0.1367
 9087SOL    HW138720   4.063   2.243   3.072  1.0570  0.5401  1.7363
 9087SOL    HW238721   4.002   2.374   3.019  0.5763  1.7423 -1.0970
 9088SOL     OW38722   3.366   0.579   1.321  0.1044 -0.0399 -0.1988
 9088SOL    HW138723   3.446   0.530   1.305  1.2287  1.6428  0.3384
 9088SOL    HW238724   3.347   0.607   1.231 -0.3195  0.7984  0.1566
 9089SOL     OW38725   4.313   2.480   3.463 -0.1604  0.5763  0.2768
 9089SOL    HW138726   4.357   2.494   3.379  2.5962 -2.6197  1.1906
 9089SOL    HW238727   4.376   2.429   3.514  1.9497  1.3263 -1.5822
 9090SOL     OW38728   0.320   0.340   9.792 -0.3487  0.7410  0.0940
 9090SOL    HW138729   0.334   0.279   9.720 -2.5137 -1.0224  1.1932
 9090SOL    HW238730   0.236   0.310   9.826 -1.2261  1.4190 -1.4468
 9091SOL     OW38731   0.685   3.376   1.698  0.4277 -0.0677 -0.1465
 9091SOL    HW138732   0.641   3.412   1.620  1.8047  1.7694 -0.0549
 9091SOL    HW238733   0.641   3.292   1.714  0.2778 -0.1508 -0.9574
 9092SOL     OW38734   1.686   2.390  17.116 -0.5900 -0.5138  0.0979
 9092SOL    HW138735   1.685   2.298  17.090 -0.8612 -0.4045 -0.2896
 9092SOL    HW238736   1.597   2.404  17.148  0.4207 -0.7149  2.9217
 9093SOL     OW38737   3.373   2.547  17.502 -0.3225 -0.1041 -0.8540
 9093SOL    HW138738   3.320   2.475  17.468 -0.5688 -0.2060 -0.2634
 9093SOL    HW238739   3.424   2.576  17.427 -2.4039  2.5121 -1.2883
 9094SOL     OW38740   4.329   3.884   3.809  0.3893 -0.5822  0.1626
 9094SOL    HW138741   4.275   3.815   3.771 -1.6038  1.0041  0.1240
 9094SOL    HW238742   4.373   3.840   3.882 -2.6919 -3.3549  0.3101
 9095SOL     OW38743   1.818   0.489   1.256  0.3254  0.3823  0.3708
 9095SOL    HW138744   1.819   0.399   1.290 -0.0449  0.1112 -0.3438
 9095SOL    HW238745   1.723   0.493   1.249  0.2155 -0.2595  1.4739
 9096SOL     OW38746   1.476   3.478  13.863 -0.1017  0.5180  0.1480
 9096SOL    HW138747   1.441   3.419  13.797 -0.1528 -2.0688  2.5218
 9096SOL    HW238748   1.437   3.557  13.825  0.8111  0.8762 -0.0425
 9097SOL     OW38749   2.926   2.657   7.437 -0.0107 -0.4599  0.5127
 9097SOL    HW138750   2.856   2.685   7.377  0.6949 -0.4290 -0.2945
 9097SOL    HW238751   2.974   2.622   7.362  1.3276  1.5998  0.3825
 9098SOL     OW38752   4.413   3.547  10.051  0.2505  0.1135  1.1430
 9098SOL    HW138753   4.461   3.615  10.097 -0.8740  0.0259  2.4491
 9098SOL    HW238754   4.323   3.551  10.082  0.0930  0.8292  0.5829
 9099SOL     OW38755   2.224   1.599   4.738 -0.4000  0.3574  0.2377
 9099SOL    HW138756   2.186   1.516   4.708  0.1255  0.1788  0.0745
 9099SOL    HW238757   2.275   1.561   4.809 -0.6487  1.0382  0.7742
 9100SOL     OW38758   3.480   3.868   0.262 -0.3264 -0.0367 -0.0633
 9100SOL    HW138759   3.412   3.935   0.270  1.5964  1.4707  3.8781
 9100SOL    HW238760   3.551   3.917   0.219 -1.1683  0.6988 -0.6105
 9101SOL     OW38761   4.174   3.494  11.348 -0.2039 -0.2097  0.0408
 9101SOL    HW138762   4.246   3.435  11.326 -0.4875 -1.3098  2.0274
 9101SOL    HW238763   4.100   3.464  11.296  0.0913  1.0536 -1.0882
 9102SOL     OW38764   4.316   3.647   5.827  0.0848  0.3949  0.0964
 9102SOL    HW138765   4.360   3.580   5.775  1.0841  0.2610  1.1001
 9102SOL    HW238766   4.298   3.595   5.906  0.9524  0.1066  0.1015
 9103SOL     OW38767   3.669   1.496   6.209  0.5986  0.6505 -0.2217
 9103SOL    HW138768   3.609   1.569   6.225  0.7442  0.9794 -1.1418
 9103SOL    HW238769   3.625   1.432   6.264  0.9538 -1.0421 -1.9018
 9104SOL     OW38770   1.948   3.808   2.713 -0.1689 -0.7377 -0.3633
 9104SOL    HW138771   2.013   3.738   2.727 -0.1583 -0.8754 -1.1048
 9104SOL    HW238772   1.959   3.831   2.621 -0.2804 -0.2298 -0.2452
 9105SOL     OW38773   0.880   4.594   1.860 -0.3758 -0.3694  0.4445
 9105SOL    HW138774   0.832   4.560   1.785  0.4889  0.6891 -0.5893
 9105SOL    HW238775   0.809   4.631   1.914 -2.3559  1.9208 -3.7580
 9106SOL     OW38776   4.618   3.380   7.608  0.6516 -0.5710 -0.1950
 9106SOL    HW138777   4.542   3.325   7.587  0.3832 -0.5155  0.6191
 9106SOL    HW238778   4.602   3.419   7.694  0.5516  1.4650 -1.1283
 9107SOL     OW38779   1.380   0.644   7.376  0.5065 -0.6298  1.1846
 9107SOL    HW138780   1.462   0.685   7.351  0.5550 -2.0779 -1.0849
 9107SOL    HW238781   1.332   0.708   7.428  0.7390  2.1201 -2.0481
 9108SOL     OW38782   0.925   0.908   5.520  0.3398 -0.9265  0.2049
 9108SOL    HW138783   0.972   0.877   5.443  2.3101 -0.6730  1.3067
 9108SOL    HW238784   0.854   0.953   5.474  0.8748 -0.6568 -0.3662
 9109SOL     OW38785   2.800   0.900   2.865 -0.0658  0.1823 -0.5759
 9109SOL    HW138786   2.733   0.943   2.919 -0.2558  1.0707 -1.5119
 9109SOL    HW238787   2.746   0.862   2.795  0.8962 -0.3227 -1.0369
 9110SOL     OW38788   1.531   1.233  17.293  0.2582 -0.0457  0.7054
 9110SOL    HW138789   1.438   1.210  17.301  0.6370 -1.3545  1.2669
 9110SOL    HW238790   1.536   1.299  17.362  0.9347  0.0669  0.5431
 9111SOL     OW38791   4.434   1.910   0.055 -0.0126 -0.8742 -0.9300
 9111SOL    HW138792   4.488   1.901  17.687 -2.5030 -0.6144 -2.6512
 9111SOL    HW238793   4.390   1.825   0.064 -1.4895 -0.2171 -1.9540
 9112SOL     OW38794   1.634   4.137   2.920 -0.2032  0.6910 -0.4397
 9112SOL    HW138795   1.652   4.074   2.990  0.0764  0.2838 -0.8783
 9112SOL    HW238796   1.592   4.080   2.855  0.0715 -1.2000  1.0541
 9113SOL     OW38797   3.393   4.085   5.319  0.6136 -0.1489  0.1111
 9113SOL    HW138798   3.474   4.108   5.272  0.1182  1.1447 -0.0895
 9113SOL    HW238799   3.370   4.167   5.362  0.0727 -0.5094  0.4992
 9114SOL     OW38800   4.630   1.294  15.125  0.0880 -0.1430 -0.7271
 9114SOL    HW138801   4.670   1.224  15.074  1.6140 -1.4796  2.3147
 9114SOL    HW238802   4.566   1.253  15.183  1.0032  0.4667  0.7236
 9115SOL     OW38803   2.201   2.436  11.942 -0.0019 -0.2996 -0.3957
 9115SOL    HW138804   2.166   2.347  11.954  1.8962 -1.0525 -0.4467
 9115SOL    HW238805   2.130   2.496  11.965  0.8465 -0.0817  1.5734
 9116SOL     OW38806   3.962   0.962   4.313 -0.3878 -0.1850 -0.1228
 9116SOL    HW138807   3.888   1.021   4.326  0.8549  1.3902 -0.0995
 9116SOL    HW238808   4.038   1.021   4.307 -0.7954  0.5203  1.4724
 9117SOL     OW38809   3.143   1.737   2.833  0.3713  0.2676 -1.0595
 9117SOL    HW138810   3.109   1.805   2.891  0.0995  0.7087 -1.7331
 9117SOL    HW238811   3.228   1.776   2.816  0.4296 -0.0431 -1.4690
 9118SOL     OW38812   0.237   3.402  17.651 -0.2234 -0.7295  0.3930
 9118SOL    HW138813   0.197   3.419   0.026 -0.6072  0.8615 -0.1123
 9118SOL    HW238814   0.253   3.488  17.612 -0.0673 -0.0508  1.9133
 9119SOL     OW38815   1.394   4.457   9.478  0.1198  0.0698  0.2766
 9119SOL    HW138816   1.319   4.441   9.420 -0.5157  1.1643  0.7833
 9119SOL    HW238817   1.383   4.398   9.552  1.5195 -1.3722 -0.6736
 9120SOL     OW38818   3.358   4.205   0.519 -0.0790  0.0186  0.0856
 9120SOL    HW138819   3.448   4.173   0.524 -0.9398 -2.3135  0.7149
 9120SOL    HW238820   3.377   4.297   0.504  0.2778  0.1392  1.2511
 9121SOL     OW38821   4.112   3.937   4.476  0.1729  0.2682 -0.4859
 9121SOL    HW138822   4.079   3.850   4.498 -1.0810  0.7285 -0.5674
 9121SOL    HW238823   4.115   3.924   4.381  0.2335  1.5140 -0.6588
 9122SOL     OW38824   3.967   3.868   6.809  0.4718  0.2252 -0.1420
 9122SOL    HW138825   3.929   3.902   6.728 -1.7139  2.2127  1.7108
 9122SOL    HW238826   4.024   3.797   6.779 -0.8044 -0.0431 -1.9239
 9123SOL     OW38827   4.655   0.148   0.123  0.0301  0.2937 -0.5576
 9123SOL    HW138828   0.020   0.171   0.129  0.1701 -0.9292  1.8065
 9123SOL    HW238829   4.636   0.131   0.215  0.3556  1.4077 -0.2922
 9124SOL     OW38830   1.972   4.143   8.696 -0.0050 -0.4106 -0.3757
 9124SOL    HW138831   2.034   4.200   8.743 -1.1742 -0.0624  0.7395
 9124SOL    HW238832   1.889   4.188   8.709  0.0561 -0.4027 -0.0115
 9125SOL     OW38833   4.480   2.121  15.154 -0.2591 -0.0261 -0.2297
 9125SOL    HW138834   4.463   2.136  15.247  0.6052  2.8362 -0.5367
 9125SOL    HW238835   4.469   2.211  15.125  0.9712  0.1354 -0.1826
 9126SOL     OW38836   2.807   3.877   1.338  0.3979  0.3290  0.0452
 9126SOL    HW138837   2.856   3.852   1.260 -0.6050  1.6983 -1.0244
 9126SOL    HW238838   2.733   3.815   1.337 -0.3919  1.2457  1.1354
 9127SOL     OW38839   0.114   2.897   8.289  0.2267 -0.3518 -0.7164
 9127SOL    HW138840   0.130   2.807   8.259  0.7675 -0.0532 -1.3182
 9127SOL    HW238841   0.172   2.947   8.232  0.6310 -0.1737 -0.1550
 9128SOL     OW38842   2.188   4.563   9.502 -0.1590 -0.5792  0.0442
 9128SOL    HW138843   2.155   4.629   9.562  0.2739 -0.4827  0.1769
 9128SOL    HW238844   2.148   4.595   9.422  1.8933 -1.1020 -1.2119
 9129SOL     OW38845   4.191   3.676   3.699 -0.3321 -0.1309  0.0529
 9129SOL    HW138846   4.144   3.645   3.776  3.7294 -0.6074  2.3690
 9129SOL    HW238847   4.124   3.737   3.669  0.5408  1.3634  1.1166
 9130SOL     OW38848   0.706   4.672   2.273  0.5518  0.4150 -0.2994
 9130SOL    HW138849   0.747   4.596   2.232 -0.0364 -0.3628  0.5655
 9130SOL    HW238850   0.614   4.654   2.256  0.1728  2.1352 -0.0747
 9131SOL     OW38851   3.536   1.700   7.338 -1.0335 -0.1647  0.1808
 9131SOL    HW138852   3.518   1.747   7.420  2.8133  0.3961  0.7542
 9131SOL    HW238853   3.552   1.613   7.374  1.2371 -0.2489 -1.0056
 9132SOL     OW38854   1.694   3.793   8.477  0.3917  0.3878  0.3945
 9132SOL    HW138855   1.623   3.728   8.478  0.8492 -0.1082  1.1745
 9132SOL    HW238856   1.746   3.750   8.408 -0.2162 -1.0486  0.8259
 9133SOL     OW38857   3.286   3.253   1.349  0.2306 -0.4826 -0.6842
 9133SOL    HW138858   3.352   3.309   1.388 -1.1086 -0.1504  1.1069
 9133SOL    HW238859   3.230   3.318   1.306  1.7477  0.6880 -0.8764
 9134SOL     OW38860   3.383   1.833   2.742  0.3445  0.2171  0.5697
 9134SOL    HW138861   3.461   1.806   2.790  0.5350 -0.5339 -0.1787
 9134SOL    HW238862   3.428   1.889   2.679 -1.1639  1.5867  0.7266
 9135SOL     OW38863   1.522   1.262   6.866 -0.0157 -0.1874 -0.1920
 9135SOL    HW138864   1.523   1.340   6.921 -0.1199  0.6046 -1.2988
 9135SOL    HW238865   1.457   1.279   6.798 -0.0404 -0.5134 -0.2508
 9136SOL     OW38866   2.616   3.902   2.571 -0.1096  0.1655  0.1004
 9136SOL    HW138867   2.582   3.944   2.650 -1.1686  3.4071 -2.0990
 9136SOL    HW238868   2.537   3.874   2.525 -0.4068  1.6798 -0.2988
 9137SOL     OW38869   0.129   3.357  12.811  0.1013  0.0758  0.0808
 9137SOL    HW138870   0.066   3.428  12.816 -0.4645 -0.5916  2.2031
 9137SOL    HW238871   0.155   3.335  12.900  0.2963  0.3032  0.0804
 9138SOL     OW38872   2.017   3.127  14.677  0.0289  0.4351  0.1130
 9138SOL    HW138873   2.073   3.053  14.656  2.8647  2.8724 -0.9198
 9138SOL    HW238874   2.012   3.120  14.772 -1.5302 -1.2587 -0.0917
 9139SOL     OW38875   0.659   4.665   0.837 -0.1281  0.3900 -0.0348
 9139SOL    HW138876   0.649   4.663   0.932  0.7889  0.6192  0.0642
 9139SOL    HW238877   0.700   4.581   0.815 -3.1069 -0.9379 -0.5062
 9140SOL     OW38878   2.094   2.622   6.881 -0.0933 -0.1906  0.1694
 9140SOL    HW138879   2.008   2.664   6.871  0.2343  0.9619  2.4614
 9140SOL    HW238880   2.126   2.667   6.958 -3.0682  0.3638  1.0879
 9141SOL     OW38881   4.396   2.989   8.387 -0.3642  0.1052 -0.0073
 9141SOL    HW138882   4.396   2.914   8.328 -0.4275 -0.3332  0.5464
 9141SOL    HW238883   4.305   2.990   8.417 -0.3037 -1.5851  0.2160
 9142SOL     OW38884   3.982   2.460   6.263 -0.1307 -0.3098  0.6543
 9142SOL    HW138885   4.004   2.374   6.225 -0.0310  0.2642 -0.5699
 9142SOL    HW238886   4.042   2.460   6.338 -0.3735  2.2524  0.8222
 9143SOL     OW38887   0.110   0.246   2.437  0.3342  0.3335 -0.1383
 9143SOL    HW138888   0.032   0.301   2.441  0.1590  0.0748  0.0071
 9143SOL    HW238889   0.173   0.313   2.409 -0.6487  0.8400 -1.1585
 9144SOL     OW38890   3.332   1.964   3.327 -0.1399  0.6323  0.0012
 9144SOL    HW138891   3.243   1.933   3.341 -0.1352  0.4285 -0.4341
 9144SOL    HW238892   3.326   2.032   3.395 -0.8814 -0.7359  1.3095
 9145SOL     OW38893   3.732   0.752  12.957 -0.1997 -0.0505 -0.4960
 9145SOL    HW138894   3.717   0.685  13.024  1.5428 -1.8490 -1.9082
 9145SOL    HW238895   3.670   0.814  12.996  1.1117  1.5071 -0.8708
 9146SOL     OW38896   2.761   2.947  12.645  0.9036 -0.4992 -0.3050
 9146SOL    HW138897   2.761   3.005  12.569 -0.6462 -2.6871 -1.9754
 9146SOL    HW238898   2.685   2.892  12.626  1.5744 -1.5894  0.1437
 9147SOL     OW38899   0.696   0.137   3.250  0.2599 -0.5182 -0.6207
 9147SOL    HW138900   0.765   0.197   3.221  0.1820 -0.3468 -0.4540
 9147SOL    HW238901   0.620   0.184   3.285  1.0773  0.5322 -0.2769
 9148SOL     OW38902   2.274   2.358   2.087  0.0989  0.0200  0.2655
 9148SOL    HW138903   2.274   2.374   1.993  1.5230 -1.0713  0.0803
 9148SOL    HW238904   2.193   2.309   2.100 -0.0561  0.6025  1.4558
 9149SOL     OW38905   4.636   3.732  15.574 -0.4589 -0.4257  0.6555
 9149SOL    HW138906   4.685   3.698  15.649  1.8789 -0.8146 -1.0352
 9149SOL    HW238907   4.650   3.827  15.574  0.3427 -0.5462 -1.1304
 9150SOL     OW38908   1.208   4.271  11.833  0.0687  0.0135 -0.7652
 9150SOL    HW138909   1.301   4.260  11.852 -0.4332 -0.3446  1.4700
 9150SOL    HW238910   1.182   4.342  11.890  0.0882 -0.6148  0.0241
 9151SOL     OW38911   1.791   4.325  15.837 -0.7631 -0.1658 -0.1150
 9151SOL    HW138912   1.797   4.411  15.794  1.3338 -0.6965 -0.8812
 9151SOL    HW238913   1.711   4.298  15.791 -0.2574 -2.7830  0.5732
 9152SOL     OW38914   1.974   1.337   4.776 -0.3250  0.3863 -0.8032
 9152SOL    HW138915   1.937   1.425   4.767  0.9101  1.1395  1.5645
 9152SOL    HW238916   1.953   1.335   4.870 -0.6165  0.4880 -0.8667
 9153SOL     OW38917   3.101   2.924   3.308  0.2993 -0.2169  0.1596
 9153SOL    HW138918   3.033   2.927   3.376 -0.3700  1.9086 -0.6046
 9153SOL    HW238919   3.163   2.863   3.348 -1.4215 -0.2956  2.7418
 9154SOL     OW38920   3.332   3.004   4.672 -0.3968  0.2295  0.0326
 9154SOL    HW138921   3.328   3.021   4.578  2.8209  3.6219  0.5067
 9154SOL    HW238922   3.246   3.039   4.694  0.3103  2.6492 -1.0120
 9155SOL     OW38923   4.647   4.425   3.353  0.3549 -0.0679  0.1292
 9155SOL    HW138924   4.613   4.354   3.300  1.4460 -0.1466 -0.4719
 9155SOL    HW238925   4.711   4.455   3.288 -1.0957 -2.3422 -2.3120
 9156SOL     OW38926   0.612   2.739   9.692  0.5047 -0.1608 -0.6110
 9156SOL    HW138927   0.623   2.645   9.706 -1.8808 -0.1235  1.4731
 9156SOL    HW238928   0.670   2.754   9.617 -0.0193 -1.0109 -1.1825
 9157SOL     OW38929   0.897   0.343   5.556  0.0376  0.3377  0.5219
 9157SOL    HW138930   0.827   0.323   5.619 -1.0752 -1.3186 -1.2277
 9157SOL    HW238931   0.867   0.302   5.475  1.1805  0.7878 -0.1250
 9158SOL     OW38932   3.171   2.803  17.433 -0.8092 -0.2387 -0.1221
 9158SOL    HW138933   3.227   2.726  17.418  0.1886  0.6847 -1.0852
 9158SOL    HW238934   3.201   2.860  17.363  2.0133 -1.5365  0.0200
 9159SOL     OW38935   2.671   3.873   0.478 -0.5484 -0.3728  0.2931
 9159SOL    HW138936   2.658   3.947   0.538  0.2033  0.6605 -0.8385
 9159SOL    HW238937   2.688   3.914   0.394  1.9974  1.8893  1.9292
 9160SOL     OW38938   2.381   3.494   1.375 -0.6330 -0.0499  0.7457
 9160SOL    HW138939   2.367   3.411   1.330  2.1819  0.9467 -1.9188
 9160SOL    HW238940   2.366   3.551   1.300 -1.7491 -2.5477 -0.9089
 9161SOL     OW38941   3.466   3.621   3.583 -0.0980 -0.3448 -0.0203
 9161SOL    HW138942   3.405   3.547   3.590  0.6714 -0.9654  0.1226
 9161SOL    HW238943   3.424   3.649   3.502 -0.7599 -1.9738 -0.2433
 9162SOL     OW38944   3.214   1.277   3.581 -0.0075  0.0804  0.3105
 9162SOL    HW138945   3.129   1.313   3.555  0.6646  0.5823 -1.2313
 9162SOL    HW238946   3.188   1.205   3.637 -1.2105  0.9142  0.8436
 9163SOL     OW38947   3.956   0.865   4.663 -0.3364  0.3157  0.3736
 9163SOL    HW138948   4.026   0.929   4.662  0.5586 -0.6516  0.5196
 9163SOL    HW238949   4.005   0.788   4.692 -0.7705 -0.3520 -0.6284
 9164SOL     OW38950   3.248   0.940   9.258 -0.7353  0.7205  0.3041
 9164SOL    HW138951   3.330   0.890   9.254 -1.1634  0.2821 -3.1171
 9164SOL    HW238952   3.206   0.900   9.333  1.5756 -0.0990  1.1723
 9165SOL     OW38953   4.607   0.386   4.520 -0.4827 -0.1031 -0.0642
 9165SOL    HW138954   4.657   0.373   4.600 -1.0211  0.5291  0.3783
 9165SOL    HW238955   4.537   0.438   4.559  0.5617  1.4984 -0.3499
 9166SOL     OW38956   3.388   4.068   4.328 -0.5135  0.4748 -0.0895
 9166SOL    HW138957   3.428   3.981   4.328 -1.3546  0.0830  0.7746
 9166SOL    HW238958   3.303   4.051   4.367  0.8646 -1.7306  1.9194
 9167SOL     OW38959   2.769   3.491   7.278  0.1394  0.4998 -0.3583
 9167SOL    HW138960   2.846   3.515   7.227 -0.7464  1.8660 -1.0455
 9167SOL    HW238961   2.801   3.527   7.361  0.4589 -0.9485  0.1604
 9168SOL     OW38962   3.425   1.852   1.165 -0.4294  0.1120  0.3933
 9168SOL    HW138963   3.520   1.858   1.153 -0.3498 -0.3222  0.8294
 9168SOL    HW238964   3.403   1.761   1.148 -1.2243  0.5961 -1.2214
 9169SOL     OW38965   3.091   3.476   9.363  0.2709 -0.3863  0.3103
 9169SOL    HW138966   3.143   3.415   9.415 -2.7348 -1.1323  2.4461
 9169SOL    HW238967   3.163   3.524   9.321  2.4756 -2.7964  1.3124
 9170SOL     OW38968   0.943   0.856  17.125  0.3588  0.1234 -0.0176
 9170SOL    HW138969   0.973   0.832  17.037  0.4595 -1.1604  0.3641
 9170SOL    HW238970   0.883   0.783  17.144 -3.3864  2.7060 -1.8264
 9171SOL     OW38971   2.793   4.198   2.704  0.0832  0.7778  0.3799
 9171SOL    HW138972   2.798   4.223   2.612 -2.9881 -0.8045 -0.2167
 9171SOL    HW238973   2.856   4.127   2.711 -1.3137 -0.5531 -0.6273
 9172SOL     OW38974   2.150   2.222   4.913  0.1831 -0.5971  0.3210
 9172SOL    HW138975   2.212   2.285   4.949  1.1898 -1.0910 -0.5560
 9172SOL    HW238976   2.197   2.182   4.840  1.2539 -0.5932  1.0129
 9173SOL     OW38977   3.368   2.217  10.448 -0.3249  0.0840  0.3717
 9173SOL    HW138978   3.434   2.152  10.423 -1.6989 -1.7251  1.4596
 9173SOL    HW238979   3.328   2.250  10.368  4.1403  0.8666 -1.5137
 9174SOL     OW38980   3.987   2.621   3.030  0.0356 -0.3799  0.1357
 9174SOL    HW138981   3.938   2.574   2.963  1.4260 -1.9846  0.2424
 9174SOL    HW238982   4.050   2.662   2.972 -0.1758  1.6954  1.3833
 9175SOL     OW38983   2.956   0.077  12.363  0.0896 -0.0075 -0.4020
 9175SOL    HW138984   2.958   0.100  12.456 -0.6538  2.3142 -0.9552
 9175SOL    HW238985   2.995   0.156  12.325  1.5347 -1.7917 -2.6444
 9176SOL     OW38986   4.366   1.058   2.592  0.1141  0.6539 -0.2277
 9176SOL    HW138987   4.442   1.029   2.541 -1.0987 -0.9404 -1.1300
 9176SOL    HW238988   4.410   1.131   2.635  0.6573  0.6691 -0.8035
 9177SOL     OW38989   2.423   3.200  12.609  0.7028  0.5388 -0.0487
 9177SOL    HW138990   2.435   3.293  12.593  1.9625  0.3788 -0.0632
 9177SOL    HW238991   2.483   3.185  12.683  1.1107  1.3049 -0.2268
 9178SOL     OW38992   4.134   1.890   8.347 -0.3492  0.1809 -0.5169
 9178SOL    HW138993   4.115   1.851   8.432  2.3195 -1.5877 -0.7386
 9178SOL    HW238994   4.227   1.909   8.363 -0.6220  1.5223 -0.4945
 9179SOL     OW38995   3.427   3.460  15.536 -0.3541  1.1263  0.5118
 9179SOL    HW138996   3.342   3.503  15.528 -1.8949 -2.0258 -0.1874
 9179SOL    HW238997   3.458   3.497  15.618 -1.0085  1.1515  0.7473
 9180SOL     OW38998   0.976   1.088   3.729  0.1687 -0.0199  0.0538
 9180SOL    HW138999   0.913   1.034   3.776  0.1753  0.7542  0.9518
 9180SOL    HW239000   1.062   1.052   3.751  0.7103 -0.3864 -2.7292
 9181SOL     OW39001   0.576   3.252   0.708 -0.1936  0.2812 -0.3163
 9181SOL    HW139002   0.482   3.262   0.725 -0.0154  1.0632  0.2115
 9181SOL    HW239003   0.592   3.202   0.788  1.9852  0.7487 -0.4812
 9182SOL     OW39004   0.885   0.360   3.568  0.4009  0.4642 -0.2478
 9182SOL    HW139005   0.949   0.353   3.497 -1.2026  1.3953 -1.7782
 9182SOL    HW239006   0.885   0.269   3.595  0.7757  0.7757  0.7910
 9183SOL     OW39007   1.284   2.261   9.649 -0.7501 -0.2002 -0.0126
 9183SOL    HW139008   1.269   2.168   9.632 -2.8875  0.1808 -0.2447
 9183SOL    HW239009   1.298   2.256   9.744 -3.9531  1.0365  0.5169
 9184SOL     OW39010   0.943   2.476   2.662 -0.3242  0.3353 -0.2839
 9184SOL    HW139011   0.886   2.538   2.616 -0.1439  0.1571 -0.7436
 9184SOL    HW239012   1.030   2.503   2.633 -0.3999  1.3244  0.3988
 9185SOL     OW39013   2.957   4.434  12.198 -0.2292 -0.3631 -0.2156
 9185SOL    HW139014   2.981   4.366  12.261 -1.1963 -2.1047 -1.7415
 9185SOL    HW239015   2.863   4.440  12.211 -0.3557  0.5757 -1.5283
 9186SOL     OW39016   3.353   1.584  16.199 -0.1894 -0.0314  0.2633
 9186SOL    HW139017   3.321   1.538  16.277 -0.0515  1.8167  1.4265
 9186SOL    HW239018   3.308   1.534  16.131 -1.2321  1.8327 -0.4369
 9187SOL     OW39019   3.724   3.672   6.732 -0.0361  0.0228 -0.8503
 9187SOL    HW139020   3.684   3.586   6.742  0.5213 -0.0239  1.0671
 9187SOL    HW239021   3.696   3.691   6.642 -0.8664  0.5576 -0.4782
 9188SOL     OW39022   3.242   0.217   8.477 -0.0099 -0.1795 -0.0486
 9188SOL    HW139023   3.274   0.306   8.489 -1.2452  0.0282  1.7011
 9188SOL    HW239024   3.192   0.220   8.395 -0.9083 -1.0358  0.4669
 9189SOL     OW39025   2.883   4.372   7.753  0.3386 -0.4473 -0.5939
 9189SOL    HW139026   2.802   4.371   7.704 -1.1385  2.5828  1.7540
 9189SOL    HW239027   2.946   4.376   7.681  0.3810 -1.9390 -0.6485
 9190SOL     OW39028   0.399   1.561   4.352 -0.3406  0.1436  0.0825
 9190SOL    HW139029   0.398   1.504   4.275 -0.2471 -0.2880  0.3994
 9190SOL    HW239030   0.398   1.648   4.311 -0.0961  0.3186  0.4489
 9191SOL     OW39031   0.966   4.099   6.851  0.4600 -0.1632  0.5860
 9191SOL    HW139032   0.932   4.033   6.790 -2.2516  3.2787 -1.5855
 9191SOL    HW239033   0.949   4.058   6.936 -3.6308 -2.1175 -1.1790
 9192SOL     OW39034   3.687   3.644   7.382  0.0775 -0.3951  0.2060
 9192SOL    HW139035   3.601   3.682   7.401  0.3878  0.5720 -0.3160
 9192SOL    HW239036   3.660   3.598   7.303  0.0116  2.3393 -1.3891
 9193SOL     OW39037   0.186   0.254   1.940  0.6136  0.1659  0.1629
 9193SOL    HW139038   0.150   0.186   1.882 -1.8317  1.0272  0.7014
 9193SOL    HW239039   0.269   0.278   1.898  0.7427 -1.2809 -0.4430
 9194SOL     OW39040   0.060   1.048   5.648 -0.0903 -0.4809 -0.0442
 9194SOL    HW139041   0.055   1.064   5.742 -0.0877  1.9751 -0.4790
 9194SOL    HW239042   0.010   0.966   5.644 -1.7786  0.6761 -2.2376
 9195SOL     OW39043   0.735   2.515  12.808  0.2432 -0.0770 -0.0184
 9195SOL    HW139044   0.749   2.422  12.826 -2.1330 -0.1871  1.3175
 9195SOL    HW239045   0.648   2.503  12.769  1.4075 -3.0978 -1.7194
 9196SOL     OW39046   1.591   2.864  14.126 -0.3701 -0.3164 -0.4553
 9196SOL    HW139047   1.504   2.903  14.127 -0.1656  0.1406  0.2414
 9196SOL    HW239048   1.583   2.769  14.134 -0.2310 -0.3580 -0.8272
 9197SOL     OW39049   4.345   2.702   7.909  0.1334  0.2133  0.6412
 9197SOL    HW139050   4.333   2.789   7.871  0.8480  1.0460  2.3612
 9197SOL    HW239051   4.284   2.654   7.852 -0.8634 -0.2521  2.1071
 9198SOL     OW39052   0.164   1.102   4.670  0.1392 -0.2015  0.0174
 9198SOL    HW139053   0.091   1.051   4.635  1.3855 -2.4150  0.6736
 9198SOL    HW239054   0.175   1.181   4.617  1.0683  0.5907  1.3895
 9199SOL     OW39055   3.428   2.434   9.816 -0.3294 -0.4195  0.0893
 9199SOL    HW139056   3.434   2.504   9.881  1.5780 -1.9658  1.5775
 9199SOL    HW239057   3.339   2.433   9.779 -0.1824 -2.1045 -0.2470
 9200SOL     OW39058   1.661   0.136   6.710  0.2441  1.0465 -0.3734
 9200SOL    HW139059   1.597   0.197   6.675 -0.8015 -0.5670 -1.2943
 9200SOL    HW239060   1.664   0.175   6.797 -1.5094  0.0871  0.1067
 9201SOL     OW39061   4.588   2.141   8.132  0.1320  0.3589  0.3009
 9201SOL    HW139062   4.596   2.199   8.057 -1.5713 -0.7359 -0.7070
 9201SOL    HW239063   4.494   2.128   8.139  0.0600  1.1710  0.8333
 9202SOL     OW39064   1.034   1.106   0.812 -0.1114 -0.7179  0.4758
 9202SOL    HW139065   0.948   1.077   0.780 -0.2083  0.8653 -0.6960
 9202SOL    HW239066   1.018   1.198   0.829 -0.7734 -1.3559  3.2514
 9203SOL     OW39067   0.683   0.507   3.986 -0.5228  0.4224 -0.0555
 9203SOL    HW139068   0.726   0.421   3.983 -1.0827  0.1830 -1.1890
 9203SOL    HW239069   0.680   0.535   3.895 -0.9520  0.6364  0.0245
 9204SOL     OW39070   0.049   1.391   7.808  0.1808 -0.5169  0.6892
 9204SOL    HW139071   0.094   1.399   7.724 -0.1219  2.6257  0.8455
 9204SOL    HW239072   4.695   1.439   7.802  0.4153  0.0027  1.6953
 9205SOL     OW39073   2.409   0.411   8.317 -0.0477  0.0398  0.0041
 9205SOL    HW139074   2.420   0.503   8.293  2.3639 -0.4384 -0.7716
 9205SOL    HW239075   2.315   0.394   8.310 -0.2140  1.2027 -0.5000
 9206SOL     OW39076   3.571   3.657   5.187 -0.4820  0.2845  0.0139
 9206SOL    HW139077   3.599   3.662   5.278  0.9879 -2.5381 -0.2685
 9206SOL    HW239078   3.483   3.687   5.208 -0.1410 -0.6622  2.8816
 9207SOL     OW39079   4.631   0.636   9.394 -0.0497 -0.3590 -0.1166
 9207SOL    HW139080   4.553   0.601   9.435 -0.9103  1.2972 -0.3247
 9207SOL    HW239081   4.693   0.565   9.409  0.1231  0.1408  1.5659
 9208SOL     OW39082   0.558   0.650  10.861  0.5089 -0.0059 -0.7230
 9208SOL    HW139083   0.474   0.668  10.903  1.3960 -0.0095  1.0718
 9208SOL    HW239084   0.570   0.555  10.855 -0.2337 -0.0757 -0.9814
 9209SOL     OW39085   2.660   4.611  12.096  0.1068 -0.6937 -0.1301
 9209SOL    HW139086   2.704   4.615  12.011  0.3038 -1.0091 -0.0404
 9209SOL    HW239087   2.657   4.705  12.115 -0.5957 -0.7122 -0.1775
 9210SOL     OW39088   1.974   1.260   7.252  0.1679 -0.1636 -0.1924
 9210SOL    HW139089   2.050   1.241   7.197 -0.6964 -3.3667 -0.2831
 9210SOL    HW239090   2.012   1.255   7.340  3.8951  1.7919 -1.6518
 9211SOL     OW39091   1.423   1.821   3.663 -0.0583  0.0158 -0.1628
 9211SOL    HW139092   1.385   1.811   3.576  2.1069 -0.8255 -1.0086
 9211SOL    HW239093   1.461   1.733   3.660 -0.8087 -0.2790 -0.8860
 9212SOL     OW39094   3.049   2.995   0.761 -0.4100  0.1530 -0.3077
 9212SOL    HW139095   2.992   3.018   0.687  0.8382 -0.3154 -1.4057
 9212SOL    HW239096   3.015   3.053   0.828  2.1455  0.7166  0.4934
 9213SOL     OW39097   0.985   4.370  12.592 -0.2945 -0.4024 -0.1898
 9213SOL    HW139098   0.968   4.463  12.576  1.3254 -0.2191 -0.8361
 9213SOL    HW239099   0.912   4.326  12.550 -0.7870 -0.6940  0.9860
 9214SOL     OW39100   0.663   1.432   9.186 -0.0493 -0.0846 -0.0843
 9214SOL    HW139101   0.663   1.518   9.144  1.6612  0.3069  0.6953
 9214SOL    HW239102   0.591   1.452   9.245 -2.0083  0.2008 -2.5720
 9215SOL     OW39103   1.991   4.663   3.889  0.7224  0.3661 -0.6834
 9215SOL    HW139104   1.906   4.637   3.922  1.3351 -2.0253 -1.0002
 9215SOL    HW239105   2.051   4.663   3.964  1.4545 -2.5802 -1.2790
 9216SOL     OW39106   4.417   3.275   6.488 -0.2918 -0.0490  0.2205
 9216SOL    HW139107   4.510   3.265   6.511  0.0174  0.5747 -0.7746
 9216SOL    HW239108   4.382   3.290   6.575  1.1415 -1.6551  1.0827
 9217SOL     OW39109   2.815   1.502   0.580  0.2217 -0.4279 -0.5880
 9217SOL    HW139110   2.876   1.453   0.635 -0.3489  0.5000  0.8685
 9217SOL    HW239111   2.815   1.595   0.602  1.0529 -0.0600 -2.1752
 9218SOL     OW39112   4.295   1.278   0.203  0.1039 -0.2277 -0.2156
 9218SOL    HW139113   4.339   1.237   0.278  1.2988  0.5088 -0.5202
 9218SOL    HW239114   4.300   1.209   0.136  0.0603 -1.1106  0.6751
 9219SOL     OW39115   0.393   3.863   0.734  0.2756 -0.0597  0.1484
 9219SOL    HW139116   0.441   3.781   0.746 -0.6542 -0.6953 -0.5073
 9219SOL    HW239117   0.452   3.911   0.676  0.1024  0.2430  0.2227
 9220SOL     OW39118   1.263   2.635  10.773  0.1616  0.6849 -0.5123
 9220SOL    HW139119   1.359   2.642  10.767  0.3648 -3.4623 -2.0938
 9220SOL    HW239120   1.244   2.615  10.682  1.1566 -1.3781 -0.2782
 9221SOL     OW39121   4.054   0.534  15.470 -0.1187 -1.0410 -0.1318
 9221SOL    HW139122   3.965   0.505  15.491  0.3746 -0.7021  2.5453
 9221SOL    HW239123   4.039   0.625  15.448  2.8853 -0.7952 -1.1897
 9222SOL     OW39124   3.098   3.895   4.913 -0.0662 -0.1713 -0.2502
 9222SOL    HW139125   3.187   3.931   4.915 -0.2145  0.2685 -1.2003
 9222SOL    HW239126   3.056   3.930   4.834  0.0926  1.8569  0.5684
 9223SOL     OW39127   3.911   0.923  17.052 -0.1789 -0.4181  0.4023
 9223SOL    HW139128   3.895   0.985  17.123 -1.1813  0.5471 -0.6569
 9223SOL    HW239129   3.976   0.860  17.083 -0.6894 -0.3651  1.5882
 9224SOL     OW39130   2.955   3.971   2.651  0.2206 -0.5988  0.2745
 9224SOL    HW139131   3.009   4.036   2.605 -0.1035  0.9844  2.1139
 9224SOL    HW239132   2.920   3.922   2.577 -1.4117  0.3961  0.3943
 9225SOL     OW39133   4.230   0.182   8.562  0.2501  0.0463  0.0613
 9225SOL    HW139134   4.188   0.254   8.609 -1.4821  0.5374 -2.2104
 9225SOL    HW239135   4.262   0.232   8.488 -2.6396  0.8918 -0.6098
 9226SOL     OW39136   4.190   4.495   6.453 -0.4117  0.1058 -0.0669
 9226SOL    HW139137   4.201   4.589   6.442  2.6716 -0.2880 -0.4731
 9226SOL    HW239138   4.137   4.464   6.380  0.4174 -0.3194 -0.4938
 9227SOL     OW39139   3.606   1.400   5.099 -0.8284  0.2127  0.5475
 9227SOL    HW139140   3.562   1.458   5.161 -1.3986 -0.0207  0.3687
 9227SOL    HW239141   3.685   1.367   5.141 -1.4896 -0.2865  1.4097
 9228SOL     OW39142   2.612   0.669   8.831  0.2264  0.0880  0.4402
 9228SOL    HW139143   2.593   0.669   8.924 -1.4843 -4.8679  0.1048
 9228SOL    HW239144   2.620   0.763   8.819 -2.1641  0.1004 -1.0890
 9229SOL     OW39145   0.682   2.008   4.653 -0.4935  0.2540  0.3566
 9229SOL    HW139146   0.747   2.019   4.583  1.2408 -2.1397  1.5952
 9229SOL    HW239147   0.735   2.014   4.732 -0.6678  1.6951  0.3640
 9230SOL     OW39148   4.622   0.039  12.440 -0.1032 -0.2723  0.0097
 9230SOL    HW139149   4.531   0.042  12.470 -0.5521  1.3800 -1.4556
 9230SOL    HW239150   4.642   4.673  12.449 -2.4309 -0.7323  0.2656
 9231SOL     OW39151   1.644   2.151   8.051 -0.1516 -0.2389 -0.2224
 9231SOL    HW139152   1.616   2.223   7.994 -0.2810 -2.1025 -2.5337
 9231SOL    HW239153   1.740   2.146   8.049 -0.0954  0.7555  0.2111
 9232SOL     OW39154   3.327   1.292   6.652 -0.6613  0.6643  0.0966
 9232SOL    HW139155   3.302   1.258   6.566  1.8206  1.2794 -0.8429
 9232SOL    HW239156   3.298   1.382   6.636  1.4934  1.1031 -1.3352
 9233SOL     OW39157   1.398   3.227  13.372 -0.1677 -0.2857  0.2243
 9233SOL    HW139158   1.389   3.243  13.278 -0.8968 -0.2899  0.2938
 9233SOL    HW239159   1.468   3.162  13.367  0.0988 -0.0378  0.7801
 9234SOL     OW39160   0.814   0.659   7.914  0.3935 -0.4093 -0.0305
 9234SOL    HW139161   0.908   0.644   7.910  0.4484 -1.0784  3.4851
 9234SOL    HW239162   0.797   0.693   8.002 -1.9428  2.0991 -1.4737
 9235SOL     OW39163   1.935   2.453  12.214  0.6362  0.0901 -0.3470
 9235SOL    HW139164   1.873   2.382  12.230  3.4607 -2.4866 -0.8162
 9235SOL    HW239165   1.879   2.524  12.246 -0.3213 -0.5676 -0.5661
 9236SOL     OW39166   2.099   0.326   7.961  1.0834 -0.0869  0.4500
 9236SOL    HW139167   2.090   0.421   7.971  0.2283 -0.0748 -0.4912
 9236SOL    HW239168   2.010   0.305   7.933  0.6291  0.9638  1.1246
 9237SOL     OW39169   2.350   3.040   3.937  0.0464 -0.7544  0.6554
 9237SOL    HW139170   2.350   3.026   3.842 -1.3698 -0.7557  0.6507
 9237SOL    HW239171   2.255   3.051   3.945  0.2941 -0.1219  2.6927
 9238SOL     OW39172   2.941   2.949   3.554 -0.5631 -0.0780  0.2279
 9238SOL    HW139173   2.937   2.877   3.617  1.2419  0.5957  1.1184
 9238SOL    HW239174   3.003   3.003   3.603 -1.2483  0.3736  0.6123
 9239SOL     OW39175   0.625   0.491   6.292  0.1030 -0.0977 -0.3287
 9239SOL    HW139176   0.708   0.539   6.292  1.1364 -1.9185  1.9764
 9239SOL    HW239177   0.607   0.499   6.385  1.9697 -2.8720  0.2786
 9240SOL     OW39178   2.847   2.746   8.594 -0.0068  0.3237  0.3319
 9240SOL    HW139179   2.770   2.697   8.564 -1.4686  2.5587  0.4314
 9240SOL    HW239180   2.808   2.829   8.621  0.6831  0.8088 -0.1583
 9241SOL     OW39181   1.439   0.463   6.125 -0.1627  0.0989 -0.1588
 9241SOL    HW139182   1.512   0.402   6.130  2.0640  2.7878  0.1692
 9241SOL    HW239183   1.434   0.482   6.219 -2.3998 -0.3252 -0.1931
 9242SOL     OW39184   4.404   1.570   8.924  0.3927 -0.1336 -0.1195
 9242SOL    HW139185   4.325   1.532   8.962  0.0472  0.8261  0.1251
 9242SOL    HW239186   4.380   1.662   8.913 -0.2189 -0.2778  0.0487
 9243SOL     OW39187   2.526   3.660   7.215 -0.1167  0.5604 -0.2097
 9243SOL    HW139188   2.600   3.687   7.269  0.9157  0.6022 -1.6385
 9243SOL    HW239189   2.572   3.634   7.135 -1.0797  2.1637 -1.2826
 9244SOL     OW39190   3.006   0.755   8.516 -0.1416 -0.2982 -0.3159
 9244SOL    HW139191   3.018   0.736   8.609 -0.1672  1.8460  0.1295
 9244SOL    HW239192   3.057   0.690   8.468 -0.3238 -0.7014  0.0401
 9245SOL     OW39193   0.485   4.035   5.460  0.0971 -0.1569  0.0762
 9245SOL    HW139194   0.482   4.126   5.490 -0.5063 -0.3548  0.5948
 9245SOL    HW239195   0.421   4.030   5.389 -1.1076 -2.3823  1.3549
 9246SOL     OW39196   4.072   0.437   8.902  0.5747  0.5415 -0.0456
 9246SOL    HW139197   4.144   0.486   8.943  1.0498  0.6511 -1.0316
 9246SOL    HW239198   4.006   0.463   8.968 -1.8229  0.2764 -2.3436
 9247SOL     OW39199   4.088   3.659   3.100 -0.2691 -0.8338 -0.1210
 9247SOL    HW139200   4.062   3.572   3.130 -3.7138 -0.6088 -2.4269
 9247SOL    HW239201   4.003   3.679   3.060 -0.3896  0.1326  0.5997
 9248SOL     OW39202   0.927   0.722  16.679 -0.3386  0.4298  0.5820
 9248SOL    HW139203   0.987   0.768  16.621 -0.7368 -0.4973 -0.5523
 9248SOL    HW239204   0.847   0.733  16.628 -0.0070 -2.5552 -0.6016
 9249SOL     OW39205   1.060   2.226  15.080  0.0471  0.0300 -0.3950
 9249SOL    HW139206   0.972   2.225  15.044  0.3425 -1.3622 -1.0878
 9249SOL    HW239207   1.066   2.295  15.146  0.0662 -0.9776  0.6769
 9250SOL     OW39208   2.369   1.660  15.422 -0.2092 -0.0954 -0.4316
 9250SOL    HW139209   2.292   1.606  15.404  0.0761 -0.3619 -0.8625
 9250SOL    HW239210   2.393   1.680  15.332  0.4613 -1.7902 -0.6291
 9251SOL     OW39211   0.111   3.057  11.670 -0.3583  0.3896  0.1061
 9251SOL    HW139212   0.051   3.008  11.614 -1.3610  0.7408  0.8821
 9251SOL    HW239213   0.062   3.048  11.752  0.6029 -2.8356  0.3174
 9252SOL     OW39214   1.219   4.548  13.030 -0.0241  0.6390 -0.0254
 9252SOL    HW139215   1.254   4.604  12.961  2.6790  0.3374  1.1259
 9252SOL    HW239216   1.185   4.613  13.092  0.4074 -0.7858  1.6958
 9253SOL     OW39217   4.138   3.546   6.466 -0.5806 -0.6201  0.1923
 9253SOL    HW139218   4.098   3.586   6.388 -1.0708  0.2402  0.8882
 9253SOL    HW239219   4.058   3.520   6.512 -0.5024 -1.7024 -0.2673
 9254SOL     OW39220   0.176   3.465   1.278  0.1794  0.1154  0.0321
 9254SOL    HW139221   0.086   3.433   1.267  1.2623 -2.9177 -0.0831
 9254SOL    HW239222   0.168   3.545   1.227  1.4623  0.4839  0.4382
 9255SOL     OW39223   0.365   0.308  13.443  0.0188 -0.0612 -0.0673
 9255SOL    HW139224   0.438   0.363  13.414  0.7025  0.5210  2.8033
 9255SOL    HW239225   0.365   0.322  13.537 -1.5687 -0.9439  0.0683
 9256SOL     OW39226   0.706   2.382  11.611 -0.1388 -0.3674  0.4570
 9256SOL    HW139227   0.782   2.341  11.572  0.6897  0.9325  0.6949
 9256SOL    HW239228   0.684   2.452  11.549 -1.1800 -1.3810 -0.3117
 9257SOL     OW39229   3.572   2.555   8.950  0.2883 -0.0880 -0.0622
 9257SOL    HW139230   3.624   2.615   9.003 -2.3169  1.1304  1.1603
 9257SOL    HW239231   3.556   2.596   8.865  1.3505  1.5332  0.5306
 9258SOL     OW39232   0.051   3.489   1.580  0.3286  0.0736 -0.0371
 9258SOL    HW139233   0.040   3.512   1.487  2.3905  2.4799  0.3362
 9258SOL    HW239234   0.145   3.502   1.591  0.2782 -0.6498  1.2045
 9259SOL     OW39235   1.934   1.530   3.823 -0.3314 -0.6157 -0.2805
 9259SOL    HW139236   1.932   1.620   3.790  1.0968 -0.6611 -0.5033
 9259SOL    HW239237   1.887   1.550   3.905  0.8702 -2.7633  0.9338
 9260SOL     OW39238   0.338   0.567   9.664  0.2728 -0.0429 -0.6062
 9260SOL    HW139239   0.334   0.487   9.715  0.2029 -0.5057 -1.3347
 9260SOL    HW239240   0.381   0.624   9.728 -2.9815  1.3966  0.3217
 9261SOL     OW39241   2.212   1.165   2.196  0.1326 -0.0340 -0.2930
 9261SOL    HW139242   2.167   1.197   2.118  1.6219  0.6056 -0.8790
 9261SOL    HW239243   2.289   1.222   2.193  0.0220  0.1496  0.4739
 9262SOL     OW39244   2.040   2.008   4.569  0.1530 -0.3392  0.4521
 9262SOL    HW139245   2.109   1.946   4.588  0.5712  0.0106  0.0924
 9262SOL    HW239246   1.989   1.962   4.501  1.2775 -0.8835 -0.0166
 9263SOL     OW39247   4.456   0.257   3.238  0.3431 -0.6817 -0.0832
 9263SOL    HW139248   4.522   0.259   3.168 -0.5284 -0.8077 -0.9070
 9263SOL    HW239249   4.392   0.323   3.210 -1.8406 -2.5772  0.4848
 9264SOL     OW39250   3.434   3.178   3.643  0.0295  0.4085 -0.5227
 9264SOL    HW139251   3.506   3.116   3.651 -1.1178 -0.9700 -0.9480
 9264SOL    HW239252   3.461   3.239   3.574 -0.0521  1.8239  0.6849
 9265SOL     OW39253   4.236   2.426   5.364  0.0626 -0.2268  0.0309
 9265SOL    HW139254   4.304   2.452   5.426 -0.1411  0.8603 -0.1916
 9265SOL    HW239255   4.247   2.501   5.305 -1.9988  1.6019  1.9475
 9266SOL     OW39256   3.629   1.984   1.472 -0.0816  0.1445 -0.1986
 9266SOL    HW139257   3.613   2.028   1.555 -2.1023 -1.5667  0.3393
 9266SOL    HW239258   3.539   1.969   1.442 -0.5032 -3.0863  2.5922
 9267SOL     OW39259   3.063   2.863   3.900  0.2061  0.3091  0.7316
 9267SOL    HW139260   3.097   2.950   3.919  2.9424 -0.4677 -0.6208
 9267SOL    HW239261   2.981   2.876   3.947  1.1645 -0.1727  2.5159
 9268SOL     OW39262   2.074   0.846   2.872  0.1930 -0.0294  0.4110
 9268SOL    HW139263   2.028   0.927   2.852 -2.4006 -1.5890  0.0581
 9268SOL    HW239264   2.024   0.817   2.948  1.3829 -4.2650 -0.4065
 9269SOL     OW39265   4.167   2.058  12.224  0.3113 -0.4649  0.5746
 9269SOL    HW139266   4.109   2.134  12.228 -0.1874 -0.7691 -0.9224
 9269SOL    HW239267   4.238   2.079  12.285 -1.1795  2.4259  1.3101
 9270SOL     OW39268   2.735   0.640   2.583  0.4600 -0.3717 -0.0162
 9270SOL    HW139269   2.657   0.663   2.633  1.9387 -0.5749  2.3455
 9270SOL    HW239270   2.750   0.716   2.528 -2.9337  0.3273 -0.0201
 9271SOL     OW39271   0.293   4.032  15.984 -0.2379  0.1109  0.4989
 9271SOL    HW139272   0.329   4.099  16.043 -0.6946 -0.0839  1.0024
 9271SOL    HW239273   0.376   3.988  15.962  0.9410  2.0537  1.0415
 9272SOL     OW39274   0.177   3.532  15.692 -0.4214 -0.0262 -0.1190
 9272SOL    HW139275   0.250   3.475  15.669 -2.0794 -1.0374 -2.9835
 9272SOL    HW239276   0.214   3.619  15.681  0.7574 -0.4241  0.7311
 9273SOL     OW39277   1.426   0.688   5.226  0.1694 -0.4456  0.2010
 9273SOL    HW139278   1.359   0.673   5.293  0.1948 -0.0560  0.3121
 9273SOL    HW239279   1.382   0.639   5.155 -1.1040 -1.8275  1.9432
 9274SOL     OW39280   2.544   1.632   6.651 -1.0543 -0.9169 -0.2258
 9274SOL    HW139281   2.460   1.675   6.634 -0.7878 -0.3152  0.0146
 9274SOL    HW239282   2.524   1.580   6.729 -1.6813  1.7659  1.3834
 9275SOL     OW39283   3.200   2.276  12.783 -0.0384  0.0099  0.1991
 9275SOL    HW139284   3.231   2.273  12.874  0.3803 -0.7371  0.0410
 9275SOL    HW239285   3.136   2.346  12.779  1.1126  1.1101  1.1453
 9276SOL     OW39286   2.916   4.005   8.912  0.4782 -0.3515 -0.3392
 9276SOL    HW139287   2.896   3.916   8.941  0.2498 -0.0905  0.2893
 9276SOL    HW239288   3.011   3.998   8.903  0.4036  0.0468 -1.4639
 9277SOL     OW39289   1.237   3.899   4.636  0.8638 -0.0982 -0.5710
 9277SOL    HW139290   1.289   3.970   4.598  0.9095  0.8128  1.1864
 9277SOL    HW239291   1.159   3.905   4.582  2.2994  0.4946 -2.6046
 9278SOL     OW39292   1.493   3.607  11.767 -0.0460  0.2750  0.1024
 9278SOL    HW139293   1.566   3.665  11.786 -0.2233  0.4977  0.1078
 9278SOL    HW239294   1.457   3.637  11.683  1.4515  0.1404 -0.5813
 9279SOL     OW39295   4.211   4.421   0.937  0.3282  0.9274  0.0308
 9279SOL    HW139296   4.209   4.345   0.995  1.1917  1.1093  0.2980
 9279SOL    HW239297   4.119   4.413   0.911  1.0965 -0.7790 -2.1277
 9280SOL     OW39298   3.052   4.647   4.192  0.2400  0.3775 -0.2072
 9280SOL    HW139299   3.019   4.704   4.123 -2.9222 -0.7311  0.4135
 9280SOL    HW239300   3.130   4.602   4.158  0.2067 -0.5829  1.0120
 9281SOL     OW39301   1.697   2.946  15.644  0.0194 -0.0558  0.3804
 9281SOL    HW139302   1.721   3.034  15.614 -2.0673  0.0535 -1.0226
 9281SOL    HW239303   1.712   2.949  15.739  2.7917  0.2443 -0.0697
 9282SOL     OW39304   0.229   1.838   3.293 -0.0345 -0.2935 -0.5088
 9282SOL    HW139305   0.245   1.860   3.385 -0.0836  1.3833 -0.9084
 9282SOL    HW239306   0.306   1.785   3.273  1.2850  0.6923  1.8788
 9283SOL     OW39307   1.949   0.383   7.603 -0.0303 -0.1999 -0.4525
 9283SOL    HW139308   1.928   0.347   7.516  1.0661  1.3408 -1.3639
 9283SOL    HW239309   1.935   0.302   7.652 -1.1471  1.3020  1.7132
 9284SOL     OW39310   2.972   3.356  14.163 -0.4084 -0.0728 -0.0653
 9284SOL    HW139311   3.027   3.301  14.218 -0.7685  0.5027  0.8703
 9284SOL    HW239312   3.035   3.425  14.141 -0.6197  0.5574  1.2754
 9285SOL     OW39313   3.410   2.428   4.447 -0.3227 -0.2814  0.4312
 9285SOL    HW139314   3.326   2.424   4.403  0.7245 -2.4679 -1.3760
 9285SOL    HW239315   3.455   2.484   4.383 -0.8284 -2.0672 -1.5027
 9286SOL     OW39316   2.228   3.847   0.406  0.3870  0.8232 -0.1888
 9286SOL    HW139317   2.151   3.794   0.424  0.5054  1.2153  1.4686
 9286SOL    HW239318   2.215   3.875   0.315  1.7027 -1.3304 -1.0524
 9287SOL     OW39319   3.142   1.178  16.237 -0.0185  0.7507 -0.6453
 9287SOL    HW139320   3.127   1.116  16.166 -0.5478 -1.0243  0.9936
 9287SOL    HW239321   3.056   1.174  16.280 -0.5055  2.5820 -1.4649
 9288SOL     OW39322   3.656   4.496   6.832  0.9905 -0.1469 -0.0368
 9288SOL    HW139323   3.623   4.509   6.922  0.5085  2.3519 -0.5575
 9288SOL    HW239324   3.682   4.405   6.827 -1.8484 -0.7465 -3.4958
 9289SOL     OW39325   2.243   3.275   7.699 -0.0681 -0.0810 -0.1554
 9289SOL    HW139326   2.306   3.335   7.660  0.8064 -0.0073  1.3773
 9289SOL    HW239327   2.254   3.304   7.789 -0.0649 -0.2569 -0.1001
 9290SOL     OW39328   3.311   2.886   3.468 -0.1167  0.1701  0.0920
 9290SOL    HW139329   3.390   2.860   3.421 -0.0456 -2.7234  1.8435
 9290SOL    HW239330   3.287   2.964   3.417  0.1961 -0.5329 -1.1238
 9291SOL     OW39331   3.524   1.521  15.141  0.5264 -0.1543 -0.1908
 9291SOL    HW139332   3.433   1.519  15.113  0.5528  1.9717 -0.4236
 9291SOL    HW239333   3.536   1.427  15.156  0.2064  0.3217  3.1040
 9292SOL     OW39334   3.705   2.363   0.392 -0.4726  0.6164  0.2513
 9292SOL    HW139335   3.699   2.307   0.314  0.2690 -0.0660  0.6906
 9292SOL    HW239336   3.664   2.438   0.349  1.1239  1.0859 -0.4558
 9293SOL     OW39337   4.536   3.201  16.021  0.2276 -0.4556  0.0206
 9293SOL    HW139338   4.617   3.194  15.972 -0.2275 -0.7946 -0.6769
 9293SOL    HW239339   4.544   3.127  16.082  0.3234 -1.2236 -0.9379
 9294SOL     OW39340   2.527   4.677  10.801 -0.0705 -0.0721  0.0711
 9294SOL    HW139341   2.556   4.586  10.807 -0.9618 -0.3987 -0.6064
 9294SOL    HW239342   2.609   4.723  10.821 -0.7435  1.4508 -0.6482
 9295SOL     OW39343   3.173   2.767   2.872  0.1107 -0.1886  0.5374
 9295SOL    HW139344   3.098   2.742   2.927  0.5190  1.0726  1.6524
 9295SOL    HW239345   3.202   2.679   2.846  2.0461  0.4710  0.4875
 9296SOL     OW39346   1.117   0.629   8.440  0.5711 -0.2119  0.3694
 9296SOL    HW139347   1.195   0.683   8.454  1.9523 -1.7598 -1.3402
 9296SOL    HW239348   1.145   0.561   8.501 -1.6321 -1.1675  0.3129
 9297SOL     OW39349   0.050   0.566  12.256  0.2475  0.0210 -0.2480
 9297SOL    HW139350   4.707   0.611  12.304 -1.1143 -2.6899  0.2720
 9297SOL    HW239351   0.127   0.620  12.273  0.6547  0.1904 -2.6680
 9298SOL     OW39352   2.412   1.637   2.961  0.4082 -0.1081 -0.6076
 9298SOL    HW139353   2.366   1.684   3.030  1.2121 -0.6767  0.3222
 9298SOL    HW239354   2.500   1.627   2.998  1.0065  3.7502 -0.9702
 9299SOL     OW39355   3.556   4.154   2.190 -0.2140  0.0434  0.2819
 9299SOL    HW139356   3.497   4.122   2.257  0.8904 -0.4133  1.0285
 9299SOL    HW239357   3.493   4.184   2.124 -1.0293  0.3991  1.2268
 9300SOL     OW39358   3.480   2.028   2.056 -0.1043  0.0566 -0.4676
 9300SOL    HW139359   3.542   1.984   1.997  2.0259 -0.3906  2.1113
 9300SOL    HW239360   3.465   1.964   2.126  0.0415 -0.3833 -0.8344
 9301SOL     OW39361   3.256   2.440   6.454  0.3347 -0.0539 -0.2119
 9301SOL    HW139362   3.238   2.525   6.493 -0.8962 -1.5882  2.5355
 9301SOL    HW239363   3.329   2.456   6.395 -0.2072 -0.4569 -0.9927
 9302SOL     OW39364   2.829   0.766  16.634 -0.0117 -0.1378  0.1868
 9302SOL    HW139365   2.901   0.731  16.581 -0.2421 -1.3798  0.6744
 9302SOL    HW239366   2.762   0.718  16.585  1.2722 -0.2198 -1.5315
 9303SOL     OW39367   0.741   3.733   6.827 -0.1656 -0.4691  0.3973
 9303SOL    HW139368   0.775   3.813   6.788 -0.8113 -0.6996 -0.6462
 9303SOL    HW239369   0.700   3.769   6.905 -1.8296  0.0129 -0.6975
 9304SOL     OW39370   0.606   2.738  10.410 -0.0689 -0.0841 -0.4432
 9304SOL    HW139371   0.537   2.678  10.380 -0.1176 -0.3018  0.1107
 9304SOL    HW239372   0.671   2.722  10.341  0.0216 -0.6485 -0.2275
 9305SOL     OW39373   0.025   0.028   8.425  0.7170 -0.5773  0.3710
 9305SOL    HW139374   4.717   0.064   8.506 -1.0524 -1.8025  0.1454
 9305SOL    HW239375   0.097   4.698   8.451  0.8284 -1.3052 -1.5154
 9306SOL     OW39376   1.390   4.373  12.968  0.1995 -0.4593 -0.1216
 9306SOL    HW139377   1.345   4.299  12.928  0.4324 -1.3754  1.3006
 9306SOL    HW239378   1.323   4.430  13.007 -0.1221 -0.4037 -0.7682
 9307SOL     OW39379   4.090   1.259   3.305  0.3049 -0.1652  0.3568
 9307SOL    HW139380   4.176   1.264   3.263  0.3447  1.4971  0.6669
 9307SOL    HW239381   4.080   1.352   3.326 -1.4531 -0.2913  0.0129
 9308SOL     OW39382   4.468   2.301  14.447  0.4216  0.3599 -0.3809
 9308SOL    HW139383   4.490   2.382  14.400 -1.3436  1.3352  0.4795
 9308SOL    HW239384   4.376   2.317  14.468  0.2933 -3.3428  1.7847
 9309SOL     OW39385   3.214   2.490   7.470  0.1532  0.0594  0.1950
 9309SOL    HW139386   3.168   2.571   7.492 -1.4178 -1.0143  0.8011
 9309SOL    HW239387   3.156   2.459   7.401 -0.4617  4.2557 -1.2069
 9310SOL     OW39388   0.710   1.049   8.855 -0.3711  0.0210 -0.0017
 9310SOL    HW139389   0.723   0.955   8.870 -2.1374  0.0326  1.5505
 9310SOL    HW239390   0.785   1.065   8.797 -0.2212  1.4155  0.5996
 9311SOL     OW39391   0.606   2.728   4.972 -0.2925 -0.0072  0.0080
 9311SOL    HW139392   0.597   2.820   4.995 -1.1215 -0.7446  2.6255
 9311SOL    HW239393   0.586   2.728   4.878  0.7848  0.2264 -0.2139
 9312SOL     OW39394   2.801   4.064   0.991 -1.0103 -0.9363  0.1253
 9312SOL    HW139395   2.786   4.153   0.959  0.0342 -0.2727  1.4669
 9312SOL    HW239396   2.712   4.051   1.025 -1.0995  0.9463  0.6480
 9313SOL     OW39397   1.206   0.243   7.920  0.4974 -0.3590  0.4379
 9313SOL    HW139398   1.196   0.171   7.858 -2.3466 -3.0517  4.0214
 9313SOL    HW239399   1.143   0.309   7.890 -1.9734 -2.3813  1.2477
 9314SOL     OW39400   3.365   4.366   3.329 -0.4342 -0.1905  0.7069
 9314SOL    HW139401   3.444   4.315   3.346 -0.6768 -1.1071 -1.0117
 9314SOL    HW239402   3.365   4.419   3.409  0.6794  0.4172  0.2993
 9315SOL     OW39403   1.575   1.982  13.672 -0.1160 -0.2118  0.1865
 9315SOL    HW139404   1.660   1.984  13.716 -1.0322  0.1588  1.9542
 9315SOL    HW239405   1.549   2.050  13.735 -1.8220  0.6058 -1.4224
 9316SOL     OW39406   3.840   2.166   5.578  0.9038 -0.2990 -0.0759
 9316SOL    HW139407   3.885   2.246   5.552 -1.6806  1.2344  0.1867
 9316SOL    HW239408   3.750   2.197   5.573  0.8125 -0.1343  2.4343
 9317SOL     OW39409   0.720   0.795   9.216 -0.0059  0.0683 -1.1133
 9317SOL    HW139410   0.678   0.881   9.211  0.5927  0.3278 -1.6864
 9317SOL    HW239411   0.689   0.767   9.130 -1.7819 -0.2175 -0.3737
 9318SOL     OW39412   0.523   0.770   2.148 -0.1152  0.0934  0.1655
 9318SOL    HW139413   0.431   0.785   2.130 -0.1580 -1.0116 -0.5280
 9318SOL    HW239414   0.528   0.687   2.196 -0.0877  1.1511  1.9965
 9319SOL     OW39415   2.794   0.938   4.938  0.0149  0.3943  0.3541
 9319SOL    HW139416   2.843   0.958   4.858 -1.5683 -2.4340 -1.3391
 9319SOL    HW239417   2.820   0.847   4.953  1.0096  0.6101 -0.0275
 9320SOL     OW39418   3.728   2.738  13.226  0.1397  0.2210 -0.2877
 9320SOL    HW139419   3.731   2.713  13.134 -1.6745  2.6002 -0.9961
 9320SOL    HW239420   3.810   2.778  13.254  1.2285 -1.1508 -1.5359
 9321SOL     OW39421   2.298   4.415  10.890 -0.2797  0.1714  0.3796
 9321SOL    HW139422   2.326   4.438  10.978 -0.3711  2.1299 -0.1098
 9321SOL    HW239423   2.378   4.425  10.839 -0.8180  0.0047 -0.5193
 9322SOL     OW39424   3.673   2.682   1.902 -0.6280 -0.2088 -0.2885
 9322SOL    HW139425   3.736   2.722   1.842 -0.5758 -0.4925 -0.4211
 9322SOL    HW239426   3.706   2.592   1.898  0.0229 -0.1566  4.2623
 9323SOL     OW39427   3.995   1.268   6.025 -0.1888 -0.3097 -0.4012
 9323SOL    HW139428   4.012   1.215   6.103 -2.6233  0.2848  0.5043
 9323SOL    HW239429   3.949   1.345   6.057  1.4050 -0.2743  1.8155
 9324SOL     OW39430   1.904   4.335  13.198  0.6971 -0.6403  0.0855
 9324SOL    HW139431   1.943   4.414  13.159 -0.8302 -0.4321 -1.0410
 9324SOL    HW239432   1.820   4.338  13.152  0.1187  1.6054  1.3184
 9325SOL     OW39433   2.427   1.133   4.471  0.6008  0.1239 -0.4255
 9325SOL    HW139434   2.377   1.052   4.455  0.2782  0.3371 -0.4930
 9325SOL    HW239435   2.471   1.119   4.554 -0.6889  0.5307  0.3245
 9326SOL     OW39436   2.530   2.874   5.414  0.2047 -0.3834  0.3606
 9326SOL    HW139437   2.618   2.837   5.418 -0.2616 -1.3941  1.3299
 9326SOL    HW239438   2.547   2.958   5.456 -0.5644 -0.7850  1.4667
 9327SOL     OW39439   1.328   3.814   7.131 -0.3444 -0.0407  0.8189
 9327SOL    HW139440   1.292   3.741   7.181  0.6258 -2.9331 -2.7168
 9327SOL    HW239441   1.402   3.770   7.088 -0.6920 -0.3781  0.5677
 9328SOL     OW39442   1.576   0.729   9.083  0.1465  0.0596 -0.3084
 9328SOL    HW139443   1.611   0.799   9.138  1.6783 -0.8092 -0.1978
 9328SOL    HW239444   1.482   0.735   9.101 -0.0018 -1.1423 -0.6738
 9329SOL     OW39445   4.515   0.151   2.552  0.2836  0.7121  0.3951
 9329SOL    HW139446   4.543   0.222   2.494  0.2023  1.1164  0.8516
 9329SOL    HW239447   4.583   0.160   2.618 -0.4350 -0.7854  1.3319
 9330SOL     OW39448   3.435   1.848   3.741 -0.2334  0.1392  0.2590
 9330SOL    HW139449   3.345   1.839   3.710 -0.3249  1.4125  0.1467
 9330SOL    HW239450   3.452   1.942   3.744  0.9608  0.0061 -2.6443
 9331SOL     OW39451   3.609   0.993   0.747  0.1684  0.4058 -0.1417
 9331SOL    HW139452   3.666   1.065   0.720 -0.4096  0.4577 -1.2210
 9331SOL    HW239453   3.663   0.962   0.820  0.3766  3.6692  1.1047
 9332SOL     OW39454   0.796   2.605   4.709 -0.3162  0.1142 -0.1795
 9332SOL    HW139455   0.806   2.665   4.634 -0.7466  0.0330 -0.3005
 9332SOL    HW239456   0.704   2.581   4.713 -0.0530 -1.1455 -1.5346
 9333SOL     OW39457   1.546   2.800  11.496  0.4790 -0.1773 -0.2943
 9333SOL    HW139458   1.462   2.802  11.452 -0.7673 -0.4936  2.0648
 9333SOL    HW239459   1.551   2.894  11.510 -0.8188 -0.0479 -0.7853
 9334SOL     OW39460   2.621   1.220  15.507 -0.0121 -0.1556 -0.4581
 9334SOL    HW139461   2.617   1.286  15.437 -3.3620 -0.4687 -0.5341
 9334SOL    HW239462   2.532   1.225  15.541  0.3943 -1.8838  0.8442
 9335SOL     OW39463   3.152   1.902   3.533  0.0590 -0.3129 -0.9686
 9335SOL    HW139464   3.074   1.901   3.478 -1.4891 -0.8567  1.2328
 9335SOL    HW239465   3.119   1.953   3.607 -1.3906 -0.8567 -1.2394
 9336SOL     OW39466   4.275   3.189  15.240 -0.3462  0.3125  0.2553
 9336SOL    HW139467   4.269   3.261  15.302  0.9062 -0.9343  1.8384
 9336SOL    HW239468   4.258   3.232  15.156  0.0716 -0.3041 -0.1490
 9337SOL     OW39469   2.812   2.300  16.646  0.0065 -0.1818 -0.2497
 9337SOL    HW139470   2.723   2.316  16.615 -0.2544  0.4947  0.8599
 9337SOL    HW239471   2.800   2.259  16.731 -2.3115 -1.5633 -1.2482
 9338SOL     OW39472   1.758   2.424   2.291 -0.4001 -0.3737  0.4133
 9338SOL    HW139473   1.737   2.457   2.379  0.2736  0.2694  0.3345
 9338SOL    HW239474   1.837   2.472   2.267  1.1020 -2.2424  1.7060
 9339SOL     OW39475   0.580   3.044   2.572  0.2777 -0.8343 -0.4053
 9339SOL    HW139476   0.664   3.027   2.614  0.7608  2.4994  0.0049
 9339SOL    HW239477   0.601   3.008   2.486  2.4450 -1.4745  0.4057
 9340SOL     OW39478   1.688   1.567   9.214  0.1987  0.2865  1.0531
 9340SOL    HW139479   1.713   1.491   9.162  0.9453 -0.2309  2.1550
 9340SOL    HW239480   1.629   1.527   9.278 -0.0967  1.6976  1.6505
 9341SOL     OW39481   4.248   3.979  11.673 -0.2435 -0.1460  0.2132
 9341SOL    HW139482   4.270   4.072  11.670  2.2388 -0.7098  1.3761
 9341SOL    HW239483   4.334   3.962  11.712  0.3041  2.0502 -0.0585
 9342SOL     OW39484   1.790   3.267  14.436 -0.2298 -0.4443  0.1678
 9342SOL    HW139485   1.763   3.252  14.345 -0.6041 -0.4281  0.2764
 9342SOL    HW239486   1.878   3.301  14.426 -0.8870  1.3423  0.4634
 9343SOL     OW39487   0.563   4.692   2.764  0.0776 -0.0059 -0.1552
 9343SOL    HW139488   0.476   4.707   2.801 -0.6331 -2.5911 -0.7392
 9343SOL    HW239489   0.555   0.017   2.684 -0.3440 -0.0825 -0.1628
 9344SOL     OW39490   4.299   2.882   9.551 -0.4794 -0.1230 -0.3020
 9344SOL    HW139491   4.390   2.881   9.525 -0.5991 -0.4751 -0.7032
 9344SOL    HW239492   4.271   2.791   9.555 -1.2464  0.1243  0.1522
 9345SOL     OW39493   2.847   2.010   6.831 -0.0291  0.3094  0.1681
 9345SOL    HW139494   2.925   2.042   6.787  1.3558 -2.1882  0.8024
 9345SOL    HW239495   2.867   1.918   6.845 -0.3492  0.3301  0.7669
 9346SOL     OW39496   4.705   2.969  11.458  0.0306 -0.1159 -0.8456
 9346SOL    HW139497   4.639   2.917  11.413 -0.5579  0.2587 -0.4119
 9346SOL    HW239498   0.026   3.002  11.383  0.3095 -0.5260 -0.8473
 9347SOL     OW39499   1.335   3.431   4.853 -0.8045  0.2772  0.1498
 9347SOL    HW139500   1.339   3.443   4.948 -0.6638 -0.3788  0.2270
 9347SOL    HW239501   1.309   3.515   4.817  0.7546  1.3350  1.5063
 9348SOL     OW39502   0.750   3.263   1.142 -0.4575  0.3510 -0.2467
 9348SOL    HW139503   0.745   3.218   1.226  1.7737  1.0096  0.2502
 9348SOL    HW239504   0.833   3.222   1.116 -1.5158 -1.7708 -0.2062
 9349SOL     OW39505   4.505   2.062   3.085  0.0554  0.6029 -0.4243
 9349SOL    HW139506   4.495   2.042   3.178 -0.8183  1.0398 -0.4306
 9349SOL    HW239507   4.600   2.069   3.074 -0.0510  1.2634 -0.9456
 9350SOL     OW39508   2.302   0.475   3.501 -0.2279 -0.4572 -0.1211
 9350SOL    HW139509   2.213   0.461   3.532 -0.1926  2.3437  1.3204
 9350SOL    HW239510   2.329   0.542   3.565 -0.9956 -0.0904 -0.1794
 9351SOL     OW39511   0.887   3.626   3.386 -0.0363 -0.5720  0.4927
 9351SOL    HW139512   0.960   3.569   3.409  1.1884  0.3482 -1.1116
 9351SOL    HW239513   0.838   3.560   3.338  0.4961 -0.1317 -0.6456
 9352SOL     OW39514   0.367   3.259   1.316  0.2754 -0.1191  0.3603
 9352SOL    HW139515   0.309   3.331   1.291  0.1918 -0.6330 -0.9025
 9352SOL    HW239516   0.331   3.221   1.396  3.3306 -0.5640  1.5172
 9353SOL     OW39517   1.065   0.862   9.522  0.2061  0.5022 -1.0822
 9353SOL    HW139518   1.013   0.918   9.579 -0.2445 -0.1747 -0.8323
 9353SOL    HW239519   1.136   0.830   9.578 -1.7574 -1.3234  0.3390
 9354SOL     OW39520   2.339   4.435  17.605 -0.0345 -0.1325 -0.3232
 9354SOL    HW139521   2.410   4.481  17.560  0.1938 -0.6882 -0.5321
 9354SOL    HW239522   2.305   4.492  17.674  1.3757  1.4729 -0.9629
 9355SOL     OW39523   4.350   3.423   8.618 -0.5867  0.1584  0.1674
 9355SOL    HW139524   4.266   3.466   8.609 -1.3451 -1.2591  0.4407
 9355SOL    HW239525   4.398   3.479   8.557 -2.1386  0.0135 -1.1493
 9356SOL     OW39526   3.943   0.686   7.516 -0.5443  0.6643  0.2918
 9356SOL    HW139527   3.894   0.661   7.438 -0.2151 -1.3937  0.7373
 9356SOL    HW239528   3.938   0.605   7.567 -0.6310 -0.2913 -1.2383
 9357SOL     OW39529   1.145   4.078  17.563  0.0543  0.0709 -0.5356
 9357SOL    HW139530   1.081   4.066  17.493 -2.0942  2.9426  0.9462
 9357SOL    HW239531   1.082   4.081  17.635 -0.8582 -1.1535 -1.2842
 9358SOL     OW39532   0.524   0.214   7.642 -0.2316  0.0078 -0.0725
 9358SOL    HW139533   0.441   0.233   7.686 -1.4691 -0.7212 -2.0806
 9358SOL    HW239534   0.486   0.153   7.579  2.0913 -0.6851 -0.7861
 9359SOL     OW39535   4.275   4.016   8.753  0.0255 -0.2676 -0.2950
 9359SOL    HW139536   4.356   4.014   8.702  1.1961 -1.1205  1.6034
 9359SOL    HW239537   4.204   3.997   8.692  0.1162  1.3464 -0.9179
 9360SOL     OW39538   4.358   3.265  14.167  0.2094  0.0288 -0.0768
 9360SOL    HW139539   4.371   3.238  14.076  2.0629  0.8717 -0.0768
 9360SOL    HW239540   4.438   3.225  14.202 -0.6583 -0.0655  1.7442
 9361SOL     OW39541   0.027   3.467   0.185 -0.5649  0.3799 -0.7878
 9361SOL    HW139542   4.669   3.480   0.226 -0.1400 -0.1727  0.2740
 9361SOL    HW239543   0.042   3.377   0.216  0.5186  1.3803  1.6210
 9362SOL     OW39544   3.253   3.085   2.000 -0.8249 -0.0157  0.4212
 9362SOL    HW139545   3.233   3.040   2.083 -2.1423 -1.3348 -0.6202
 9362SOL    HW239546   3.254   3.174   2.035 -0.7603  0.0069  0.3613
 9363SOL     OW39547   0.010   3.113  15.861 -0.4558 -0.1420  0.4244
 9363SOL    HW139548   0.046   3.093  15.774  1.0946  2.1048  0.5584
 9363SOL    HW239549   0.054   3.043  15.910  3.3939  2.4103  0.5706
 9364SOL     OW39550   1.847   2.673   3.782  0.0909 -0.3011 -0.5332
 9364SOL    HW139551   1.864   2.593   3.731 -2.2270 -0.0753 -1.6463
 9364SOL    HW239552   1.913   2.653   3.848 -0.0457  0.7778 -0.0778
 9365SOL     OW39553   4.249   0.799   9.365  0.5922 -0.0906 -0.2860
 9365SOL    HW139554   4.298   0.720   9.341 -0.8970 -1.2600  0.5046
 9365SOL    HW239555   4.212   0.821   9.280  1.1753  2.9564  0.2648
 9366SOL     OW39556   1.063   1.331  11.434 -0.1180 -0.4008 -0.2408
 9366SOL    HW139557   0.980   1.374  11.456  0.2767 -0.4583  1.3834
 9366SOL    HW239558   1.096   1.393  11.369  2.6506  0.5073  2.0136
 9367SOL     OW39559   4.086   1.067   8.032  0.8017 -0.5495 -0.5039
 9367SOL    HW139560   4.181   1.058   8.023  0.8735 -1.8743  1.6672
 9367SOL    HW239561   4.075   1.091   8.123  0.0774 -0.9099 -0.4973
 9368SOL     OW39562   0.697   3.591   2.465  0.1664  0.2786 -0.2185
 9368SOL    HW139563   0.615   3.639   2.450  0.2995 -0.1338 -2.3088
 9368SOL    HW239564   0.736   3.665   2.511  1.2674 -0.4027 -0.0714
 9369SOL     OW39565   4.515   1.529   7.499  0.3378 -0.0334 -0.2256
 9369SOL    HW139566   4.577   1.548   7.429 -0.8202 -1.7144 -1.7162
 9369SOL    HW239567   4.547   1.445   7.533  1.1542 -0.2450 -1.5215
 9370SOL     OW39568   2.224   3.972   0.785  0.1290  0.5809  0.1794
 9370SOL    HW139569   2.245   3.989   0.693 -1.3054  1.7730  0.0723
 9370SOL    HW239570   2.222   3.876   0.776  2.6308  0.5250  0.3010
 9371SOL     OW39571   0.854   2.362   9.371  0.3053 -0.6062 -0.0736
 9371SOL    HW139572   0.935   2.321   9.403 -0.3450 -0.9199  1.1443
 9371SOL    HW239573   0.857   2.448   9.412  0.2626  0.1378 -1.6329
 9372SOL     OW39574   0.291   4.555   7.932  0.0816  0.1287 -0.4304
 9372SOL    HW139575   0.304   4.613   8.007 -1.0039 -0.2297  0.0361
 9372SOL    HW239576   0.316   4.616   7.861  2.2968 -1.2580 -0.8325
 9373SOL     OW39577   4.101   0.246   6.333 -0.1986  0.1821 -0.2234
 9373SOL    HW139578   4.166   0.286   6.277 -0.1841  1.4561  0.7049
 9373SOL    HW239579   4.041   0.319   6.346 -2.7527 -1.5326 -2.3876
 9374SOL     OW39580   2.018   0.088  15.659  0.4169 -0.0324 -0.5842
 9374SOL    HW139581   2.050   4.726  15.649  0.7760 -0.1677  1.6903
 9374SOL    HW239582   2.016   0.105  15.753 -0.9938  2.4390 -1.0605
 9375SOL     OW39583   3.485   3.540  11.668  0.7414 -0.7894 -0.4618
 9375SOL    HW139584   3.517   3.471  11.610 -1.9825 -1.1401 -1.5074
 9375SOL    HW239585   3.399   3.508  11.694  0.0260  1.1540 -0.4240
 9376SOL     OW39586   3.896   2.941  12.291  1.0683 -0.1085  0.0957
 9376SOL    HW139587   3.819   2.896  12.256 -0.4828  3.2247 -0.7753
 9376SOL    HW239588   3.868   3.032  12.280  2.1024 -0.2174 -3.6105
 9377SOL     OW39589   3.014   3.419   8.784  0.0642  0.2267 -0.5336
 9377SOL    HW139590   3.054   3.481   8.844  0.4373  1.0437 -1.6173
 9377SOL    HW239591   2.983   3.343   8.834 -0.6007  0.1772 -1.0146
 9378SOL     OW39592   3.274   4.502   7.041  0.0516  0.0039 -0.5740
 9378SOL    HW139593   3.193   4.522   6.994 -0.1561 -0.3442 -0.3616
 9378SOL    HW239594   3.284   4.407   7.029 -3.6078 -0.7758  2.6475
 9379SOL     OW39595   0.915   0.846  16.261 -0.9694  0.4218 -0.0801
 9379SOL    HW139596   0.849   0.861  16.193 -0.5823  0.8981 -0.3518
 9379SOL    HW239597   0.994   0.851  16.208 -0.0893  0.8483  1.2766
 9380SOL     OW39598   1.744   3.324   6.342 -0.2105 -0.9031  0.1547
 9380SOL    HW139599   1.666   3.368   6.309  0.9166  1.7966  1.0545
 9380SOL    HW239600   1.777   3.275   6.266 -0.6777 -3.4266  1.5660
 9381SOL     OW39601   3.092   0.019   7.263 -0.2294 -0.3282 -0.4593
 9381SOL    HW139602   3.116   0.028   7.170  0.2225  0.4208 -0.2651
 9381SOL    HW239603   3.108   4.654   7.282 -3.4819 -0.8651 -0.3861
 9382SOL     OW39604   0.295   4.227   6.892  0.7781  0.5223  0.3476
 9382SOL    HW139605   0.214   4.254   6.848  0.4134 -0.2572  0.5360
 9382SOL    HW239606   0.348   4.202   6.816  0.5542 -1.3998  0.8192
 9383SOL     OW39607   4.100   2.964   9.375 -0.0102  0.1179  0.0349
 9383SOL    HW139608   4.055   3.048   9.366  0.2538  0.1268 -1.2007
 9383SOL    HW239609   4.179   2.983   9.426  0.1852  1.8144 -0.9033
 9384SOL     OW39610   3.145   2.388   3.991  0.0896  0.4469  0.1502
 9384SOL    HW139611   3.095   2.311   4.018  1.7413 -0.3077  1.0654
 9384SOL    HW239612   3.123   2.449   4.061 -0.5719 -1.1145  1.3176
 9385SOL     OW39613   1.031   4.027   9.953 -0.1224  0.1944 -0.2822
 9385SOL    HW139614   1.059   3.936   9.967 -1.2976 -0.6442 -3.3725
 9385SOL    HW239615   0.981   4.027   9.872  1.4507  0.2410 -1.2558
 9386SOL     OW39616   0.186   2.724   6.467 -0.0499 -0.4486 -0.1035
 9386SOL    HW139617   0.258   2.701   6.525  0.9744 -2.5337 -2.2383
 9386SOL    HW239618   0.216   2.810   6.437 -1.3075  1.4470  4.0092
 9387SOL     OW39619   2.291   1.357   4.311  0.1436 -0.1928  0.1404
 9387SOL    HW139620   2.352   1.299   4.357  1.3217 -0.3707 -1.6166
 9387SOL    HW239621   2.341   1.378   4.232 -0.3637 -3.8466 -1.1485
 9388SOL     OW39622   3.882   2.453   2.575 -0.5490 -0.0262 -0.2272
 9388SOL    HW139623   3.972   2.421   2.583 -0.2161  0.9929  0.0951
 9388SOL    HW239624   3.842   2.380   2.526  0.8024  0.6849 -2.3652
 9389SOL     OW39625   4.121   3.350   4.437 -0.2227 -0.3248  0.7278
 9389SOL    HW139626   4.181   3.399   4.493 -0.3424  2.4164 -1.5771
 9389SOL    HW239627   4.044   3.352   4.493 -1.6337  0.0574 -1.2410
 9390SOL     OW39628   3.200   0.671   4.846 -0.0625  0.0768  0.6197
 9390SOL    HW139629   3.168   0.686   4.757 -0.3688 -2.9917  0.2207
 9390SOL    HW239630   3.286   0.631   4.831 -0.0593  0.7938 -1.2661
 9391SOL     OW39631   3.681   2.761  17.128  0.4286  0.2064  0.7723
 9391SOL    HW139632   3.770   2.757  17.090  0.1950  0.2501  0.2148
 9391SOL    HW239633   3.646   2.844  17.097 -0.3406 -0.5566 -0.4393
 9392SOL     OW39634   4.012   2.578   1.812 -0.3120  0.2491 -0.4784
 9392SOL    HW139635   4.059   2.600   1.731  0.0667 -0.3343 -0.4200
 9392SOL    HW239636   3.939   2.640   1.805  0.8507  1.6332 -0.1834
 9393SOL     OW39637   1.855   3.186  15.697  0.2093 -0.3498 -0.1162
 9393SOL    HW139638   1.911   3.177  15.774 -1.3921 -2.3314  0.8311
 9393SOL    HW239639   1.921   3.202  15.629 -0.0528  0.0575 -0.2724
 9394SOL     OW39640   2.762   4.321   2.006  0.0742  0.1922 -0.7453
 9394SOL    HW139641   2.801   4.320   1.918  1.8901  1.2354  0.0401
 9394SOL    HW239642   2.804   4.246   2.047 -0.8333  0.9051  1.4840
 9395SOL     OW39643   1.789   4.212   5.113  0.2405 -0.2836 -0.1347
 9395SOL    HW139644   1.846   4.162   5.171 -0.4305  0.2137  0.9555
 9395SOL    HW239645   1.850   4.209   5.039  0.0077  0.3902 -0.3606
 9396SOL     OW39646   3.258   1.396  16.359 -0.5801 -0.2672  0.3369
 9396SOL    HW139647   3.197   1.336  16.316  0.7445 -2.2992  1.3009
 9396SOL    HW239648   3.237   1.386  16.452 -0.1678 -2.4087  0.2082
 9397SOL     OW39649   0.022   1.326  14.656 -0.0714 -0.3754 -0.1427
 9397SOL    HW139650   0.043   1.236  14.680  0.4220 -0.0052  0.8104
 9397SOL    HW239651   0.015   1.319  14.561  0.7024 -1.8562 -0.0890
 9398SOL     OW39652   2.846   4.691   8.158 -0.2242 -0.4762 -0.2805
 9398SOL    HW139653   2.861   4.660   8.068  0.4382  0.5517 -0.5237
 9398SOL    HW239654   2.842   0.057   8.141  2.5376 -0.0242  1.6482
 9399SOL     OW39655   4.118   3.530   4.820 -0.0334  0.0127  0.5458
 9399SOL    HW139656   4.198   3.570   4.784  0.5009 -0.0353  1.6600
 9399SOL    HW239657   4.059   3.524   4.745  0.2985  2.9093  0.0302
 9400SOL     OW39658   2.869   3.638   4.130  0.6275 -0.2768 -0.0620
 9400SOL    HW139659   2.777   3.654   4.149  0.2825  0.2122 -2.1686
 9400SOL    HW239660   2.859   3.631   4.035 -0.9150  2.3215 -0.0764
 9401SOL     OW39661   0.829   0.220   4.100 -0.1618  0.0277 -1.0331
 9401SOL    HW139662   0.914   0.263   4.093  0.4336 -1.0076 -0.1715
 9401SOL    HW239663   0.862   0.130   4.098 -2.4195 -0.8334  0.5462
 9402SOL     OW39664   2.322   1.920   5.276  0.0547  0.3224  0.0487
 9402SOL    HW139665   2.309   1.854   5.344  0.6131  0.4021  0.2320
 9402SOL    HW239666   2.389   1.876   5.223  0.5180 -0.5440  1.3285
 9403SOL     OW39667   1.163   1.845   7.642  0.0550 -0.2440 -0.5840
 9403SOL    HW139668   1.211   1.928   7.640  1.4561 -1.0285  0.6633
 9403SOL    HW239669   1.194   1.796   7.718  2.5355 -0.2259 -1.6026
 9404SOL     OW39670   3.984   1.172   5.791  0.5119  0.4406 -0.2846
 9404SOL    HW139671   3.967   1.204   5.880 -1.6506  0.2876 -0.6409
 9404SOL    HW239672   4.012   1.248   5.740  0.7137 -0.1099 -1.0039
 9405SOL     OW39673   4.117   1.805   6.174 -0.2196 -0.0972 -0.4638
 9405SOL    HW139674   4.047   1.823   6.111 -1.2147 -1.1487  0.3435
 9405SOL    HW239675   4.067   1.791   6.254 -0.4137 -0.1186 -0.5894
 9406SOL     OW39676   3.313   0.646   7.956 -0.0948  0.2016 -0.3222
 9406SOL    HW139677   3.295   0.553   7.968  2.0734 -0.4216 -2.0399
 9406SOL    HW239678   3.258   0.689   8.022  0.3009  0.8765 -0.4262
 9407SOL     OW39679   1.095   3.981  10.414 -0.0853  0.0789 -0.7081
 9407SOL    HW139680   1.048   4.058  10.446 -2.1285 -1.1149 -0.7859
 9407SOL    HW239681   1.137   4.025  10.340 -0.3899  1.2631 -0.1762
 9408SOL     OW39682   2.272   3.692   6.071 -0.6090  0.0859 -0.3192
 9408SOL    HW139683   2.206   3.663   6.134 -0.6514  0.8044 -0.0272
 9408SOL    HW239684   2.247   3.784   6.073 -0.2207  0.1987 -0.6757
 9409SOL     OW39685   1.799   2.758  10.251  0.6622  0.4595  0.2243
 9409SOL    HW139686   1.885   2.718  10.240  1.0047  1.5145 -0.9726
 9409SOL    HW239687   1.811   2.824  10.319 -1.4981  0.3307  0.7281
 9410SOL     OW39688   1.171   0.118   1.048 -0.1591 -0.0438 -0.6825
 9410SOL    HW139689   1.244   0.070   1.088  0.3753  1.5497  0.2573
 9410SOL    HW239690   1.200   0.204   1.077 -0.5921  0.3183 -1.3395
 9411SOL     OW39691   3.014   4.665   3.464 -0.1666 -0.1267 -0.2000
 9411SOL    HW139692   2.944   4.722   3.430  0.2415 -0.3938 -1.5145
 9411SOL    HW239693   3.006   4.586   3.410 -0.4580 -0.0199 -0.3113
 9412SOL     OW39694   1.014   4.464   3.333 -0.1108 -0.2380 -0.1667
 9412SOL    HW139695   1.041   4.453   3.242  0.1660 -0.6400 -0.0357
 9412SOL    HW239696   0.931   4.416   3.341 -0.1708  0.3760  2.8243
 9413SOL     OW39697   0.906   2.895   5.441 -0.0751 -0.0043  0.3401
 9413SOL    HW139698   0.836   2.907   5.505  1.0397 -0.2823  1.6234
 9413SOL    HW239699   0.927   2.803   5.460 -1.1555 -0.0858  1.0844
 9414SOL     OW39700   1.724   0.345   8.806 -0.7228  0.6596  0.2315
 9414SOL    HW139701   1.677   0.390   8.876  1.4888  0.2608  1.9496
 9414SOL    HW239702   1.691   0.396   8.732 -3.8639 -0.2412  0.9824
 9415SOL     OW39703   0.198   3.073   0.503 -0.3708 -0.4463  0.0775
 9415SOL    HW139704   0.136   3.093   0.573 -0.1004  2.0090 -0.3988
 9415SOL    HW239705   0.262   3.021   0.551 -1.1527 -0.9511  0.5784
 9416SOL     OW39706   2.529   1.218   2.014  0.0855  0.5425 -0.0192
 9416SOL    HW139707   2.506   1.258   2.098  0.6884 -1.9852  1.3695
 9416SOL    HW239708   2.597   1.161   2.049 -1.2741 -0.9185  0.2566
 9417SOL     OW39709   1.515   3.826   0.029  0.0426  0.2713  0.0833
 9417SOL    HW139710   1.596   3.869   0.001  0.1836  0.3477  0.6046
 9417SOL    HW239711   1.538   3.735   0.010  2.6877  1.1321 -0.8189
 9418SOL     OW39712   1.837   2.515   5.414  0.1460 -0.0286  0.0687
 9418SOL    HW139713   1.873   2.544   5.330  0.3002 -4.0199 -1.2636
 9418SOL    HW239714   1.814   2.423   5.404  0.2051 -0.2595  2.0479
 9419SOL     OW39715   0.291   3.162   1.851  0.1052 -0.2259  0.3342
 9419SOL    HW139716   0.235   3.220   1.800 -1.4777 -1.4793  0.6454
 9419SOL    HW239717   0.228   3.093   1.873 -1.1402  1.3546  1.8250
 9420SOL     OW39718   0.506   1.395   6.730 -0.0235  1.2409 -0.0667
 9420SOL    HW139719   0.576   1.348   6.775 -1.7997 -2.4661 -1.1328
 9420SOL    HW239720   0.465   1.320   6.688  0.1814  0.9716  0.2082
 9421SOL     OW39721   3.678   2.445  10.729 -0.4555  0.8342 -0.3403
 9421SOL    HW139722   3.583   2.429  10.737 -0.1354 -0.9430 -0.0657
 9421SOL    HW239723   3.701   2.417  10.818  0.4090  0.8128 -0.5800
 9422SOL     OW39724   0.313   2.204   6.225  0.2695  1.0834 -0.1424
 9422SOL    HW139725   0.403   2.195   6.194 -0.3204  1.3253 -1.9200
 9422SOL    HW239726   0.264   2.198   6.143 -0.5175  3.4935  0.1674
 9423SOL     OW39727   1.178   2.167   6.229 -0.4530  0.5502 -0.1423
 9423SOL    HW139728   1.196   2.157   6.323 -0.3214  1.2422 -0.0917
 9423SOL    HW239729   1.095   2.215   6.232 -0.0498  1.2539 -0.0867
 9424SOL     OW39730   3.107   4.229   6.085 -0.4263  0.1987  0.6318
 9424SOL    HW139731   3.066   4.142   6.076 -0.1166  0.1047  0.1549
 9424SOL    HW239732   3.197   4.205   6.062  0.6512  2.7359  2.2392
 9425SOL     OW39733   4.159   1.946   7.562  0.4253 -0.4647  0.3822
 9425SOL    HW139734   4.078   1.907   7.528 -0.2225 -0.3913  1.8673
 9425SOL    HW239735   4.228   1.889   7.528  0.4090 -2.0070  2.9408
 9426SOL     OW39736   2.221   0.249   9.061  0.2634 -0.3549 -0.0852
 9426SOL    HW139737   2.222   0.250   9.156 -0.3462  0.8619 -0.0933
 9426SOL    HW239738   2.134   0.287   9.045  0.4591 -0.2038 -0.8140
 9427SOL     OW39739   1.795   0.289   4.139  0.1276 -0.1810  0.5276
 9427SOL    HW139740   1.786   0.382   4.116  1.1972 -0.0978  0.4544
 9427SOL    HW239741   1.765   0.293   4.230 -2.5043  1.4494 -0.4073
 9428SOL     OW39742   1.226   3.619   5.675 -0.2340  0.3744 -0.6785
 9428SOL    HW139743   1.194   3.529   5.671 -0.5088  0.4890 -1.0931
 9428SOL    HW239744   1.262   3.621   5.764 -0.8117 -0.4620 -0.4261
 9429SOL     OW39745   1.049   0.796   6.484 -0.0625 -0.3874  0.0536
 9429SOL    HW139746   0.956   0.820   6.492  0.4416  1.4050  0.5585
 9429SOL    HW239747   1.081   0.822   6.570 -0.5373 -1.5724  0.5961
 9430SOL     OW39748   0.284   2.257   4.180  0.0249 -0.2196  0.5953
 9430SOL    HW139749   0.340   2.213   4.116  0.2960  1.3019 -0.2064
 9430SOL    HW239750   0.349   2.286   4.243 -0.6134 -1.3324  1.7709
 9431SOL     OW39751   4.482   3.273  12.940 -0.4361 -0.5087  0.0424
 9431SOL    HW139752   4.532   3.352  12.922  1.9226 -2.0015 -0.0218
 9431SOL    HW239753   4.549   3.210  12.910 -0.0756  0.6386 -1.5731
 9432SOL     OW39754   2.145   1.758  15.100 -0.1169  0.6663  0.0787
 9432SOL    HW139755   2.148   1.736  15.007  0.3718  2.2035 -0.2704
 9432SOL    HW239756   2.237   1.747  15.127 -0.4127  1.1407  1.2930
 9433SOL     OW39757   1.536   1.258   5.379 -0.8031  0.1524 -0.0628
 9433SOL    HW139758   1.571   1.347   5.383  0.4340 -0.2166 -2.4757
 9433SOL    HW239759   1.451   1.273   5.339 -1.8606 -2.0521  1.3729
 9434SOL     OW39760   3.351   3.645   5.465 -0.5792  0.6807  0.3306
 9434SOL    HW139761   3.322   3.696   5.390  2.4192  0.4709 -0.9542
 9434SOL    HW239762   3.288   3.662   5.535  0.4552  2.8417  0.7443
 9435SOL     OW39763   3.270   0.048   3.969  0.5672 -0.0956 -0.2372
 9435SOL    HW139764   3.308   0.120   4.017  1.0561 -0.3207 -0.2836
 9435SOL    HW239765   3.308   0.060   3.882 -2.2082 -0.2105 -1.4729
 9436SOL     OW39766   2.033   1.628   7.325 -0.0580  0.0580 -0.3917
 9436SOL    HW139767   2.114   1.582   7.303  0.1699 -0.6348  1.9628
 9436SOL    HW239768   1.970   1.556   7.332 -0.8398  0.5615 -2.1099
 9437SOL     OW39769   4.058   1.736   3.984 -0.5091 -0.5177  0.0414
 9437SOL    HW139770   3.969   1.712   3.958  0.4490 -2.7680 -1.0958
 9437SOL    HW239771   4.111   1.661   3.958  0.1072 -0.4175  1.0234
 9438SOL     OW39772   1.806   1.974   2.746  0.2073  0.2056  0.2508
 9438SOL    HW139773   1.795   1.884   2.716 -2.3007 -0.6321  3.7010
 9438SOL    HW239774   1.733   1.993   2.805  0.3222  0.2727  0.3704
 9439SOL     OW39775   4.299   3.357   6.735  0.1147  0.3338 -0.2062
 9439SOL    HW139776   4.270   3.428   6.793  1.3051  0.7436 -0.0989
 9439SOL    HW239777   4.220   3.303   6.736 -0.1564  0.7289 -0.2612
 9440SOL     OW39778   2.114   2.606   4.296  0.3429 -0.5114  0.1136
 9440SOL    HW139779   2.148   2.596   4.385 -2.5558 -0.8264  1.1874
 9440SOL    HW239780   2.187   2.645   4.248  0.4917 -2.6061 -1.3837
 9441SOL     OW39781   1.257   3.798   4.097  0.2971  0.2251 -0.2677
 9441SOL    HW139782   1.185   3.751   4.056  1.1889 -1.2814 -0.0833
 9441SOL    HW239783   1.262   3.763   4.186 -1.5708 -0.9747 -0.6266
 9442SOL     OW39784   3.676   4.307   6.082  0.2631  0.0023 -0.4418
 9442SOL    HW139785   3.746   4.357   6.124 -0.4849  1.8308 -1.3803
 9442SOL    HW239786   3.609   4.374   6.074  0.1294 -0.3383 -2.2331
 9443SOL     OW39787   0.234   4.358  17.236  0.3603 -0.4289 -0.4801
 9443SOL    HW139788   0.239   4.438  17.289 -0.3129  0.4943 -1.8273
 9443SOL    HW239789   0.319   4.354  17.192 -0.0037 -1.1970 -1.0965
 9444SOL     OW39790   0.457   3.896  10.942  0.1689  0.5611  0.2762
 9444SOL    HW139791   0.541   3.940  10.933 -0.4159  2.0906  2.2981
 9444SOL    HW239792   0.406   3.923  10.866  1.5765  2.0292 -0.1571
 9445SOL     OW39793   4.519   2.355   3.549 -0.5443  0.2310 -0.0733
 9445SOL    HW139794   4.566   2.368   3.467 -0.9403 -0.4556 -0.4090
 9445SOL    HW239795   4.601   2.360   3.598  0.3207 -2.6263 -1.2213
 9446SOL     OW39796   2.651   2.658  15.583  0.4891  0.5584  0.3271
 9446SOL    HW139797   2.703   2.711  15.644 -0.0689  0.8254  0.5744
 9446SOL    HW239798   2.598   2.593  15.631  0.2498 -0.0083 -0.7110
 9447SOL     OW39799   4.426   0.992  13.174  0.2938  0.1767 -0.8645
 9447SOL    HW139800   4.380   1.069  13.208  0.1716 -1.3337  2.4074
 9447SOL    HW239801   4.505   0.996  13.228 -1.7376 -0.5226  2.1487
 9448SOL     OW39802   3.503   2.979  11.818  0.1242 -0.5021 -0.0763
 9448SOL    HW139803   3.474   3.023  11.897  0.6524 -0.2534 -0.0207
 9448SOL    HW239804   3.445   3.012  11.749 -0.0766  0.3361  0.4930
 9449SOL     OW39805   0.863   3.719   4.345 -0.1879  0.0486 -0.0787
 9449SOL    HW139806   0.934   3.657   4.358 -1.6235 -1.3202  1.2097
 9449SOL    HW239807   0.814   3.660   4.287  1.2995 -0.8370 -0.4288
 9450SOL     OW39808   2.638   0.158  12.130  0.0912 -0.1914  0.1790
 9450SOL    HW139809   2.641   0.192  12.219  1.6186  1.2176 -0.4138
 9450SOL    HW239810   2.695   0.223  12.088  1.1183 -0.6741  0.8027
 9451SOL     OW39811   2.838   3.169   7.523  0.0629 -0.0756 -0.1006
 9451SOL    HW139812   2.883   3.102   7.573  1.8609  0.1794 -1.3915
 9451SOL    HW239813   2.753   3.168   7.567  1.3454 -3.1114  2.2215
 9452SOL     OW39814   2.431   2.450   8.271 -0.0094 -0.3357  0.3155
 9452SOL    HW139815   2.432   2.536   8.229 -0.1004 -0.3748  0.2343
 9452SOL    HW239816   2.385   2.478   8.349  1.1212 -2.2815  1.6921
 9453SOL     OW39817   2.538   1.804   1.076  0.3399 -0.1215  0.7579
 9453SOL    HW139818   2.587   1.770   1.001 -1.0992  3.0490 -1.6182
 9453SOL    HW239819   2.472   1.738   1.096  2.5456 -2.0782  1.5925
 9454SOL     OW39820   2.051   0.601   8.521 -0.7729  0.1026 -0.1231
 9454SOL    HW139821   1.976   0.632   8.572 -0.3512  1.0374 -0.0758
 9454SOL    HW239822   2.068   0.511   8.550  1.8423  0.5982 -0.1396
 9455SOL     OW39823   1.890   2.763   4.720 -0.1529  0.3023 -0.7800
 9455SOL    HW139824   1.940   2.697   4.767 -0.4281  0.0354 -0.8635
 9455SOL    HW239825   1.910   2.841   4.772  1.5158  1.1395 -2.6564
 9456SOL     OW39826   2.422   0.274   3.368  0.2281 -0.0183  0.1766
 9456SOL    HW139827   2.372   0.195   3.388 -1.0156  0.9686  0.9194
 9456SOL    HW239828   2.390   0.334   3.435  0.8523 -0.2563  0.6862
 9457SOL     OW39829   0.932   1.357   7.871  0.1723  0.0358 -0.0830
 9457SOL    HW139830   0.977   1.438   7.848 -2.0495  1.6181  1.1861
 9457SOL    HW239831   0.922   1.317   7.785 -2.8831 -1.2673  0.8803
 9458SOL     OW39832   2.956   3.001   5.416  0.2706 -0.2723  0.0310
 9458SOL    HW139833   2.954   3.044   5.331  0.0356 -0.3770 -0.0163
 9458SOL    HW239834   3.030   3.046   5.458  1.0989 -0.4097 -1.2948
 9459SOL     OW39835   3.071   4.038   9.742  0.2922 -0.6214  0.5295
 9459SOL    HW139836   3.105   3.976   9.806 -1.7350  0.5127  2.7201
 9459SOL    HW239837   3.027   4.104   9.796  0.7772  0.3577 -0.2632
 9460SOL     OW39838   0.143   0.572   5.599 -0.4167  0.1801 -0.0678
 9460SOL    HW139839   0.083   0.613   5.661 -0.3562  0.7482 -0.3855
 9460SOL    HW239840   0.173   0.652   5.556 -0.0708  0.4500  0.6709
 9461SOL     OW39841   1.410   1.441   9.147  0.4632  0.1052 -0.0442
 9461SOL    HW139842   1.338   1.393   9.186 -0.2531  0.9753 -0.3108
 9461SOL    HW239843   1.443   1.473   9.231  1.9221 -0.7562 -0.2858
 9462SOL     OW39844   1.720   4.086  13.673  0.3948 -0.4201  0.3196
 9462SOL    HW139845   1.801   4.036  13.667  1.6246  1.5241  0.6853
 9462SOL    HW239846   1.711   4.130  13.588 -0.6297 -2.2065 -0.4993
 9463SOL     OW39847   2.769   4.183   8.406  0.7465  0.5023 -0.0739
 9463SOL    HW139848   2.683   4.221   8.419  1.5945  2.4279 -0.0828
 9463SOL    HW239849   2.808   4.270   8.406 -1.6838  1.5712  2.8678
 9464SOL     OW39850   4.056   0.866  10.163  0.3258  0.3932 -0.4742
 9464SOL    HW139851   4.089   0.790  10.116 -0.1574 -0.8953  1.2828
 9464SOL    HW239852   3.976   0.832  10.203  0.8395 -1.7672 -1.2809
 9465SOL     OW39853   4.442   1.193  13.851  0.7293  0.2362 -0.0202
 9465SOL    HW139854   4.427   1.288  13.846  0.4094  0.1417 -0.8189
 9465SOL    HW239855   4.492   1.163  13.775 -0.8041 -0.4738 -0.7222
 9466SOL     OW39856   3.957   2.546   6.017 -0.0570  0.1646  0.5522
 9466SOL    HW139857   3.893   2.562   6.086 -1.8387 -1.4345 -0.7525
 9466SOL    HW239858   4.032   2.533   6.075  0.4239  0.8921  0.1052
 9467SOL     OW39859   3.476   2.774   0.035  0.2494 -0.2491  0.1866
 9467SOL    HW139860   3.560   2.770  17.699  0.0046  1.2143 -0.3653
 9467SOL    HW239861   3.419   2.701   0.010  0.5269 -0.2209 -0.5450
 9468SOL     OW39862   4.508   3.045   1.954  0.6054  0.0907  0.1825
 9468SOL    HW139863   4.512   3.138   1.933  0.5954 -0.0671 -0.5161
 9468SOL    HW239864   4.526   3.046   2.048  1.1261 -0.4775  0.0844
 9469SOL     OW39865   1.677   4.347  10.667 -0.5495  0.2115 -0.0054
 9469SOL    HW139866   1.697   4.294  10.590 -3.0619 -0.0888 -0.4506
 9469SOL    HW239867   1.617   4.410  10.628 -0.4372  0.3436  0.0330
 9470SOL     OW39868   2.511   4.444   0.972 -0.6532 -0.8084  0.4187
 9470SOL    HW139869   2.606   4.443   0.962 -0.6897 -0.2994  0.0161
 9470SOL    HW239870   2.502   4.463   1.065  0.4300 -1.5431  0.6710
 9471SOL     OW39871   0.977   1.229   5.367 -0.0329  0.0430  0.6464
 9471SOL    HW139872   0.992   1.144   5.327  2.9799  1.0110 -0.2768
 9471SOL    HW239873   1.020   1.296   5.315  0.9414 -0.3187  0.9859
 9472SOL     OW39874   3.341   4.079   7.470  0.1132 -0.6679 -0.3447
 9472SOL    HW139875   3.290   4.123   7.538  0.7316  1.0136 -0.9709
 9472SOL    HW239876   3.402   4.151   7.456 -1.5707  1.0088  0.7726
 9473SOL     OW39877   3.771   1.277   4.703 -0.3520  0.6892  0.0963
 9473SOL    HW139878   3.727   1.229   4.773 -0.9783  2.1659  0.7154
 9473SOL    HW239879   3.708   1.348   4.688  1.8768  2.8825  1.1535
 9474SOL     OW39880   0.212   2.595   4.126  0.5691 -0.3300  0.1334
 9474SOL    HW139881   0.267   2.597   4.204  1.8183 -0.8665 -0.7459
 9474SOL    HW239882   0.181   2.686   4.125  2.1741  0.2206  1.1910
 9475SOL     OW39883   0.308   2.286   2.089  0.2064 -0.2817  0.2073
 9475SOL    HW139884   0.368   2.343   2.137  0.0541  0.8073 -0.9063
 9475SOL    HW239885   0.351   2.291   2.004  1.0980  0.9634  0.7217
 9476SOL     OW39886   3.150   3.452  16.344  0.2466  0.2617 -0.3894
 9476SOL    HW139887   3.207   3.470  16.269  0.3182  0.6113 -0.2475
 9476SOL    HW239888   3.100   3.375  16.316  0.5674 -0.0615 -0.0708
 9477SOL     OW39889   1.630   4.545  14.413  0.5476 -0.3309 -0.6562
 9477SOL    HW139890   1.636   4.639  14.400 -1.8955  0.0814  1.2492
 9477SOL    HW239891   1.677   4.506  14.340 -0.6905  0.4303 -1.8533
 9478SOL     OW39892   0.423   1.387   7.940 -0.4068  0.0541  0.0946
 9478SOL    HW139893   0.440   1.364   8.032 -0.0468 -1.7433 -0.4171
 9478SOL    HW239894   0.513   1.412   7.921 -0.7644  1.8502  0.7792
 9479SOL     OW39895   4.575   3.758   0.366  0.2710 -0.9908 -0.1831
 9479SOL    HW139896   4.662   3.783   0.398 -0.7334 -1.0064  2.6021
 9479SOL    HW239897   4.589   3.663   0.370  1.4759 -0.8463 -0.8800
 9480SOL     OW39898   0.014   4.289  15.542  0.0272  0.0630 -0.6274
 9480SOL    HW139899   0.019   4.314  15.634 -1.0544  1.1910 -0.8754
 9480SOL    HW239900   4.648   4.270  15.540 -0.4638  2.5398 -1.7872
 9481SOL     OW39901   1.128   0.046  14.653 -0.1388 -0.6127 -0.1594
 9481SOL    HW139902   1.127   4.689  14.608 -0.2145 -1.5611  1.6216
 9481SOL    HW239903   1.040   0.063  14.687 -0.0633 -1.0542  0.2579
 9482SOL     OW39904   1.625   1.572  14.066 -0.7189 -0.1356 -0.0457
 9482SOL    HW139905   1.588   1.495  14.108  1.6805  0.7775  3.7753
 9482SOL    HW239906   1.691   1.599  14.130 -0.9316  0.2367  0.0150
 9483SOL     OW39907   0.493   0.985   9.034 -0.0689  0.5891  0.4820
 9483SOL    HW139908   0.569   1.022   9.078 -0.7998  0.3067  1.9825
 9483SOL    HW239909   0.533   0.986   8.947 -2.6281  0.2933 -0.6842
 9484SOL     OW39910   1.262   3.077   2.531 -0.2267  0.1228  0.1455
 9484SOL    HW139911   1.290   2.988   2.512  0.8165  0.6145 -0.6027
 9484SOL    HW239912   1.171   3.080   2.501  0.1666 -0.5378 -1.1089
 9485SOL     OW39913   0.298   1.985  15.642  0.1122 -0.2997 -0.1468
 9485SOL    HW139914   0.216   2.035  15.643  1.0985  1.3293 -2.2308
 9485SOL    HW239915   0.288   1.928  15.719 -1.6630  0.3066  0.0650
 9486SOL     OW39916   2.958   3.898  17.424 -0.0243  0.3397 -0.0041
 9486SOL    HW139917   3.010   3.973  17.453  1.5873 -0.9663  0.4824
 9486SOL    HW239918   3.001   3.869  17.343  0.8835 -0.8028  0.8811
 9487SOL     OW39919   2.658   4.042   0.747 -0.0365 -0.4298 -0.1160
 9487SOL    HW139920   2.584   4.082   0.791  0.0768 -0.7145  0.3289
 9487SOL    HW239921   2.689   3.977   0.810  1.0143 -0.8097 -1.0172
 9488SOL     OW39922   1.367   1.572   8.672 -0.5384  0.4585  0.3216
 9488SOL    HW139923   1.446   1.521   8.686  0.0683  0.8276 -1.7720
 9488SOL    HW239924   1.312   1.531   8.738  0.0502  2.0311  1.7828
 9489SOL     OW39925   1.752   3.034   8.802  0.0132 -0.1178 -0.0190
 9489SOL    HW139926   1.832   3.053   8.752  0.6958  0.1480  1.1824
 9489SOL    HW239927   1.784   2.973   8.868  1.4758  3.1397  2.3062
 9490SOL     OW39928   4.548   3.850  14.416  0.1504  0.0028  0.2820
 9490SOL    HW139929   4.539   3.856  14.321 -0.1710 -3.6719  0.0934
 9490SOL    HW239930   4.639   3.877  14.423 -0.3186  1.4133  1.0611
 9491SOL     OW39931   4.523   1.847   5.803 -0.4241  0.2801 -0.2070
 9491SOL    HW139932   4.561   1.824   5.718  1.2573 -0.6888  0.8084
 9491SOL    HW239933   4.471   1.767   5.813 -0.0711 -0.0059 -0.6415
 9492SOL     OW39934   1.474   0.179   9.071 -0.6860  0.4651  0.1359
 9492SOL    HW139935   1.450   0.190   9.164  1.7837  2.1920  0.5593
 9492SOL    HW239936   1.500   0.268   9.046  0.2053  0.2602  0.3376
 9493SOL     OW39937   1.141   0.047   7.720  0.6118  0.1781  0.5449
 9493SOL    HW139938   1.129   4.701   7.780  1.8842 -0.5258 -0.0703
 9493SOL    HW239939   1.093   0.014   7.644 -0.3414  0.0582  1.1902
 9494SOL     OW39940   2.477   3.500   0.302  0.3549 -0.2314 -0.0182
 9494SOL    HW139941   2.520   3.570   0.352  0.4186  0.9968 -1.7896
 9494SOL    HW239942   2.406   3.481   0.364  1.1469 -0.0512  0.9467
 9495SOL     OW39943   0.106   0.219  10.548  0.0585 -0.4429 -0.0855
 9495SOL    HW139944   0.024   0.249  10.589 -0.1477 -3.6675  1.8911
 9495SOL    HW239945   0.168   0.290  10.561 -0.9203 -0.1117  2.8669
 9496SOL     OW39946   3.262   3.465   3.652 -0.5500 -0.2758  0.0513
 9496SOL    HW139947   3.204   3.431   3.584 -0.8820 -2.5805  1.4828
 9496SOL    HW239948   3.208   3.492   3.726  0.6640  1.5702  0.2445
 9497SOL     OW39949   0.019   1.529   8.689  0.0572  0.0781  0.2511
 9497SOL    HW139950   4.705   1.452   8.728  0.1292  0.6162  1.3997
 9497SOL    HW239951   0.114   1.516   8.693 -0.5415 -3.8633  0.8123
 9498SOL     OW39952   4.062   3.345  11.611  0.0792  0.5210  0.0073
 9498SOL    HW139953   3.998   3.385  11.553  1.1405  1.8631 -0.2569
 9498SOL    HW239954   4.035   3.254  11.604  1.6315  0.0475  0.1115
 9499SOL     OW39955   4.089   2.103   3.679 -0.3099  0.1134 -0.0295
 9499SOL    HW139956   4.048   2.188   3.692 -0.1001 -0.0683  1.8835
 9499SOL    HW239957   4.142   2.118   3.601  0.5438 -0.2493  0.4706
 9500SOL     OW39958   0.164   3.877  12.281 -0.2799 -0.7352 -0.0588
 9500SOL    HW139959   0.140   3.787  12.261  3.1810 -1.3916 -1.3618
 9500SOL    HW239960   0.100   3.898  12.349 -1.4484  0.5110 -1.5513
 9501SOL     OW39961   4.051   1.420   5.667 -0.3279 -0.1209  0.4391
 9501SOL    HW139962   3.994   1.495   5.647 -0.2192  0.3818  2.0305
 9501SOL    HW239963   4.111   1.408   5.593 -0.9617  0.7731 -0.2211
 9502SOL     OW39964   2.718   3.650   3.330 -0.4116  0.4382  0.4190
 9502SOL    HW139965   2.767   3.663   3.249  2.7308  0.5186  2.3183
 9502SOL    HW239966   2.794   3.629   3.385 -1.1576 -0.8945  0.9206
 9503SOL     OW39967   2.336   1.912  12.352 -0.5215  0.0826  0.0781
 9503SOL    HW139968   2.245   1.927  12.328 -0.2089  0.3170 -0.9645
 9503SOL    HW239969   2.366   1.861  12.277 -0.0558  0.4938 -0.0162
 9504SOL     OW39970   0.293   2.604   0.546  0.2276 -0.2505  0.2980
 9504SOL    HW139971   0.259   2.623   0.634  1.4070 -1.6053  1.0502
 9504SOL    HW239972   0.233   2.536   0.519 -2.4398  2.1490  0.1756
 9505SOL     OW39973   3.487   1.220   7.588  0.0490  0.1733  0.3189
 9505SOL    HW139974   3.501   1.139   7.538  0.7733 -0.1254  1.0043
 9505SOL    HW239975   3.538   1.213   7.668 -0.7062  1.5363  0.9144
 9506SOL     OW39976   3.239   2.178   3.526  0.0981 -0.1546  1.0005
 9506SOL    HW139977   3.222   2.101   3.579  1.3967 -2.3068 -1.6861
 9506SOL    HW239978   3.251   2.245   3.593  2.9500  0.3443 -0.0133
 9507SOL     OW39979   2.784   1.163   3.700 -0.4208 -0.3865 -0.3317
 9507SOL    HW139980   2.772   1.206   3.785 -0.8407 -1.5375  0.1855
 9507SOL    HW239981   2.709   1.104   3.695 -2.2414  2.1317 -2.4869
 9508SOL     OW39982   3.397   4.086   0.018  0.8245  0.2958 -0.4159
 9508SOL    HW139983   3.487   4.105   0.045  0.4701  1.0931  0.1976
 9508SOL    HW239984   3.344   4.143   0.074  0.5147  0.5882 -1.0047
 9509SOL     OW39985   3.814   4.047  13.934 -0.3829  0.1679  0.1998
 9509SOL    HW139986   3.720   4.032  13.924 -0.0646 -3.1104  2.0185
 9509SOL    HW239987   3.836   4.107  13.863 -2.7093  0.5658 -0.1938
 9510SOL     OW39988   1.634   0.376   6.855  0.1410 -0.2050  0.0576
 9510SOL    HW139989   1.634   0.471   6.844 -0.2179 -0.5369 -2.8260
 9510SOL    HW239990   1.626   0.369   6.950 -0.9392 -0.9200 -0.0820
 9511SOL     OW39991   3.598   0.855  12.605  0.1626  0.4576 -0.2124
 9511SOL    HW139992   3.667   0.921  12.595 -0.7550  1.0983 -2.3905
 9511SOL    HW239993   3.581   0.821  12.517  0.4293  1.3911 -0.6240
 9512SOL     OW39994   1.844   2.760  13.022 -0.1545  0.0388  0.8855
 9512SOL    HW139995   1.800   2.777  12.939 -0.6311  1.6154  1.4695
 9512SOL    HW239996   1.828   2.841  13.070  0.1528  1.1605 -0.9107
 9513SOL     OW39997   4.118   2.232   1.808  0.1342  0.5228 -0.0684
 9513SOL    HW139998   4.190   2.262   1.863 -0.9517 -0.8503  2.0839
 9513SOL    HW239999   4.166   2.214   1.727  1.3849  1.7324  0.4119
 9514SOL     OW40000   0.338   0.672  11.012 -0.0942 -0.0385  0.1809
 9514SOL    HW140001   0.266   0.716  10.968  0.3021  0.1089 -0.3172
 9514SOL    HW240002   0.297   0.598  11.057  0.2889 -0.2339  0.2142
 9515SOL     OW40003   1.951   4.607   0.272  0.1348 -0.2401 -0.3378
 9515SOL    HW140004   1.929   4.693   0.236  0.3184  0.3577  0.9930
 9515SOL    HW240005   1.870   4.560   0.289  0.2671  0.1792  1.4348
 9516SOL     OW40006   4.272   2.548  11.629  0.0284 -0.1333  0.1252
 9516SOL    HW140007   4.186   2.584  11.610 -0.0027 -0.8470 -1.0606
 9516SOL    HW240008   4.268   2.463  11.586 -0.3705  0.9649 -1.9834
 9517SOL     OW40009   1.998   3.938   2.141  0.3347 -0.6546  0.9735
 9517SOL    HW140010   2.084   3.900   2.158 -0.5259 -0.9119  4.7222
 9517SOL    HW240011   2.015   3.989   2.062 -1.6423  0.8475  1.5249
 9518SOL     OW40012   3.757   2.060   5.024 -0.1519 -0.1635 -0.0803
 9518SOL    HW140013   3.729   2.150   5.038 -0.4397 -0.5203  1.6878
 9518SOL    HW240014   3.698   2.041   4.951 -1.4064 -2.5565  1.5601
 9519SOL     OW40015   1.059   2.597   5.817 -0.7813 -0.0271  0.1293
 9519SOL    HW140016   1.153   2.612   5.822 -0.2404 -2.9207 -1.7539
 9519SOL    HW240017   1.028   2.650   5.891  0.6168 -1.2799  1.6086
 9520SOL     OW40018   3.124   1.384   4.176 -0.1790  0.1832 -0.0265
 9520SOL    HW140019   3.218   1.386   4.196 -0.7702 -1.4698  2.8622
 9520SOL    HW240020   3.078   1.357   4.255  1.3045  0.8726  1.0784
 9521SOL     OW40021   2.943   2.778  13.483  0.1327  0.6147 -0.1152
 9521SOL    HW140022   2.949   2.721  13.407 -0.4449 -2.3604  2.0401
 9521SOL    HW240023   2.917   2.714  13.550 -1.6859  1.1194 -0.3305
 9522SOL     OW40024   0.997   0.473   0.894 -0.1524  0.6516  0.7135
 9522SOL    HW140025   1.013   0.468   0.800 -0.7538 -0.3416  0.6685
 9522SOL    HW240026   0.933   0.402   0.903 -1.0117  1.5270  1.4624
 9523SOL     OW40027   1.231   3.150   5.749  0.1514  0.1173  1.0507
 9523SOL    HW140028   1.221   3.229   5.696  2.0188  0.0911  0.6465
 9523SOL    HW240029   1.140   3.145   5.776  0.0327 -0.1778  0.5980
 9524SOL     OW40030   3.887   4.058   0.712 -0.1057  0.0762  0.3986
 9524SOL    HW140031   3.953   4.123   0.688  0.3579 -0.1785  0.9751
 9524SOL    HW240032   3.895   4.000   0.636 -1.0919  0.6299 -0.1208
 9525SOL     OW40033   3.304   1.329   8.314  0.0324 -0.2136 -0.1393
 9525SOL    HW140034   3.281   1.272   8.387  0.0071  1.6347  1.3051
 9525SOL    HW240035   3.400   1.321   8.311 -0.1837 -2.2991 -1.7336
 9526SOL     OW40036   0.059   2.546   6.271 -0.2268  0.7575 -0.1171
 9526SOL    HW140037   0.110   2.612   6.317  0.7767  0.2142 -0.4423
 9526SOL    HW240038   0.054   2.597   6.190  0.6923  1.8411  0.5172
 9527SOL     OW40039   2.287   0.072   9.318 -0.9562  0.1717  0.5511
 9527SOL    HW140040   2.332   0.004   9.268 -2.5289 -1.6880  1.6950
 9527SOL    HW240041   2.193   0.054   9.321 -1.4539  2.9465  1.5377
 9528SOL     OW40042   3.191   2.340   5.172  0.4532 -0.2798  0.1764
 9528SOL    HW140043   3.142   2.263   5.201  1.6692 -0.9779  0.3976
 9528SOL    HW240044   3.162   2.345   5.081  0.8059  3.6992  0.3108
 9529SOL     OW40045   3.870   3.426  11.467  0.2145 -0.6222 -0.3974
 9529SOL    HW140046   3.783   3.408  11.503  0.2281  2.6958  1.3436
 9529SOL    HW240047   3.857   3.402  11.376  0.4554 -0.3143 -0.5129
 9530SOL     OW40048   0.638   0.800   5.777  0.3700  0.4185 -0.5494
 9530SOL    HW140049   0.586   0.724   5.751  0.0493  0.4839 -0.1171
 9530SOL    HW240050   0.578   0.854   5.829 -0.2086  1.3039 -2.1435
 9531SOL     OW40051   0.712   4.485  16.789  0.1143  0.2380 -0.2128
 9531SOL    HW140052   0.652   4.417  16.761  0.2817 -0.4649  1.1500
 9531SOL    HW240053   0.756   4.498  16.705  0.1931 -0.7129 -0.3165
 9532SOL     OW40054   3.863   2.488  12.315 -0.0231 -0.2024  0.4979
 9532SOL    HW140055   3.888   2.575  12.287 -1.8110  1.2712  3.4318
 9532SOL    HW240056   3.868   2.495  12.411 -0.7124 -2.7868  0.7402
 9533SOL     OW40057   2.093   1.203   4.567 -0.3103 -0.2611  0.5198
 9533SOL    HW140058   2.072   1.200   4.660 -0.2501 -3.6735  0.4401
 9533SOL    HW240059   2.176   1.251   4.562  0.4263 -1.5146  0.5130
 9534SOL     OW40060   3.596   1.888   5.709  0.6543  0.1761  0.6071
 9534SOL    HW140061   3.546   1.962   5.674  1.0636 -0.1715 -0.7197
 9534SOL    HW240062   3.577   1.822   5.642 -2.1847 -0.1117  1.6951
 9535SOL     OW40063   2.372   1.655   1.549  0.4426  0.0534 -0.1068
 9535SOL    HW140064   2.296   1.649   1.608  0.5704  0.7775  0.1287
 9535SOL    HW240065   2.385   1.564   1.523 -1.9394 -0.2157 -0.3512
 9536SOL     OW40066   2.548   1.293  15.984 -0.2758  0.0913 -0.3522
 9536SOL    HW140067   2.563   1.356  16.055  0.3794  1.0126 -1.3035
 9536SOL    HW240068   2.457   1.266  15.997  0.2119 -1.7184 -0.7101
 9537SOL     OW40069   1.819   3.371  17.144 -0.3690  0.3071 -0.0164
 9537SOL    HW140070   1.910   3.364  17.115 -0.4436 -0.1373 -0.1436
 9537SOL    HW240071   1.796   3.278  17.148 -0.9262  0.4730  0.6110
 9538SOL     OW40072   1.155   1.067   5.197  0.2512  0.1791  0.1331
 9538SOL    HW140073   1.121   0.984   5.231  1.6338 -1.1965 -1.8368
 9538SOL    HW240074   1.244   1.035   5.182 -0.2062 -0.4333 -1.2645
 9539SOL     OW40075   3.047   0.867   6.888  0.3276  0.7121 -0.2019
 9539SOL    HW140076   3.024   0.775   6.899 -1.7154  1.1552 -0.7415
 9539SOL    HW240077   2.997   0.892   6.810  2.1879 -0.6467 -1.8232
 9540SOL     OW40078   1.714   0.563   3.004  0.3957 -0.4136 -0.2212
 9540SOL    HW140079   1.707   0.592   3.095  0.0472 -0.8309 -0.1104
 9540SOL    HW240080   1.629   0.519   2.997 -0.3006  1.0445 -0.8378
 9541SOL     OW40081   1.635   4.649   1.537  0.4231 -0.3540  0.1208
 9541SOL    HW140082   1.543   4.673   1.548  0.4478 -0.0034 -0.4679
 9541SOL    HW240083   1.672   4.660   1.625  0.8388  1.0960 -0.2243
 9542SOL     OW40084   2.091   1.915   3.582 -0.2368 -0.6455 -0.2716
 9542SOL    HW140085   2.076   1.887   3.492  2.6306  1.5669 -1.4298
 9542SOL    HW240086   2.186   1.898   3.579 -0.1036  0.3358 -1.4206
 9543SOL     OW40087   3.018   0.552   2.666  0.2393  0.4465  0.3790
 9543SOL    HW140088   3.051   0.638   2.638  0.6982  0.0151 -0.3990
 9543SOL    HW240089   2.924   0.568   2.655 -0.4099 -3.6196  0.1992
 9544SOL     OW40090   3.053   0.123   0.845  0.3138  0.5046  0.4856
 9544SOL    HW140091   3.099   0.207   0.846 -0.7405  1.0807  0.9282
 9544SOL    HW240092   3.042   0.099   0.753  0.6163  2.2362  0.0057
 9545SOL     OW40093   4.684   2.758   4.918  0.0357  0.1023 -0.2381
 9545SOL    HW140094   0.001   2.790   4.997 -1.8436 -0.4142  1.0295
 9545SOL    HW240095   4.614   2.816   4.891 -0.3387 -0.3801 -0.3058
 9546SOL     OW40096   4.033   4.723   6.190  0.5098  0.3999 -0.9712
 9546SOL    HW140097   4.071   0.027   6.272 -2.1230  0.6023  0.1718
 9546SOL    HW240098   4.051   0.061   6.123 -0.2058  0.6722 -0.8981
 9547SOL     OW40099   0.837   3.099   9.533 -0.5307  0.5666 -0.4288
 9547SOL    HW140100   0.840   3.091   9.437 -1.6586  0.0556 -0.4273
 9547SOL    HW240101   0.752   3.140   9.546  0.4537  2.0040  1.4412
 9548SOL     OW40102   0.119   3.448   0.964 -0.0611 -0.8218  0.5183
 9548SOL    HW140103   0.172   3.498   0.902 -1.1488  1.1875  1.1811
 9548SOL    HW240104   0.085   3.516   1.023 -0.1354 -0.1933 -0.2505
 9549SOL     OW40105   4.304   1.905   4.376  0.1416  0.3621 -0.5076
 9549SOL    HW140106   4.289   1.883   4.284 -1.5526  0.6690 -0.3010
 9549SOL    HW240107   4.353   1.824   4.388 -0.2359  0.4114  1.3434
 9550SOL     OW40108   4.696   2.477   4.239 -0.4027 -0.1223 -0.1348
 9550SOL    HW140109   4.649   2.555   4.268  2.0480  0.0632  3.4186
 9550SOL    HW240110   0.040   2.516   4.188  1.3332 -4.1882 -0.8278
 9551SOL     OW40111   4.555   1.472   8.404  0.8486 -0.0056 -0.7708
 9551SOL    HW140112   4.603   1.406   8.454  1.3570  0.4048 -0.7140
 9551SOL    HW240113   4.582   1.463   8.313  1.7345  0.0524 -0.5113
 9552SOL     OW40114   3.137   2.750   1.873  0.6517 -0.2023  0.1094
 9552SOL    HW140115   3.159   2.669   1.919 -2.4680 -0.6686  0.7299
 9552SOL    HW240116   3.075   2.795   1.930  0.6270 -0.1487  0.0413
 9553SOL     OW40117   3.761   2.797  11.925 -0.3839 -0.1994 -0.0614
 9553SOL    HW140118   3.729   2.810  12.014 -1.8720 -1.6670 -0.3675
 9553SOL    HW240119   3.699   2.741  11.877 -0.4003 -2.1440  2.2099
 9554SOL     OW40120   1.507   4.169   3.515 -0.7481 -0.7858  0.3741
 9554SOL    HW140121   1.428   4.152   3.566 -0.1331 -1.4437  1.1095
 9554SOL    HW240122   1.537   4.254   3.548 -1.8744 -0.6225  0.9623
 9555SOL     OW40123   2.546   2.757  12.633  0.4346 -0.4500  0.7193
 9555SOL    HW140124   2.462   2.742  12.588  0.7736 -0.6294  0.1520
 9555SOL    HW240125   2.590   2.678  12.603 -1.1648 -2.1166  2.7710
 9556SOL     OW40126   1.267   4.489   4.429  0.0437  0.6059  0.1198
 9556SOL    HW140127   1.296   4.414   4.480 -0.6947 -0.1652 -0.5841
 9556SOL    HW240128   1.303   4.484   4.340 -1.6116  1.2346 -0.5940
 9557SOL     OW40129   4.534   3.048  15.285  0.3001 -0.0164 -0.2217
 9557SOL    HW140130   4.440   3.059  15.269  0.3553 -1.2514 -1.3765
 9557SOL    HW240131   4.547   2.956  15.308  0.4659 -0.2965 -1.4231
 9558SOL     OW40132   1.267   3.221   8.479  0.5246  0.3766 -0.0877
 9558SOL    HW140133   1.286   3.265   8.562  1.0485 -2.8938  1.5124
 9558SOL    HW240134   1.171   3.219   8.483  0.6108 -1.0960  1.4457
 9559SOL     OW40135   0.350   1.612   7.176  0.2694 -0.6511  0.1815
 9559SOL    HW140136   0.393   1.536   7.135  0.2083 -0.2054 -0.7129
 9559SOL    HW240137   0.257   1.592   7.165 -0.8858  3.1976  3.0801
 9560SOL     OW40138   0.866   3.933   3.881  0.0337 -0.0548 -0.4105
 9560SOL    HW140139   0.818   4.010   3.850 -0.0197 -0.7647 -2.0875
 9560SOL    HW240140   0.858   3.939   3.976  0.1946  0.8053 -0.4521
 9561SOL     OW40141   3.490   3.698  17.072 -0.4571 -0.0761  0.2053
 9561SOL    HW140142   3.501   3.737  16.985 -0.5438  0.2278  0.3314
 9561SOL    HW240143   3.395   3.688  17.075 -0.3847 -1.1317 -0.8633
 9562SOL     OW40144   3.654   0.459   3.479 -0.6251 -0.1357 -0.0054
 9562SOL    HW140145   3.667   0.535   3.536  0.8324 -1.1964  1.0925
 9562SOL    HW240146   3.740   0.437   3.445 -0.1510  1.5445  0.0980
 9563SOL     OW40147   1.520   1.029   8.919 -0.2940 -0.0091  0.5833
 9563SOL    HW140148   1.528   1.125   8.918  0.5075 -0.0796  0.1016
 9563SOL    HW240149   1.613   1.006   8.923  0.3091  2.5261  1.1606
 9564SOL     OW40150   2.728   4.134   7.503  0.1859  0.1945  0.2577
 9564SOL    HW140151   2.686   4.051   7.482 -0.0974  0.5110 -0.4281
 9564SOL    HW240152   2.702   4.136   7.595 -0.2597 -0.8485  0.1534
 9565SOL     OW40153   3.941   2.433   8.484 -0.3227  0.2076  0.3062
 9565SOL    HW140154   3.927   2.400   8.573  0.2652 -2.1383 -0.4656
 9565SOL    HW240155   3.856   2.476   8.473  0.5239  1.9892  0.7652
   4.72743   4.72743  17.71050
